<event>
 4    1  0.2416490E+000  0.5107753E+02  0.7957747E-01  0.1439615E+00
         13   -1    0    0    0    0  0.00000000000E+00  0.00000000000E+00  0.99999944188E+02  0.10000000001E+03  0.10566000000E+00 0.  1.
         22   -1    0    0    0    0 -0.00000000000E+00 -0.00000000000E+00 -0.22294331318E+02  0.22294331318E+02  0.00000000000E+00 0. -1.
         13    1    1    2    0    0  0.17409772476E+01  0.10289958507E+02 -0.13917335941E+02  0.17395909047E+02  0.10566000000E+00 0. -1.
        996    1    1    2    0    0 -0.17409772476E+01 -0.10289958507E+02  0.91622948811E+02  0.10489842228E+03  0.50000000000E+02 0.  0.
<mgrwt>
<rscale>  0 0.51077532E+02</rscale>
<asrwt>0</asrwt>
<pdfrwt beam="1">  1       13 0.10000000E+01 0.51077532E+02</pdfrwt>
<pdfrwt beam="2">  1       22 0.22294353E+00 0.51077532E+02</pdfrwt>
<totfact> 0.36807183E-01</totfact>
</mgrwt>
</event>
<event>
 4    1  0.2416490E+000  0.6692101E+02  0.7957747E-01  0.1370888E+00
         13   -1    0    0    0    0  0.00000000000E+00  0.00000000000E+00  0.99999944182E+02  0.10000000000E+03  0.10566000000E+00 0. -1.
         22   -1    0    0    0    0 -0.00000000000E+00 -0.00000000000E+00 -0.31039762431E+02  0.31039762431E+02  0.00000000000E+00 0. -1.
         13    1    1    2    0    0  0.40045031380E+02  0.19360208293E+02  0.28926807200E+02  0.53058397472E+02  0.10566000000E+00 0.  1.
        996    1    1    2    0    0 -0.40045031380E+02 -0.19360208293E+02  0.40033374551E+02  0.77981364962E+02  0.50000000000E+02 0.  0.
<mgrwt>
<rscale>  0 0.66921015E+02</rscale>
<asrwt>0</asrwt>
<pdfrwt beam="1">  1       13 0.10000000E+01 0.66921015E+02</pdfrwt>
<pdfrwt beam="2">  1       22 0.31039782E+00 0.66921015E+02</pdfrwt>
<totfact> 0.19762426E-01</totfact>
</mgrwt>
</event>
<event>
 4    1  0.2416490E+000  0.5256903E+02  0.7957747E-01  0.1431958E+00
         13   -1    0    0    0    0  0.00000000000E+00  0.00000000000E+00  0.99999944178E+02  0.99999999998E+02  0.10566000000E+00 0. -1.
         22   -1    0    0    0    0 -0.00000000000E+00 -0.00000000000E+00 -0.20277523308E+02  0.20277523308E+02  0.00000000000E+00 0.  1.
         13    1    1    2    0    0 -0.98612903340E+00 -0.16202785889E+02 -0.79324208188E+01  0.18067572751E+02  0.10566000000E+00 0.  1.
        996    1    1    2    0    0  0.98612903340E+00  0.16202785889E+02  0.87654841689E+02  0.10220995056E+03  0.50000000000E+02 0.  0.
<mgrwt>
<rscale>  0 0.52569028E+02</rscale>
<asrwt>0</asrwt>
<pdfrwt beam="1">  1       13 0.10000000E+01 0.52569028E+02</pdfrwt>
<pdfrwt beam="2">  1       22 0.20277546E+00 0.52569028E+02</pdfrwt>
<totfact> 0.44199832E-01</totfact>
</mgrwt>
</event>
<event>
 4    1  0.2416490E+000  0.5111726E+02  0.7957747E-01  0.1439407E+00
         13   -1    0    0    0    0  0.00000000000E+00  0.00000000000E+00  0.99999944184E+02  0.10000000000E+03  0.10566000000E+00 0.  1.
         22   -1    0    0    0    0 -0.00000000000E+00 -0.00000000000E+00 -0.11808647251E+02  0.11808647251E+02  0.00000000000E+00 0. -1.
         13    1    1    2    0    0  0.55935708155E+01 -0.90380380638E+01  0.92041193858E+00  0.10669230932E+02  0.10566000000E+00 0. -1.
        996    1    1    2    0    0 -0.55935708155E+01  0.90380380638E+01  0.87270884994E+02  0.10113941632E+03  0.50000000000E+02 0.  0.
<mgrwt>
<rscale>  0 0.51117259E+02</rscale>
<asrwt>0</asrwt>
<pdfrwt beam="1">  1       13 0.10000000E+01 0.51117259E+02</pdfrwt>
<pdfrwt beam="2">  1       22 0.11808672E+00 0.51117259E+02</pdfrwt>
<totfact> 0.10994536E+00</totfact>
</mgrwt>
</event>
<event>
 4    1  0.2416490E+000  0.5101849E+02  0.7957747E-01  0.1439924E+00
         13   -1    0    0    0    0  0.00000000000E+00  0.00000000000E+00  0.99999944175E+02  0.99999999995E+02  0.10566000000E+00 0.  1.
         22   -1    0    0    0    0 -0.00000000000E+00 -0.00000000000E+00 -0.20116766232E+02  0.20116766232E+02  0.00000000000E+00 0. -1.
         13    1    1    2    0    0 -0.10036975322E+02  0.14645967271E+01 -0.11575108957E+02  0.15390913832E+02  0.10566000000E+00 0. -1.
        996    1    1    2    0    0  0.10036975322E+02 -0.14645967271E+01  0.91458286900E+02  0.10472585239E+03  0.50000000000E+02 0.  0.
<mgrwt>
<rscale>  0 0.51018486E+02</rscale>
<asrwt>0</asrwt>
<pdfrwt beam="1">  1       13 0.10000000E+01 0.51018486E+02</pdfrwt>
<pdfrwt beam="2">  1       22 0.20116789E+00 0.51018486E+02</pdfrwt>
<totfact> 0.44738563E-01</totfact>
</mgrwt>
</event>
<event>
 4    1  0.2416490E+000  0.5257024E+02  0.7957747E-01  0.1431952E+00
         13   -1    0    0    0    0  0.00000000000E+00  0.00000000000E+00  0.99999944176E+02  0.99999999996E+02  0.10566000000E+00 0. -1.
         22   -1    0    0    0    0 -0.00000000000E+00 -0.00000000000E+00 -0.48963366187E+02  0.48963366187E+02  0.00000000000E+00 0.  1.
         13    1    1    2    0    0 -0.13884018218E+02 -0.84181143855E+01 -0.40372622740E+02  0.43515404659E+02  0.10566000000E+00 0.  1.
        996    1    1    2    0    0  0.13884018218E+02  0.84181143855E+01  0.91409200729E+02  0.10544796152E+03  0.50000000000E+02 0.  0.
<mgrwt>
<rscale>  0 0.52570245E+02</rscale>
<asrwt>0</asrwt>
<pdfrwt beam="1">  1       13 0.10000000E+01 0.52570245E+02</pdfrwt>
<pdfrwt beam="2">  1       22 0.48963380E+00 0.52570245E+02</pdfrwt>
<totfact> 0.77997947E-02</totfact>
</mgrwt>
</event>
<event>
 4    1  0.2416490E+000  0.5400534E+02  0.7957747E-01  0.1424862E+00
         13   -1    0    0    0    0  0.00000000000E+00  0.00000000000E+00  0.99999944181E+02  0.10000000000E+03  0.10566000000E+00 0.  1.
         22   -1    0    0    0    0 -0.00000000000E+00 -0.00000000000E+00 -0.14621565674E+02  0.14621565674E+02  0.00000000000E+00 0.  1.
         13    1    1    2    0    0 -0.38839793253E+01  0.20037260178E+02  0.12571042619E+02  0.23971219565E+02  0.10566000000E+00 0. -1.
        996    1    1    2    0    0  0.38839793253E+01 -0.20037260178E+02  0.72807335887E+02  0.90650346110E+02  0.50000000000E+02 0.  0.
<mgrwt>
<rscale>  0 0.54005343E+02</rscale>
<asrwt>0</asrwt>
<pdfrwt beam="1">  1       13 0.10000000E+01 0.54005343E+02</pdfrwt>
<pdfrwt beam="2">  1       22 0.14621590E+00 0.54005343E+02</pdfrwt>
<totfact> 0.78867476E-01</totfact>
</mgrwt>
</event>
<event>
 4    1  0.2416490E+000  0.5101241E+02  0.7957747E-01  0.1439956E+00
         13   -1    0    0    0    0  0.00000000000E+00  0.00000000000E+00  0.99999944175E+02  0.99999999995E+02  0.10566000000E+00 0.  1.
         22   -1    0    0    0    0 -0.00000000000E+00 -0.00000000000E+00 -0.13536955189E+02  0.13536955189E+02  0.00000000000E+00 0. -1.
         13    1    1    2    0    0  0.54311625689E+01 -0.85304148216E+01 -0.30028342243E+01  0.10549582043E+02  0.10566000000E+00 0. -1.
        996    1    1    2    0    0 -0.54311625689E+01  0.85304148216E+01  0.89465823210E+02  0.10298737314E+03  0.50000000000E+02 0.  0.
<mgrwt>
<rscale>  0 0.51012405E+02</rscale>
<asrwt>0</asrwt>
<pdfrwt beam="1">  1       13 0.10000000E+01 0.51012405E+02</pdfrwt>
<pdfrwt beam="2">  1       22 0.13536979E+00 0.51012405E+02</pdfrwt>
<totfact> 0.88830879E-01</totfact>
</mgrwt>
</event>
<event>
 4    1  0.2416490E+000  0.5142268E+02  0.7957747E-01  0.1437816E+00
         13   -1    0    0    0    0  0.00000000000E+00  0.00000000000E+00  0.99999944172E+02  0.99999999992E+02  0.10566000000E+00 0.  1.
         22   -1    0    0    0    0 -0.00000000000E+00 -0.00000000000E+00 -0.11978509330E+02  0.11978509330E+02  0.00000000000E+00 0.  1.
         13    1    1    2    0    0 -0.69518161849E+01  0.97961247717E+01  0.26269989480E+01  0.12296507485E+02  0.10566000000E+00 0. -1.
        996    1    1    2    0    0  0.69518161849E+01 -0.97961247717E+01  0.85394435894E+02  0.99682001838E+02  0.50000000000E+02 0.  0.
<mgrwt>
<rscale>  0 0.51422678E+02</rscale>
<asrwt>0</asrwt>
<pdfrwt beam="1">  1       13 0.10000000E+01 0.51422678E+02</pdfrwt>
<pdfrwt beam="2">  1       22 0.11978534E+00 0.51422678E+02</pdfrwt>
<totfact> 0.10764953E+00</totfact>
</mgrwt>
</event>
<event>
 4    1  0.2416490E+000  0.5267770E+02  0.7957747E-01  0.1431412E+00
         13   -1    0    0    0    0  0.00000000000E+00  0.00000000000E+00  0.99999944176E+02  0.99999999996E+02  0.10566000000E+00 0. -1.
         22   -1    0    0    0    0 -0.00000000000E+00 -0.00000000000E+00 -0.12308811933E+02  0.12308811933E+02  0.00000000000E+00 0.  1.
         13    1    1    2    0    0 -0.13646722994E+01  0.16525077820E+02  0.13858421863E+02  0.21610357425E+02  0.10566000000E+00 0.  1.
        996    1    1    2    0    0  0.13646722994E+01 -0.16525077820E+02  0.73832710380E+02  0.90698454505E+02  0.50000000000E+02 0.  0.
<mgrwt>
<rscale>  0 0.52677704E+02</rscale>
<asrwt>0</asrwt>
<pdfrwt beam="1">  1       13 0.10000000E+01 0.52677704E+02</pdfrwt>
<pdfrwt beam="2">  1       22 0.12308836E+00 0.52677704E+02</pdfrwt>
<totfact> 0.10352698E+00</totfact>
</mgrwt>
</event>
<event>
 4    1  0.2416490E+000  0.5115203E+02  0.7957747E-01  0.1439225E+00
         13   -1    0    0    0    0  0.00000000000E+00  0.00000000000E+00  0.99999944175E+02  0.99999999995E+02  0.10566000000E+00 0.  1.
         22   -1    0    0    0    0 -0.00000000000E+00 -0.00000000000E+00 -0.14701060691E+02  0.14701060691E+02  0.00000000000E+00 0. -1.
         13    1    1    2    0    0  0.92744140622E+01 -0.55240482722E+01 -0.42260617640E+01  0.11593128464E+02  0.10566000000E+00 0. -1.
        996    1    1    2    0    0 -0.92744140622E+01  0.55240482722E+01  0.89524945248E+02  0.10310793222E+03  0.50000000000E+02 0.  0.
<mgrwt>
<rscale>  0 0.51152027E+02</rscale>
<asrwt>0</asrwt>
<pdfrwt beam="1">  1       13 0.10000000E+01 0.51152027E+02</pdfrwt>
<pdfrwt beam="2">  1       22 0.14701085E+00 0.51152027E+02</pdfrwt>
<totfact> 0.77711443E-01</totfact>
</mgrwt>
</event>
<event>
 4    1  0.2416490E+000  0.5262672E+02  0.7957747E-01  0.1431668E+00
         13   -1    0    0    0    0  0.00000000000E+00  0.00000000000E+00  0.99999944190E+02  0.10000000001E+03  0.10566000000E+00 0. -1.
         22   -1    0    0    0    0 -0.00000000000E+00 -0.00000000000E+00 -0.66970683834E+02  0.66970683834E+02  0.00000000000E+00 0.  1.
         13    1    1    2    0    0 -0.91506538147E+01 -0.13632200837E+02 -0.58844223335E+02  0.61091940130E+02  0.10566000000E+00 0.  1.
        996    1    1    2    0    0  0.91506538147E+01  0.13632200837E+02  0.91873483691E+02  0.10587874371E+03  0.50000000000E+02 0.  0.
<mgrwt>
<rscale>  0 0.52626717E+02</rscale>
<asrwt>0</asrwt>
<pdfrwt beam="1">  1       13 0.10000000E+01 0.52626717E+02</pdfrwt>
<pdfrwt beam="2">  1       22 0.66970693E+00 0.52626717E+02</pdfrwt>
<totfact> 0.86332681E-02</totfact>
</mgrwt>
</event>
<event>
 4    1  0.2416490E+000  0.5312117E+02  0.7957747E-01  0.1429199E+00
         13   -1    0    0    0    0  0.00000000000E+00  0.00000000000E+00  0.99999944177E+02  0.99999999997E+02  0.10566000000E+00 0. -1.
         22   -1    0    0    0    0 -0.00000000000E+00 -0.00000000000E+00 -0.16173558363E+02  0.16173558363E+02  0.00000000000E+00 0. -1.
         13    1    1    2    0    0 -0.61350428226E+01 -0.16858831718E+02  0.12471934893E+01  0.17984037727E+02  0.10566000000E+00 0.  1.
        996    1    1    2    0    0  0.61350428226E+01  0.16858831718E+02  0.82579192325E+02  0.98189520634E+02  0.50000000000E+02 0.  0.
<mgrwt>
<rscale>  0 0.53121172E+02</rscale>
<asrwt>0</asrwt>
<pdfrwt beam="1">  1       13 0.10000000E+01 0.53121172E+02</pdfrwt>
<pdfrwt beam="2">  1       22 0.16173582E+00 0.53121172E+02</pdfrwt>
<totfact> 0.66433669E-01</totfact>
</mgrwt>
</event>
<event>
 4    1  0.2416490E+000  0.5220822E+02  0.7957747E-01  0.1433782E+00
         13   -1    0    0    0    0  0.00000000000E+00  0.00000000000E+00  0.99999944173E+02  0.99999999993E+02  0.10566000000E+00 0. -1.
         22   -1    0    0    0    0 -0.00000000000E+00 -0.00000000000E+00 -0.22190310177E+02  0.22190310177E+02  0.00000000000E+00 0.  1.
         13    1    1    2    0    0  0.21066476140E+01 -0.14874819056E+02 -0.11377779536E+02  0.18845775052E+02  0.10566000000E+00 0.  1.
        996    1    1    2    0    0 -0.21066476140E+01  0.14874819056E+02  0.89187413532E+02  0.10334453512E+03  0.50000000000E+02 0.  0.
<mgrwt>
<rscale>  0 0.52208220E+02</rscale>
<asrwt>0</asrwt>
<pdfrwt beam="1">  1       13 0.10000000E+01 0.52208220E+02</pdfrwt>
<pdfrwt beam="2">  1       22 0.22190332E+00 0.52208220E+02</pdfrwt>
<totfact> 0.37212301E-01</totfact>
</mgrwt>
</event>
<event>
 4    1  0.2416490E+000  0.6553349E+02  0.7957747E-01  0.1375976E+00
         13   -1    0    0    0    0  0.00000000000E+00  0.00000000000E+00  0.99999944175E+02  0.99999999995E+02  0.10566000000E+00 0.  1.
         22   -1    0    0    0    0 -0.00000000000E+00 -0.00000000000E+00 -0.79865265890E+02  0.79865265890E+02  0.00000000000E+00 0. -1.
         13    1    1    2    0    0  0.31416904051E+02  0.28418601661E+02 -0.61812881648E+02  0.74936521684E+02  0.10566000000E+00 0. -1.
        996    1    1    2    0    0 -0.31416904051E+02 -0.28418601661E+02  0.81947559933E+02  0.10492874420E+03  0.50000000000E+02 0.  0.
<mgrwt>
<rscale>  0 0.65533494E+02</rscale>
<asrwt>0</asrwt>
<pdfrwt beam="1">  1       13 0.10000000E+01 0.65533494E+02</pdfrwt>
<pdfrwt beam="2">  1       22 0.79865272E+00 0.65533494E+02</pdfrwt>
<totfact> 0.31260103E-02</totfact>
</mgrwt>
</event>
<event>
 4    1  0.2416490E+000  0.7023658E+02  0.7957747E-01  0.1359290E+00
         13   -1    0    0    0    0  0.00000000000E+00  0.00000000000E+00  0.99999944181E+02  0.10000000000E+03  0.10566000000E+00 0.  1.
         22   -1    0    0    0    0 -0.00000000000E+00 -0.00000000000E+00 -0.37066277523E+02  0.37066277523E+02  0.00000000000E+00 0. -1.
         13    1    1    2    0    0 -0.49279812692E+02  0.21628460639E+01  0.13384263798E+02  0.51110933503E+02  0.10566000000E+00 0. -1.
        996    1    1    2    0    0  0.49279812692E+02 -0.21628460639E+01  0.49549402860E+02  0.85955344022E+02  0.50000000000E+02 0.  0.
<mgrwt>
<rscale>  0 0.70236585E+02</rscale>
<asrwt>0</asrwt>
<pdfrwt beam="1">  1       13 0.10000000E+01 0.70236585E+02</pdfrwt>
<pdfrwt beam="2">  1       22 0.37066295E+00 0.70236585E+02</pdfrwt>
<totfact> 0.14417913E-01</totfact>
</mgrwt>
</event>
<event>
 4    1  0.2416490E+000  0.5135379E+02  0.7957747E-01  0.1438173E+00
         13   -1    0    0    0    0  0.00000000000E+00  0.00000000000E+00  0.99999944175E+02  0.99999999995E+02  0.10566000000E+00 0. -1.
         22   -1    0    0    0    0 -0.00000000000E+00 -0.00000000000E+00 -0.10325597887E+02  0.10325597887E+02  0.00000000000E+00 0.  1.
         13    1    1    2    0    0 -0.65130780607E+01 -0.97360985431E+01  0.26045842830E+02  0.28558867160E+02  0.10566000000E+00 0.  1.
        996    1    1    2    0    0  0.65130780607E+01  0.97360985431E+01  0.63628503458E+02  0.81766730722E+02  0.50000000000E+02 0.  0.
<mgrwt>
<rscale>  0 0.51353791E+02</rscale>
<asrwt>0</asrwt>
<pdfrwt beam="1">  1       13 0.10000000E+01 0.51353791E+02</pdfrwt>
<pdfrwt beam="2">  1       22 0.10325623E+00 0.51353791E+02</pdfrwt>
<totfact> 0.13434994E+00</totfact>
</mgrwt>
</event>
<event>
 4    1  0.2416490E+000  0.6748275E+02  0.7957747E-01  0.1368868E+00
         13   -1    0    0    0    0  0.00000000000E+00  0.00000000000E+00  0.99999944191E+02  0.10000000001E+03  0.10566000000E+00 0. -1.
         22   -1    0    0    0    0 -0.00000000000E+00 -0.00000000000E+00 -0.76803042419E+02  0.76803042419E+02  0.00000000000E+00 0.  1.
         13    1    1    2    0    0 -0.12679767493E+01  0.45302472903E+02 -0.56463070128E+02  0.72401735259E+02  0.10566000000E+00 0.  1.
        996    1    1    2    0    0  0.12679767493E+01 -0.45302472903E+02  0.79659971900E+02  0.10440130717E+03  0.50000000000E+02 0.  0.
<mgrwt>
<rscale>  0 0.67482752E+02</rscale>
<asrwt>0</asrwt>
<pdfrwt beam="1">  1       13 0.10000000E+01 0.67482752E+02</pdfrwt>
<pdfrwt beam="2">  1       22 0.76803049E+00 0.67482752E+02</pdfrwt>
<totfact> 0.41456966E-02</totfact>
</mgrwt>
</event>
<event>
 4    1  0.2416490E+000  0.5170786E+02  0.7957747E-01  0.1436342E+00
         13   -1    0    0    0    0  0.00000000000E+00  0.00000000000E+00  0.99999944178E+02  0.99999999998E+02  0.10566000000E+00 0.  1.
         22   -1    0    0    0    0 -0.00000000000E+00 -0.00000000000E+00 -0.10741890359E+02  0.10741890359E+02  0.00000000000E+00 0.  1.
         13    1    1    2    0    0 -0.10816310848E+02 -0.75306397475E+01  0.12313031078E+02  0.18036768384E+02  0.10566000000E+00 0. -1.
        996    1    1    2    0    0  0.10816310848E+02  0.75306397475E+01  0.76945022741E+02  0.92705121973E+02  0.50000000000E+02 0.  0.
<mgrwt>
<rscale>  0 0.51707863E+02</rscale>
<asrwt>0</asrwt>
<pdfrwt beam="1">  1       13 0.10000000E+01 0.51707863E+02</pdfrwt>
<pdfrwt beam="2">  1       22 0.10741915E+00 0.51707863E+02</pdfrwt>
<totfact> 0.12687804E+00</totfact>
</mgrwt>
</event>
<event>
 4    1  0.2416490E+000  0.5113826E+02  0.7957747E-01  0.1439297E+00
         13   -1    0    0    0    0  0.00000000000E+00  0.00000000000E+00  0.99999944178E+02  0.99999999998E+02  0.10566000000E+00 0. -1.
         22   -1    0    0    0    0 -0.00000000000E+00 -0.00000000000E+00 -0.10791811521E+02  0.10791811521E+02  0.00000000000E+00 0. -1.
         13    1    1    2    0    0  0.15629131529E+01  0.10615055636E+02  0.40698976752E+01  0.11475945922E+02  0.10566000000E+00 0.  1.
        996    1    1    2    0    0 -0.15629131529E+01 -0.10615055636E+02  0.85138234981E+02  0.99315865597E+02  0.50000000000E+02 0.  0.
<mgrwt>
<rscale>  0 0.51138265E+02</rscale>
<asrwt>0</asrwt>
<pdfrwt beam="1">  1       13 0.10000000E+01 0.51138265E+02</pdfrwt>
<pdfrwt beam="2">  1       22 0.10791836E+00 0.51138265E+02</pdfrwt>
<totfact> 0.12584242E+00</totfact>
</mgrwt>
</event>
<event>
 4    1  0.2416490E+000  0.5194970E+02  0.7957747E-01  0.1435100E+00
         13   -1    0    0    0    0  0.00000000000E+00  0.00000000000E+00  0.99999944184E+02  0.10000000000E+03  0.10566000000E+00 0.  1.
         22   -1    0    0    0    0 -0.00000000000E+00 -0.00000000000E+00 -0.31040280887E+02  0.31040280887E+02  0.00000000000E+00 0.  1.
         13    1    1    2    0    0 -0.13424794846E+02 -0.43065660332E+01 -0.22093978940E+02  0.26209286466E+02  0.10566000000E+00 0. -1.
        996    1    1    2    0    0  0.13424794846E+02  0.43065660332E+01  0.91053642237E+02  0.10483099443E+03  0.50000000000E+02 0.  0.
<mgrwt>
<rscale>  0 0.51949703E+02</rscale>
<asrwt>0</asrwt>
<pdfrwt beam="1">  1       13 0.10000000E+01 0.51949703E+02</pdfrwt>
<pdfrwt beam="2">  1       22 0.31040300E+00 0.51949703E+02</pdfrwt>
<totfact> 0.19438789E-01</totfact>
</mgrwt>
</event>
<event>
 4    1  0.2416490E+000  0.6813129E+02  0.7957747E-01  0.1366565E+00
         13   -1    0    0    0    0  0.00000000000E+00  0.00000000000E+00  0.99999944179E+02  0.99999999999E+02  0.10566000000E+00 0. -1.
         22   -1    0    0    0    0 -0.00000000000E+00 -0.00000000000E+00 -0.38073600115E+02  0.38073600115E+02  0.00000000000E+00 0.  1.
         13    1    1    2    0    0  0.45475526588E+02  0.85935578977E+01  0.41405296779E+00  0.46282343931E+02  0.10566000000E+00 0.  1.
        996    1    1    2    0    0 -0.45475526588E+02 -0.85935578977E+01  0.61512291096E+02  0.91791256183E+02  0.50000000000E+02 0.  0.
<mgrwt>
<rscale>  0 0.68131291E+02</rscale>
<asrwt>0</asrwt>
<pdfrwt beam="1">  1       13 0.10000000E+01 0.68131291E+02</pdfrwt>
<pdfrwt beam="2">  1       22 0.38073617E+00 0.68131291E+02</pdfrwt>
<totfact> 0.13714461E-01</totfact>
</mgrwt>
</event>
<event>
 4    1  0.2416490E+000  0.6350912E+02  0.7957747E-01  0.1383669E+00
         13   -1    0    0    0    0  0.00000000000E+00  0.00000000000E+00  0.99999944174E+02  0.99999999994E+02  0.10566000000E+00 0.  1.
         22   -1    0    0    0    0 -0.00000000000E+00 -0.00000000000E+00 -0.37712929212E+02  0.37712929212E+02  0.00000000000E+00 0. -1.
         13    1    1    2    0    0 -0.18258031978E+02  0.34641784272E+02 -0.11060471430E+02  0.40690958966E+02  0.10566000000E+00 0. -1.
        996    1    1    2    0    0  0.18258031978E+02 -0.34641784272E+02  0.73347486392E+02  0.97021970240E+02  0.50000000000E+02 0.  0.
<mgrwt>
<rscale>  0 0.63509125E+02</rscale>
<asrwt>0</asrwt>
<pdfrwt beam="1">  1       13 0.10000000E+01 0.63509125E+02</pdfrwt>
<pdfrwt beam="2">  1       22 0.37712947E+00 0.63509125E+02</pdfrwt>
<totfact> 0.13909232E-01</totfact>
</mgrwt>
</event>
<event>
 4    1  0.2416490E+000  0.5227705E+02  0.7957747E-01  0.1433433E+00
         13   -1    0    0    0    0  0.00000000000E+00  0.00000000000E+00  0.99999944177E+02  0.99999999998E+02  0.10566000000E+00 0.  1.
         22   -1    0    0    0    0 -0.00000000000E+00 -0.00000000000E+00 -0.12484631387E+02  0.12484631387E+02  0.00000000000E+00 0. -1.
         13    1    1    2    0    0 -0.12149300794E+02  0.92349706674E+01  0.77534878254E+01  0.17117766516E+02  0.10566000000E+00 0. -1.
        996    1    1    2    0    0  0.12149300794E+02 -0.92349706674E+01  0.79761824965E+02  0.95366864868E+02  0.50000000000E+02 0.  0.
<mgrwt>
<rscale>  0 0.52277052E+02</rscale>
<asrwt>0</asrwt>
<pdfrwt beam="1">  1       13 0.10000000E+01 0.52277052E+02</pdfrwt>
<pdfrwt beam="2">  1       22 0.12484656E+00 0.52277052E+02</pdfrwt>
<totfact> 0.10118803E+00</totfact>
</mgrwt>
</event>
<event>
 4    1  0.2416490E+000  0.6369868E+02  0.7957747E-01  0.1382934E+00
         13   -1    0    0    0    0  0.00000000000E+00  0.00000000000E+00  0.99999944179E+02  0.99999999999E+02  0.10566000000E+00 0. -1.
         22   -1    0    0    0    0 -0.00000000000E+00 -0.00000000000E+00 -0.30548756586E+02  0.30548756586E+02  0.00000000000E+00 0.  1.
         13    1    1    2    0    0  0.39027540066E+02 -0.58627914583E+01  0.47446586272E+01  0.39749769267E+02  0.10566000000E+00 0.  1.
        996    1    1    2    0    0 -0.39027540066E+02  0.58627914583E+01  0.64706528966E+02  0.90798987318E+02  0.50000000000E+02 0.  0.
<mgrwt>
<rscale>  0 0.63698675E+02</rscale>
<asrwt>0</asrwt>
<pdfrwt beam="1">  1       13 0.10000000E+01 0.63698675E+02</pdfrwt>
<pdfrwt beam="2">  1       22 0.30548776E+00 0.63698675E+02</pdfrwt>
<totfact> 0.20290139E-01</totfact>
</mgrwt>
</event>
<event>
 4    1  0.2416490E+000  0.5171727E+02  0.7957747E-01  0.1436293E+00
         13   -1    0    0    0    0  0.00000000000E+00  0.00000000000E+00  0.99999944185E+02  0.10000000001E+03  0.10566000000E+00 0. -1.
         22   -1    0    0    0    0 -0.00000000000E+00 -0.00000000000E+00 -0.13154454811E+02  0.13154454811E+02  0.00000000000E+00 0.  1.
         13    1    1    2    0    0 -0.95552803328E+01 -0.91308676422E+01  0.14191908250E+01  0.13292907612E+02  0.10566000000E+00 0.  1.
        996    1    1    2    0    0  0.95552803328E+01  0.91308676422E+01  0.85426298549E+02  0.99861547204E+02  0.50000000000E+02 0.  0.
<mgrwt>
<rscale>  0 0.51717271E+02</rscale>
<asrwt>0</asrwt>
<pdfrwt beam="1">  1       13 0.10000000E+01 0.51717271E+02</pdfrwt>
<pdfrwt beam="2">  1       22 0.13154479E+00 0.51717271E+02</pdfrwt>
<totfact> 0.93115701E-01</totfact>
</mgrwt>
</event>
<event>
 4    1  0.2416490E+000  0.5310139E+02  0.7957747E-01  0.1429297E+00
         13   -1    0    0    0    0  0.00000000000E+00  0.00000000000E+00  0.99999944176E+02  0.99999999997E+02  0.10566000000E+00 0. -1.
         22   -1    0    0    0    0 -0.00000000000E+00 -0.00000000000E+00 -0.22157815110E+02  0.22157815110E+02  0.00000000000E+00 0.  1.
         13    1    1    2    0    0  0.17535934741E+02 -0.34998416382E+01 -0.92660332709E+01  0.20140219347E+02  0.10566000000E+00 0.  1.
        996    1    1    2    0    0 -0.17535934741E+02  0.34998416382E+01  0.87108162337E+02  0.10201759576E+03  0.50000000000E+02 0.  0.
<mgrwt>
<rscale>  0 0.53101393E+02</rscale>
<asrwt>0</asrwt>
<pdfrwt beam="1">  1       13 0.10000000E+01 0.53101393E+02</pdfrwt>
<pdfrwt beam="2">  1       22 0.22157837E+00 0.53101393E+02</pdfrwt>
<totfact> 0.37373456E-01</totfact>
</mgrwt>
</event>
<event>
 4    1  0.2416490E+000  0.5167371E+02  0.7957747E-01  0.1436518E+00
         13   -1    0    0    0    0  0.00000000000E+00  0.00000000000E+00  0.99999944182E+02  0.10000000000E+03  0.10566000000E+00 0. -1.
         22   -1    0    0    0    0 -0.00000000000E+00 -0.00000000000E+00 -0.58930988190E+02  0.58930988190E+02  0.00000000000E+00 0.  1.
         13    1    1    2    0    0 -0.61155633238E+00 -0.13030651757E+02 -0.51385688351E+02  0.53015771405E+02  0.10566000000E+00 0.  1.
        996    1    1    2    0    0  0.61155633238E+00  0.13030651757E+02  0.92454644343E+02  0.10591521679E+03  0.50000000000E+02 0.  0.
<mgrwt>
<rscale>  0 0.51673706E+02</rscale>
<asrwt>0</asrwt>
<pdfrwt beam="1">  1       13 0.10000000E+01 0.51673706E+02</pdfrwt>
<pdfrwt beam="2">  1       22 0.58931000E+00 0.51673706E+02</pdfrwt>
<totfact> 0.60228170E-02</totfact>
</mgrwt>
</event>
<event>
 4    1  0.2416490E+000  0.5249845E+02  0.7957747E-01  0.1432313E+00
         13   -1    0    0    0    0  0.00000000000E+00  0.00000000000E+00  0.99999944183E+02  0.10000000000E+03  0.10566000000E+00 0.  1.
         22   -1    0    0    0    0 -0.00000000000E+00 -0.00000000000E+00 -0.57578978050E+02  0.57578978050E+02  0.00000000000E+00 0. -1.
         13    1    1    2    0    0 -0.13922745604E+02 -0.78895278088E+01 -0.49335188830E+02  0.51865783664E+02  0.10566000000E+00 0. -1.
        996    1    1    2    0    0  0.13922745604E+02  0.78895278088E+01  0.91756154963E+02  0.10571319439E+03  0.50000000000E+02 0.  0.
<mgrwt>
<rscale>  0 0.52498452E+02</rscale>
<asrwt>0</asrwt>
<pdfrwt beam="1">  1       13 0.10000000E+01 0.52498452E+02</pdfrwt>
<pdfrwt beam="2">  1       22 0.57578990E+00 0.52498452E+02</pdfrwt>
<totfact> 0.57884876E-02</totfact>
</mgrwt>
</event>
<event>
 4    1  0.2416490E+000  0.5134030E+02  0.7957747E-01  0.1438244E+00
         13   -1    0    0    0    0  0.00000000000E+00  0.00000000000E+00  0.99999944180E+02  0.10000000000E+03  0.10566000000E+00 0. -1.
         22   -1    0    0    0    0 -0.00000000000E+00 -0.00000000000E+00 -0.15298556531E+02  0.15298556531E+02  0.00000000000E+00 0.  1.
         13    1    1    2    0    0 -0.80010799342E+00 -0.11626965808E+02 -0.44053013938E+01  0.12459709110E+02  0.10566000000E+00 0.  1.
        996    1    1    2    0    0  0.80010799342E+00  0.11626965808E+02  0.89106689043E+02  0.10283884742E+03  0.50000000000E+02 0.  0.
<mgrwt>
<rscale>  0 0.51340301E+02</rscale>
<asrwt>0</asrwt>
<pdfrwt beam="1">  1       13 0.10000000E+01 0.51340301E+02</pdfrwt>
<pdfrwt beam="2">  1       22 0.15298580E+00 0.51340301E+02</pdfrwt>
<totfact> 0.72754325E-01</totfact>
</mgrwt>
</event>
<event>
 4    1  0.2416490E+000  0.5860944E+02  0.7957747E-01  0.1403762E+00
         13   -1    0    0    0    0  0.00000000000E+00  0.00000000000E+00  0.99999944184E+02  0.10000000000E+03  0.10566000000E+00 0. -1.
         22   -1    0    0    0    0 -0.00000000000E+00 -0.00000000000E+00 -0.24370646936E+02  0.24370646936E+02  0.00000000000E+00 0.  1.
         13    1    1    2    0    0 -0.11704981738E+02  0.28249956758E+02  0.25399238288E+01  0.30684345054E+02  0.10566000000E+00 0.  1.
        996    1    1    2    0    0  0.11704981738E+02 -0.28249956758E+02  0.73089373419E+02  0.93686301886E+02  0.50000000000E+02 0.  0.
<mgrwt>
<rscale>  0 0.58609442E+02</rscale>
<asrwt>0</asrwt>
<pdfrwt beam="1">  1       13 0.10000000E+01 0.58609442E+02</pdfrwt>
<pdfrwt beam="2">  1       22 0.24370668E+00 0.58609442E+02</pdfrwt>
<totfact> 0.31302523E-01</totfact>
</mgrwt>
</event>
<event>
 4    1  0.2416490E+000  0.5155855E+02  0.7957747E-01  0.1437112E+00
         13   -1    0    0    0    0  0.00000000000E+00  0.00000000000E+00  0.99999944177E+02  0.99999999998E+02  0.10566000000E+00 0. -1.
         22   -1    0    0    0    0 -0.00000000000E+00 -0.00000000000E+00 -0.11176591288E+02  0.11176591288E+02  0.00000000000E+00 0. -1.
         13    1    1    2    0    0  0.12274275278E+02 -0.27615110002E+01  0.68187253368E+01  0.14310484124E+02  0.10566000000E+00 0.  1.
        996    1    1    2    0    0 -0.12274275278E+02  0.27615110002E+01  0.82004627553E+02  0.96866107162E+02  0.50000000000E+02 0.  0.
<mgrwt>
<rscale>  0 0.51558547E+02</rscale>
<asrwt>0</asrwt>
<pdfrwt beam="1">  1       13 0.10000000E+01 0.51558547E+02</pdfrwt>
<pdfrwt beam="2">  1       22 0.11176616E+00 0.51558547E+02</pdfrwt>
<totfact> 0.11957326E+00</totfact>
</mgrwt>
</event>
<event>
 4    1  0.2416490E+000  0.5345913E+02  0.7957747E-01  0.1427530E+00
         13   -1    0    0    0    0  0.00000000000E+00  0.00000000000E+00  0.99999944170E+02  0.99999999991E+02  0.10566000000E+00 0. -1.
         22   -1    0    0    0    0 -0.00000000000E+00 -0.00000000000E+00 -0.69143129242E+02  0.69143129242E+02  0.00000000000E+00 0.  1.
         13    1    1    2    0    0  0.18838244442E+02 -0.17316922368E+01 -0.60448080554E+02  0.63339243904E+02  0.10566000000E+00 0.  1.
        996    1    1    2    0    0 -0.18838244442E+02  0.17316922368E+01  0.91304895482E+02  0.10580388533E+03  0.50000000000E+02 0.  0.
<mgrwt>
<rscale>  0 0.53459127E+02</rscale>
<asrwt>0</asrwt>
<pdfrwt beam="1">  1       13 0.10000000E+01 0.53459127E+02</pdfrwt>
<pdfrwt beam="2">  1       22 0.69143138E+00 0.53459127E+02</pdfrwt>
<totfact> 0.78808983E-02</totfact>
</mgrwt>
</event>
<event>
 4    1  0.2416490E+000  0.5215997E+02  0.7957747E-01  0.1434028E+00
         13   -1    0    0    0    0  0.00000000000E+00  0.00000000000E+00  0.99999944179E+02  0.10000000000E+03  0.10566000000E+00 0. -1.
         22   -1    0    0    0    0 -0.00000000000E+00 -0.00000000000E+00 -0.11371247858E+02  0.11371247858E+02  0.00000000000E+00 0. -1.
         13    1    1    2    0    0  0.14549816637E+02 -0.29942663291E+01  0.25173414494E+02  0.29229689638E+02  0.10566000000E+00 0.  1.
        996    1    1    2    0    0 -0.14549816637E+02  0.29942663291E+01  0.63455281827E+02  0.82141558219E+02  0.50000000000E+02 0.  0.
<mgrwt>
<rscale>  0 0.52159973E+02</rscale>
<asrwt>0</asrwt>
<pdfrwt beam="1">  1       13 0.10000000E+01 0.52159973E+02</pdfrwt>
<pdfrwt beam="2">  1       22 0.11371273E+00 0.52159973E+02</pdfrwt>
<totfact> 0.11667916E+00</totfact>
</mgrwt>
</event>
<event>
 4    1  0.2416490E+000  0.5515574E+02  0.7957747E-01  0.1419364E+00
         13   -1    0    0    0    0  0.00000000000E+00  0.00000000000E+00  0.99999944175E+02  0.99999999995E+02  0.10566000000E+00 0.  1.
         22   -1    0    0    0    0 -0.00000000000E+00 -0.00000000000E+00 -0.17495252868E+02  0.17495252868E+02  0.00000000000E+00 0. -1.
         13    1    1    2    0    0  0.12816819960E+02 -0.19439246672E+02  0.76383145961E+01  0.24505309607E+02  0.10566000000E+00 0. -1.
        996    1    1    2    0    0 -0.12816819960E+02  0.19439246672E+02  0.74866376710E+02  0.92989943256E+02  0.50000000000E+02 0.  0.
<mgrwt>
<rscale>  0 0.55155736E+02</rscale>
<asrwt>0</asrwt>
<pdfrwt beam="1">  1       13 0.10000000E+01 0.55155736E+02</pdfrwt>
<pdfrwt beam="2">  1       22 0.17495276E+00 0.55155736E+02</pdfrwt>
<totfact> 0.58136952E-01</totfact>
</mgrwt>
</event>
<event>
 4    1  0.2416490E+000  0.5126360E+02  0.7957747E-01  0.1438643E+00
         13   -1    0    0    0    0  0.00000000000E+00  0.00000000000E+00  0.99999944175E+02  0.99999999995E+02  0.10566000000E+00 0.  1.
         22   -1    0    0    0    0 -0.00000000000E+00 -0.00000000000E+00 -0.13937282623E+02  0.13937282623E+02  0.00000000000E+00 0. -1.
         13    1    1    2    0    0  0.10287025052E+02 -0.47046486443E+01 -0.25209447844E+01  0.11589776958E+02  0.10566000000E+00 0. -1.
        996    1    1    2    0    0 -0.10287025052E+02  0.47046486443E+01  0.88583606337E+02  0.10234750566E+03  0.50000000000E+02 0.  0.
<mgrwt>
<rscale>  0 0.51263599E+02</rscale>
<asrwt>0</asrwt>
<pdfrwt beam="1">  1       13 0.10000000E+01 0.51263599E+02</pdfrwt>
<pdfrwt beam="2">  1       22 0.13937307E+00 0.51263599E+02</pdfrwt>
<totfact> 0.84810272E-01</totfact>
</mgrwt>
</event>
<event>
 4    1  0.2416490E+000  0.5972453E+02  0.7957747E-01  0.1398991E+00
         13   -1    0    0    0    0  0.00000000000E+00  0.00000000000E+00  0.99999944184E+02  0.10000000000E+03  0.10566000000E+00 0. -1.
         22   -1    0    0    0    0 -0.00000000000E+00 -0.00000000000E+00 -0.67046348838E+02  0.67046348838E+02  0.00000000000E+00 0.  1.
         13    1    1    2    0    0  0.23349456379E+02 -0.22843430008E+02 -0.53073079645E+02  0.62319999637E+02  0.10566000000E+00 0.  1.
        996    1    1    2    0    0 -0.23349456379E+02  0.22843430008E+02  0.86026674991E+02  0.10472634921E+03  0.50000000000E+02 0.  0.
<mgrwt>
<rscale>  0 0.59724529E+02</rscale>
<asrwt>0</asrwt>
<pdfrwt beam="1">  1       13 0.10000000E+01 0.59724529E+02</pdfrwt>
<pdfrwt beam="2">  1       22 0.67046358E+00 0.59724529E+02</pdfrwt>
<totfact> 0.86175564E-02</totfact>
</mgrwt>
</event>
<event>
 4    1  0.2416490E+000  0.5683559E+02  0.7957747E-01  0.1411612E+00
         13   -1    0    0    0    0  0.00000000000E+00  0.00000000000E+00  0.99999944181E+02  0.10000000000E+03  0.10566000000E+00 0. -1.
         22   -1    0    0    0    0 -0.00000000000E+00 -0.00000000000E+00 -0.23184708959E+02  0.23184708959E+02  0.00000000000E+00 0.  1.
         13    1    1    2    0    0  0.26401000332E+02 -0.57681353294E+01 -0.73899887158E+00  0.27034080104E+02  0.10566000000E+00 0.  1.
        996    1    1    2    0    0 -0.26401000332E+02  0.57681353294E+01  0.77554234093E+02  0.96150628856E+02  0.50000000000E+02 0.  0.
<mgrwt>
<rscale>  0 0.56835589E+02</rscale>
<asrwt>0</asrwt>
<pdfrwt beam="1">  1       13 0.10000000E+01 0.56835589E+02</pdfrwt>
<pdfrwt beam="2">  1       22 0.23184730E+00 0.56835589E+02</pdfrwt>
<totfact> 0.34431501E-01</totfact>
</mgrwt>
</event>
<event>
 4    1  0.2416490E+000  0.5159895E+02  0.7957747E-01  0.1436903E+00
         13   -1    0    0    0    0  0.00000000000E+00  0.00000000000E+00  0.99999944167E+02  0.99999999987E+02  0.10566000000E+00 0.  1.
         22   -1    0    0    0    0 -0.00000000000E+00 -0.00000000000E+00 -0.27159672313E+02  0.27159672313E+02  0.00000000000E+00 0. -1.
         13    1    1    2    0    0 -0.11612797899E+02  0.52530203696E+01 -0.18374065556E+02  0.22362216955E+02  0.10566000000E+00 0. -1.
        996    1    1    2    0    0  0.11612797899E+02 -0.52530203696E+01  0.91214337409E+02  0.10479745535E+03  0.50000000000E+02 0.  0.
<mgrwt>
<rscale>  0 0.51598947E+02</rscale>
<asrwt>0</asrwt>
<pdfrwt beam="1">  1       13 0.10000000E+01 0.51598947E+02</pdfrwt>
<pdfrwt beam="2">  1       22 0.27159693E+00 0.51598947E+02</pdfrwt>
<totfact> 0.25037367E-01</totfact>
</mgrwt>
</event>
<event>
 4    1  0.2416490E+000  0.5108990E+02  0.7957747E-01  0.1439550E+00
         13   -1    0    0    0    0  0.00000000000E+00  0.00000000000E+00  0.99999944176E+02  0.99999999997E+02  0.10566000000E+00 0.  1.
         22   -1    0    0    0    0 -0.00000000000E+00 -0.00000000000E+00 -0.16219109755E+02  0.16219109755E+02  0.00000000000E+00 0. -1.
         13    1    1    2    0    0 -0.10487088753E+02 -0.44641248045E+00 -0.65987025838E+01  0.12398885209E+02  0.10566000000E+00 0. -1.
        996    1    1    2    0    0  0.10487088753E+02  0.44641248045E+00  0.90379537006E+02  0.10382022454E+03  0.50000000000E+02 0.  0.
<mgrwt>
<rscale>  0 0.51089904E+02</rscale>
<asrwt>0</asrwt>
<pdfrwt beam="1">  1       13 0.10000000E+01 0.51089904E+02</pdfrwt>
<pdfrwt beam="2">  1       22 0.16219133E+00 0.51089904E+02</pdfrwt>
<totfact> 0.65848788E-01</totfact>
</mgrwt>
</event>
<event>
 4    1  0.2416490E+000  0.5440509E+02  0.7957747E-01  0.1422933E+00
         13   -1    0    0    0    0  0.00000000000E+00  0.00000000000E+00  0.99999944179E+02  0.99999999999E+02  0.10566000000E+00 0. -1.
         22   -1    0    0    0    0 -0.00000000000E+00 -0.00000000000E+00 -0.14609754659E+02  0.14609754659E+02  0.00000000000E+00 0.  1.
         13    1    1    2    0    0  0.61260683854E+01 -0.20552011883E+02  0.17994459005E+02  0.27995100022E+02  0.10566000000E+00 0.  1.
        996    1    1    2    0    0 -0.61260683854E+01  0.20552011883E+02  0.67395730515E+02  0.86614654637E+02  0.50000000000E+02 0.  0.
<mgrwt>
<rscale>  0 0.54405091E+02</rscale>
<asrwt>0</asrwt>
<pdfrwt beam="1">  1       13 0.10000000E+01 0.54405091E+02</pdfrwt>
<pdfrwt beam="2">  1       22 0.14609778E+00 0.54405091E+02</pdfrwt>
<totfact> 0.79035029E-01</totfact>
</mgrwt>
</event>
<event>
 4    1  0.2416490E+000  0.6450424E+02  0.7957747E-01  0.1379846E+00
         13   -1    0    0    0    0  0.00000000000E+00  0.00000000000E+00  0.99999944184E+02  0.10000000000E+03  0.10566000000E+00 0. -1.
         22   -1    0    0    0    0 -0.00000000000E+00 -0.00000000000E+00 -0.28084935686E+02  0.28084935686E+02  0.00000000000E+00 0. -1.
         13    1    1    2    0    0  0.28286969392E+02 -0.29336746413E+02  0.35284295905E+02  0.53905380335E+02  0.10566000000E+00 0.  1.
        996    1    1    2    0    0 -0.28286969392E+02  0.29336746413E+02  0.36630712594E+02  0.74179555355E+02  0.50000000000E+02 0.  0.
<mgrwt>
<rscale>  0 0.64504243E+02</rscale>
<asrwt>0</asrwt>
<pdfrwt beam="1">  1       13 0.10000000E+01 0.64504243E+02</pdfrwt>
<pdfrwt beam="2">  1       22 0.28084956E+00 0.64504243E+02</pdfrwt>
<totfact> 0.23846550E-01</totfact>
</mgrwt>
</event>
<event>
 4    1  0.2416490E+000  0.5199499E+02  0.7957747E-01  0.1434869E+00
         13   -1    0    0    0    0  0.00000000000E+00  0.00000000000E+00  0.99999944187E+02  0.10000000001E+03  0.10566000000E+00 0.  1.
         22   -1    0    0    0    0 -0.00000000000E+00 -0.00000000000E+00 -0.11548285421E+02  0.11548285421E+02  0.00000000000E+00 0. -1.
         13    1    1    2    0    0  0.13768610487E+02  0.37288584490E+01  0.99630655192E+01  0.17399794787E+02  0.10566000000E+00 0. -1.
        996    1    1    2    0    0 -0.13768610487E+02 -0.37288584490E+01  0.78488593247E+02  0.94148490641E+02  0.50000000000E+02 0.  0.
<mgrwt>
<rscale>  0 0.51994990E+02</rscale>
<asrwt>0</asrwt>
<pdfrwt beam="1">  1       13 0.10000000E+01 0.51994990E+02</pdfrwt>
<pdfrwt beam="2">  1       22 0.11548310E+00 0.51994990E+02</pdfrwt>
<totfact> 0.11395159E+00</totfact>
</mgrwt>
</event>
<event>
 4    1  0.2416490E+000  0.5105471E+02  0.7957747E-01  0.1439734E+00
         13   -1    0    0    0    0  0.00000000000E+00  0.00000000000E+00  0.99999944178E+02  0.99999999999E+02  0.10566000000E+00 0. -1.
         22   -1    0    0    0    0 -0.00000000000E+00 -0.00000000000E+00 -0.96654829256E+01  0.96654829256E+01  0.00000000000E+00 0. -1.
         13    1    1    2    0    0 -0.68092241421E+00  0.10301449188E+02  0.93378551714E+01  0.13920855360E+02  0.10566000000E+00 0.  1.
        996    1    1    2    0    0  0.68092241421E+00 -0.10301449188E+02  0.80996606081E+02  0.95744627564E+02  0.50000000000E+02 0.  0.
<mgrwt>
<rscale>  0 0.51054711E+02</rscale>
<asrwt>0</asrwt>
<pdfrwt beam="1">  1       13 0.10000000E+01 0.51054711E+02</pdfrwt>
<pdfrwt beam="2">  1       22 0.96655081E-01 0.51054711E+02</pdfrwt>
<totfact> 0.14772643E+00</totfact>
</mgrwt>
</event>
<event>
 4    1  0.2416490E+000  0.5534846E+02  0.7957747E-01  0.1418458E+00
         13   -1    0    0    0    0  0.00000000000E+00  0.00000000000E+00  0.99999944186E+02  0.10000000001E+03  0.10566000000E+00 0.  1.
         22   -1    0    0    0    0 -0.00000000000E+00 -0.00000000000E+00 -0.17155123479E+02  0.17155123479E+02  0.00000000000E+00 0.  1.
         13    1    1    2    0    0 -0.16484112389E+02 -0.17079986606E+02  0.42441489959E+02  0.48628624674E+02  0.10566000000E+00 0. -1.
        996    1    1    2    0    0  0.16484112389E+02  0.17079986606E+02  0.40403330748E+02  0.68526498811E+02  0.50000000000E+02 0.  0.
<mgrwt>
<rscale>  0 0.55348459E+02</rscale>
<asrwt>0</asrwt>
<pdfrwt beam="1">  1       13 0.10000000E+01 0.55348459E+02</pdfrwt>
<pdfrwt beam="2">  1       22 0.17155147E+00 0.55348459E+02</pdfrwt>
<totfact> 0.60211600E-01</totfact>
</mgrwt>
</event>
<event>
 4    1  0.2416490E+000  0.5970015E+02  0.7957747E-01  0.1399094E+00
         13   -1    0    0    0    0  0.00000000000E+00  0.00000000000E+00  0.99999944174E+02  0.99999999994E+02  0.10566000000E+00 0. -1.
         22   -1    0    0    0    0 -0.00000000000E+00 -0.00000000000E+00 -0.44558913060E+02  0.44558913060E+02  0.00000000000E+00 0.  1.
         13    1    1    2    0    0 -0.22158579696E+02 -0.23939605878E+02 -0.27294116262E+02  0.42533367258E+02  0.10566000000E+00 0.  1.
        996    1    1    2    0    0  0.22158579696E+02  0.23939605878E+02  0.82735147376E+02  0.10202554580E+03  0.50000000000E+02 0.  0.
<mgrwt>
<rscale>  0 0.59700146E+02</rscale>
<asrwt>0</asrwt>
<pdfrwt beam="1">  1       13 0.10000000E+01 0.59700146E+02</pdfrwt>
<pdfrwt beam="2">  1       22 0.44558929E+00 0.59700146E+02</pdfrwt>
<totfact> 0.99281877E-02</totfact>
</mgrwt>
</event>
<event>
 4    1  0.2416490E+000  0.6730114E+02  0.7957747E-01  0.1369519E+00
         13   -1    0    0    0    0  0.00000000000E+00  0.00000000000E+00  0.99999944187E+02  0.10000000001E+03  0.10566000000E+00 0. -1.
         22   -1    0    0    0    0 -0.00000000000E+00 -0.00000000000E+00 -0.35373175578E+02  0.35373175578E+02  0.00000000000E+00 0.  1.
         13    1    1    2    0    0 -0.39242499744E+02  0.22123964181E+02  0.47633833566E+01  0.45300602228E+02  0.10566000000E+00 0.  1.
        996    1    1    2    0    0  0.39242499744E+02 -0.22123964181E+02  0.59863385252E+02  0.90072573357E+02  0.50000000000E+02 0.  0.
<mgrwt>
<rscale>  0 0.67301141E+02</rscale>
<asrwt>0</asrwt>
<pdfrwt beam="1">  1       13 0.10000000E+01 0.67301141E+02</pdfrwt>
<pdfrwt beam="2">  1       22 0.35373194E+00 0.67301141E+02</pdfrwt>
<totfact> 0.15637269E-01</totfact>
</mgrwt>
</event>
<event>
 4    1  0.2416490E+000  0.5265063E+02  0.7957747E-01  0.1431547E+00
         13   -1    0    0    0    0  0.00000000000E+00  0.00000000000E+00  0.99999944174E+02  0.99999999994E+02  0.10566000000E+00 0.  1.
         22   -1    0    0    0    0 -0.00000000000E+00 -0.00000000000E+00 -0.22921709790E+02  0.22921709790E+02  0.00000000000E+00 0. -1.
         13    1    1    2    0    0 -0.78678397650E+00  0.16476342620E+02 -0.11338047900E+02  0.20016278110E+02  0.10566000000E+00 0. -1.
        996    1    1    2    0    0  0.78678397650E+00 -0.16476342620E+02  0.88416282284E+02  0.10290543167E+03  0.50000000000E+02 0.  0.
<mgrwt>
<rscale>  0 0.52650631E+02</rscale>
<asrwt>0</asrwt>
<pdfrwt beam="1">  1       13 0.10000000E+01 0.52650631E+02</pdfrwt>
<pdfrwt beam="2">  1       22 0.22921731E+00 0.52650631E+02</pdfrwt>
<totfact> 0.34974458E-01</totfact>
</mgrwt>
</event>
<event>
 4    1  0.2416490E+000  0.5273537E+02  0.7957747E-01  0.1431122E+00
         13   -1    0    0    0    0  0.00000000000E+00  0.00000000000E+00  0.99999944184E+02  0.10000000000E+03  0.10566000000E+00 0. -1.
         22   -1    0    0    0    0 -0.00000000000E+00 -0.00000000000E+00 -0.13747507560E+02  0.13747507560E+02  0.00000000000E+00 0. -1.
         13    1    1    2    0    0  0.39722917494E+01 -0.16286191734E+02  0.61747259192E+01  0.17864981029E+02  0.10566000000E+00 0.  1.
        996    1    1    2    0    0 -0.39722917494E+01  0.16286191734E+02  0.80077710705E+02  0.95882526535E+02  0.50000000000E+02 0.  0.
<mgrwt>
<rscale>  0 0.52735369E+02</rscale>
<asrwt>0</asrwt>
<pdfrwt beam="1">  1       13 0.10000000E+01 0.52735369E+02</pdfrwt>
<pdfrwt beam="2">  1       22 0.13747532E+00 0.52735369E+02</pdfrwt>
<totfact> 0.86977287E-01</totfact>
</mgrwt>
</event>
<event>
 4    1  0.2416490E+000  0.5861935E+02  0.7957747E-01  0.1403719E+00
         13   -1    0    0    0    0  0.00000000000E+00  0.00000000000E+00  0.99999944180E+02  0.10000000000E+03  0.10566000000E+00 0. -1.
         22   -1    0    0    0    0 -0.00000000000E+00 -0.00000000000E+00 -0.31643944981E+02  0.31643944981E+02  0.00000000000E+00 0.  1.
         13    1    1    2    0    0  0.30270480109E+02  0.44638584648E+01 -0.11408825719E+02  0.32655787646E+02  0.10566000000E+00 0.  1.
        996    1    1    2    0    0 -0.30270480109E+02 -0.44638584648E+01  0.79764824918E+02  0.98988157335E+02  0.50000000000E+02 0.  0.
<mgrwt>
<rscale>  0 0.58619348E+02</rscale>
<asrwt>0</asrwt>
<pdfrwt beam="1">  1       13 0.10000000E+01 0.58619348E+02</pdfrwt>
<pdfrwt beam="2">  1       22 0.31643964E+00 0.58619348E+02</pdfrwt>
<totfact> 0.18915718E-01</totfact>
</mgrwt>
</event>
<event>
 4    1  0.2416490E+000  0.5204028E+02  0.7957747E-01  0.1434638E+00
         13   -1    0    0    0    0  0.00000000000E+00  0.00000000000E+00  0.99999944178E+02  0.99999999999E+02  0.10566000000E+00 0.  1.
         22   -1    0    0    0    0 -0.00000000000E+00 -0.00000000000E+00 -0.42265786706E+02  0.42265786706E+02  0.00000000000E+00 0. -1.
         13    1    1    2    0    0 -0.13474386755E+02 -0.51605690268E+01 -0.33923695646E+02  0.36864873002E+02  0.10566000000E+00 0. -1.
        996    1    1    2    0    0  0.13474386755E+02  0.51605690268E+01  0.91657853119E+02  0.10540091370E+03  0.50000000000E+02 0.  0.
<mgrwt>
<rscale>  0 0.52040278E+02</rscale>
<asrwt>0</asrwt>
<pdfrwt beam="1">  1       13 0.10000000E+01 0.52040278E+02</pdfrwt>
<pdfrwt beam="2">  1       22 0.42265803E+00 0.52040278E+02</pdfrwt>
<totfact> 0.11090705E-01</totfact>
</mgrwt>
</event>
<event>
 4    1  0.2416490E+000  0.5129132E+02  0.7957747E-01  0.1438498E+00
         13   -1    0    0    0    0  0.00000000000E+00  0.00000000000E+00  0.99999944179E+02  0.99999999999E+02  0.10566000000E+00 0. -1.
         22   -1    0    0    0    0 -0.00000000000E+00 -0.00000000000E+00 -0.98928671001E+01  0.98928671001E+01  0.00000000000E+00 0. -1.
         13    1    1    2    0    0 -0.20543982089E+01 -0.11250734753E+02  0.13400212802E+02  0.17617504127E+02  0.10566000000E+00 0.  1.
        996    1    1    2    0    0  0.20543982089E+01  0.11250734753E+02  0.76706864276E+02  0.92275362972E+02  0.50000000000E+02 0.  0.
<mgrwt>
<rscale>  0 0.51291321E+02</rscale>
<asrwt>0</asrwt>
<pdfrwt beam="1">  1       13 0.10000000E+01 0.51291321E+02</pdfrwt>
<pdfrwt beam="2">  1       22 0.98928923E-01 0.51291321E+02</pdfrwt>
<totfact> 0.14294659E+00</totfact>
</mgrwt>
</event>
<event>
 4    1  0.2416490E+000  0.5693823E+02  0.7957747E-01  0.1411149E+00
         13   -1    0    0    0    0  0.00000000000E+00  0.00000000000E+00  0.99999944172E+02  0.99999999992E+02  0.10566000000E+00 0. -1.
         22   -1    0    0    0    0 -0.00000000000E+00 -0.00000000000E+00 -0.26637365332E+02  0.26637365332E+02  0.00000000000E+00 0.  1.
         13    1    1    2    0    0  0.23776769800E+02 -0.13290131518E+02 -0.70225249647E+01  0.28129866668E+02  0.10566000000E+00 0.  1.
        996    1    1    2    0    0 -0.23776769800E+02  0.13290131518E+02  0.80385103804E+02  0.98507498656E+02  0.50000000000E+02 0.  0.
<mgrwt>
<rscale>  0 0.56938233E+02</rscale>
<asrwt>0</asrwt>
<pdfrwt beam="1">  1       13 0.10000000E+01 0.56938233E+02</pdfrwt>
<pdfrwt beam="2">  1       22 0.26637386E+00 0.56938233E+02</pdfrwt>
<totfact> 0.26205507E-01</totfact>
</mgrwt>
</event>
<event>
 4    1  0.2416490E+000  0.5204339E+02  0.7957747E-01  0.1434622E+00
         13   -1    0    0    0    0  0.00000000000E+00  0.00000000000E+00  0.99999944167E+02  0.99999999988E+02  0.10566000000E+00 0.  1.
         22   -1    0    0    0    0 -0.00000000000E+00 -0.00000000000E+00 -0.60455869901E+02  0.60455869901E+02  0.00000000000E+00 0. -1.
         13    1    1    2    0    0 -0.14336274912E+02 -0.17280416136E+01 -0.52645852627E+02  0.54590400888E+02  0.10566000000E+00 0. -1.
        996    1    1    2    0    0  0.14336274912E+02  0.17280416136E+01  0.92189926894E+02  0.10586546900E+03  0.50000000000E+02 0.  0.
<mgrwt>
<rscale>  0 0.52043394E+02</rscale>
<asrwt>0</asrwt>
<pdfrwt beam="1">  1       13 0.10000000E+01 0.52043394E+02</pdfrwt>
<pdfrwt beam="2">  1       22 0.60455881E+00 0.52043394E+02</pdfrwt>
<totfact> 0.65294630E-02</totfact>
</mgrwt>
</event>
<event>
 4    1  0.2416490E+000  0.5272369E+02  0.7957747E-01  0.1431181E+00
         13   -1    0    0    0    0  0.00000000000E+00  0.00000000000E+00  0.99999944178E+02  0.99999999998E+02  0.10566000000E+00 0.  1.
         22   -1    0    0    0    0 -0.00000000000E+00 -0.00000000000E+00 -0.12077777867E+02  0.12077777867E+02  0.00000000000E+00 0.  1.
         13    1    1    2    0    0  0.13655713500E+02 -0.96596733892E+01  0.19299006426E+02  0.25539197604E+02  0.10566000000E+00 0. -1.
        996    1    1    2    0    0 -0.13655713500E+02  0.96596733892E+01  0.68623159885E+02  0.86538580262E+02  0.50000000000E+02 0.  0.
<mgrwt>
<rscale>  0 0.52723693E+02</rscale>
<asrwt>0</asrwt>
<pdfrwt beam="1">  1       13 0.10000000E+01 0.52723693E+02</pdfrwt>
<pdfrwt beam="2">  1       22 0.12077802E+00 0.52723693E+02</pdfrwt>
<totfact> 0.10660482E+00</totfact>
</mgrwt>
</event>
<event>
 4    1  0.2416490E+000  0.5322031E+02  0.7957747E-01  0.1428708E+00
         13   -1    0    0    0    0  0.00000000000E+00  0.00000000000E+00  0.99999944188E+02  0.10000000001E+03  0.10566000000E+00 0.  1.
         22   -1    0    0    0    0 -0.00000000000E+00 -0.00000000000E+00 -0.82016782672E+02  0.82016782672E+02  0.00000000000E+00 0. -1.
         13    1    1    2    0    0 -0.77113344099E+01 -0.16520797530E+02 -0.73746142482E+02  0.75966480269E+02  0.10566000000E+00 0. -1.
        996    1    1    2    0    0  0.77113344099E+01  0.16520797530E+02  0.91729303999E+02  0.10605030241E+03  0.50000000000E+02 0.  0.
<mgrwt>
<rscale>  0 0.53220310E+02</rscale>
<asrwt>0</asrwt>
<pdfrwt beam="1">  1       13 0.10000000E+01 0.53220310E+02</pdfrwt>
<pdfrwt beam="2">  1       22 0.82016788E+00 0.53220310E+02</pdfrwt>
<totfact> 0.25570035E-02</totfact>
</mgrwt>
</event>
<event>
 4    1  0.2416490E+000  0.5198786E+02  0.7957747E-01  0.1434905E+00
         13   -1    0    0    0    0  0.00000000000E+00  0.00000000000E+00  0.99999944176E+02  0.99999999996E+02  0.10566000000E+00 0. -1.
         22   -1    0    0    0    0 -0.00000000000E+00 -0.00000000000E+00 -0.11813686272E+02  0.11813686272E+02  0.00000000000E+00 0. -1.
         13    1    1    2    0    0 -0.81299604539E+01  0.11689389401E+02  0.33289263442E+02  0.36206688692E+02  0.10566000000E+00 0.  1.
        996    1    1    2    0    0  0.81299604539E+01 -0.11689389401E+02  0.54896994462E+02  0.75606997576E+02  0.50000000000E+02 0.  0.
<mgrwt>
<rscale>  0 0.51987865E+02</rscale>
<asrwt>0</asrwt>
<pdfrwt beam="1">  1       13 0.10000000E+01 0.51987865E+02</pdfrwt>
<pdfrwt beam="2">  1       22 0.11813711E+00 0.51987865E+02</pdfrwt>
<totfact> 0.11009129E+00</totfact>
</mgrwt>
</event>
<event>
 4    1  0.2416490E+000  0.5337474E+02  0.7957747E-01  0.1427945E+00
         13   -1    0    0    0    0  0.00000000000E+00  0.00000000000E+00  0.99999944184E+02  0.10000000000E+03  0.10566000000E+00 0.  1.
         22   -1    0    0    0    0 -0.00000000000E+00 -0.00000000000E+00 -0.16829533319E+02  0.16829533319E+02  0.00000000000E+00 0. -1.
         13    1    1    2    0    0 -0.73394553170E+01  0.17175420703E+02  0.82187775679E+00  0.18696238332E+02  0.10566000000E+00 0. -1.
        996    1    1    2    0    0  0.73394553170E+01 -0.17175420703E+02  0.82348533109E+02  0.98133294991E+02  0.50000000000E+02 0.  0.
<mgrwt>
<rscale>  0 0.53374738E+02</rscale>
<asrwt>0</asrwt>
<pdfrwt beam="1">  1       13 0.10000000E+01 0.53374738E+02</pdfrwt>
<pdfrwt beam="2">  1       22 0.16829557E+00 0.53374738E+02</pdfrwt>
<totfact> 0.62042871E-01</totfact>
</mgrwt>
</event>
<event>
 4    1  0.2416490E+000  0.5141107E+02  0.7957747E-01  0.1437876E+00
         13   -1    0    0    0    0  0.00000000000E+00  0.00000000000E+00  0.99999944177E+02  0.99999999998E+02  0.10566000000E+00 0.  1.
         22   -1    0    0    0    0 -0.00000000000E+00 -0.00000000000E+00 -0.13694610305E+02  0.13694610305E+02  0.00000000000E+00 0. -1.
         13    1    1    2    0    0  0.11216340801E+02  0.41582941823E+01 -0.13870850735E+01  0.12042959790E+02  0.10566000000E+00 0. -1.
        996    1    1    2    0    0 -0.11216340801E+02 -0.41582941823E+01  0.87692418945E+02  0.10165165051E+03  0.50000000000E+02 0.  0.
<mgrwt>
<rscale>  0 0.51411066E+02</rscale>
<asrwt>0</asrwt>
<pdfrwt beam="1">  1       13 0.10000000E+01 0.51411066E+02</pdfrwt>
<pdfrwt beam="2">  1       22 0.13694634E+00 0.51411066E+02</pdfrwt>
<totfact> 0.87273280E-01</totfact>
</mgrwt>
</event>
<event>
 4    1  0.2416490E+000  0.5161226E+02  0.7957747E-01  0.1436835E+00
         13   -1    0    0    0    0  0.00000000000E+00  0.00000000000E+00  0.99999944180E+02  0.10000000000E+03  0.10566000000E+00 0.  1.
         22   -1    0    0    0    0 -0.00000000000E+00 -0.00000000000E+00 -0.16700054922E+02  0.16700054922E+02  0.00000000000E+00 0.  1.
         13    1    1    2    0    0 -0.45418562891E+01 -0.11966492196E+02 -0.55468249766E+01  0.13950047504E+02  0.10566000000E+00 0. -1.
        996    1    1    2    0    0  0.45418562891E+01  0.11966492196E+02  0.88846714235E+02  0.10275000742E+03  0.50000000000E+02 0.  0.
<mgrwt>
<rscale>  0 0.51612260E+02</rscale>
<asrwt>0</asrwt>
<pdfrwt beam="1">  1       13 0.10000000E+01 0.51612260E+02</pdfrwt>
<pdfrwt beam="2">  1       22 0.16700078E+00 0.51612260E+02</pdfrwt>
<totfact> 0.62670037E-01</totfact>
</mgrwt>
</event>
<event>
 4    1  0.2416490E+000  0.5550323E+02  0.7957747E-01  0.1417734E+00
         13   -1    0    0    0    0  0.00000000000E+00  0.00000000000E+00  0.99999944184E+02  0.10000000000E+03  0.10566000000E+00 0.  1.
         22   -1    0    0    0    0 -0.00000000000E+00 -0.00000000000E+00 -0.19838140838E+02  0.19838140838E+02  0.00000000000E+00 0. -1.
         13    1    1    2    0    0 -0.24090783247E+02 -0.49283374572E+00  0.22817028790E+01  0.24203843798E+02  0.10566000000E+00 0. -1.
        996    1    1    2    0    0  0.24090783247E+02  0.49283374572E+00  0.77880100467E+02  0.95634297045E+02  0.50000000000E+02 0.  0.
<mgrwt>
<rscale>  0 0.55503232E+02</rscale>
<asrwt>0</asrwt>
<pdfrwt beam="1">  1       13 0.10000000E+01 0.55503232E+02</pdfrwt>
<pdfrwt beam="2">  1       22 0.19838163E+00 0.55503232E+02</pdfrwt>
<totfact> 0.46280209E-01</totfact>
</mgrwt>
</event>
<event>
 4    1  0.2416490E+000  0.5337527E+02  0.7957747E-01  0.1427942E+00
         13   -1    0    0    0    0  0.00000000000E+00  0.00000000000E+00  0.99999944179E+02  0.99999999999E+02  0.10566000000E+00 0. -1.
         22   -1    0    0    0    0 -0.00000000000E+00 -0.00000000000E+00 -0.25649835458E+02  0.25649835458E+02  0.00000000000E+00 0.  1.
         13    1    1    2    0    0  0.13935332747E+02  0.12438885511E+02 -0.13366997314E+02  0.22969700754E+02  0.10566000000E+00 0.  1.
        996    1    1    2    0    0 -0.13935332747E+02 -0.12438885511E+02  0.87717106034E+02  0.10268013470E+03  0.50000000000E+02 0.  0.
<mgrwt>
<rscale>  0 0.53375269E+02</rscale>
<asrwt>0</asrwt>
<pdfrwt beam="1">  1       13 0.10000000E+01 0.53375269E+02</pdfrwt>
<pdfrwt beam="2">  1       22 0.25649856E+00 0.53375269E+02</pdfrwt>
<totfact> 0.28086241E-01</totfact>
</mgrwt>
</event>
<event>
 4    1  0.2416490E+000  0.5612925E+02  0.7957747E-01  0.1414833E+00
         13   -1    0    0    0    0  0.00000000000E+00  0.00000000000E+00  0.99999944172E+02  0.99999999992E+02  0.10566000000E+00 0. -1.
         22   -1    0    0    0    0 -0.00000000000E+00 -0.00000000000E+00 -0.18916595635E+02  0.18916595635E+02  0.00000000000E+00 0. -1.
         13    1    1    2    0    0 -0.22179729407E+02 -0.12591754440E+02  0.79270156396E+01  0.26708452172E+02  0.10566000000E+00 0.  1.
        996    1    1    2    0    0  0.22179729407E+02  0.12591754440E+02  0.73156332897E+02  0.92208143455E+02  0.50000000000E+02 0.  0.
<mgrwt>
<rscale>  0 0.56129250E+02</rscale>
<asrwt>0</asrwt>
<pdfrwt beam="1">  1       13 0.10000000E+01 0.56129250E+02</pdfrwt>
<pdfrwt beam="2">  1       22 0.18916618E+00 0.56129250E+02</pdfrwt>
<totfact> 0.50584250E-01</totfact>
</mgrwt>
</event>
<event>
 4    1  0.2416490E+000  0.5423597E+02  0.7957747E-01  0.1423747E+00
         13   -1    0    0    0    0  0.00000000000E+00  0.00000000000E+00  0.99999944174E+02  0.99999999994E+02  0.10566000000E+00 0.  1.
         22   -1    0    0    0    0 -0.00000000000E+00 -0.00000000000E+00 -0.16348671318E+02  0.16348671318E+02  0.00000000000E+00 0.  1.
         13    1    1    2    0    0 -0.23423789631E+01 -0.20881904706E+02  0.45259607461E+02  0.49899738626E+02  0.10566000000E+00 0. -1.
        996    1    1    2    0    0  0.23423789631E+01  0.20881904706E+02  0.38391665395E+02  0.66448932686E+02  0.50000000000E+02 0.  0.
<mgrwt>
<rscale>  0 0.54235972E+02</rscale>
<asrwt>0</asrwt>
<pdfrwt beam="1">  1       13 0.10000000E+01 0.54235972E+02</pdfrwt>
<pdfrwt beam="2">  1       22 0.16348695E+00 0.54235972E+02</pdfrwt>
<totfact> 0.65351775E-01</totfact>
</mgrwt>
</event>
<event>
 4    1  0.2416490E+000  0.5110013E+02  0.7957747E-01  0.1439496E+00
         13   -1    0    0    0    0  0.00000000000E+00  0.00000000000E+00  0.99999944171E+02  0.99999999991E+02  0.10566000000E+00 0. -1.
         22   -1    0    0    0    0 -0.00000000000E+00 -0.00000000000E+00 -0.96962485074E+01  0.96962485074E+01  0.00000000000E+00 0. -1.
         13    1    1    2    0    0 -0.10163726581E+02  0.28146504137E+01  0.21957500643E+02  0.24359117256E+02  0.10566000000E+00 0.  1.
        996    1    1    2    0    0  0.10163726581E+02 -0.28146504137E+01  0.68346195021E+02  0.85337131243E+02  0.50000000000E+02 0.  0.
<mgrwt>
<rscale>  0 0.51100133E+02</rscale>
<asrwt>0</asrwt>
<pdfrwt beam="1">  1       13 0.10000000E+01 0.51100133E+02</pdfrwt>
<pdfrwt beam="2">  1       22 0.96962737E-01 0.51100133E+02</pdfrwt>
<totfact> 0.14707048E+00</totfact>
</mgrwt>
</event>
<event>
 4    1  0.2416490E+000  0.5221127E+02  0.7957747E-01  0.1433767E+00
         13   -1    0    0    0    0  0.00000000000E+00  0.00000000000E+00  0.99999944175E+02  0.99999999996E+02  0.10566000000E+00 0. -1.
         22   -1    0    0    0    0 -0.00000000000E+00 -0.00000000000E+00 -0.11497189569E+02  0.11497189569E+02  0.00000000000E+00 0. -1.
         13    1    1    2    0    0  0.11977755385E+02 -0.90856827074E+01  0.14165632595E+02  0.20656538074E+02  0.10566000000E+00 0.  1.
        996    1    1    2    0    0 -0.11977755385E+02  0.90856827074E+01  0.74337122011E+02  0.90840651490E+02  0.50000000000E+02 0.  0.
<mgrwt>
<rscale>  0 0.52211266E+02</rscale>
<asrwt>0</asrwt>
<pdfrwt beam="1">  1       13 0.10000000E+01 0.52211266E+02</pdfrwt>
<pdfrwt beam="2">  1       22 0.11497214E+00 0.52211266E+02</pdfrwt>
<totfact> 0.11477315E+00</totfact>
</mgrwt>
</event>
<event>
 4    1  0.2416490E+000  0.5165871E+02  0.7957747E-01  0.1436595E+00
         13   -1    0    0    0    0  0.00000000000E+00  0.00000000000E+00  0.99999944180E+02  0.10000000000E+03  0.10566000000E+00 0.  1.
         22   -1    0    0    0    0 -0.00000000000E+00 -0.00000000000E+00 -0.12762034867E+02  0.12762034867E+02  0.00000000000E+00 0. -1.
         13    1    1    2    0    0  0.67871484092E+01 -0.11070541055E+02  0.20671649788E+01  0.13149395342E+02  0.10566000000E+00 0. -1.
        996    1    1    2    0    0 -0.67871484092E+01  0.11070541055E+02  0.85170744334E+02  0.99612639525E+02  0.50000000000E+02 0.  0.
<mgrwt>
<rscale>  0 0.51658709E+02</rscale>
<asrwt>0</asrwt>
<pdfrwt beam="1">  1       13 0.10000000E+01 0.51658709E+02</pdfrwt>
<pdfrwt beam="2">  1       22 0.12762059E+00 0.51658709E+02</pdfrwt>
<totfact> 0.97647595E-01</totfact>
</mgrwt>
</event>
<event>
 4    1  0.2416490E+000  0.6529155E+02  0.7957747E-01  0.1376878E+00
         13   -1    0    0    0    0  0.00000000000E+00  0.00000000000E+00  0.99999944184E+02  0.10000000000E+03  0.10566000000E+00 0.  1.
         22   -1    0    0    0    0 -0.00000000000E+00 -0.00000000000E+00 -0.35797573505E+02  0.35797573505E+02  0.00000000000E+00 0. -1.
         13    1    1    2    0    0  0.36264038925E+02 -0.21163779520E+02 -0.30068294511E+01  0.42095584924E+02  0.10566000000E+00 0. -1.
        996    1    1    2    0    0 -0.36264038925E+02  0.21163779520E+02  0.67209200130E+02  0.93701988585E+02  0.50000000000E+02 0.  0.
<mgrwt>
<rscale>  0 0.65291547E+02</rscale>
<asrwt>0</asrwt>
<pdfrwt beam="1">  1       13 0.10000000E+01 0.65291547E+02</pdfrwt>
<pdfrwt beam="2">  1       22 0.35797591E+00 0.65291547E+02</pdfrwt>
<totfact> 0.15286771E-01</totfact>
</mgrwt>
</event>
<event>
 4    1  0.2416490E+000  0.5182465E+02  0.7957747E-01  0.1435741E+00
         13   -1    0    0    0    0  0.00000000000E+00  0.00000000000E+00  0.99999944185E+02  0.10000000001E+03  0.10566000000E+00 0. -1.
         22   -1    0    0    0    0 -0.00000000000E+00 -0.00000000000E+00 -0.12728120237E+02  0.12728120237E+02  0.00000000000E+00 0. -1.
         13    1    1    2    0    0  0.94853040076E+01  0.97889634892E+01  0.32566853707E+01  0.14014705204E+02  0.10566000000E+00 0.  1.
        996    1    1    2    0    0 -0.94853040076E+01 -0.97889634892E+01  0.84015138577E+02  0.98713415038E+02  0.50000000000E+02 0.  0.
<mgrwt>
<rscale>  0 0.51824654E+02</rscale>
<asrwt>0</asrwt>
<pdfrwt beam="1">  1       13 0.10000000E+01 0.51824654E+02</pdfrwt>
<pdfrwt beam="2">  1       22 0.12728145E+00 0.51824654E+02</pdfrwt>
<totfact> 0.98090545E-01</totfact>
</mgrwt>
</event>
<event>
 4    1  0.2416490E+000  0.5492667E+02  0.7957747E-01  0.1420446E+00
         13   -1    0    0    0    0  0.00000000000E+00  0.00000000000E+00  0.99999944179E+02  0.99999999999E+02  0.10566000000E+00 0.  1.
         22   -1    0    0    0    0 -0.00000000000E+00 -0.00000000000E+00 -0.30210175940E+02  0.30210175940E+02  0.00000000000E+00 0. -1.
         13    1    1    2    0    0 -0.13262039169E+02 -0.18467744074E+02 -0.16380595066E+02  0.28022746348E+02  0.10566000000E+00 0. -1.
        996    1    1    2    0    0  0.13262039169E+02  0.18467744074E+02  0.86170363306E+02  0.10218742959E+03  0.50000000000E+02 0.  0.
<mgrwt>
<rscale>  0 0.54926672E+02</rscale>
<asrwt>0</asrwt>
<pdfrwt beam="1">  1       13 0.10000000E+01 0.54926672E+02</pdfrwt>
<pdfrwt beam="2">  1       22 0.30210195E+00 0.54926672E+02</pdfrwt>
<totfact> 0.20511212E-01</totfact>
</mgrwt>
</event>
<event>
 4    1  0.2416490E+000  0.5206211E+02  0.7957747E-01  0.1434526E+00
         13   -1    0    0    0    0  0.00000000000E+00  0.00000000000E+00  0.99999944177E+02  0.99999999997E+02  0.10566000000E+00 0.  1.
         22   -1    0    0    0    0 -0.00000000000E+00 -0.00000000000E+00 -0.13211026233E+02  0.13211026233E+02  0.00000000000E+00 0. -1.
         13    1    1    2    0    0  0.99366412418E+01  0.10570072285E+02  0.33940816510E+01  0.14899470513E+02  0.10566000000E+00 0. -1.
        996    1    1    2    0    0 -0.99366412418E+01 -0.10570072285E+02  0.83394836293E+02  0.98311555717E+02  0.50000000000E+02 0.  0.
<mgrwt>
<rscale>  0 0.52062110E+02</rscale>
<asrwt>0</asrwt>
<pdfrwt beam="1">  1       13 0.10000000E+01 0.52062110E+02</pdfrwt>
<pdfrwt beam="2">  1       22 0.13211050E+00 0.52062110E+02</pdfrwt>
<totfact> 0.92553999E-01</totfact>
</mgrwt>
</event>
<event>
 4    1  0.2416490E+000  0.5173617E+02  0.7957747E-01  0.1436196E+00
         13   -1    0    0    0    0  0.00000000000E+00  0.00000000000E+00  0.99999944181E+02  0.10000000000E+03  0.10566000000E+00 0.  1.
         22   -1    0    0    0    0 -0.00000000000E+00 -0.00000000000E+00 -0.68470816249E+02  0.68470816249E+02  0.00000000000E+00 0. -1.
         13    1    1    2    0    0 -0.46727438758E+01 -0.12441721697E+02 -0.61015680500E+02  0.62446420274E+02  0.10566000000E+00 0. -1.
        996    1    1    2    0    0  0.46727438758E+01  0.12441721697E+02  0.92544808432E+02  0.10602439598E+03  0.50000000000E+02 0.  0.
<mgrwt>
<rscale>  0 0.51736167E+02</rscale>
<asrwt>0</asrwt>
<pdfrwt beam="1">  1       13 0.10000000E+01 0.51736167E+02</pdfrwt>
<pdfrwt beam="2">  1       22 0.68470825E+00 0.51736167E+02</pdfrwt>
<totfact> 0.81706489E-02</totfact>
</mgrwt>
</event>
<event>
 4    1  0.2416490E+000  0.5172786E+02  0.7957747E-01  0.1436239E+00
         13   -1    0    0    0    0  0.00000000000E+00  0.00000000000E+00  0.99999944180E+02  0.10000000000E+03  0.10566000000E+00 0.  1.
         22   -1    0    0    0    0 -0.00000000000E+00 -0.00000000000E+00 -0.13298642091E+02  0.13298642091E+02  0.00000000000E+00 0. -1.
         13    1    1    2    0    0  0.16355249897E+01  0.13156601180E+02  0.11284558894E+01  0.13306226863E+02  0.10566000000E+00 0. -1.
        996    1    1    2    0    0 -0.16355249897E+01 -0.13156601180E+02  0.85572846199E+02  0.99992415229E+02  0.50000000000E+02 0.  0.
<mgrwt>
<rscale>  0 0.51727856E+02</rscale>
<asrwt>0</asrwt>
<pdfrwt beam="1">  1       13 0.10000000E+01 0.51727856E+02</pdfrwt>
<pdfrwt beam="2">  1       22 0.13298666E+00 0.51727856E+02</pdfrwt>
<totfact> 0.91522458E-01</totfact>
</mgrwt>
</event>
<event>
 4    1  0.2416490E+000  0.5140776E+02  0.7957747E-01  0.1437893E+00
         13   -1    0    0    0    0  0.00000000000E+00  0.00000000000E+00  0.99999944171E+02  0.99999999991E+02  0.10566000000E+00 0. -1.
         22   -1    0    0    0    0 -0.00000000000E+00 -0.00000000000E+00 -0.12188799300E+02  0.12188799300E+02  0.00000000000E+00 0.  1.
         13    1    1    2    0    0 -0.13997757330E+01 -0.11865867584E+02  0.19390029450E+01  0.12104919747E+02  0.10566000000E+00 0.  1.
        996    1    1    2    0    0  0.13997757330E+01  0.11865867584E+02  0.85872141926E+02  0.10008387954E+03  0.50000000000E+02 0.  0.
<mgrwt>
<rscale>  0 0.51407764E+02</rscale>
<asrwt>0</asrwt>
<pdfrwt beam="1">  1       13 0.10000000E+01 0.51407764E+02</pdfrwt>
<pdfrwt beam="2">  1       22 0.12188824E+00 0.51407764E+02</pdfrwt>
<totfact> 0.10480844E+00</totfact>
</mgrwt>
</event>
<event>
 4    1  0.2416490E+000  0.5120980E+02  0.7957747E-01  0.1438923E+00
         13   -1    0    0    0    0  0.00000000000E+00  0.00000000000E+00  0.99999944176E+02  0.99999999997E+02  0.10566000000E+00 0. -1.
         22   -1    0    0    0    0 -0.00000000000E+00 -0.00000000000E+00 -0.12797586103E+02  0.12797586103E+02  0.00000000000E+00 0. -1.
         13    1    1    2    0    0 -0.10160908161E+02  0.43817057362E+01 -0.67645765901E+00  0.11086575612E+02  0.10566000000E+00 0.  1.
        996    1    1    2    0    0  0.10160908161E+02 -0.43817057362E+01  0.87878815733E+02  0.10171101049E+03  0.50000000000E+02 0.  0.
<mgrwt>
<rscale>  0 0.51209798E+02</rscale>
<asrwt>0</asrwt>
<pdfrwt beam="1">  1       13 0.10000000E+01 0.51209798E+02</pdfrwt>
<pdfrwt beam="2">  1       22 0.12797610E+00 0.51209798E+02</pdfrwt>
<totfact> 0.97127132E-01</totfact>
</mgrwt>
</event>
<event>
 4    1  0.2416490E+000  0.5435953E+02  0.7957747E-01  0.1423152E+00
         13   -1    0    0    0    0  0.00000000000E+00  0.00000000000E+00  0.99999944183E+02  0.10000000000E+03  0.10566000000E+00 0.  1.
         22   -1    0    0    0    0 -0.00000000000E+00 -0.00000000000E+00 -0.47548839028E+02  0.47548839028E+02  0.00000000000E+00 0. -1.
         13    1    1    2    0    0 -0.21157107924E+02 -0.27082901530E+01 -0.37097473504E+02  0.42792426382E+02  0.10566000000E+00 0. -1.
        996    1    1    2    0    0  0.21157107924E+02  0.27082901530E+01  0.89548578659E+02  0.10475641265E+03  0.50000000000E+02 0.  0.
<mgrwt>
<rscale>  0 0.54359526E+02</rscale>
<asrwt>0</asrwt>
<pdfrwt beam="1">  1       13 0.10000000E+01 0.54359526E+02</pdfrwt>
<pdfrwt beam="2">  1       22 0.47548854E+00 0.54359526E+02</pdfrwt>
<totfact> 0.84418609E-02</totfact>
</mgrwt>
</event>
<event>
 4    1  0.2416490E+000  0.5145123E+02  0.7957747E-01  0.1437668E+00
         13   -1    0    0    0    0  0.00000000000E+00  0.00000000000E+00  0.99999944176E+02  0.99999999996E+02  0.10566000000E+00 0.  1.
         22   -1    0    0    0    0 -0.00000000000E+00 -0.00000000000E+00 -0.13253785758E+02  0.13253785758E+02  0.00000000000E+00 0.  1.
         13    1    1    2    0    0 -0.12059250640E+02 -0.13430091280E+01 -0.30080906599E+00  0.12137991994E+02  0.10566000000E+00 0. -1.
        996    1    1    2    0    0  0.12059250640E+02  0.13430091280E+01  0.87046967484E+02  0.10111579376E+03  0.50000000000E+02 0.  0.
<mgrwt>
<rscale>  0 0.51451231E+02</rscale>
<asrwt>0</asrwt>
<pdfrwt beam="1">  1       13 0.10000000E+01 0.51451231E+02</pdfrwt>
<pdfrwt beam="2">  1       22 0.13253810E+00 0.51451231E+02</pdfrwt>
<totfact> 0.91959541E-01</totfact>
</mgrwt>
</event>
<event>
 4    1  0.2416490E+000  0.5518478E+02  0.7957747E-01  0.1419227E+00
         13   -1    0    0    0    0  0.00000000000E+00  0.00000000000E+00  0.99999944180E+02  0.10000000000E+03  0.10566000000E+00 0.  1.
         22   -1    0    0    0    0 -0.00000000000E+00 -0.00000000000E+00 -0.15705665440E+02  0.15705665440E+02  0.00000000000E+00 0.  1.
         13    1    1    2    0    0 -0.16673164411E+02 -0.16351319615E+02  0.32514116856E+02  0.40031725214E+02  0.10566000000E+00 0. -1.
        996    1    1    2    0    0  0.16673164411E+02  0.16351319615E+02  0.51780161884E+02  0.75673940226E+02  0.50000000000E+02 0.  0.
<mgrwt>
<rscale>  0 0.55184781E+02</rscale>
<asrwt>0</asrwt>
<pdfrwt beam="1">  1       13 0.10000000E+01 0.55184781E+02</pdfrwt>
<pdfrwt beam="2">  1       22 0.15705689E+00 0.55184781E+02</pdfrwt>
<totfact> 0.70126260E-01</totfact>
</mgrwt>
</event>
<event>
 4    1  0.2416490E+000  0.5105127E+02  0.7957747E-01  0.1439752E+00
         13   -1    0    0    0    0  0.00000000000E+00  0.00000000000E+00  0.99999944178E+02  0.99999999999E+02  0.10566000000E+00 0.  1.
         22   -1    0    0    0    0 -0.00000000000E+00 -0.00000000000E+00 -0.12016267480E+02  0.12016267480E+02  0.00000000000E+00 0. -1.
         13    1    1    2    0    0  0.10283872583E+02  0.68871726603E+00  0.15222994248E-01  0.10307461499E+02  0.10566000000E+00 0. -1.
        996    1    1    2    0    0 -0.10283872583E+02 -0.68871726603E+00  0.87968453704E+02  0.10170880598E+03  0.50000000000E+02 0.  0.
<mgrwt>
<rscale>  0 0.51051272E+02</rscale>
<asrwt>0</asrwt>
<pdfrwt beam="1">  1       13 0.10000000E+01 0.51051272E+02</pdfrwt>
<pdfrwt beam="2">  1       22 0.12016292E+00 0.51051272E+02</pdfrwt>
<totfact> 0.10704179E+00</totfact>
</mgrwt>
</event>
<event>
 4    1  0.2416490E+000  0.5138343E+02  0.7957747E-01  0.1438019E+00
         13   -1    0    0    0    0  0.00000000000E+00  0.00000000000E+00  0.99999944187E+02  0.10000000001E+03  0.10566000000E+00 0.  1.
         22   -1    0    0    0    0 -0.00000000000E+00 -0.00000000000E+00 -0.17711119925E+02  0.17711119925E+02  0.00000000000E+00 0. -1.
         13    1    1    2    0    0  0.11609482930E+02  0.23402523612E+01 -0.76710582082E+01  0.14110746723E+02  0.10566000000E+00 0. -1.
        996    1    1    2    0    0 -0.11609482930E+02 -0.23402523612E+01  0.89959882470E+02  0.10360037321E+03  0.50000000000E+02 0.  0.
<mgrwt>
<rscale>  0 0.51383430E+02</rscale>
<asrwt>0</asrwt>
<pdfrwt beam="1">  1       13 0.10000000E+01 0.51383430E+02</pdfrwt>
<pdfrwt beam="2">  1       22 0.17711143E+00 0.51383430E+02</pdfrwt>
<totfact> 0.56485420E-01</totfact>
</mgrwt>
</event>
<event>
 4    1  0.2416490E+000  0.5156231E+02  0.7957747E-01  0.1437093E+00
         13   -1    0    0    0    0  0.00000000000E+00  0.00000000000E+00  0.99999944181E+02  0.10000000000E+03  0.10566000000E+00 0. -1.
         22   -1    0    0    0    0 -0.00000000000E+00 -0.00000000000E+00 -0.12331696580E+02  0.12331696580E+02  0.00000000000E+00 0. -1.
         13    1    1    2    0    0 -0.12470817116E+02  0.17750830799E+01  0.26088848099E+01  0.12864277806E+02  0.10566000000E+00 0.  1.
        996    1    1    2    0    0  0.12470817116E+02 -0.17750830799E+01  0.85059362791E+02  0.99467418776E+02  0.50000000000E+02 0.  0.
<mgrwt>
<rscale>  0 0.51562314E+02</rscale>
<asrwt>0</asrwt>
<pdfrwt beam="1">  1       13 0.10000000E+01 0.51562314E+02</pdfrwt>
<pdfrwt beam="2">  1       22 0.12331721E+00 0.51562314E+02</pdfrwt>
<totfact> 0.10297637E+00</totfact>
</mgrwt>
</event>
<event>
 4    1  0.2416490E+000  0.5268569E+02  0.7957747E-01  0.1431371E+00
         13   -1    0    0    0    0  0.00000000000E+00  0.00000000000E+00  0.99999944181E+02  0.10000000000E+03  0.10566000000E+00 0.  1.
         22   -1    0    0    0    0 -0.00000000000E+00 -0.00000000000E+00 -0.12007598828E+02  0.12007598828E+02  0.00000000000E+00 0.  1.
         13    1    1    2    0    0  0.13579699115E+00 -0.16606129823E+02  0.20231789944E+02  0.26174767944E+02  0.10566000000E+00 0. -1.
        996    1    1    2    0    0 -0.13579699115E+00  0.16606129823E+02  0.67760555409E+02  0.85832830886E+02  0.50000000000E+02 0.  0.
<mgrwt>
<rscale>  0 0.52685691E+02</rscale>
<asrwt>0</asrwt>
<pdfrwt beam="1">  1       13 0.10000000E+01 0.52685691E+02</pdfrwt>
<pdfrwt beam="2">  1       22 0.12007623E+00 0.52685691E+02</pdfrwt>
<totfact> 0.10755327E+00</totfact>
</mgrwt>
</event>
<event>
 4    1  0.2416490E+000  0.5363185E+02  0.7957747E-01  0.1426682E+00
         13   -1    0    0    0    0  0.00000000000E+00  0.00000000000E+00  0.99999944185E+02  0.10000000001E+03  0.10566000000E+00 0.  1.
         22   -1    0    0    0    0 -0.00000000000E+00 -0.00000000000E+00 -0.20807000059E+02  0.20807000059E+02  0.00000000000E+00 0. -1.
         13    1    1    2    0    0 -0.12673304603E+02 -0.14688857941E+02 -0.58514056560E+01  0.20263891763E+02  0.10566000000E+00 0. -1.
        996    1    1    2    0    0  0.12673304603E+02  0.14688857941E+02  0.85044349782E+02  0.10054310830E+03  0.50000000000E+02 0.  0.
<mgrwt>
<rscale>  0 0.53631849E+02</rscale>
<asrwt>0</asrwt>
<pdfrwt beam="1">  1       13 0.10000000E+01 0.53631849E+02</pdfrwt>
<pdfrwt beam="2">  1       22 0.20807022E+00 0.53631849E+02</pdfrwt>
<totfact> 0.42182685E-01</totfact>
</mgrwt>
</event>
<event>
 4    1  0.2416490E+000  0.5436725E+02  0.7957747E-01  0.1423115E+00
         13   -1    0    0    0    0  0.00000000000E+00  0.00000000000E+00  0.99999944177E+02  0.99999999997E+02  0.10566000000E+00 0.  1.
         22   -1    0    0    0    0 -0.00000000000E+00 -0.00000000000E+00 -0.30465151906E+02  0.30465151906E+02  0.00000000000E+00 0. -1.
         13    1    1    2    0    0 -0.16188761593E+02 -0.13918389629E+02 -0.17661586037E+02  0.27708127998E+02  0.10566000000E+00 0. -1.
        996    1    1    2    0    0  0.16188761593E+02  0.13918389629E+02  0.87196378308E+02  0.10275702391E+03  0.50000000000E+02 0.  0.
<mgrwt>
<rscale>  0 0.54367247E+02</rscale>
<asrwt>0</asrwt>
<pdfrwt beam="1">  1       13 0.10000000E+01 0.54367247E+02</pdfrwt>
<pdfrwt beam="2">  1       22 0.30465171E+00 0.54367247E+02</pdfrwt>
<totfact> 0.20179645E-01</totfact>
</mgrwt>
</event>
<event>
 4    1  0.2416490E+000  0.5231588E+02  0.7957747E-01  0.1433236E+00
         13   -1    0    0    0    0  0.00000000000E+00  0.00000000000E+00  0.99999944183E+02  0.10000000000E+03  0.10566000000E+00 0.  1.
         22   -1    0    0    0    0 -0.00000000000E+00 -0.00000000000E+00 -0.12243318202E+02  0.12243318202E+02  0.00000000000E+00 0.  1.
         13    1    1    2    0    0  0.71446852052E+01  0.13634703591E+02  0.33527394209E+02  0.36892397526E+02  0.10566000000E+00 0. -1.
        996    1    1    2    0    0 -0.71446852052E+01 -0.13634703591E+02  0.54229231771E+02  0.75350920679E+02  0.50000000000E+02 0.  0.
<mgrwt>
<rscale>  0 0.52315884E+02</rscale>
<asrwt>0</asrwt>
<pdfrwt beam="1">  1       13 0.10000000E+01 0.52315884E+02</pdfrwt>
<pdfrwt beam="2">  1       22 0.12243343E+00 0.52315884E+02</pdfrwt>
<totfact> 0.10430066E+00</totfact>
</mgrwt>
</event>
<event>
 4    1  0.2416490E+000  0.5141716E+02  0.7957747E-01  0.1437844E+00
         13   -1    0    0    0    0  0.00000000000E+00  0.00000000000E+00  0.99999944178E+02  0.99999999998E+02  0.10566000000E+00 0.  1.
         22   -1    0    0    0    0 -0.00000000000E+00 -0.00000000000E+00 -0.26995147531E+02  0.26995147531E+02  0.00000000000E+00 0. -1.
         13    1    1    2    0    0 -0.76470721900E+01 -0.92328988845E+01 -0.18493501046E+02  0.22039620683E+02  0.10566000000E+00 0. -1.
        996    1    1    2    0    0  0.76470721900E+01  0.92328988845E+01  0.91498297693E+02  0.10495552685E+03  0.50000000000E+02 0.  0.
<mgrwt>
<rscale>  0 0.51417158E+02</rscale>
<asrwt>0</asrwt>
<pdfrwt beam="1">  1       13 0.10000000E+01 0.51417158E+02</pdfrwt>
<pdfrwt beam="2">  1       22 0.26995168E+00 0.51417158E+02</pdfrwt>
<totfact> 0.25329447E-01</totfact>
</mgrwt>
</event>
<event>
 4    1  0.2416490E+000  0.5373320E+02  0.7957747E-01  0.1426186E+00
         13   -1    0    0    0    0  0.00000000000E+00  0.00000000000E+00  0.99999944176E+02  0.99999999996E+02  0.10566000000E+00 0.  1.
         22   -1    0    0    0    0 -0.00000000000E+00 -0.00000000000E+00 -0.36005459277E+02  0.36005459277E+02  0.00000000000E+00 0. -1.
         13    1    1    2    0    0 -0.91077285534E+01  0.17444382627E+02 -0.25140759693E+02  0.31926887832E+02  0.10566000000E+00 0. -1.
        996    1    1    2    0    0  0.91077285534E+01 -0.17444382627E+02  0.89135244592E+02  0.10407857144E+03  0.50000000000E+02 0.  0.
<mgrwt>
<rscale>  0 0.53733204E+02</rscale>
<asrwt>0</asrwt>
<pdfrwt beam="1">  1       13 0.10000000E+01 0.53733204E+02</pdfrwt>
<pdfrwt beam="2">  1       22 0.36005477E+00 0.53733204E+02</pdfrwt>
<totfact> 0.14981517E-01</totfact>
</mgrwt>
</event>
<event>
 4    1  0.2416490E+000  0.5205780E+02  0.7957747E-01  0.1434548E+00
         13   -1    0    0    0    0  0.00000000000E+00  0.00000000000E+00  0.99999944175E+02  0.99999999995E+02  0.10566000000E+00 0.  1.
         22   -1    0    0    0    0 -0.00000000000E+00 -0.00000000000E+00 -0.13035639703E+02  0.13035639703E+02  0.00000000000E+00 0. -1.
         13    1    1    2    0    0 -0.11205422863E+02  0.91898403630E+01  0.39021495479E+01  0.15008417723E+02  0.10566000000E+00 0. -1.
        996    1    1    2    0    0  0.11205422863E+02 -0.91898403630E+01  0.83062154924E+02  0.98027221974E+02  0.50000000000E+02 0.  0.
<mgrwt>
<rscale>  0 0.52057801E+02</rscale>
<asrwt>0</asrwt>
<pdfrwt beam="1">  1       13 0.10000000E+01 0.52057801E+02</pdfrwt>
<pdfrwt beam="2">  1       22 0.13035664E+00 0.52057801E+02</pdfrwt>
<totfact> 0.94529506E-01</totfact>
</mgrwt>
</event>
<event>
 4    1  0.2416490E+000  0.5419495E+02  0.7957747E-01  0.1423945E+00
         13   -1    0    0    0    0  0.00000000000E+00  0.00000000000E+00  0.99999944180E+02  0.10000000000E+03  0.10566000000E+00 0.  1.
         22   -1    0    0    0    0 -0.00000000000E+00 -0.00000000000E+00 -0.14937861052E+02  0.14937861052E+02  0.00000000000E+00 0.  1.
         13    1    1    2    0    0  0.64309134340E+00 -0.20896858106E+02  0.12457755961E+02  0.24337195664E+02  0.10566000000E+00 0. -1.
        996    1    1    2    0    0 -0.64309134340E+00  0.20896858106E+02  0.72604327168E+02  0.90600665388E+02  0.50000000000E+02 0.  0.
<mgrwt>
<rscale>  0 0.54194947E+02</rscale>
<asrwt>0</asrwt>
<pdfrwt beam="1">  1       13 0.10000000E+01 0.54194947E+02</pdfrwt>
<pdfrwt beam="2">  1       22 0.14937885E+00 0.54194947E+02</pdfrwt>
<totfact> 0.76148057E-01</totfact>
</mgrwt>
</event>
<event>
 4    1  0.2416490E+000  0.5163782E+02  0.7957747E-01  0.1436703E+00
         13   -1    0    0    0    0  0.00000000000E+00  0.00000000000E+00  0.99999944180E+02  0.10000000000E+03  0.10566000000E+00 0.  1.
         22   -1    0    0    0    0 -0.00000000000E+00 -0.00000000000E+00 -0.14848913310E+02  0.14848913310E+02  0.00000000000E+00 0. -1.
         13    1    1    2    0    0  0.73223154428E+01 -0.10623000973E+02 -0.24767279167E+01  0.13138104823E+02  0.10566000000E+00 0. -1.
        996    1    1    2    0    0 -0.73223154428E+01  0.10623000973E+02  0.87627758787E+02  0.10171080849E+03  0.50000000000E+02 0.  0.
<mgrwt>
<rscale>  0 0.51637820E+02</rscale>
<asrwt>0</asrwt>
<pdfrwt beam="1">  1       13 0.10000000E+01 0.51637820E+02</pdfrwt>
<pdfrwt beam="2">  1       22 0.14848937E+00 0.51637820E+02</pdfrwt>
<totfact> 0.76512655E-01</totfact>
</mgrwt>
</event>
<event>
 4    1  0.2416490E+000  0.5475337E+02  0.7957747E-01  0.1421269E+00
         13   -1    0    0    0    0  0.00000000000E+00  0.00000000000E+00  0.99999944179E+02  0.99999999999E+02  0.10566000000E+00 0.  1.
         22   -1    0    0    0    0 -0.00000000000E+00 -0.00000000000E+00 -0.29273859216E+02  0.29273859216E+02  0.00000000000E+00 0. -1.
         13    1    1    2    0    0  0.67344472363E+01  0.21273899391E+02 -0.15473653868E+02  0.27154681050E+02  0.10566000000E+00 0. -1.
        996    1    1    2    0    0 -0.67344472363E+01 -0.21273899391E+02  0.86199738830E+02  0.10211917817E+03  0.50000000000E+02 0.  0.
<mgrwt>
<rscale>  0 0.54753370E+02</rscale>
<asrwt>0</asrwt>
<pdfrwt beam="1">  1       13 0.10000000E+01 0.54753370E+02</pdfrwt>
<pdfrwt beam="2">  1       22 0.29273879E+00 0.54753370E+02</pdfrwt>
<totfact> 0.21759966E-01</totfact>
</mgrwt>
</event>
<event>
 4    1  0.2416490E+000  0.5481170E+02  0.7957747E-01  0.1420991E+00
         13   -1    0    0    0    0  0.00000000000E+00  0.00000000000E+00  0.99999944184E+02  0.10000000000E+03  0.10566000000E+00 0.  1.
         22   -1    0    0    0    0 -0.00000000000E+00 -0.00000000000E+00 -0.16241546452E+02  0.16241546452E+02  0.00000000000E+00 0. -1.
         13    1    1    2    0    0  0.95087528447E+00 -0.22436995760E+02  0.10614824796E+02  0.24839658050E+02  0.10566000000E+00 0. -1.
        996    1    1    2    0    0 -0.95087528447E+00  0.22436995760E+02  0.73143572936E+02  0.91401888407E+02  0.50000000000E+02 0.  0.
<mgrwt>
<rscale>  0 0.54811704E+02</rscale>
<asrwt>0</asrwt>
<pdfrwt beam="1">  1       13 0.10000000E+01 0.54811704E+02</pdfrwt>
<pdfrwt beam="2">  1       22 0.16241570E+00 0.54811704E+02</pdfrwt>
<totfact> 0.66168191E-01</totfact>
</mgrwt>
</event>
<event>
 4    1  0.2416490E+000  0.5441316E+02  0.7957747E-01  0.1422895E+00
         13   -1    0    0    0    0  0.00000000000E+00  0.00000000000E+00  0.99999944179E+02  0.99999999999E+02  0.10566000000E+00 0.  1.
         22   -1    0    0    0    0 -0.00000000000E+00 -0.00000000000E+00 -0.18564224563E+02  0.18564224563E+02  0.00000000000E+00 0. -1.
         13    1    1    2    0    0 -0.15605455230E+02 -0.14739813440E+02  0.10476151174E+01  0.21491882064E+02  0.10566000000E+00 0. -1.
        996    1    1    2    0    0  0.15605455230E+02  0.14739813440E+02  0.80388104499E+02  0.97072342498E+02  0.50000000000E+02 0.  0.
<mgrwt>
<rscale>  0 0.54413163E+02</rscale>
<asrwt>0</asrwt>
<pdfrwt beam="1">  1       13 0.10000000E+01 0.54413163E+02</pdfrwt>
<pdfrwt beam="2">  1       22 0.18564247E+00 0.54413163E+02</pdfrwt>
<totfact> 0.52193612E-01</totfact>
</mgrwt>
</event>
<event>
 4    1  0.2416490E+000  0.6072929E+02  0.7957747E-01  0.1394796E+00
         13   -1    0    0    0    0  0.00000000000E+00  0.00000000000E+00  0.99999944186E+02  0.10000000001E+03  0.10566000000E+00 0.  1.
         22   -1    0    0    0    0 -0.00000000000E+00 -0.00000000000E+00 -0.58676209050E+02  0.58676209050E+02  0.00000000000E+00 0. -1.
         13    1    1    2    0    0 -0.33406410650E+02  0.84887499795E+01 -0.42780379625E+02  0.54938321722E+02  0.10566000000E+00 0. -1.
        996    1    1    2    0    0  0.33406410650E+02 -0.84887499795E+01  0.84104114761E+02  0.10373788733E+03  0.50000000000E+02 0.  0.
<mgrwt>
<rscale>  0 0.60729294E+02</rscale>
<asrwt>0</asrwt>
<pdfrwt beam="1">  1       13 0.10000000E+01 0.60729294E+02</pdfrwt>
<pdfrwt beam="2">  1       22 0.58676221E+00 0.60729294E+02</pdfrwt>
<totfact> 0.59685017E-02</totfact>
</mgrwt>
</event>
<event>
 4    1  0.2416490E+000  0.5124078E+02  0.7957747E-01  0.1438762E+00
         13   -1    0    0    0    0  0.00000000000E+00  0.00000000000E+00  0.99999944184E+02  0.10000000000E+03  0.10566000000E+00 0.  1.
         22   -1    0    0    0    0 -0.00000000000E+00 -0.00000000000E+00 -0.22965411034E+02  0.22965411034E+02  0.00000000000E+00 0. -1.
         13    1    1    2    0    0 -0.27670324114E+01  0.10860980460E+02 -0.14342098053E+02  0.18202315938E+02  0.10566000000E+00 0. -1.
        996    1    1    2    0    0  0.27670324114E+01 -0.10860980460E+02  0.91376631203E+02  0.10476309510E+03  0.50000000000E+02 0.  0.
<mgrwt>
<rscale>  0 0.51240778E+02</rscale>
<asrwt>0</asrwt>
<pdfrwt beam="1">  1       13 0.10000000E+01 0.51240778E+02</pdfrwt>
<pdfrwt beam="2">  1       22 0.22965433E+00 0.51240778E+02</pdfrwt>
<totfact> 0.34763546E-01</totfact>
</mgrwt>
</event>
<event>
 4    1  0.2416490E+000  0.5231930E+02  0.7957747E-01  0.1433219E+00
         13   -1    0    0    0    0  0.00000000000E+00  0.00000000000E+00  0.99999944188E+02  0.10000000001E+03  0.10566000000E+00 0.  1.
         22   -1    0    0    0    0 -0.00000000000E+00 -0.00000000000E+00 -0.19533661195E+02  0.19533661195E+02  0.00000000000E+00 0. -1.
         13    1    1    2    0    0 -0.14581708138E+02 -0.49682226671E+01 -0.75388798785E+01  0.17150956899E+02  0.10566000000E+00 0. -1.
        996    1    1    2    0    0  0.14581708138E+02  0.49682226671E+01  0.88005162871E+02  0.10238270430E+03  0.50000000000E+02 0.  0.
<mgrwt>
<rscale>  0 0.52319303E+02</rscale>
<asrwt>0</asrwt>
<pdfrwt beam="1">  1       13 0.10000000E+01 0.52319303E+02</pdfrwt>
<pdfrwt beam="2">  1       22 0.19533684E+00 0.52319303E+02</pdfrwt>
<totfact> 0.47365090E-01</totfact>
</mgrwt>
</event>
<event>
 4    1  0.2416490E+000  0.5178709E+02  0.7957747E-01  0.1435934E+00
         13   -1    0    0    0    0  0.00000000000E+00  0.00000000000E+00  0.99999944179E+02  0.99999999999E+02  0.10566000000E+00 0. -1.
         22   -1    0    0    0    0 -0.00000000000E+00 -0.00000000000E+00 -0.10784110307E+02  0.10784110307E+02  0.00000000000E+00 0. -1.
         13    1    1    2    0    0  0.13222114380E+02  0.26605941507E+01  0.23737259602E+02  0.27301496797E+02  0.10566000000E+00 0.  1.
        996    1    1    2    0    0 -0.13222114380E+02 -0.26605941507E+01  0.65478574269E+02  0.83482613509E+02  0.50000000000E+02 0.  0.
<mgrwt>
<rscale>  0 0.51787094E+02</rscale>
<asrwt>0</asrwt>
<pdfrwt beam="1">  1       13 0.10000000E+01 0.51787094E+02</pdfrwt>
<pdfrwt beam="2">  1       22 0.10784135E+00 0.51787094E+02</pdfrwt>
<totfact> 0.12616783E+00</totfact>
</mgrwt>
</event>
<event>
 4    1  0.2416490E+000  0.5120319E+02  0.7957747E-01  0.1438958E+00
         13   -1    0    0    0    0  0.00000000000E+00  0.00000000000E+00  0.99999944184E+02  0.10000000000E+03  0.10566000000E+00 0.  1.
         22   -1    0    0    0    0 -0.00000000000E+00 -0.00000000000E+00 -0.25712216851E+02  0.25712216851E+02  0.00000000000E+00 0. -1.
         13    1    1    2    0    0  0.33551649252E+01  0.10512328207E+02 -0.17453374631E+02  0.20649397716E+02  0.10566000000E+00 0. -1.
        996    1    1    2    0    0 -0.33551649252E+01 -0.10512328207E+02  0.91741101963E+02  0.10506281914E+03  0.50000000000E+02 0.  0.
<mgrwt>
<rscale>  0 0.51203185E+02</rscale>
<asrwt>0</asrwt>
<pdfrwt beam="1">  1       13 0.10000000E+01 0.51203185E+02</pdfrwt>
<pdfrwt beam="2">  1       22 0.25712238E+00 0.51203185E+02</pdfrwt>
<totfact> 0.27859595E-01</totfact>
</mgrwt>
</event>
<event>
 4    1  0.2416490E+000  0.5116313E+02  0.7957747E-01  0.1439167E+00
         13   -1    0    0    0    0  0.00000000000E+00  0.00000000000E+00  0.99999944180E+02  0.10000000000E+03  0.10566000000E+00 0.  1.
         22   -1    0    0    0    0 -0.00000000000E+00 -0.00000000000E+00 -0.15908497638E+02  0.15908497638E+02  0.00000000000E+00 0. -1.
         13    1    1    2    0    0  0.10411060764E+02 -0.30455352674E+01 -0.59305815741E+01  0.12363188631E+02  0.10566000000E+00 0. -1.
        996    1    1    2    0    0 -0.10411060764E+02  0.30455352674E+01  0.90022028116E+02  0.10354530901E+03  0.50000000000E+02 0.  0.
<mgrwt>
<rscale>  0 0.51163126E+02</rscale>
<asrwt>0</asrwt>
<pdfrwt beam="1">  1       13 0.10000000E+01 0.51163126E+02</pdfrwt>
<pdfrwt beam="2">  1       22 0.15908521E+00 0.51163126E+02</pdfrwt>
<totfact> 0.68074667E-01</totfact>
</mgrwt>
</event>
<event>
 4    1  0.2416490E+000  0.5545282E+02  0.7957747E-01  0.1417970E+00
         13   -1    0    0    0    0  0.00000000000E+00  0.00000000000E+00  0.99999944174E+02  0.99999999994E+02  0.10566000000E+00 0.  1.
         22   -1    0    0    0    0 -0.00000000000E+00 -0.00000000000E+00 -0.15774710247E+02  0.15774710247E+02  0.00000000000E+00 0. -1.
         13    1    1    2    0    0  0.59486018851E+01 -0.23229928874E+02  0.25832292794E+02  0.35246758361E+02  0.10566000000E+00 0. -1.
        996    1    1    2    0    0 -0.59486018851E+01  0.23229928874E+02  0.58392941133E+02  0.80527951880E+02  0.50000000000E+02 0.  0.
<mgrwt>
<rscale>  0 0.55452822E+02</rscale>
<asrwt>0</asrwt>
<pdfrwt beam="1">  1       13 0.10000000E+01 0.55452822E+02</pdfrwt>
<pdfrwt beam="2">  1       22 0.15774734E+00 0.55452822E+02</pdfrwt>
<totfact> 0.69639905E-01</totfact>
</mgrwt>
</event>
<event>
 4    1  0.2416490E+000  0.9789366E+02  0.7957747E-01  0.1284789E+00
         13   -1    0    0    0    0  0.00000000000E+00  0.00000000000E+00  0.99999944190E+02  0.10000000001E+03  0.10566000000E+00 0.  1.
         22   -1    0    0    0    0 -0.00000000000E+00 -0.00000000000E+00 -0.88664681785E+02  0.88664681785E+02  0.00000000000E+00 0. -1.
         13    1    1    2    0    0 -0.55526122244E+02  0.63245699527E+02 -0.18803478626E+02  0.86236597409E+02  0.10566000000E+00 0. -1.
        996    1    1    2    0    0  0.55526122244E+02 -0.63245699527E+02  0.30138741030E+02  0.10242808439E+03  0.50000000000E+02 0.  0.
<mgrwt>
<rscale>  0 0.97893660E+02</rscale>
<asrwt>0</asrwt>
<pdfrwt beam="1">  1       13 0.10000000E+01 0.97893660E+02</pdfrwt>
<pdfrwt beam="2">  1       22 0.88664685E+00 0.97893660E+02</pdfrwt>
<totfact> 0.12409772E-02</totfact>
</mgrwt>
</event>
<event>
 4    1  0.2416490E+000  0.5162286E+02  0.7957747E-01  0.1436780E+00
         13   -1    0    0    0    0  0.00000000000E+00  0.00000000000E+00  0.99999944180E+02  0.10000000000E+03  0.10566000000E+00 0.  1.
         22   -1    0    0    0    0 -0.00000000000E+00 -0.00000000000E+00 -0.12370486373E+02  0.12370486373E+02  0.00000000000E+00 0.  1.
         13    1    1    2    0    0  0.78773655895E+01 -0.10142344180E+02  0.29195319929E+01  0.13170226467E+02  0.10566000000E+00 0. -1.
        996    1    1    2    0    0 -0.78773655895E+01  0.10142344180E+02  0.84709925814E+02  0.99200259907E+02  0.50000000000E+02 0.  0.
<mgrwt>
<rscale>  0 0.51622863E+02</rscale>
<asrwt>0</asrwt>
<pdfrwt beam="1">  1       13 0.10000000E+01 0.51622863E+02</pdfrwt>
<pdfrwt beam="2">  1       22 0.12370511E+00 0.51622863E+02</pdfrwt>
<totfact> 0.10249118E+00</totfact>
</mgrwt>
</event>
<event>
 4    1  0.2416490E+000  0.5104263E+02  0.7957747E-01  0.1439798E+00
         13   -1    0    0    0    0  0.00000000000E+00  0.00000000000E+00  0.99999944172E+02  0.99999999992E+02  0.10566000000E+00 0. -1.
         22   -1    0    0    0    0 -0.00000000000E+00 -0.00000000000E+00 -0.23236215016E+02  0.23236215016E+02  0.00000000000E+00 0.  1.
         13    1    1    2    0    0 -0.23961505841E+01 -0.99803846340E+01 -0.15032921061E+02  0.18203007848E+02  0.10566000000E+00 0.  1.
        996    1    1    2    0    0  0.23961505841E+01  0.99803846340E+01  0.91796650217E+02  0.10503320716E+03  0.50000000000E+02 0.  0.
<mgrwt>
<rscale>  0 0.51042625E+02</rscale>
<asrwt>0</asrwt>
<pdfrwt beam="1">  1       13 0.10000000E+01 0.51042625E+02</pdfrwt>
<pdfrwt beam="2">  1       22 0.23236236E+00 0.51042625E+02</pdfrwt>
<totfact> 0.33968637E-01</totfact>
</mgrwt>
</event>
<event>
 4    1  0.2416490E+000  0.5101882E+02  0.7957747E-01  0.1439923E+00
         13   -1    0    0    0    0  0.00000000000E+00  0.00000000000E+00  0.99999944183E+02  0.10000000000E+03  0.10566000000E+00 0. -1.
         22   -1    0    0    0    0 -0.00000000000E+00 -0.00000000000E+00 -0.10680860862E+02  0.10680860862E+02  0.00000000000E+00 0. -1.
         13    1    1    2    0    0 -0.29678525986E+01  0.97011130455E+01  0.32978922488E+01  0.10668036403E+02  0.10566000000E+00 0.  1.
        996    1    1    2    0    0  0.29678525986E+01 -0.97011130455E+01  0.86021191072E+02  0.10001282446E+03  0.50000000000E+02 0.  0.
<mgrwt>
<rscale>  0 0.51018818E+02</rscale>
<asrwt>0</asrwt>
<pdfrwt beam="1">  1       13 0.10000000E+01 0.51018818E+02</pdfrwt>
<pdfrwt beam="2">  1       22 0.10680886E+00 0.51018818E+02</pdfrwt>
<totfact> 0.12774116E+00</totfact>
</mgrwt>
</event>
<event>
 4    1  0.2416490E+000  0.7381569E+02  0.7957747E-01  0.1347578E+00
         13   -1    0    0    0    0  0.00000000000E+00  0.00000000000E+00  0.99999944176E+02  0.99999999996E+02  0.10566000000E+00 0. -1.
         22   -1    0    0    0    0 -0.00000000000E+00 -0.00000000000E+00 -0.49251406660E+02  0.49251406660E+02  0.00000000000E+00 0.  1.
         13    1    1    2    0    0 -0.52606821591E+02  0.13463988249E+02 -0.80287825570E+01  0.54892888163E+02  0.10566000000E+00 0.  1.
        996    1    1    2    0    0  0.52606821591E+02 -0.13463988249E+02  0.58777320073E+02  0.94358518494E+02  0.50000000000E+02 0.  0.
<mgrwt>
<rscale>  0 0.73815694E+02</rscale>
<asrwt>0</asrwt>
<pdfrwt beam="1">  1       13 0.10000000E+01 0.73815694E+02</pdfrwt>
<pdfrwt beam="2">  1       22 0.49251421E+00 0.73815694E+02</pdfrwt>
<totfact> 0.77389813E-02</totfact>
</mgrwt>
</event>
<event>
 4    1  0.2416490E+000  0.5530585E+02  0.7957747E-01  0.1418658E+00
         13   -1    0    0    0    0  0.00000000000E+00  0.00000000000E+00  0.99999944177E+02  0.99999999998E+02  0.10566000000E+00 0. -1.
         22   -1    0    0    0    0 -0.00000000000E+00 -0.00000000000E+00 -0.16052397221E+02  0.16052397221E+02  0.00000000000E+00 0. -1.
         13    1    1    2    0    0 -0.13949593342E+02  0.19082618285E+02  0.16489944384E+02  0.28821292561E+02  0.10566000000E+00 0.  1.
        996    1    1    2    0    0  0.13949593342E+02 -0.19082618285E+02  0.67457602572E+02  0.87231104658E+02  0.50000000000E+02 0.  0.
<mgrwt>
<rscale>  0 0.55305854E+02</rscale>
<asrwt>0</asrwt>
<pdfrwt beam="1">  1       13 0.10000000E+01 0.55305854E+02</pdfrwt>
<pdfrwt beam="2">  1       22 0.16052421E+00 0.55305854E+02</pdfrwt>
<totfact> 0.67575799E-01</totfact>
</mgrwt>
</event>
<event>
 4    1  0.2416490E+000  0.7164393E+02  0.7957747E-01  0.1354590E+00
         13   -1    0    0    0    0  0.00000000000E+00  0.00000000000E+00  0.99999944173E+02  0.99999999993E+02  0.10566000000E+00 0. -1.
         22   -1    0    0    0    0 -0.00000000000E+00 -0.00000000000E+00 -0.42326919459E+02  0.42326919459E+02  0.00000000000E+00 0.  1.
         13    1    1    2    0    0 -0.81834020273E+01  0.50654563808E+02  0.15789642643E+01  0.51335730203E+02  0.10566000000E+00 0.  1.
        996    1    1    2    0    0  0.81834020273E+01 -0.50654563808E+02  0.56094060450E+02  0.90991189249E+02  0.50000000000E+02 0.  0.
<mgrwt>
<rscale>  0 0.71643931E+02</rscale>
<asrwt>0</asrwt>
<pdfrwt beam="1">  1       13 0.10000000E+01 0.71643931E+02</pdfrwt>
<pdfrwt beam="2">  1       22 0.42326936E+00 0.71643931E+02</pdfrwt>
<totfact> 0.11184495E-01</totfact>
</mgrwt>
</event>
<event>
 4    1  0.2416490E+000  0.5203336E+02  0.7957747E-01  0.1434673E+00
         13   -1    0    0    0    0  0.00000000000E+00  0.00000000000E+00  0.99999944184E+02  0.10000000000E+03  0.10566000000E+00 0. -1.
         22   -1    0    0    0    0 -0.00000000000E+00 -0.00000000000E+00 -0.11237745420E+02  0.11237745420E+02  0.00000000000E+00 0. -1.
         13    1    1    2    0    0  0.13540482014E+02  0.49118512182E+01  0.13513058946E+02  0.19750566111E+02  0.10566000000E+00 0.  1.
        996    1    1    2    0    0 -0.13540482014E+02 -0.49118512182E+01  0.75249139817E+02  0.91487179314E+02  0.50000000000E+02 0.  0.
<mgrwt>
<rscale>  0 0.52033364E+02</rscale>
<asrwt>0</asrwt>
<pdfrwt beam="1">  1       13 0.10000000E+01 0.52033364E+02</pdfrwt>
<pdfrwt beam="2">  1       22 0.11237770E+00 0.52033364E+02</pdfrwt>
<totfact> 0.11873082E+00</totfact>
</mgrwt>
</event>
<event>
 4    1  0.2416490E+000  0.5596819E+02  0.7957747E-01  0.1415575E+00
         13   -1    0    0    0    0  0.00000000000E+00  0.00000000000E+00  0.99999944184E+02  0.10000000000E+03  0.10566000000E+00 0.  1.
         22   -1    0    0    0    0 -0.00000000000E+00 -0.00000000000E+00 -0.18270851386E+02  0.18270851386E+02  0.00000000000E+00 0. -1.
         13    1    1    2    0    0 -0.10756781468E+01  0.25125312723E+02  0.94719185544E+01  0.26873161854E+02  0.10566000000E+00 0. -1.
        996    1    1    2    0    0  0.10756781468E+01 -0.25125312723E+02  0.72257174244E+02  0.91397689536E+02  0.50000000000E+02 0.  0.
<mgrwt>
<rscale>  0 0.55968191E+02</rscale>
<asrwt>0</asrwt>
<pdfrwt beam="1">  1       13 0.10000000E+01 0.55968191E+02</pdfrwt>
<pdfrwt beam="2">  1       22 0.18270874E+00 0.55968191E+02</pdfrwt>
<totfact> 0.53868370E-01</totfact>
</mgrwt>
</event>
<event>
 4    1  0.2416490E+000  0.5116194E+02  0.7957747E-01  0.1439173E+00
         13   -1    0    0    0    0  0.00000000000E+00  0.00000000000E+00  0.99999944177E+02  0.99999999997E+02  0.10566000000E+00 0.  1.
         22   -1    0    0    0    0 -0.00000000000E+00 -0.00000000000E+00 -0.11313209092E+02  0.11313209092E+02  0.00000000000E+00 0.  1.
         13    1    1    2    0    0  0.62418544709E+01 -0.88647135209E+01  0.37125848298E+02  0.38676655349E+02  0.10566000000E+00 0. -1.
        996    1    1    2    0    0 -0.62418544709E+01  0.88647135209E+01  0.51560886786E+02  0.72636553740E+02  0.50000000000E+02 0.  0.
<mgrwt>
<rscale>  0 0.51161938E+02</rscale>
<asrwt>0</asrwt>
<pdfrwt beam="1">  1       13 0.10000000E+01 0.51161938E+02</pdfrwt>
<pdfrwt beam="2">  1       22 0.11313234E+00 0.51161938E+02</pdfrwt>
<totfact> 0.11730960E+00</totfact>
</mgrwt>
</event>
<event>
 4    1  0.2416490E+000  0.5203210E+02  0.7957747E-01  0.1434679E+00
         13   -1    0    0    0    0  0.00000000000E+00  0.00000000000E+00  0.99999944175E+02  0.99999999996E+02  0.10566000000E+00 0.  1.
         22   -1    0    0    0    0 -0.00000000000E+00 -0.00000000000E+00 -0.14859859437E+02  0.14859859437E+02  0.00000000000E+00 0. -1.
         13    1    1    2    0    0  0.12905462608E+02 -0.63865979241E+01 -0.77127369624E+00  0.14420319876E+02  0.10566000000E+00 0. -1.
        996    1    1    2    0    0 -0.12905462608E+02  0.63865979241E+01  0.85911358435E+02  0.10043953956E+03  0.50000000000E+02 0.  0.
<mgrwt>
<rscale>  0 0.52032102E+02</rscale>
<asrwt>0</asrwt>
<pdfrwt beam="1">  1       13 0.10000000E+01 0.52032102E+02</pdfrwt>
<pdfrwt beam="2">  1       22 0.14859883E+00 0.52032102E+02</pdfrwt>
<totfact> 0.76481266E-01</totfact>
</mgrwt>
</event>
<event>
 4    1  0.2416490E+000  0.5128664E+02  0.7957747E-01  0.1438523E+00
         13   -1    0    0    0    0  0.00000000000E+00  0.00000000000E+00  0.99999944174E+02  0.99999999994E+02  0.10566000000E+00 0. -1.
         22   -1    0    0    0    0 -0.00000000000E+00 -0.00000000000E+00 -0.12595676186E+02  0.12595676186E+02  0.00000000000E+00 0.  1.
         13    1    1    2    0    0  0.11201731141E+02 -0.22000430019E+01  0.18816204555E+00  0.11417772933E+02  0.10566000000E+00 0.  1.
        996    1    1    2    0    0 -0.11201731141E+02  0.22000430019E+01  0.87216105942E+02  0.10117790325E+03  0.50000000000E+02 0.  0.
<mgrwt>
<rscale>  0 0.51286635E+02</rscale>
<asrwt>0</asrwt>
<pdfrwt beam="1">  1       13 0.10000000E+01 0.51286635E+02</pdfrwt>
<pdfrwt beam="2">  1       22 0.12595701E+00 0.51286635E+02</pdfrwt>
<totfact> 0.99586245E-01</totfact>
</mgrwt>
</event>
<event>
 4    1  0.2416490E+000  0.5209963E+02  0.7957747E-01  0.1434335E+00
         13   -1    0    0    0    0  0.00000000000E+00  0.00000000000E+00  0.99999944173E+02  0.99999999993E+02  0.10566000000E+00 0. -1.
         22   -1    0    0    0    0 -0.00000000000E+00 -0.00000000000E+00 -0.13561175972E+02  0.13561175972E+02  0.00000000000E+00 0. -1.
         13    1    1    2    0    0  0.11805632194E+02 -0.86601583964E+01  0.26265603529E+01  0.14875526151E+02  0.10566000000E+00 0.  1.
        996    1    1    2    0    0 -0.11805632194E+02  0.86601583964E+01  0.83812207848E+02  0.98685649814E+02  0.50000000000E+02 0.  0.
<mgrwt>
<rscale>  0 0.52099629E+02</rscale>
<asrwt>0</asrwt>
<pdfrwt beam="1">  1       13 0.10000000E+01 0.52099629E+02</pdfrwt>
<pdfrwt beam="2">  1       22 0.13561200E+00 0.52099629E+02</pdfrwt>
<totfact> 0.88784505E-01</totfact>
</mgrwt>
</event>
<event>
 4    1  0.2416490E+000  0.5310272E+02  0.7957747E-01  0.1429290E+00
         13   -1    0    0    0    0  0.00000000000E+00  0.00000000000E+00  0.99999944173E+02  0.99999999993E+02  0.10566000000E+00 0.  1.
         22   -1    0    0    0    0 -0.00000000000E+00 -0.00000000000E+00 -0.16247734568E+02  0.16247734568E+02  0.00000000000E+00 0. -1.
         13    1    1    2    0    0 -0.15821102703E+02 -0.83421709255E+01  0.98898926026E+00  0.17913357315E+02  0.10566000000E+00 0. -1.
        996    1    1    2    0    0  0.15821102703E+02  0.83421709255E+01  0.82763220345E+02  0.98334377246E+02  0.50000000000E+02 0.  0.
<mgrwt>
<rscale>  0 0.53102722E+02</rscale>
<asrwt>0</asrwt>
<pdfrwt beam="1">  1       13 0.10000000E+01 0.53102722E+02</pdfrwt>
<pdfrwt beam="2">  1       22 0.16247758E+00 0.53102722E+02</pdfrwt>
<totfact> 0.65910630E-01</totfact>
</mgrwt>
</event>
<event>
 4    1  0.2416490E+000  0.5134613E+02  0.7957747E-01  0.1438213E+00
         13   -1    0    0    0    0  0.00000000000E+00  0.00000000000E+00  0.99999944179E+02  0.99999999999E+02  0.10566000000E+00 0.  1.
         22   -1    0    0    0    0 -0.00000000000E+00 -0.00000000000E+00 -0.44760052932E+02  0.44760052932E+02  0.00000000000E+00 0. -1.
         13    1    1    2    0    0  0.56495534265E+01  0.10222897479E+02 -0.37214463616E+02  0.39004519649E+02  0.10566000000E+00 0. -1.
        996    1    1    2    0    0 -0.56495534265E+01 -0.10222897479E+02  0.92454354863E+02  0.10575553328E+03  0.50000000000E+02 0.  0.
<mgrwt>
<rscale>  0 0.51346130E+02</rscale>
<asrwt>0</asrwt>
<pdfrwt beam="1">  1       13 0.10000000E+01 0.51346130E+02</pdfrwt>
<pdfrwt beam="2">  1       22 0.44760068E+00 0.51346130E+02</pdfrwt>
<totfact> 0.97790907E-02</totfact>
</mgrwt>
</event>
<event>
 4    1  0.2416490E+000  0.5229515E+02  0.7957747E-01  0.1433341E+00
         13   -1    0    0    0    0  0.00000000000E+00  0.00000000000E+00  0.99999944182E+02  0.10000000000E+03  0.10566000000E+00 0.  1.
         22   -1    0    0    0    0 -0.00000000000E+00 -0.00000000000E+00 -0.12517427157E+02  0.12517427157E+02  0.00000000000E+00 0. -1.
         13    1    1    2    0    0  0.66873996399E-01  0.15322474236E+02  0.77662121634E+01  0.17178704964E+02  0.10566000000E+00 0. -1.
        996    1    1    2    0    0 -0.66873996399E-01 -0.15322474236E+02  0.79716304862E+02  0.95338722194E+02  0.50000000000E+02 0.  0.
<mgrwt>
<rscale>  0 0.52295150E+02</rscale>
<asrwt>0</asrwt>
<pdfrwt beam="1">  1       13 0.10000000E+01 0.52295150E+02</pdfrwt>
<pdfrwt beam="2">  1       22 0.12517452E+00 0.52295150E+02</pdfrwt>
<totfact> 0.10078036E+00</totfact>
</mgrwt>
</event>
<event>
 4    1  0.2416490E+000  0.5122993E+02  0.7957747E-01  0.1438818E+00
         13   -1    0    0    0    0  0.00000000000E+00  0.00000000000E+00  0.99999944185E+02  0.10000000000E+03  0.10566000000E+00 0.  1.
         22   -1    0    0    0    0 -0.00000000000E+00 -0.00000000000E+00 -0.12010214551E+02  0.12010214551E+02  0.00000000000E+00 0.  1.
         13    1    1    2    0    0  0.33393448522E+00  0.11153233453E+02  0.11928645788E+01  0.11222308971E+02  0.10566000000E+00 0. -1.
        996    1    1    2    0    0 -0.33393448522E+00 -0.11153233453E+02  0.86796865055E+02  0.10078790558E+03  0.50000000000E+02 0.  0.
<mgrwt>
<rscale>  0 0.51229934E+02</rscale>
<asrwt>0</asrwt>
<pdfrwt beam="1">  1       13 0.10000000E+01 0.51229934E+02</pdfrwt>
<pdfrwt beam="2">  1       22 0.12010239E+00 0.51229934E+02</pdfrwt>
<totfact> 0.10716795E+00</totfact>
</mgrwt>
</event>
<event>
 4    1  0.2416490E+000  0.5501236E+02  0.7957747E-01  0.1420040E+00
         13   -1    0    0    0    0  0.00000000000E+00  0.00000000000E+00  0.99999944180E+02  0.10000000000E+03  0.10566000000E+00 0. -1.
         22   -1    0    0    0    0 -0.00000000000E+00 -0.00000000000E+00 -0.25396079251E+02  0.25396079251E+02  0.00000000000E+00 0.  1.
         13    1    1    2    0    0  0.59383819639E+01  0.22160678307E+02 -0.95543722554E+01  0.24852710850E+02  0.10566000000E+00 0.  1.
        996    1    1    2    0    0 -0.59383819639E+01 -0.22160678307E+02  0.84158237185E+02  0.10054336840E+03  0.50000000000E+02 0.  0.
<mgrwt>
<rscale>  0 0.55012363E+02</rscale>
<asrwt>0</asrwt>
<pdfrwt beam="1">  1       13 0.10000000E+01 0.55012363E+02</pdfrwt>
<pdfrwt beam="2">  1       22 0.25396100E+00 0.55012363E+02</pdfrwt>
<totfact> 0.28711360E-01</totfact>
</mgrwt>
</event>
<event>
 4    1  0.2416490E+000  0.5718388E+02  0.7957747E-01  0.1410045E+00
         13   -1    0    0    0    0  0.00000000000E+00  0.00000000000E+00  0.99999944177E+02  0.99999999997E+02  0.10566000000E+00 0.  1.
         22   -1    0    0    0    0 -0.00000000000E+00 -0.00000000000E+00 -0.56500389486E+02  0.56500389486E+02  0.00000000000E+00 0. -1.
         13    1    1    2    0    0  0.18428699569E+02  0.20745588804E+02 -0.43971936879E+02  0.51995565383E+02  0.10566000000E+00 0. -1.
        996    1    1    2    0    0 -0.18428699569E+02 -0.20745588804E+02  0.87471491570E+02  0.10450482410E+03  0.50000000000E+02 0.  0.
<mgrwt>
<rscale>  0 0.57183883E+02</rscale>
<asrwt>0</asrwt>
<pdfrwt beam="1">  1       13 0.10000000E+01 0.57183883E+02</pdfrwt>
<pdfrwt beam="2">  1       22 0.56500402E+00 0.57183883E+02</pdfrwt>
<totfact> 0.58124228E-02</totfact>
</mgrwt>
</event>
<event>
 4    1  0.2416490E+000  0.5126235E+02  0.7957747E-01  0.1438649E+00
         13   -1    0    0    0    0  0.00000000000E+00  0.00000000000E+00  0.99999944179E+02  0.10000000000E+03  0.10566000000E+00 0. -1.
         22   -1    0    0    0    0 -0.00000000000E+00 -0.00000000000E+00 -0.14858975944E+02  0.14858975944E+02  0.00000000000E+00 0. -1.
         13    1    1    2    0    0  0.73643725647E+01 -0.85787426815E+01 -0.40299411626E+01  0.12003349494E+02  0.10566000000E+00 0.  1.
        996    1    1    2    0    0 -0.73643725647E+01  0.85787426815E+01  0.89170909399E+02  0.10285562645E+03  0.50000000000E+02 0.  0.
<mgrwt>
<rscale>  0 0.51262353E+02</rscale>
<asrwt>0</asrwt>
<pdfrwt beam="1">  1       13 0.10000000E+01 0.51262353E+02</pdfrwt>
<pdfrwt beam="2">  1       22 0.14859000E+00 0.51262353E+02</pdfrwt>
<totfact> 0.76367260E-01</totfact>
</mgrwt>
</event>
<event>
 4    1  0.2416490E+000  0.5916644E+02  0.7957747E-01  0.1401363E+00
         13   -1    0    0    0    0  0.00000000000E+00  0.00000000000E+00  0.99999944167E+02  0.99999999987E+02  0.10566000000E+00 0. -1.
         22   -1    0    0    0    0 -0.00000000000E+00 -0.00000000000E+00 -0.74796894665E+02  0.74796894665E+02  0.00000000000E+00 0.  1.
         13    1    1    2    0    0 -0.24472059051E+02  0.20044609423E+02 -0.61890980843E+02  0.69506637919E+02  0.10566000000E+00 0.  1.
        996    1    1    2    0    0  0.24472059051E+02 -0.20044609423E+02  0.87094030344E+02  0.10529025673E+03  0.50000000000E+02 0.  0.
<mgrwt>
<rscale>  0 0.59166444E+02</rscale>
<asrwt>0</asrwt>
<pdfrwt beam="1">  1       13 0.10000000E+01 0.59166444E+02</pdfrwt>
<pdfrwt beam="2">  1       22 0.74796902E+00 0.59166444E+02</pdfrwt>
<totfact> 0.49946208E-02</totfact>
</mgrwt>
</event>
<event>
 4    1  0.2416490E+000  0.5110931E+02  0.7957747E-01  0.1439448E+00
         13   -1    0    0    0    0  0.00000000000E+00  0.00000000000E+00  0.99999944181E+02  0.10000000000E+03  0.10566000000E+00 0.  1.
         22   -1    0    0    0    0 -0.00000000000E+00 -0.00000000000E+00 -0.10967843510E+02  0.10967843510E+02  0.00000000000E+00 0.  1.
         13    1    1    2    0    0  0.73474122637E+01  0.76274241008E+01  0.35110481660E+02  0.36673139378E+02  0.10566000000E+00 0. -1.
        996    1    1    2    0    0 -0.73474122637E+01 -0.76274241008E+01  0.53921619011E+02  0.74294704133E+02  0.50000000000E+02 0.  0.
<mgrwt>
<rscale>  0 0.51109315E+02</rscale>
<asrwt>0</asrwt>
<pdfrwt beam="1">  1       13 0.10000000E+01 0.51109315E+02</pdfrwt>
<pdfrwt beam="2">  1       22 0.10967868E+00 0.51109315E+02</pdfrwt>
<totfact> 0.12285163E+00</totfact>
</mgrwt>
</event>
<event>
 4    1  0.2416490E+000  0.5263664E+02  0.7957747E-01  0.1431618E+00
         13   -1    0    0    0    0  0.00000000000E+00  0.00000000000E+00  0.99999944173E+02  0.99999999994E+02  0.10566000000E+00 0.  1.
         22   -1    0    0    0    0 -0.00000000000E+00 -0.00000000000E+00 -0.23246748084E+02  0.23246748084E+02  0.00000000000E+00 0. -1.
         13    1    1    2    0    0  0.28721119539E+01  0.16197750359E+02 -0.11790032762E+02  0.20239372034E+02  0.10566000000E+00 0. -1.
        996    1    1    2    0    0 -0.28721119539E+01 -0.16197750359E+02  0.88543228852E+02  0.10300737604E+03  0.50000000000E+02 0.  0.
<mgrwt>
<rscale>  0 0.52636643E+02</rscale>
<asrwt>0</asrwt>
<pdfrwt beam="1">  1       13 0.10000000E+01 0.52636643E+02</pdfrwt>
<pdfrwt beam="2">  1       22 0.23246770E+00 0.52636643E+02</pdfrwt>
<totfact> 0.34028356E-01</totfact>
</mgrwt>
</event>
<event>
 4    1  0.2416490E+000  0.5109606E+02  0.7957747E-01  0.1439518E+00
         13   -1    0    0    0    0  0.00000000000E+00  0.00000000000E+00  0.99999944178E+02  0.99999999999E+02  0.10566000000E+00 0. -1.
         22   -1    0    0    0    0 -0.00000000000E+00 -0.00000000000E+00 -0.98305247917E+01  0.98305247917E+01  0.00000000000E+00 0. -1.
         13    1    1    2    0    0  0.44027952874E+01  0.95615209394E+01  0.24174672185E+02  0.26367275709E+02  0.10566000000E+00 0.  1.
        996    1    1    2    0    0 -0.44027952874E+01 -0.95615209394E+01  0.65994747202E+02  0.83463249081E+02  0.50000000000E+02 0.  0.
<mgrwt>
<rscale>  0 0.51096059E+02</rscale>
<asrwt>0</asrwt>
<pdfrwt beam="1">  1       13 0.10000000E+01 0.51096059E+02</pdfrwt>
<pdfrwt beam="2">  1       22 0.98305500E-01 0.51096059E+02</pdfrwt>
<totfact> 0.14418734E+00</totfact>
</mgrwt>
</event>
<event>
 4    1  0.2416490E+000  0.5498572E+02  0.7957747E-01  0.1420166E+00
         13   -1    0    0    0    0  0.00000000000E+00  0.00000000000E+00  0.99999944177E+02  0.99999999997E+02  0.10566000000E+00 0.  1.
         22   -1    0    0    0    0 -0.00000000000E+00 -0.00000000000E+00 -0.15372529300E+02  0.15372529300E+02  0.00000000000E+00 0. -1.
         13    1    1    2    0    0 -0.16199209604E+02 -0.16155967755E+02  0.18881505105E+02  0.29663986330E+02  0.10566000000E+00 0. -1.
        996    1    1    2    0    0  0.16199209604E+02  0.16155967755E+02  0.65745909772E+02  0.85708542968E+02  0.50000000000E+02 0.  0.
<mgrwt>
<rscale>  0 0.54985723E+02</rscale>
<asrwt>0</asrwt>
<pdfrwt beam="1">  1       13 0.10000000E+01 0.54985723E+02</pdfrwt>
<pdfrwt beam="2">  1       22 0.15372553E+00 0.54985723E+02</pdfrwt>
<totfact> 0.72688954E-01</totfact>
</mgrwt>
</event>
<event>
 4    1  0.2416490E+000  0.5195961E+02  0.7957747E-01  0.1435050E+00
         13   -1    0    0    0    0  0.00000000000E+00  0.00000000000E+00  0.99999944176E+02  0.99999999996E+02  0.10566000000E+00 0.  1.
         22   -1    0    0    0    0 -0.00000000000E+00 -0.00000000000E+00 -0.11783713226E+02  0.11783713226E+02  0.00000000000E+00 0.  1.
         13    1    1    2    0    0  0.10000762118E+02 -0.99893097787E+01  0.33331755735E+02  0.36205229694E+02  0.10566000000E+00 0. -1.
        996    1    1    2    0    0 -0.10000762118E+02  0.99893097787E+01  0.54884475215E+02  0.75578483528E+02  0.50000000000E+02 0.  0.
<mgrwt>
<rscale>  0 0.51959615E+02</rscale>
<asrwt>0</asrwt>
<pdfrwt beam="1">  1       13 0.10000000E+01 0.51959615E+02</pdfrwt>
<pdfrwt beam="2">  1       22 0.11783738E+00 0.51959615E+02</pdfrwt>
<totfact> 0.11051049E+00</totfact>
</mgrwt>
</event>
<event>
 4    1  0.2416490E+000  0.6046995E+02  0.7957747E-01  0.1395870E+00
         13   -1    0    0    0    0  0.00000000000E+00  0.00000000000E+00  0.99999944176E+02  0.99999999996E+02  0.10566000000E+00 0. -1.
         22   -1    0    0    0    0 -0.00000000000E+00 -0.00000000000E+00 -0.22337737011E+02  0.22337737011E+02  0.00000000000E+00 0. -1.
         13    1    1    2    0    0 -0.16725680573E+02  0.29611940406E+02  0.26124498424E+02  0.42884915613E+02  0.10566000000E+00 0.  1.
        996    1    1    2    0    0  0.16725680573E+02 -0.29611940406E+02  0.51537708741E+02  0.79452821394E+02  0.50000000000E+02 0.  0.
<mgrwt>
<rscale>  0 0.60469955E+02</rscale>
<asrwt>0</asrwt>
<pdfrwt beam="1">  1       13 0.10000000E+01 0.60469955E+02</pdfrwt>
<pdfrwt beam="2">  1       22 0.22337759E+00 0.60469955E+02</pdfrwt>
<totfact> 0.37214650E-01</totfact>
</mgrwt>
</event>
<event>
 4    1  0.2416490E+000  0.5721203E+02  0.7957747E-01  0.1409918E+00
         13   -1    0    0    0    0  0.00000000000E+00  0.00000000000E+00  0.99999944186E+02  0.10000000001E+03  0.10566000000E+00 0.  1.
         22   -1    0    0    0    0 -0.00000000000E+00 -0.00000000000E+00 -0.25639147450E+02  0.25639147450E+02  0.00000000000E+00 0. -1.
         13    1    1    2    0    0  0.27805365794E+02  0.27835877774E+00 -0.45435979307E+01  0.28175721761E+02  0.10566000000E+00 0. -1.
        996    1    1    2    0    0 -0.27805365794E+02 -0.27835877774E+00  0.78904394666E+02  0.97463425695E+02  0.50000000000E+02 0.  0.
<mgrwt>
<rscale>  0 0.57212025E+02</rscale>
<asrwt>0</asrwt>
<pdfrwt beam="1">  1       13 0.10000000E+01 0.57212025E+02</pdfrwt>
<pdfrwt beam="2">  1       22 0.25639168E+00 0.57212025E+02</pdfrwt>
<totfact> 0.28265310E-01</totfact>
</mgrwt>
</event>
<event>
 4    1  0.2416490E+000  0.5139370E+02  0.7957747E-01  0.1437966E+00
         13   -1    0    0    0    0  0.00000000000E+00  0.00000000000E+00  0.99999944176E+02  0.99999999996E+02  0.10566000000E+00 0. -1.
         22   -1    0    0    0    0 -0.00000000000E+00 -0.00000000000E+00 -0.36104736019E+02  0.36104736019E+02  0.00000000000E+00 0.  1.
         13    1    1    2    0    0 -0.37485316608E+01 -0.11280994761E+02 -0.28220357371E+02  0.30622084622E+02  0.10566000000E+00 0.  1.
        996    1    1    2    0    0  0.37485316608E+01  0.11280994761E+02  0.92115565528E+02  0.10548265139E+03  0.50000000000E+02 0.  0.
<mgrwt>
<rscale>  0 0.51393699E+02</rscale>
<asrwt>0</asrwt>
<pdfrwt beam="1">  1       13 0.10000000E+01 0.51393699E+02</pdfrwt>
<pdfrwt beam="2">  1       22 0.36104754E+00 0.51393699E+02</pdfrwt>
<totfact> 0.14875577E-01</totfact>
</mgrwt>
</event>
<event>
 4    1  0.2416490E+000  0.5123343E+02  0.7957747E-01  0.1438800E+00
         13   -1    0    0    0    0  0.00000000000E+00  0.00000000000E+00  0.99999944181E+02  0.10000000000E+03  0.10566000000E+00 0. -1.
         22   -1    0    0    0    0 -0.00000000000E+00 -0.00000000000E+00 -0.97767734161E+01  0.97767734161E+01  0.00000000000E+00 0. -1.
         13    1    1    2    0    0 -0.29643555463E-01  0.11174235610E+02  0.13582772605E+02  0.17588840095E+02  0.10566000000E+00 0.  1.
        996    1    1    2    0    0  0.29643555463E-01 -0.11174235610E+02  0.76640398160E+02  0.92187933323E+02  0.50000000000E+02 0.  0.
<mgrwt>
<rscale>  0 0.51233431E+02</rscale>
<asrwt>0</asrwt>
<pdfrwt beam="1">  1       13 0.10000000E+01 0.51233431E+02</pdfrwt>
<pdfrwt beam="2">  1       22 0.97767986E-01 0.51233431E+02</pdfrwt>
<totfact> 0.14537961E+00</totfact>
</mgrwt>
</event>
<event>
 4    1  0.2416490E+000  0.5273404E+02  0.7957747E-01  0.1431129E+00
         13   -1    0    0    0    0  0.00000000000E+00  0.00000000000E+00  0.99999944174E+02  0.99999999995E+02  0.10566000000E+00 0.  1.
         22   -1    0    0    0    0 -0.00000000000E+00 -0.00000000000E+00 -0.62721574763E+02  0.62721574763E+02  0.00000000000E+00 0. -1.
         13    1    1    2    0    0 -0.90939760873E+01 -0.14077575985E+02 -0.54419440819E+02  0.56941770694E+02  0.10566000000E+00 0. -1.
        996    1    1    2    0    0  0.90939760873E+01  0.14077575985E+02  0.91697810230E+02  0.10577980406E+03  0.50000000000E+02 0.  0.
<mgrwt>
<rscale>  0 0.52734036E+02</rscale>
<asrwt>0</asrwt>
<pdfrwt beam="1">  1       13 0.10000000E+01 0.52734036E+02</pdfrwt>
<pdfrwt beam="2">  1       22 0.62721585E+00 0.52734036E+02</pdfrwt>
<totfact> 0.77144488E-02</totfact>
</mgrwt>
</event>
<event>
 4    1  0.2416490E+000  0.5308394E+02  0.7957747E-01  0.1429384E+00
         13   -1    0    0    0    0  0.00000000000E+00  0.00000000000E+00  0.99999944186E+02  0.10000000001E+03  0.10566000000E+00 0.  1.
         22   -1    0    0    0    0 -0.00000000000E+00 -0.00000000000E+00 -0.19854778419E+02  0.19854778419E+02  0.00000000000E+00 0. -1.
         13    1    1    2    0    0  0.24454617841E+01  0.17661394748E+02 -0.58754987515E+01  0.18773326753E+02  0.10566000000E+00 0. -1.
        996    1    1    2    0    0 -0.24454617841E+01 -0.17661394748E+02  0.86020664519E+02  0.10108145167E+03  0.50000000000E+02 0.  0.
<mgrwt>
<rscale>  0 0.53083944E+02</rscale>
<asrwt>0</asrwt>
<pdfrwt beam="1">  1       13 0.10000000E+01 0.53083944E+02</pdfrwt>
<pdfrwt beam="2">  1       22 0.19854801E+00 0.53083944E+02</pdfrwt>
<totfact> 0.46016050E-01</totfact>
</mgrwt>
</event>
<event>
 4    1  0.2416490E+000  0.6878458E+02  0.7957747E-01  0.1364276E+00
         13   -1    0    0    0    0  0.00000000000E+00  0.00000000000E+00  0.99999944176E+02  0.99999999996E+02  0.10566000000E+00 0. -1.
         22   -1    0    0    0    0 -0.00000000000E+00 -0.00000000000E+00 -0.36367426228E+02  0.36367426228E+02  0.00000000000E+00 0.  1.
         13    1    1    2    0    0 -0.46080617202E+02  0.10387272397E+02  0.44678397427E+02  0.65019143875E+02  0.10566000000E+00 0.  1.
        996    1    1    2    0    0  0.46080617202E+02 -0.10387272397E+02  0.18954120520E+02  0.71348282349E+02  0.50000000000E+02 0.  0.
<mgrwt>
<rscale>  0 0.68784582E+02</rscale>
<asrwt>0</asrwt>
<pdfrwt beam="1">  1       13 0.10000000E+01 0.68784582E+02</pdfrwt>
<pdfrwt beam="2">  1       22 0.36367444E+00 0.68784582E+02</pdfrwt>
<totfact> 0.14902760E-01</totfact>
</mgrwt>
</event>
<event>
 4    1  0.2416490E+000  0.5467407E+02  0.7957747E-01  0.1421647E+00
         13   -1    0    0    0    0  0.00000000000E+00  0.00000000000E+00  0.99999944179E+02  0.10000000000E+03  0.10566000000E+00 0. -1.
         22   -1    0    0    0    0 -0.00000000000E+00 -0.00000000000E+00 -0.22903907183E+02  0.22903907183E+02  0.00000000000E+00 0.  1.
         13    1    1    2    0    0 -0.20897120722E+02 -0.72500978880E+01 -0.64656668065E+01  0.23044947063E+02  0.10566000000E+00 0.  1.
        996    1    1    2    0    0  0.20897120722E+02  0.72500978880E+01  0.83561703803E+02  0.99858960120E+02  0.50000000000E+02 0.  0.
<mgrwt>
<rscale>  0 0.54674067E+02</rscale>
<asrwt>0</asrwt>
<pdfrwt beam="1">  1       13 0.10000000E+01 0.54674067E+02</pdfrwt>
<pdfrwt beam="2">  1       22 0.22903929E+00 0.54674067E+02</pdfrwt>
<totfact> 0.35141626E-01</totfact>
</mgrwt>
</event>
<event>
 4    1  0.2416490E+000  0.5519319E+02  0.7957747E-01  0.1419187E+00
         13   -1    0    0    0    0  0.00000000000E+00  0.00000000000E+00  0.99999944176E+02  0.99999999996E+02  0.10566000000E+00 0.  1.
         22   -1    0    0    0    0 -0.00000000000E+00 -0.00000000000E+00 -0.22456149835E+02  0.22456149835E+02  0.00000000000E+00 0. -1.
         13    1    1    2    0    0 -0.12540048954E+01  0.23339151105E+02 -0.42758526904E+01  0.23760946590E+02  0.10566000000E+00 0. -1.
        996    1    1    2    0    0  0.12540048954E+01 -0.23339151105E+02  0.81819647031E+02  0.98695203241E+02  0.50000000000E+02 0.  0.
<mgrwt>
<rscale>  0 0.55193193E+02</rscale>
<asrwt>0</asrwt>
<pdfrwt beam="1">  1       13 0.10000000E+01 0.55193193E+02</pdfrwt>
<pdfrwt beam="2">  1       22 0.22456171E+00 0.55193193E+02</pdfrwt>
<totfact> 0.36543939E-01</totfact>
</mgrwt>
</event>
<event>
 4    1  0.2416490E+000  0.5423605E+02  0.7957747E-01  0.1423747E+00
         13   -1    0    0    0    0  0.00000000000E+00  0.00000000000E+00  0.99999944172E+02  0.99999999992E+02  0.10566000000E+00 0.  1.
         22   -1    0    0    0    0 -0.00000000000E+00 -0.00000000000E+00 -0.14157268850E+02  0.14157268850E+02  0.00000000000E+00 0.  1.
         13    1    1    2    0    0  0.26205882690E+01 -0.20849015743E+02  0.23517501226E+02  0.31537802211E+02  0.10566000000E+00 0. -1.
        996    1    1    2    0    0 -0.26205882690E+01  0.20849015743E+02  0.62325174096E+02  0.82619466631E+02  0.50000000000E+02 0.  0.
<mgrwt>
<rscale>  0 0.54236048E+02</rscale>
<asrwt>0</asrwt>
<pdfrwt beam="1">  1       13 0.10000000E+01 0.54236048E+02</pdfrwt>
<pdfrwt beam="2">  1       22 0.14157293E+00 0.54236048E+02</pdfrwt>
<totfact> 0.83191005E-01</totfact>
</mgrwt>
</event>
<event>
 4    1  0.2416490E+000  0.5498014E+02  0.7957747E-01  0.1420193E+00
         13   -1    0    0    0    0  0.00000000000E+00  0.00000000000E+00  0.99999944175E+02  0.99999999996E+02  0.10566000000E+00 0.  1.
         22   -1    0    0    0    0 -0.00000000000E+00 -0.00000000000E+00 -0.16603975135E+02  0.16603975135E+02  0.00000000000E+00 0.  1.
         13    1    1    2    0    0  0.16776649348E+02 -0.15535770846E+02  0.10144630185E+02  0.25014812107E+02  0.10566000000E+00 0. -1.
        996    1    1    2    0    0 -0.16776649348E+02  0.15535770846E+02  0.73251338856E+02  0.91589163023E+02  0.50000000000E+02 0.  0.
<mgrwt>
<rscale>  0 0.54980143E+02</rscale>
<asrwt>0</asrwt>
<pdfrwt beam="1">  1       13 0.10000000E+01 0.54980143E+02</pdfrwt>
<pdfrwt beam="2">  1       22 0.16603998E+00 0.54980143E+02</pdfrwt>
<totfact> 0.63709178E-01</totfact>
</mgrwt>
</event>
<event>
 4    1  0.2416490E+000  0.5158447E+02  0.7957747E-01  0.1436978E+00
         13   -1    0    0    0    0  0.00000000000E+00  0.00000000000E+00  0.99999944180E+02  0.10000000000E+03  0.10566000000E+00 0.  1.
         22   -1    0    0    0    0 -0.00000000000E+00 -0.00000000000E+00 -0.12920224790E+02  0.12920224790E+02  0.00000000000E+00 0. -1.
         13    1    1    2    0    0 -0.35778344874E+01 -0.12171954547E+02  0.12065412847E+01  0.12744578573E+02  0.10566000000E+00 0. -1.
        996    1    1    2    0    0  0.35778344874E+01  0.12171954547E+02  0.85873178105E+02  0.10017564622E+03  0.50000000000E+02 0.  0.
<mgrwt>
<rscale>  0 0.51584468E+02</rscale>
<asrwt>0</asrwt>
<pdfrwt beam="1">  1       13 0.10000000E+01 0.51584468E+02</pdfrwt>
<pdfrwt beam="2">  1       22 0.12920249E+00 0.51584468E+02</pdfrwt>
<totfact> 0.95763697E-01</totfact>
</mgrwt>
</event>
<event>
 4    1  0.2416490E+000  0.5254920E+02  0.7957747E-01  0.1432058E+00
         13   -1    0    0    0    0  0.00000000000E+00  0.00000000000E+00  0.99999944181E+02  0.10000000000E+03  0.10566000000E+00 0. -1.
         22   -1    0    0    0    0 -0.00000000000E+00 -0.00000000000E+00 -0.30284133384E+02  0.30284133384E+02  0.00000000000E+00 0.  1.
         13    1    1    2    0    0  0.60256718795E+01  0.15003667256E+02 -0.20360793081E+02  0.25999842531E+02  0.10566000000E+00 0.  1.
        996    1    1    2    0    0 -0.60256718795E+01 -0.15003667256E+02  0.90076603878E+02  0.10428429085E+03  0.50000000000E+02 0.  0.
<mgrwt>
<rscale>  0 0.52549203E+02</rscale>
<asrwt>0</asrwt>
<pdfrwt beam="1">  1       13 0.10000000E+01 0.52549203E+02</pdfrwt>
<pdfrwt beam="2">  1       22 0.30284153E+00 0.52549203E+02</pdfrwt>
<totfact> 0.20357082E-01</totfact>
</mgrwt>
</event>
<event>
 4    1  0.2416490E+000  0.5652973E+02  0.7957747E-01  0.1413000E+00
         13   -1    0    0    0    0  0.00000000000E+00  0.00000000000E+00  0.99999944178E+02  0.99999999999E+02  0.10566000000E+00 0.  1.
         22   -1    0    0    0    0 -0.00000000000E+00 -0.00000000000E+00 -0.61787429634E+02  0.61787429634E+02  0.00000000000E+00 0. -1.
         13    1    1    2    0    0  0.23114642147E+02  0.12701321713E+02 -0.50281437073E+02  0.56778907465E+02  0.10566000000E+00 0. -1.
        996    1    1    2    0    0 -0.23114642147E+02 -0.12701321713E+02  0.88493951617E+02  0.10500852217E+03  0.50000000000E+02 0.  0.
<mgrwt>
<rscale>  0 0.56529729E+02</rscale>
<asrwt>0</asrwt>
<pdfrwt beam="1">  1       13 0.10000000E+01 0.56529729E+02</pdfrwt>
<pdfrwt beam="2">  1       22 0.61787440E+00 0.56529729E+02</pdfrwt>
<totfact> 0.71689512E-02</totfact>
</mgrwt>
</event>
<event>
 4    1  0.2416490E+000  0.5518063E+02  0.7957747E-01  0.1419247E+00
         13   -1    0    0    0    0  0.00000000000E+00  0.00000000000E+00  0.99999944189E+02  0.10000000001E+03  0.10566000000E+00 0.  1.
         22   -1    0    0    0    0 -0.00000000000E+00 -0.00000000000E+00 -0.19893606571E+02  0.19893606571E+02  0.00000000000E+00 0.  1.
         13    1    1    2    0    0 -0.10312093827E+02  0.20941887394E+02  0.89964922904E+00  0.23360703317E+02  0.10566000000E+00 0. -1.
        996    1    1    2    0    0  0.10312093827E+02 -0.20941887394E+02  0.79206688389E+02  0.96532903262E+02  0.50000000000E+02 0.  0.
<mgrwt>
<rscale>  0 0.55180630E+02</rscale>
<asrwt>0</asrwt>
<pdfrwt beam="1">  1       13 0.10000000E+01 0.55180630E+02</pdfrwt>
<pdfrwt beam="2">  1       22 0.19893629E+00 0.55180630E+02</pdfrwt>
<totfact> 0.46014988E-01</totfact>
</mgrwt>
</event>
<event>
 4    1  0.2416490E+000  0.5119428E+02  0.7957747E-01  0.1439004E+00
         13   -1    0    0    0    0  0.00000000000E+00  0.00000000000E+00  0.99999944183E+02  0.10000000000E+03  0.10566000000E+00 0.  1.
         22   -1    0    0    0    0 -0.00000000000E+00 -0.00000000000E+00 -0.15266762890E+02  0.15266762890E+02  0.00000000000E+00 0.  1.
         13    1    1    2    0    0 -0.69061155688E+01  0.85533511206E+01 -0.49058558474E+01  0.12038805309E+02  0.10566000000E+00 0. -1.
        996    1    1    2    0    0  0.69061155688E+01 -0.85533511206E+01  0.89639037140E+02  0.10322795758E+03  0.50000000000E+02 0.  0.
<mgrwt>
<rscale>  0 0.51194279E+02</rscale>
<asrwt>0</asrwt>
<pdfrwt beam="1">  1       13 0.10000000E+01 0.51194279E+02</pdfrwt>
<pdfrwt beam="2">  1       22 0.15266787E+00 0.51194279E+02</pdfrwt>
<totfact> 0.72986648E-01</totfact>
</mgrwt>
</event>
<event>
 4    1  0.2416490E+000  0.6416184E+02  0.7957747E-01  0.1381152E+00
         13   -1    0    0    0    0  0.00000000000E+00  0.00000000000E+00  0.99999944166E+02  0.99999999986E+02  0.10566000000E+00 0. -1.
         22   -1    0    0    0    0 -0.00000000000E+00 -0.00000000000E+00 -0.69848374131E+02  0.69848374131E+02  0.00000000000E+00 0.  1.
         13    1    1    2    0    0 -0.23267824098E+02 -0.32792532026E+02 -0.51922502456E+02  0.65671144503E+02  0.10566000000E+00 0.  1.
        996    1    1    2    0    0  0.23267824098E+02  0.32792532026E+02  0.82074072491E+02  0.10417722961E+03  0.50000000000E+02 0.  0.
<mgrwt>
<rscale>  0 0.64161841E+02</rscale>
<asrwt>0</asrwt>
<pdfrwt beam="1">  1       13 0.10000000E+01 0.64161841E+02</pdfrwt>
<pdfrwt beam="2">  1       22 0.69848383E+00 0.64161841E+02</pdfrwt>
<totfact> 0.75402944E-02</totfact>
</mgrwt>
</event>
<event>
 4    1  0.2416490E+000  0.6319626E+02  0.7957747E-01  0.1384888E+00
         13   -1    0    0    0    0  0.00000000000E+00  0.00000000000E+00  0.99999944183E+02  0.10000000000E+03  0.10566000000E+00 0. -1.
         22   -1    0    0    0    0 -0.00000000000E+00 -0.00000000000E+00 -0.79132700410E+02  0.79132700410E+02  0.00000000000E+00 0.  1.
         13    1    1    2    0    0  0.36132113931E+02  0.13719988068E+02 -0.63127319854E+02  0.74019169178E+02  0.10566000000E+00 0.  1.
        996    1    1    2    0    0 -0.36132113931E+02 -0.13719988068E+02  0.83994563628E+02  0.10511353124E+03  0.50000000000E+02 0.  0.
<mgrwt>
<rscale>  0 0.63196264E+02</rscale>
<asrwt>0</asrwt>
<pdfrwt beam="1">  1       13 0.10000000E+01 0.63196264E+02</pdfrwt>
<pdfrwt beam="2">  1       22 0.79132706E+00 0.63196264E+02</pdfrwt>
<totfact> 0.33436182E-02</totfact>
</mgrwt>
</event>
<event>
 4    1  0.2416490E+000  0.5974731E+02  0.7957747E-01  0.1398895E+00
         13   -1    0    0    0    0  0.00000000000E+00  0.00000000000E+00  0.99999944180E+02  0.10000000000E+03  0.10566000000E+00 0.  1.
         22   -1    0    0    0    0 -0.00000000000E+00 -0.00000000000E+00 -0.26798066851E+02  0.26798066851E+02  0.00000000000E+00 0.  1.
         13    1    1    2    0    0  0.24581786564E+02 -0.21574912780E+02  0.52040750023E+00  0.32711207256E+02  0.10566000000E+00 0. -1.
        996    1    1    2    0    0 -0.24581786564E+02  0.21574912780E+02  0.72681469829E+02  0.94086859596E+02  0.50000000000E+02 0.  0.
<mgrwt>
<rscale>  0 0.59747310E+02</rscale>
<asrwt>0</asrwt>
<pdfrwt beam="1">  1       13 0.10000000E+01 0.59747310E+02</pdfrwt>
<pdfrwt beam="2">  1       22 0.26798087E+00 0.59747310E+02</pdfrwt>
<totfact> 0.25993219E-01</totfact>
</mgrwt>
</event>
<event>
 4    1  0.2416490E+000  0.5137669E+02  0.7957747E-01  0.1438054E+00
         13   -1    0    0    0    0  0.00000000000E+00  0.00000000000E+00  0.99999944176E+02  0.99999999996E+02  0.10566000000E+00 0. -1.
         22   -1    0    0    0    0 -0.00000000000E+00 -0.00000000000E+00 -0.10670990144E+02  0.10670990144E+02  0.00000000000E+00 0. -1.
         13    1    1    2    0    0  0.11694157985E+02 -0.16764495825E+01  0.29688664911E+02  0.31952962341E+02  0.10566000000E+00 0.  1.
        996    1    1    2    0    0 -0.11694157985E+02  0.16764495825E+01  0.59640289121E+02  0.78718027800E+02  0.50000000000E+02 0.  0.
<mgrwt>
<rscale>  0 0.51376686E+02</rscale>
<asrwt>0</asrwt>
<pdfrwt beam="1">  1       13 0.10000000E+01 0.51376686E+02</pdfrwt>
<pdfrwt beam="2">  1       22 0.10671015E+00 0.51376686E+02</pdfrwt>
<totfact> 0.12802422E+00</totfact>
</mgrwt>
</event>
<event>
 4    1  0.2416490E+000  0.5364390E+02  0.7957747E-01  0.1426623E+00
         13   -1    0    0    0    0  0.00000000000E+00  0.00000000000E+00  0.99999944178E+02  0.99999999998E+02  0.10566000000E+00 0.  1.
         22   -1    0    0    0    0 -0.00000000000E+00 -0.00000000000E+00 -0.68346451638E+02  0.68346451638E+02  0.00000000000E+00 0. -1.
         13    1    1    2    0    0  0.19431343655E+02  0.30176228913E+00 -0.59492403864E+02  0.62586144299E+02  0.10566000000E+00 0. -1.
        996    1    1    2    0    0 -0.19431343655E+02 -0.30176228913E+00  0.91145896404E+02  0.10576030734E+03  0.50000000000E+02 0.  0.
<mgrwt>
<rscale>  0 0.53643902E+02</rscale>
<asrwt>0</asrwt>
<pdfrwt beam="1">  1       13 0.10000000E+01 0.53643902E+02</pdfrwt>
<pdfrwt beam="2">  1       22 0.68346461E+00 0.53643902E+02</pdfrwt>
<totfact> 0.82195700E-02</totfact>
</mgrwt>
</event>
<event>
 4    1  0.2416490E+000  0.5495935E+02  0.7957747E-01  0.1420291E+00
         13   -1    0    0    0    0  0.00000000000E+00  0.00000000000E+00  0.99999944183E+02  0.10000000000E+03  0.10566000000E+00 0.  1.
         22   -1    0    0    0    0 -0.00000000000E+00 -0.00000000000E+00 -0.57143520473E+02  0.57143520473E+02  0.00000000000E+00 0. -1.
         13    1    1    2    0    0  0.20934442710E+02  0.90707698016E+01 -0.46752898490E+02  0.52022826121E+02  0.10566000000E+00 0. -1.
        996    1    1    2    0    0 -0.20934442710E+02 -0.90707698016E+01  0.89609322200E+02  0.10512069435E+03  0.50000000000E+02 0.  0.
<mgrwt>
<rscale>  0 0.54959346E+02</rscale>
<asrwt>0</asrwt>
<pdfrwt beam="1">  1       13 0.10000000E+01 0.54959346E+02</pdfrwt>
<pdfrwt beam="2">  1       22 0.57143532E+00 0.54959346E+02</pdfrwt>
<totfact> 0.57838295E-02</totfact>
</mgrwt>
</event>
<event>
 4    1  0.2416490E+000  0.5716878E+02  0.7957747E-01  0.1410112E+00
         13   -1    0    0    0    0  0.00000000000E+00  0.00000000000E+00  0.99999944183E+02  0.10000000000E+03  0.10566000000E+00 0.  1.
         22   -1    0    0    0    0 -0.00000000000E+00 -0.00000000000E+00 -0.19383688423E+02  0.19383688423E+02  0.00000000000E+00 0.  1.
         13    1    1    2    0    0 -0.12305741520E+02 -0.24836215846E+02  0.42263221427E+02  0.50541665400E+02  0.10566000000E+00 0. -1.
        996    1    1    2    0    0  0.12305741520E+02  0.24836215846E+02  0.38353034332E+02  0.68842023027E+02  0.50000000000E+02 0.  0.
<mgrwt>
<rscale>  0 0.57168775E+02</rscale>
<asrwt>0</asrwt>
<pdfrwt beam="1">  1       13 0.10000000E+01 0.57168775E+02</pdfrwt>
<pdfrwt beam="2">  1       22 0.19383711E+00 0.57168775E+02</pdfrwt>
<totfact> 0.48448166E-01</totfact>
</mgrwt>
</event>
<event>
 4    1  0.2416490E+000  0.5614206E+02  0.7957747E-01  0.1414774E+00
         13   -1    0    0    0    0  0.00000000000E+00  0.00000000000E+00  0.99999944181E+02  0.10000000000E+03  0.10566000000E+00 0.  1.
         22   -1    0    0    0    0 -0.00000000000E+00 -0.00000000000E+00 -0.20632254950E+02  0.20632254950E+02  0.00000000000E+00 0.  1.
         13    1    1    2    0    0  0.18450257327E+02 -0.17649908231E+02  0.27984496504E+01  0.25686061210E+02  0.10566000000E+00 0. -1.
        996    1    1    2    0    0 -0.18450257327E+02  0.17649908231E+02  0.76569239580E+02  0.94946193741E+02  0.50000000000E+02 0.  0.
<mgrwt>
<rscale>  0 0.56142063E+02</rscale>
<asrwt>0</asrwt>
<pdfrwt beam="1">  1       13 0.10000000E+01 0.56142063E+02</pdfrwt>
<pdfrwt beam="2">  1       22 0.20632277E+00 0.56142063E+02</pdfrwt>
<totfact> 0.43040029E-01</totfact>
</mgrwt>
</event>
<event>
 4    1  0.2416490E+000  0.5114948E+02  0.7957747E-01  0.1439238E+00
         13   -1    0    0    0    0  0.00000000000E+00  0.00000000000E+00  0.99999944177E+02  0.99999999997E+02  0.10566000000E+00 0. -1.
         22   -1    0    0    0    0 -0.00000000000E+00 -0.00000000000E+00 -0.97368475437E+01  0.97368475437E+01  0.00000000000E+00 0. -1.
         13    1    1    2    0    0  0.47364924203E+01 -0.96868314398E+01  0.21315841943E+02  0.23888184225E+02  0.10566000000E+00 0.  1.
        996    1    1    2    0    0 -0.47364924203E+01  0.96868314398E+01  0.68947254690E+02  0.85848663316E+02  0.50000000000E+02 0.  0.
<mgrwt>
<rscale>  0 0.51149478E+02</rscale>
<asrwt>0</asrwt>
<pdfrwt beam="1">  1       13 0.10000000E+01 0.51149478E+02</pdfrwt>
<pdfrwt beam="2">  1       22 0.97368727E-01 0.51149478E+02</pdfrwt>
<totfact> 0.14620783E+00</totfact>
</mgrwt>
</event>
<event>
 4    1  0.2416490E+000  0.5442456E+02  0.7957747E-01  0.1422840E+00
         13   -1    0    0    0    0  0.00000000000E+00  0.00000000000E+00  0.99999944174E+02  0.99999999994E+02  0.10566000000E+00 0.  1.
         22   -1    0    0    0    0 -0.00000000000E+00 -0.00000000000E+00 -0.25853516197E+02  0.25853516197E+02  0.00000000000E+00 0. -1.
         13    1    1    2    0    0  0.18504890431E+02  0.10936261727E+02 -0.11499653745E+02  0.24377981678E+02  0.10566000000E+00 0. -1.
        996    1    1    2    0    0 -0.18504890431E+02 -0.10936261727E+02  0.85646081722E+02  0.10147553451E+03  0.50000000000E+02 0.  0.
<mgrwt>
<rscale>  0 0.54424561E+02</rscale>
<asrwt>0</asrwt>
<pdfrwt beam="1">  1       13 0.10000000E+01 0.54424561E+02</pdfrwt>
<pdfrwt beam="2">  1       22 0.25853537E+00 0.54424561E+02</pdfrwt>
<totfact> 0.27694930E-01</totfact>
</mgrwt>
</event>
<event>
 4    1  0.2416490E+000  0.5122682E+02  0.7957747E-01  0.1438835E+00
         13   -1    0    0    0    0  0.00000000000E+00  0.00000000000E+00  0.99999944178E+02  0.99999999998E+02  0.10566000000E+00 0.  1.
         22   -1    0    0    0    0 -0.00000000000E+00 -0.00000000000E+00 -0.10072828395E+02  0.10072828395E+02  0.00000000000E+00 0. -1.
         13    1    1    2    0    0  0.11120774235E+02  0.71771678632E+00  0.91390437072E+01  0.14412495304E+02  0.10566000000E+00 0. -1.
        996    1    1    2    0    0 -0.11120774235E+02 -0.71771678632E+00  0.80788072075E+02  0.95660333089E+02  0.50000000000E+02 0.  0.
<mgrwt>
<rscale>  0 0.51226817E+02</rscale>
<asrwt>0</asrwt>
<pdfrwt beam="1">  1       13 0.10000000E+01 0.51226817E+02</pdfrwt>
<pdfrwt beam="2">  1       22 0.10072853E+00 0.51226817E+02</pdfrwt>
<totfact> 0.13924305E+00</totfact>
</mgrwt>
</event>
<event>
 4    1  0.2416490E+000  0.5126910E+02  0.7957747E-01  0.1438614E+00
         13   -1    0    0    0    0  0.00000000000E+00  0.00000000000E+00  0.99999944181E+02  0.10000000000E+03  0.10566000000E+00 0.  1.
         22   -1    0    0    0    0 -0.00000000000E+00 -0.00000000000E+00 -0.99503902768E+01  0.99503902768E+01  0.00000000000E+00 0. -1.
         13    1    1    2    0    0  0.17719345423E+01 -0.11197352713E+02  0.11491595156E+02  0.16142750171E+02  0.10566000000E+00 0. -1.
        996    1    1    2    0    0 -0.17719345423E+01  0.11197352713E+02  0.78557958748E+02  0.93807640107E+02  0.50000000000E+02 0.  0.
<mgrwt>
<rscale>  0 0.51269098E+02</rscale>
<asrwt>0</asrwt>
<pdfrwt beam="1">  1       13 0.10000000E+01 0.51269098E+02</pdfrwt>
<pdfrwt beam="2">  1       22 0.99504154E-01 0.51269098E+02</pdfrwt>
<totfact> 0.14174624E+00</totfact>
</mgrwt>
</event>
<event>
 4    1  0.2416490E+000  0.5192049E+02  0.7957747E-01  0.1435250E+00
         13   -1    0    0    0    0  0.00000000000E+00  0.00000000000E+00  0.99999944182E+02  0.10000000000E+03  0.10566000000E+00 0.  1.
         22   -1    0    0    0    0 -0.00000000000E+00 -0.00000000000E+00 -0.33970395994E+02  0.33970395994E+02  0.00000000000E+00 0. -1.
         13    1    1    2    0    0  0.65257899383E+01  0.12375453316E+02 -0.25301849453E+02  0.28912497797E+02  0.10566000000E+00 0. -1.
        996    1    1    2    0    0 -0.65257899383E+01 -0.12375453316E+02  0.91331397641E+02  0.10505789820E+03  0.50000000000E+02 0.  0.
<mgrwt>
<rscale>  0 0.51920495E+02</rscale>
<asrwt>0</asrwt>
<pdfrwt beam="1">  1       13 0.10000000E+01 0.51920495E+02</pdfrwt>
<pdfrwt beam="2">  1       22 0.33970414E+00 0.51920495E+02</pdfrwt>
<totfact> 0.16553401E-01</totfact>
</mgrwt>
</event>
<event>
 4    1  0.2416490E+000  0.7842691E+02  0.7957747E-01  0.1333576E+00
         13   -1    0    0    0    0  0.00000000000E+00  0.00000000000E+00  0.99999944182E+02  0.10000000000E+03  0.10566000000E+00 0.  1.
         22   -1    0    0    0    0 -0.00000000000E+00 -0.00000000000E+00 -0.54991187302E+02  0.54991187302E+02  0.00000000000E+00 0.  1.
         13    1    1    2    0    0  0.54037997461E+02 -0.27031007939E+02 -0.70905939572E+01  0.60836405601E+02  0.10566000000E+00 0. -1.
        996    1    1    2    0    0 -0.54037997461E+02  0.27031007939E+02  0.52099350837E+02  0.94154781702E+02  0.50000000000E+02 0.  0.
<mgrwt>
<rscale>  0 0.78426912E+02</rscale>
<asrwt>0</asrwt>
<pdfrwt beam="1">  1       13 0.10000000E+01 0.78426912E+02</pdfrwt>
<pdfrwt beam="2">  1       22 0.54991200E+00 0.78426912E+02</pdfrwt>
<totfact> 0.59613023E-02</totfact>
</mgrwt>
</event>
<event>
 4    1  0.2416490E+000  0.5275796E+02  0.7957747E-01  0.1431009E+00
         13   -1    0    0    0    0  0.00000000000E+00  0.00000000000E+00  0.99999944181E+02  0.10000000000E+03  0.10566000000E+00 0.  1.
         22   -1    0    0    0    0 -0.00000000000E+00 -0.00000000000E+00 -0.69604914263E+02  0.69604914263E+02  0.00000000000E+00 0. -1.
         13    1    1    2    0    0  0.51538443865E+00  0.16826676704E+02 -0.61434283305E+02  0.63699175813E+02  0.10566000000E+00 0. -1.
        996    1    1    2    0    0 -0.51538443865E+00 -0.16826676704E+02  0.91829313223E+02  0.10590573845E+03  0.50000000000E+02 0.  0.
<mgrwt>
<rscale>  0 0.52757963E+02</rscale>
<asrwt>0</asrwt>
<pdfrwt beam="1">  1       13 0.10000000E+01 0.52757963E+02</pdfrwt>
<pdfrwt beam="2">  1       22 0.69604923E+00 0.52757963E+02</pdfrwt>
<totfact> 0.76621767E-02</totfact>
</mgrwt>
</event>
<event>
 4    1  0.2416490E+000  0.5115398E+02  0.7957747E-01  0.1439215E+00
         13   -1    0    0    0    0  0.00000000000E+00  0.00000000000E+00  0.99999944174E+02  0.99999999994E+02  0.10566000000E+00 0.  1.
         22   -1    0    0    0    0 -0.00000000000E+00 -0.00000000000E+00 -0.11196173787E+02  0.11196173787E+02  0.00000000000E+00 0.  1.
         13    1    1    2    0    0 -0.86115470132E+01  0.65246375176E+01  0.36378263690E+02  0.37948898137E+02  0.10566000000E+00 0. -1.
        996    1    1    2    0    0  0.86115470132E+01 -0.65246375176E+01  0.52425506697E+02  0.73247275643E+02  0.50000000000E+02 0.  0.
<mgrwt>
<rscale>  0 0.51153980E+02</rscale>
<asrwt>0</asrwt>
<pdfrwt beam="1">  1       13 0.10000000E+01 0.51153980E+02</pdfrwt>
<pdfrwt beam="2">  1       22 0.11196199E+00 0.51153980E+02</pdfrwt>
<totfact> 0.11914856E+00</totfact>
</mgrwt>
</event>
<event>
 4    1  0.2416490E+000  0.5188733E+02  0.7957747E-01  0.1435420E+00
         13   -1    0    0    0    0  0.00000000000E+00  0.00000000000E+00  0.99999944173E+02  0.99999999993E+02  0.10566000000E+00 0. -1.
         22   -1    0    0    0    0 -0.00000000000E+00 -0.00000000000E+00 -0.22798112348E+02  0.22798112348E+02  0.00000000000E+00 0.  1.
         13    1    1    2    0    0 -0.70249922337E+01  0.11955939247E+02 -0.12825061086E+02  0.18888842079E+02  0.10566000000E+00 0.  1.
        996    1    1    2    0    0  0.70249922337E+01 -0.11955939247E+02  0.90026892911E+02  0.10390927026E+03  0.50000000000E+02 0.  0.
<mgrwt>
<rscale>  0 0.51887330E+02</rscale>
<asrwt>0</asrwt>
<pdfrwt beam="1">  1       13 0.10000000E+01 0.51887330E+02</pdfrwt>
<pdfrwt beam="2">  1       22 0.22798134E+00 0.51887330E+02</pdfrwt>
<totfact> 0.35298783E-01</totfact>
</mgrwt>
</event>
<event>
 4    1  0.2416490E+000  0.5105631E+02  0.7957747E-01  0.1439726E+00
         13   -1    0    0    0    0  0.00000000000E+00  0.00000000000E+00  0.99999944173E+02  0.99999999993E+02  0.10566000000E+00 0. -1.
         22   -1    0    0    0    0 -0.00000000000E+00 -0.00000000000E+00 -0.18091903946E+02  0.18091903946E+02  0.00000000000E+00 0.  1.
         13    1    1    2    0    0 -0.86499769252E+01 -0.56501925424E+01 -0.90818344876E+01  0.13756367917E+02  0.10566000000E+00 0.  1.
        996    1    1    2    0    0  0.86499769252E+01  0.56501925424E+01  0.90989874714E+02  0.10433553602E+03  0.50000000000E+02 0.  0.
<mgrwt>
<rscale>  0 0.51056310E+02</rscale>
<asrwt>0</asrwt>
<pdfrwt beam="1">  1       13 0.10000000E+01 0.51056310E+02</pdfrwt>
<pdfrwt beam="2">  1       22 0.18091927E+00 0.51056310E+02</pdfrwt>
<totfact> 0.54342891E-01</totfact>
</mgrwt>
</event>
<event>
 4    1  0.2416490E+000  0.7173727E+02  0.7957747E-01  0.1354283E+00
         13   -1    0    0    0    0  0.00000000000E+00  0.00000000000E+00  0.99999944177E+02  0.99999999997E+02  0.10566000000E+00 0. -1.
         22   -1    0    0    0    0 -0.00000000000E+00 -0.00000000000E+00 -0.37939369673E+02  0.37939369673E+02  0.00000000000E+00 0. -1.
         13    1    1    2    0    0 -0.15072467811E+02  0.49183903497E+02  0.25011004658E+02  0.57199625585E+02  0.10566000000E+00 0.  1.
        996    1    1    2    0    0  0.15072467811E+02 -0.49183903497E+02  0.37049569846E+02  0.80739744085E+02  0.50000000000E+02 0.  0.
<mgrwt>
<rscale>  0 0.71737268E+02</rscale>
<asrwt>0</asrwt>
<pdfrwt beam="1">  1       13 0.10000000E+01 0.71737268E+02</pdfrwt>
<pdfrwt beam="2">  1       22 0.37939387E+00 0.71737268E+02</pdfrwt>
<totfact> 0.13835577E-01</totfact>
</mgrwt>
</event>
<event>
 4    1  0.2416490E+000  0.5145760E+02  0.7957747E-01  0.1437635E+00
         13   -1    0    0    0    0  0.00000000000E+00  0.00000000000E+00  0.99999944180E+02  0.10000000000E+03  0.10566000000E+00 0.  1.
         22   -1    0    0    0    0 -0.00000000000E+00 -0.00000000000E+00 -0.14048510085E+02  0.14048510085E+02  0.00000000000E+00 0.  1.
         13    1    1    2    0    0  0.11527991606E+02  0.38716764940E+01 -0.18284006493E+01  0.12297913738E+02  0.10566000000E+00 0. -1.
        996    1    1    2    0    0 -0.11527991606E+02 -0.38716764940E+01  0.87779834744E+02  0.10175059635E+03  0.50000000000E+02 0.  0.
<mgrwt>
<rscale>  0 0.51457599E+02</rscale>
<asrwt>0</asrwt>
<pdfrwt beam="1">  1       13 0.10000000E+01 0.51457599E+02</pdfrwt>
<pdfrwt beam="2">  1       22 0.14048534E+00 0.51457599E+02</pdfrwt>
<totfact> 0.83759916E-01</totfact>
</mgrwt>
</event>
<event>
 4    1  0.2416490E+000  0.5288790E+02  0.7957747E-01  0.1430360E+00
         13   -1    0    0    0    0  0.00000000000E+00  0.00000000000E+00  0.99999944175E+02  0.99999999995E+02  0.10566000000E+00 0.  1.
         22   -1    0    0    0    0 -0.00000000000E+00 -0.00000000000E+00 -0.31382024116E+02  0.31382024116E+02  0.00000000000E+00 0. -1.
         13    1    1    2    0    0  0.15916262503E+02 -0.66183820859E+01 -0.21093686877E+02  0.27241240493E+02  0.10566000000E+00 0. -1.
        996    1    1    2    0    0 -0.15916262503E+02  0.66183820859E+01  0.89711606936E+02  0.10414078362E+03  0.50000000000E+02 0.  0.
<mgrwt>
<rscale>  0 0.52887904E+02</rscale>
<asrwt>0</asrwt>
<pdfrwt beam="1">  1       13 0.10000000E+01 0.52887904E+02</pdfrwt>
<pdfrwt beam="2">  1       22 0.31382043E+00 0.52887904E+02</pdfrwt>
<totfact> 0.19077367E-01</totfact>
</mgrwt>
</event>
<event>
 4    1  0.2416490E+000  0.5483802E+02  0.7957747E-01  0.1420866E+00
         13   -1    0    0    0    0  0.00000000000E+00  0.00000000000E+00  0.99999944180E+02  0.10000000000E+03  0.10566000000E+00 0.  1.
         22   -1    0    0    0    0 -0.00000000000E+00 -0.00000000000E+00 -0.18744045202E+02  0.18744045202E+02  0.00000000000E+00 0. -1.
         13    1    1    2    0    0  0.14760164732E+02 -0.17010175071E+02  0.23361851496E+01  0.22642381587E+02  0.10566000000E+00 0. -1.
        996    1    1    2    0    0 -0.14760164732E+02  0.17010175071E+02  0.78919713829E+02  0.96101663615E+02  0.50000000000E+02 0.  0.
<mgrwt>
<rscale>  0 0.54838021E+02</rscale>
<asrwt>0</asrwt>
<pdfrwt beam="1">  1       13 0.10000000E+01 0.54838021E+02</pdfrwt>
<pdfrwt beam="2">  1       22 0.18744068E+00 0.54838021E+02</pdfrwt>
<totfact> 0.51324148E-01</totfact>
</mgrwt>
</event>
<event>
 4    1  0.2416490E+000  0.5310823E+02  0.7957747E-01  0.1429263E+00
         13   -1    0    0    0    0  0.00000000000E+00  0.00000000000E+00  0.99999944178E+02  0.99999999998E+02  0.10566000000E+00 0. -1.
         22   -1    0    0    0    0 -0.00000000000E+00 -0.00000000000E+00 -0.23747009489E+02  0.23747009489E+02  0.00000000000E+00 0.  1.
         13    1    1    2    0    0 -0.17433314022E+02  0.40698246154E+01 -0.11426130531E+02  0.21237973847E+02  0.10566000000E+00 0.  1.
        996    1    1    2    0    0  0.17433314022E+02 -0.40698246154E+01  0.87679065220E+02  0.10250903564E+03  0.50000000000E+02 0.  0.
<mgrwt>
<rscale>  0 0.53108228E+02</rscale>
<asrwt>0</asrwt>
<pdfrwt beam="1">  1       13 0.10000000E+01 0.53108228E+02</pdfrwt>
<pdfrwt beam="2">  1       22 0.23747031E+00 0.53108228E+02</pdfrwt>
<totfact> 0.32667215E-01</totfact>
</mgrwt>
</event>
<event>
 4    1  0.2416490E+000  0.5165264E+02  0.7957747E-01  0.1436626E+00
         13   -1    0    0    0    0  0.00000000000E+00  0.00000000000E+00  0.99999944170E+02  0.99999999990E+02  0.10566000000E+00 0. -1.
         22   -1    0    0    0    0 -0.00000000000E+00 -0.00000000000E+00 -0.17851000133E+02  0.17851000133E+02  0.00000000000E+00 0. -1.
         13    1    1    2    0    0 -0.31651946400E+01  0.12568865044E+02 -0.70657014439E+01  0.14762456657E+02  0.10566000000E+00 0.  1.
        996    1    1    2    0    0  0.31651946400E+01 -0.12568865044E+02  0.89214645481E+02  0.10308854347E+03  0.50000000000E+02 0.  0.
<mgrwt>
<rscale>  0 0.51652636E+02</rscale>
<asrwt>0</asrwt>
<pdfrwt beam="1">  1       13 0.10000000E+01 0.51652636E+02</pdfrwt>
<pdfrwt beam="2">  1       22 0.17851023E+00 0.51652636E+02</pdfrwt>
<totfact> 0.55727070E-01</totfact>
</mgrwt>
</event>
<event>
 4    1  0.2416490E+000  0.5106268E+02  0.7957747E-01  0.1439693E+00
         13   -1    0    0    0    0  0.00000000000E+00  0.00000000000E+00  0.99999944181E+02  0.10000000000E+03  0.10566000000E+00 0. -1.
         22   -1    0    0    0    0 -0.00000000000E+00 -0.00000000000E+00 -0.21903984681E+02  0.21903984681E+02  0.00000000000E+00 0.  1.
         13    1    1    2    0    0  0.10358800560E+02  0.30419455604E+00 -0.13510206903E+02  0.17027452481E+02  0.10566000000E+00 0.  1.
        996    1    1    2    0    0 -0.10358800560E+02 -0.30419455604E+00  0.91606166404E+02  0.10487653220E+03  0.50000000000E+02 0.  0.
<mgrwt>
<rscale>  0 0.51062680E+02</rscale>
<asrwt>0</asrwt>
<pdfrwt beam="1">  1       13 0.10000000E+01 0.51062680E+02</pdfrwt>
<pdfrwt beam="2">  1       22 0.21904006E+00 0.51062680E+02</pdfrwt>
<totfact> 0.38078550E-01</totfact>
</mgrwt>
</event>
<event>
 4    1  0.2416490E+000  0.5206329E+02  0.7957747E-01  0.1434520E+00
         13   -1    0    0    0    0  0.00000000000E+00  0.00000000000E+00  0.99999944177E+02  0.99999999997E+02  0.10566000000E+00 0.  1.
         22   -1    0    0    0    0 -0.00000000000E+00 -0.00000000000E+00 -0.14501016967E+02  0.14501016967E+02  0.00000000000E+00 0. -1.
         13    1    1    2    0    0  0.13588403227E+02  0.50933098514E+01  0.13443967355E+00  0.14512606436E+02  0.10566000000E+00 0. -1.
        996    1    1    2    0    0 -0.13588403227E+02 -0.50933098514E+01  0.85364487537E+02  0.99988410528E+02  0.50000000000E+02 0.  0.
<mgrwt>
<rscale>  0 0.52063293E+02</rscale>
<asrwt>0</asrwt>
<pdfrwt beam="1">  1       13 0.10000000E+01 0.52063293E+02</pdfrwt>
<pdfrwt beam="2">  1       22 0.14501041E+00 0.52063293E+02</pdfrwt>
<totfact> 0.79636004E-01</totfact>
</mgrwt>
</event>
<event>
 4    1  0.2416490E+000  0.5380934E+02  0.7957747E-01  0.1425815E+00
         13   -1    0    0    0    0  0.00000000000E+00  0.00000000000E+00  0.99999944169E+02  0.99999999989E+02  0.10566000000E+00 0.  1.
         22   -1    0    0    0    0 -0.00000000000E+00 -0.00000000000E+00 -0.18261489068E+02  0.18261489068E+02  0.00000000000E+00 0. -1.
         13    1    1    2    0    0  0.15801875877E+02 -0.12072532059E+02 -0.60511438248E+00  0.19895291880E+02  0.10566000000E+00 0. -1.
        996    1    1    2    0    0 -0.15801875877E+02  0.12072532059E+02  0.82343569484E+02  0.98366197176E+02  0.50000000000E+02 0.  0.
<mgrwt>
<rscale>  0 0.53809342E+02</rscale>
<asrwt>0</asrwt>
<pdfrwt beam="1">  1       13 0.10000000E+01 0.53809342E+02</pdfrwt>
<pdfrwt beam="2">  1       22 0.18261512E+00 0.53809342E+02</pdfrwt>
<totfact> 0.53712728E-01</totfact>
</mgrwt>
</event>
<event>
 4    1  0.2416490E+000  0.5135921E+02  0.7957747E-01  0.1438145E+00
         13   -1    0    0    0    0  0.00000000000E+00  0.00000000000E+00  0.99999944176E+02  0.99999999996E+02  0.10566000000E+00 0.  1.
         22   -1    0    0    0    0 -0.00000000000E+00 -0.00000000000E+00 -0.13129347728E+02  0.13129347728E+02  0.00000000000E+00 0.  1.
         13    1    1    2    0    0 -0.10890976265E+02  0.43766343419E+01 -0.53629371325E+00  0.11750194345E+02  0.10566000000E+00 0. -1.
        996    1    1    2    0    0  0.10890976265E+02 -0.43766343419E+01  0.87406890161E+02  0.10137915338E+03  0.50000000000E+02 0.  0.
<mgrwt>
<rscale>  0 0.51359208E+02</rscale>
<asrwt>0</asrwt>
<pdfrwt beam="1">  1       13 0.10000000E+01 0.51359208E+02</pdfrwt>
<pdfrwt beam="2">  1       22 0.13129372E+00 0.51359208E+02</pdfrwt>
<totfact> 0.93324708E-01</totfact>
</mgrwt>
</event>
<event>
 4    1  0.2416490E+000  0.5760405E+02  0.7957747E-01  0.1408171E+00
         13   -1    0    0    0    0  0.00000000000E+00  0.00000000000E+00  0.99999944177E+02  0.99999999998E+02  0.10566000000E+00 0.  1.
         22   -1    0    0    0    0 -0.00000000000E+00 -0.00000000000E+00 -0.27654660856E+02  0.27654660856E+02  0.00000000000E+00 0. -1.
         13    1    1    2    0    0 -0.43996545426E+01  0.28264291588E+02 -0.71479177751E+01  0.29484420151E+02  0.10566000000E+00 0. -1.
        996    1    1    2    0    0  0.43996545426E+01 -0.28264291588E+02  0.79493201096E+02  0.98170240703E+02  0.50000000000E+02 0.  0.
<mgrwt>
<rscale>  0 0.57604055E+02</rscale>
<asrwt>0</asrwt>
<pdfrwt beam="1">  1       13 0.10000000E+01 0.57604055E+02</pdfrwt>
<pdfrwt beam="2">  1       22 0.27654681E+00 0.57604055E+02</pdfrwt>
<totfact> 0.24371666E-01</totfact>
</mgrwt>
</event>
<event>
 4    1  0.2416490E+000  0.5501715E+02  0.7957747E-01  0.1420018E+00
         13   -1    0    0    0    0  0.00000000000E+00  0.00000000000E+00  0.99999944174E+02  0.99999999994E+02  0.10566000000E+00 0.  1.
         22   -1    0    0    0    0 -0.00000000000E+00 -0.00000000000E+00 -0.20629478433E+02  0.20629478433E+02  0.00000000000E+00 0. -1.
         13    1    1    2    0    0 -0.21722607814E+02  0.74172016555E+01 -0.12921947746E+01  0.22990595947E+02  0.10566000000E+00 0. -1.
        996    1    1    2    0    0  0.21722607814E+02 -0.74172016555E+01  0.80662660515E+02  0.97638882480E+02  0.50000000000E+02 0.  0.
<mgrwt>
<rscale>  0 0.55017148E+02</rscale>
<asrwt>0</asrwt>
<pdfrwt beam="1">  1       13 0.10000000E+01 0.55017148E+02</pdfrwt>
<pdfrwt beam="2">  1       22 0.20629501E+00 0.55017148E+02</pdfrwt>
<totfact> 0.42971415E-01</totfact>
</mgrwt>
</event>
<event>
 4    1  0.2416490E+000  0.5130434E+02  0.7957747E-01  0.1438431E+00
         13   -1    0    0    0    0  0.00000000000E+00  0.00000000000E+00  0.99999944180E+02  0.10000000000E+03  0.10566000000E+00 0.  1.
         22   -1    0    0    0    0 -0.00000000000E+00 -0.00000000000E+00 -0.14668105994E+02  0.14668105994E+02  0.00000000000E+00 0. -1.
         13    1    1    2    0    0 -0.10714753033E+02 -0.41627952825E+01 -0.35593522356E+01  0.12033908322E+02  0.10566000000E+00 0. -1.
        996    1    1    2    0    0  0.10714753033E+02  0.41627952825E+01  0.88891190421E+02  0.10263419767E+03  0.50000000000E+02 0.  0.
<mgrwt>
<rscale>  0 0.51304335E+02</rscale>
<asrwt>0</asrwt>
<pdfrwt beam="1">  1       13 0.10000000E+01 0.51304335E+02</pdfrwt>
<pdfrwt beam="2">  1       22 0.14668130E+00 0.51304335E+02</pdfrwt>
<totfact> 0.78024689E-01</totfact>
</mgrwt>
</event>
<event>
 4    1  0.2416490E+000  0.5303743E+02  0.7957747E-01  0.1429615E+00
         13   -1    0    0    0    0  0.00000000000E+00  0.00000000000E+00  0.99999944185E+02  0.10000000001E+03  0.10566000000E+00 0. -1.
         22   -1    0    0    0    0 -0.00000000000E+00 -0.00000000000E+00 -0.25248777629E+02  0.25248777629E+02  0.00000000000E+00 0.  1.
         13    1    1    2    0    0 -0.43364855009E+01  0.17151211559E+02 -0.13522331148E+02  0.22267325124E+02  0.10566000000E+00 0.  1.
        996    1    1    2    0    0  0.43364855009E+01 -0.17151211559E+02  0.88273497704E+02  0.10298145251E+03  0.50000000000E+02 0.  0.
<mgrwt>
<rscale>  0 0.53037432E+02</rscale>
<asrwt>0</asrwt>
<pdfrwt beam="1">  1       13 0.10000000E+01 0.53037432E+02</pdfrwt>
<pdfrwt beam="2">  1       22 0.25248799E+00 0.53037432E+02</pdfrwt>
<totfact> 0.28956827E-01</totfact>
</mgrwt>
</event>
<event>
 4    1  0.2416490E+000  0.5118668E+02  0.7957747E-01  0.1439044E+00
         13   -1    0    0    0    0  0.00000000000E+00  0.00000000000E+00  0.99999944179E+02  0.10000000000E+03  0.10566000000E+00 0. -1.
         22   -1    0    0    0    0 -0.00000000000E+00 -0.00000000000E+00 -0.14386647210E+02  0.14386647210E+02  0.00000000000E+00 0.  1.
         13    1    1    2    0    0 -0.38232276375E+01 -0.10269340451E+02 -0.35977312205E+01  0.11533917671E+02  0.10566000000E+00 0.  1.
        996    1    1    2    0    0  0.38232276375E+01  0.10269340451E+02  0.89211028190E+02  0.10285272954E+03  0.50000000000E+02 0.  0.
<mgrwt>
<rscale>  0 0.51186682E+02</rscale>
<asrwt>0</asrwt>
<pdfrwt beam="1">  1       13 0.10000000E+01 0.51186682E+02</pdfrwt>
<pdfrwt beam="2">  1       22 0.14386671E+00 0.51186682E+02</pdfrwt>
<totfact> 0.80529176E-01</totfact>
</mgrwt>
</event>
<event>
 4    1  0.2416490E+000  0.5310370E+02  0.7957747E-01  0.1429285E+00
         13   -1    0    0    0    0  0.00000000000E+00  0.00000000000E+00  0.99999944168E+02  0.99999999988E+02  0.10566000000E+00 0.  1.
         22   -1    0    0    0    0 -0.00000000000E+00 -0.00000000000E+00 -0.18234259994E+02  0.18234259994E+02  0.00000000000E+00 0.  1.
         13    1    1    2    0    0  0.12766969698E+02  0.12530254875E+02 -0.30683919638E+01  0.18150178946E+02  0.10566000000E+00 0. -1.
        996    1    1    2    0    0 -0.12766969698E+02 -0.12530254875E+02  0.84834076138E+02  0.10008408104E+03  0.50000000000E+02 0.  0.
<mgrwt>
<rscale>  0 0.53103699E+02</rscale>
<asrwt>0</asrwt>
<pdfrwt beam="1">  1       13 0.10000000E+01 0.53103699E+02</pdfrwt>
<pdfrwt beam="2">  1       22 0.18234283E+00 0.53103699E+02</pdfrwt>
<totfact> 0.53788308E-01</totfact>
</mgrwt>
</event>
<event>
 4    1  0.2416490E+000  0.5553128E+02  0.7957747E-01  0.1417603E+00
         13   -1    0    0    0    0  0.00000000000E+00  0.00000000000E+00  0.99999944181E+02  0.10000000000E+03  0.10566000000E+00 0.  1.
         22   -1    0    0    0    0 -0.00000000000E+00 -0.00000000000E+00 -0.20692093908E+02  0.20692093908E+02  0.00000000000E+00 0. -1.
         13    1    1    2    0    0 -0.24017340943E+02 -0.26249655400E+01  0.35144442432E+00  0.24163149366E+02  0.10566000000E+00 0. -1.
        996    1    1    2    0    0  0.24017340943E+02  0.26249655400E+01  0.78956405849E+02  0.96528944543E+02  0.50000000000E+02 0.  0.
<mgrwt>
<rscale>  0 0.55531280E+02</rscale>
<asrwt>0</asrwt>
<pdfrwt beam="1">  1       13 0.10000000E+01 0.55531280E+02</pdfrwt>
<pdfrwt beam="2">  1       22 0.20692116E+00 0.55531280E+02</pdfrwt>
<totfact> 0.42762408E-01</totfact>
</mgrwt>
</event>
<event>
 4    1  0.2416490E+000  0.5197862E+02  0.7957747E-01  0.1434952E+00
         13   -1    0    0    0    0  0.00000000000E+00  0.00000000000E+00  0.99999944178E+02  0.99999999999E+02  0.10566000000E+00 0. -1.
         22   -1    0    0    0    0 -0.00000000000E+00 -0.00000000000E+00 -0.11488897916E+02  0.11488897916E+02  0.00000000000E+00 0. -1.
         13    1    1    2    0    0  0.12923910708E+02  0.58948910633E+01  0.10162205633E+02  0.17465932440E+02  0.10566000000E+00 0.  1.
        996    1    1    2    0    0 -0.12923910708E+02 -0.58948910633E+01  0.78348840629E+02  0.94022965474E+02  0.50000000000E+02 0.  0.
<mgrwt>
<rscale>  0 0.51978623E+02</rscale>
<asrwt>0</asrwt>
<pdfrwt beam="1">  1       13 0.10000000E+01 0.51978623E+02</pdfrwt>
<pdfrwt beam="2">  1       22 0.11488923E+00 0.51978623E+02</pdfrwt>
<totfact> 0.11483748E+00</totfact>
</mgrwt>
</event>
<event>
 4    1  0.2416490E+000  0.5446411E+02  0.7957747E-01  0.1422650E+00
         13   -1    0    0    0    0  0.00000000000E+00  0.00000000000E+00  0.99999944176E+02  0.99999999996E+02  0.10566000000E+00 0. -1.
         22   -1    0    0    0    0 -0.00000000000E+00 -0.00000000000E+00 -0.35664714387E+02  0.35664714387E+02  0.00000000000E+00 0.  1.
         13    1    1    2    0    0 -0.78094297352E+01 -0.20133362985E+02 -0.23750888402E+02  0.32100706562E+02  0.10566000000E+00 0.  1.
        996    1    1    2    0    0  0.78094297352E+01  0.20133362985E+02  0.88086118192E+02  0.10356400782E+03  0.50000000000E+02 0.  0.
<mgrwt>
<rscale>  0 0.54464112E+02</rscale>
<asrwt>0</asrwt>
<pdfrwt beam="1">  1       13 0.10000000E+01 0.54464112E+02</pdfrwt>
<pdfrwt beam="2">  1       22 0.35664732E+00 0.54464112E+02</pdfrwt>
<totfact> 0.15243920E-01</totfact>
</mgrwt>
</event>
<event>
 4    1  0.2416490E+000  0.5303426E+02  0.7957747E-01  0.1429630E+00
         13   -1    0    0    0    0  0.00000000000E+00  0.00000000000E+00  0.99999944180E+02  0.10000000000E+03  0.10566000000E+00 0.  1.
         22   -1    0    0    0    0 -0.00000000000E+00 -0.00000000000E+00 -0.21104606679E+02  0.21104606679E+02  0.00000000000E+00 0. -1.
         13    1    1    2    0    0  0.17065806156E+02 -0.46250950037E+01 -0.79179783622E+01  0.19373662249E+02  0.10566000000E+00 0. -1.
        996    1    1    2    0    0 -0.17065806156E+02  0.46250950037E+01  0.86813315864E+02  0.10173094443E+03  0.50000000000E+02 0.  0.
<mgrwt>
<rscale>  0 0.53034265E+02</rscale>
<asrwt>0</asrwt>
<pdfrwt beam="1">  1       13 0.10000000E+01 0.53034265E+02</pdfrwt>
<pdfrwt beam="2">  1       22 0.21104629E+00 0.53034265E+02</pdfrwt>
<totfact> 0.41020058E-01</totfact>
</mgrwt>
</event>
<event>
 4    1  0.2416490E+000  0.8663028E+02  0.7957747E-01  0.1311223E+00
         13   -1    0    0    0    0  0.00000000000E+00  0.00000000000E+00  0.99999944172E+02  0.99999999992E+02  0.10566000000E+00 0. -1.
         22   -1    0    0    0    0 -0.00000000000E+00 -0.00000000000E+00 -0.84362897674E+02  0.84362897674E+02  0.00000000000E+00 0.  1.
         13    1    1    2    0    0  0.63835978355E+02  0.30492177663E+02 -0.40130788435E+02  0.81334472247E+02  0.10566000000E+00 0.  1.
        996    1    1    2    0    0 -0.63835978355E+02 -0.30492177663E+02  0.55767834934E+02  0.10302842542E+03  0.50000000000E+02 0.  0.
<mgrwt>
<rscale>  0 0.86630278E+02</rscale>
<asrwt>0</asrwt>
<pdfrwt beam="1">  1       13 0.10000000E+01 0.86630278E+02</pdfrwt>
<pdfrwt beam="2">  1       22 0.84362902E+00 0.86630278E+02</pdfrwt>
<totfact> 0.20270794E-02</totfact>
</mgrwt>
</event>
<event>
 4    1  0.2416490E+000  0.5232036E+02  0.7957747E-01  0.1433213E+00
         13   -1    0    0    0    0  0.00000000000E+00  0.00000000000E+00  0.99999944178E+02  0.99999999998E+02  0.10566000000E+00 0. -1.
         22   -1    0    0    0    0 -0.00000000000E+00 -0.00000000000E+00 -0.52879933538E+02  0.52879933538E+02  0.00000000000E+00 0.  1.
         13    1    1    2    0    0 -0.33542134052E+00  0.15404787975E+02 -0.44654962281E+02  0.47238721621E+02  0.10566000000E+00 0.  1.
        996    1    1    2    0    0  0.33542134052E+00 -0.15404787975E+02  0.91774972922E+02  0.10564121191E+03  0.50000000000E+02 0.  0.
<mgrwt>
<rscale>  0 0.52320359E+02</rscale>
<asrwt>0</asrwt>
<pdfrwt beam="1">  1       13 0.10000000E+01 0.52320359E+02</pdfrwt>
<pdfrwt beam="2">  1       22 0.52879947E+00 0.52320359E+02</pdfrwt>
<totfact> 0.63507897E-02</totfact>
</mgrwt>
</event>
<event>
 4    1  0.2416490E+000  0.5171942E+02  0.7957747E-01  0.1436282E+00
         13   -1    0    0    0    0  0.00000000000E+00  0.00000000000E+00  0.99999944183E+02  0.10000000000E+03  0.10566000000E+00 0. -1.
         22   -1    0    0    0    0 -0.00000000000E+00 -0.00000000000E+00 -0.14222429737E+02  0.14222429737E+02  0.00000000000E+00 0. -1.
         13    1    1    2    0    0  0.13038857067E+02 -0.22105361977E+01 -0.93387257779E+00  0.13258263307E+02  0.10566000000E+00 0.  1.
        996    1    1    2    0    0 -0.13038857067E+02  0.22105361977E+01  0.86711387024E+02  0.10096416643E+03  0.50000000000E+02 0.  0.
<mgrwt>
<rscale>  0 0.51719419E+02</rscale>
<asrwt>0</asrwt>
<pdfrwt beam="1">  1       13 0.10000000E+01 0.51719419E+02</pdfrwt>
<pdfrwt beam="2">  1       22 0.14222454E+00 0.51719419E+02</pdfrwt>
<totfact> 0.82145922E-01</totfact>
</mgrwt>
</event>
<event>
 4    1  0.2416490E+000  0.5119122E+02  0.7957747E-01  0.1439020E+00
         13   -1    0    0    0    0  0.00000000000E+00  0.00000000000E+00  0.99999944178E+02  0.99999999998E+02  0.10566000000E+00 0. -1.
         22   -1    0    0    0    0 -0.00000000000E+00 -0.00000000000E+00 -0.18985012242E+02  0.18985012242E+02  0.00000000000E+00 0.  1.
         13    1    1    2    0    0 -0.10032446795E+02  0.44599207927E+01 -0.98122033890E+01  0.14725195467E+02  0.10566000000E+00 0.  1.
        996    1    1    2    0    0  0.10032446795E+02 -0.44599207927E+01  0.90827135325E+02  0.10425981677E+03  0.50000000000E+02 0.  0.
<mgrwt>
<rscale>  0 0.51191219E+02</rscale>
<asrwt>0</asrwt>
<pdfrwt beam="1">  1       13 0.10000000E+01 0.51191219E+02</pdfrwt>
<pdfrwt beam="2">  1       22 0.18985035E+00 0.51191219E+02</pdfrwt>
<totfact> 0.49810486E-01</totfact>
</mgrwt>
</event>
<event>
 4    1  0.2416490E+000  0.5109254E+02  0.7957747E-01  0.1439536E+00
         13   -1    0    0    0    0  0.00000000000E+00  0.00000000000E+00  0.99999944174E+02  0.99999999994E+02  0.10566000000E+00 0.  1.
         22   -1    0    0    0    0 -0.00000000000E+00 -0.00000000000E+00 -0.24787665873E+02  0.24787665873E+02  0.00000000000E+00 0. -1.
         13    1    1    2    0    0  0.41537322480E+01 -0.96536920728E+01 -0.16640247509E+02  0.19681368434E+02  0.10566000000E+00 0. -1.
        996    1    1    2    0    0 -0.41537322480E+01  0.96536920728E+01  0.91852525811E+02  0.10510629743E+03  0.50000000000E+02 0.  0.
<mgrwt>
<rscale>  0 0.51092536E+02</rscale>
<asrwt>0</asrwt>
<pdfrwt beam="1">  1       13 0.10000000E+01 0.51092536E+02</pdfrwt>
<pdfrwt beam="2">  1       22 0.24787687E+00 0.51092536E+02</pdfrwt>
<totfact> 0.29934675E-01</totfact>
</mgrwt>
</event>
<event>
 4    1  0.2416490E+000  0.5750294E+02  0.7957747E-01  0.1408620E+00
         13   -1    0    0    0    0  0.00000000000E+00  0.00000000000E+00  0.99999944184E+02  0.10000000000E+03  0.10566000000E+00 0.  1.
         22   -1    0    0    0    0 -0.00000000000E+00 -0.00000000000E+00 -0.29523482884E+02  0.29523482884E+02  0.00000000000E+00 0. -1.
         13    1    1    2    0    0  0.84957429996E+01 -0.27100003565E+02 -0.10437496951E+02  0.30257897300E+02  0.10566000000E+00 0. -1.
        996    1    1    2    0    0 -0.84957429996E+01  0.27100003565E+02  0.80913958251E+02  0.99265585589E+02  0.50000000000E+02 0.  0.
<mgrwt>
<rscale>  0 0.57502938E+02</rscale>
<asrwt>0</asrwt>
<pdfrwt beam="1">  1       13 0.10000000E+01 0.57502938E+02</pdfrwt>
<pdfrwt beam="2">  1       22 0.29523503E+00 0.57502938E+02</pdfrwt>
<totfact> 0.21485529E-01</totfact>
</mgrwt>
</event>
<event>
 4    1  0.2416490E+000  0.5303943E+02  0.7957747E-01  0.1429605E+00
         13   -1    0    0    0    0  0.00000000000E+00  0.00000000000E+00  0.99999944179E+02  0.99999999999E+02  0.10566000000E+00 0.  1.
         22   -1    0    0    0    0 -0.00000000000E+00 -0.00000000000E+00 -0.48061217356E+02  0.48061217356E+02  0.00000000000E+00 0. -1.
         13    1    1    2    0    0 -0.17427561155E+02 -0.30758336114E+01 -0.38976199085E+02  0.42805792825E+02  0.10566000000E+00 0. -1.
        996    1    1    2    0    0  0.17427561155E+02  0.30758336114E+01  0.90914925907E+02  0.10525542453E+03  0.50000000000E+02 0.  0.
<mgrwt>
<rscale>  0 0.53039425E+02</rscale>
<asrwt>0</asrwt>
<pdfrwt beam="1">  1       13 0.10000000E+01 0.53039425E+02</pdfrwt>
<pdfrwt beam="2">  1       22 0.48061232E+00 0.53039425E+02</pdfrwt>
<totfact> 0.82020980E-02</totfact>
</mgrwt>
</event>
<event>
 4    1  0.2416490E+000  0.5470128E+02  0.7957747E-01  0.1421517E+00
         13   -1    0    0    0    0  0.00000000000E+00  0.00000000000E+00  0.99999944177E+02  0.99999999997E+02  0.10566000000E+00 0.  1.
         22   -1    0    0    0    0 -0.00000000000E+00 -0.00000000000E+00 -0.82029685792E+02  0.82029685792E+02  0.00000000000E+00 0. -1.
         13    1    1    2    0    0  0.19722927923E+02  0.10160492225E+02 -0.72769850589E+02  0.76076880896E+02  0.10566000000E+00 0. -1.
        996    1    1    2    0    0 -0.19722927923E+02 -0.10160492225E+02  0.90740108974E+02  0.10595280489E+03  0.50000000000E+02 0.  0.
<mgrwt>
<rscale>  0 0.54701275E+02</rscale>
<asrwt>0</asrwt>
<pdfrwt beam="1">  1       13 0.10000000E+01 0.54701275E+02</pdfrwt>
<pdfrwt beam="2">  1       22 0.82029691E+00 0.54701275E+02</pdfrwt>
<totfact> 0.25536973E-02</totfact>
</mgrwt>
</event>
<event>
 4    1  0.2416490E+000  0.5769161E+02  0.7957747E-01  0.1407782E+00
         13   -1    0    0    0    0  0.00000000000E+00  0.00000000000E+00  0.99999944182E+02  0.10000000000E+03  0.10566000000E+00 0. -1.
         22   -1    0    0    0    0 -0.00000000000E+00 -0.00000000000E+00 -0.27683266668E+02  0.27683266668E+02  0.00000000000E+00 0.  1.
         13    1    1    2    0    0 -0.20068432567E+02 -0.20629599130E+02 -0.69852757231E+01  0.29616339864E+02  0.10566000000E+00 0.  1.
        996    1    1    2    0    0  0.20068432567E+02  0.20629599130E+02  0.79301953237E+02  0.98066926806E+02  0.50000000000E+02 0.  0.
<mgrwt>
<rscale>  0 0.57691614E+02</rscale>
<asrwt>0</asrwt>
<pdfrwt beam="1">  1       13 0.10000000E+01 0.57691614E+02</pdfrwt>
<pdfrwt beam="2">  1       22 0.27683287E+00 0.57691614E+02</pdfrwt>
<totfact> 0.24325319E-01</totfact>
</mgrwt>
</event>
<event>
 4    1  0.2416490E+000  0.5432843E+02  0.7957747E-01  0.1423302E+00
         13   -1    0    0    0    0  0.00000000000E+00  0.00000000000E+00  0.99999944174E+02  0.99999999994E+02  0.10566000000E+00 0.  1.
         22   -1    0    0    0    0 -0.00000000000E+00 -0.00000000000E+00 -0.48172260729E+02  0.48172260729E+02  0.00000000000E+00 0. -1.
         13    1    1    2    0    0  0.21017383270E+02  0.31381105928E+01 -0.37800246222E+02  0.43364131677E+02  0.10566000000E+00 0. -1.
        996    1    1    2    0    0 -0.21017383270E+02 -0.31381105928E+01  0.89627929668E+02  0.10480812905E+03  0.50000000000E+02 0.  0.
<mgrwt>
<rscale>  0 0.54328428E+02</rscale>
<asrwt>0</asrwt>
<pdfrwt beam="1">  1       13 0.10000000E+01 0.54328428E+02</pdfrwt>
<pdfrwt beam="2">  1       22 0.48172275E+00 0.54328428E+02</pdfrwt>
<totfact> 0.81571047E-02</totfact>
</mgrwt>
</event>
<event>
 4    1  0.2416490E+000  0.5851356E+02  0.7957747E-01  0.1404178E+00
         13   -1    0    0    0    0  0.00000000000E+00  0.00000000000E+00  0.99999944180E+02  0.10000000000E+03  0.10566000000E+00 0. -1.
         22   -1    0    0    0    0 -0.00000000000E+00 -0.00000000000E+00 -0.25715546464E+02  0.25715546464E+02  0.00000000000E+00 0.  1.
         13    1    1    2    0    0 -0.29972054820E+02  0.50510061608E+01 -0.94457378678E+00  0.30409539902E+02  0.10566000000E+00 0.  1.
        996    1    1    2    0    0  0.29972054820E+02 -0.50510061608E+01  0.75228971503E+02  0.95306006562E+02  0.50000000000E+02 0.  0.
<mgrwt>
<rscale>  0 0.58513560E+02</rscale>
<asrwt>0</asrwt>
<pdfrwt beam="1">  1       13 0.10000000E+01 0.58513560E+02</pdfrwt>
<pdfrwt beam="2">  1       22 0.25715567E+00 0.58513560E+02</pdfrwt>
<totfact> 0.28149944E-01</totfact>
</mgrwt>
</event>
<event>
 4    1  0.2416490E+000  0.5891869E+02  0.7957747E-01  0.1402426E+00
         13   -1    0    0    0    0  0.00000000000E+00  0.00000000000E+00  0.99999944181E+02  0.10000000000E+03  0.10566000000E+00 0. -1.
         22   -1    0    0    0    0 -0.00000000000E+00 -0.00000000000E+00 -0.22655481637E+02  0.22655481637E+02  0.00000000000E+00 0. -1.
         13    1    1    2    0    0  0.26781145233E+02 -0.15943096685E+02  0.90432244567E+01  0.32453091447E+02  0.10566000000E+00 0.  1.
        996    1    1    2    0    0 -0.26781145233E+02  0.15943096685E+02  0.68301238087E+02  0.90202390191E+02  0.50000000000E+02 0.  0.
<mgrwt>
<rscale>  0 0.58918690E+02</rscale>
<asrwt>0</asrwt>
<pdfrwt beam="1">  1       13 0.10000000E+01 0.58918690E+02</pdfrwt>
<pdfrwt beam="2">  1       22 0.22655503E+00 0.58918690E+02</pdfrwt>
<totfact> 0.36126975E-01</totfact>
</mgrwt>
</event>
<event>
 4    1  0.2416490E+000  0.6541890E+02  0.7957747E-01  0.1376403E+00
         13   -1    0    0    0    0  0.00000000000E+00  0.00000000000E+00  0.99999944178E+02  0.99999999998E+02  0.10566000000E+00 0. -1.
         22   -1    0    0    0    0 -0.00000000000E+00 -0.00000000000E+00 -0.43970224041E+02  0.43970224041E+02  0.00000000000E+00 0.  1.
         13    1    1    2    0    0  0.10227264293E+01 -0.42173290251E+02 -0.17393610768E+02  0.45630924158E+02  0.10566000000E+00 0.  1.
        996    1    1    2    0    0 -0.10227264293E+01  0.42173290251E+02  0.73423330905E+02  0.98339299881E+02  0.50000000000E+02 0.  0.
<mgrwt>
<rscale>  0 0.65418899E+02</rscale>
<asrwt>0</asrwt>
<pdfrwt beam="1">  1       13 0.10000000E+01 0.65418899E+02</pdfrwt>
<pdfrwt beam="2">  1       22 0.43970240E+00 0.65418899E+02</pdfrwt>
<totfact> 0.10263487E-01</totfact>
</mgrwt>
</event>
<event>
 4    1  0.2416490E+000  0.5897700E+02  0.7957747E-01  0.1402176E+00
         13   -1    0    0    0    0  0.00000000000E+00  0.00000000000E+00  0.99999944176E+02  0.99999999996E+02  0.10566000000E+00 0.  1.
         22   -1    0    0    0    0 -0.00000000000E+00 -0.00000000000E+00 -0.27325874793E+02  0.27325874793E+02  0.00000000000E+00 0. -1.
         13    1    1    2    0    0  0.18249436728E+02 -0.25401660668E+02 -0.29577459555E+01  0.31417283949E+02  0.10566000000E+00 0. -1.
        996    1    1    2    0    0 -0.18249436728E+02  0.25401660668E+02  0.75631815338E+02  0.95908590840E+02  0.50000000000E+02 0.  0.
<mgrwt>
<rscale>  0 0.58976998E+02</rscale>
<asrwt>0</asrwt>
<pdfrwt beam="1">  1       13 0.10000000E+01 0.58976998E+02</pdfrwt>
<pdfrwt beam="2">  1       22 0.27325895E+00 0.58976998E+02</pdfrwt>
<totfact> 0.24992150E-01</totfact>
</mgrwt>
</event>
<event>
 4    1  0.2416490E+000  0.5170491E+02  0.7957747E-01  0.1436357E+00
         13   -1    0    0    0    0  0.00000000000E+00  0.00000000000E+00  0.99999944178E+02  0.99999999998E+02  0.10566000000E+00 0. -1.
         22   -1    0    0    0    0 -0.00000000000E+00 -0.00000000000E+00 -0.14536028696E+02  0.14536028696E+02  0.00000000000E+00 0.  1.
         13    1    1    2    0    0  0.95546227944E+01  0.90612681530E+01 -0.16112499313E+01  0.13266675833E+02  0.10566000000E+00 0.  1.
        996    1    1    2    0    0 -0.95546227944E+01 -0.90612681530E+01  0.87075165413E+02  0.10126935286E+03  0.50000000000E+02 0.  0.
<mgrwt>
<rscale>  0 0.51704907E+02</rscale>
<asrwt>0</asrwt>
<pdfrwt beam="1">  1       13 0.10000000E+01 0.51704907E+02</pdfrwt>
<pdfrwt beam="2">  1       22 0.14536053E+00 0.51704907E+02</pdfrwt>
<totfact> 0.79261971E-01</totfact>
</mgrwt>
</event>
<event>
 4    1  0.2416490E+000  0.5255883E+02  0.7957747E-01  0.1432009E+00
         13   -1    0    0    0    0  0.00000000000E+00  0.00000000000E+00  0.99999944177E+02  0.99999999998E+02  0.10566000000E+00 0.  1.
         22   -1    0    0    0    0 -0.00000000000E+00 -0.00000000000E+00 -0.12638799183E+02  0.12638799183E+02  0.00000000000E+00 0.  1.
         13    1    1    2    0    0  0.34670225317E+01  0.15824367432E+02  0.97571517629E+01  0.18911478642E+02  0.10566000000E+00 0. -1.
        996    1    1    2    0    0 -0.34670225317E+01 -0.15824367432E+02  0.77603993232E+02  0.93727320539E+02  0.50000000000E+02 0.  0.
<mgrwt>
<rscale>  0 0.52558832E+02</rscale>
<asrwt>0</asrwt>
<pdfrwt beam="1">  1       13 0.10000000E+01 0.52558832E+02</pdfrwt>
<pdfrwt beam="2">  1       22 0.12638824E+00 0.52558832E+02</pdfrwt>
<totfact> 0.99334129E-01</totfact>
</mgrwt>
</event>
<event>
 4    1  0.2416490E+000  0.5663295E+02  0.7957747E-01  0.1412531E+00
         13   -1    0    0    0    0  0.00000000000E+00  0.00000000000E+00  0.99999944172E+02  0.99999999992E+02  0.10566000000E+00 0. -1.
         22   -1    0    0    0    0 -0.00000000000E+00 -0.00000000000E+00 -0.18463290109E+02  0.18463290109E+02  0.00000000000E+00 0.  1.
         13    1    1    2    0    0 -0.16947869639E+02  0.20495376766E+02  0.13141805421E+02  0.29664945101E+02  0.10566000000E+00 0.  1.
        996    1    1    2    0    0  0.16947869639E+02 -0.20495376766E+02  0.68394848641E+02  0.88798345000E+02  0.50000000000E+02 0.  0.
<mgrwt>
<rscale>  0 0.56632948E+02</rscale>
<asrwt>0</asrwt>
<pdfrwt beam="1">  1       13 0.10000000E+01 0.56632948E+02</pdfrwt>
<pdfrwt beam="2">  1       22 0.18463313E+00 0.56632948E+02</pdfrwt>
<totfact> 0.52916361E-01</totfact>
</mgrwt>
</event>
<event>
 4    1  0.2416490E+000  0.5564281E+02  0.7957747E-01  0.1417083E+00
         13   -1    0    0    0    0  0.00000000000E+00  0.00000000000E+00  0.99999944179E+02  0.99999999999E+02  0.10566000000E+00 0. -1.
         22   -1    0    0    0    0 -0.00000000000E+00 -0.00000000000E+00 -0.18654992729E+02  0.18654992729E+02  0.00000000000E+00 0. -1.
         13    1    1    2    0    0  0.99708638178E+01 -0.22286855661E+02  0.47821638504E+02  0.53693969250E+02  0.10566000000E+00 0.  1.
        996    1    1    2    0    0 -0.99708638178E+01  0.22286855661E+02  0.33523312946E+02  0.64961023478E+02  0.50000000000E+02 0.  0.
<mgrwt>
<rscale>  0 0.55642808E+02</rscale>
<asrwt>0</asrwt>
<pdfrwt beam="1">  1       13 0.10000000E+01 0.55642808E+02</pdfrwt>
<pdfrwt beam="2">  1       22 0.18655015E+00 0.55642808E+02</pdfrwt>
<totfact> 0.51843975E-01</totfact>
</mgrwt>
</event>
<event>
 4    1  0.2416490E+000  0.5236610E+02  0.7957747E-01  0.1432982E+00
         13   -1    0    0    0    0  0.00000000000E+00  0.00000000000E+00  0.99999944178E+02  0.99999999998E+02  0.10566000000E+00 0. -1.
         22   -1    0    0    0    0 -0.00000000000E+00 -0.00000000000E+00 -0.77472515162E+02  0.77472515162E+02  0.00000000000E+00 0.  1.
         13    1    1    2    0    0 -0.66603554336E+01  0.14065848592E+02 -0.69699441770E+02  0.71415907039E+02  0.10566000000E+00 0.  1.
        996    1    1    2    0    0  0.66603554336E+01 -0.14065848592E+02  0.92226870786E+02  0.10605660812E+03  0.50000000000E+02 0.  0.
<mgrwt>
<rscale>  0 0.52366100E+02</rscale>
<asrwt>0</asrwt>
<pdfrwt beam="1">  1       13 0.10000000E+01 0.52366100E+02</pdfrwt>
<pdfrwt beam="2">  1       22 0.77472521E+00 0.52366100E+02</pdfrwt>
<totfact> 0.38971742E-02</totfact>
</mgrwt>
</event>
<event>
 4    1  0.2416490E+000  0.5268739E+02  0.7957747E-01  0.1431363E+00
         13   -1    0    0    0    0  0.00000000000E+00  0.00000000000E+00  0.99999944176E+02  0.99999999997E+02  0.10566000000E+00 0.  1.
         22   -1    0    0    0    0 -0.00000000000E+00 -0.00000000000E+00 -0.19178964796E+02  0.19178964796E+02  0.00000000000E+00 0. -1.
         13    1    1    2    0    0 -0.14594585493E+02 -0.79346641087E+01 -0.59657721332E+01  0.17651130882E+02  0.10566000000E+00 0. -1.
        996    1    1    2    0    0  0.14594585493E+02  0.79346641087E+01  0.86786751514E+02  0.10152783391E+03  0.50000000000E+02 0.  0.
<mgrwt>
<rscale>  0 0.52687388E+02</rscale>
<asrwt>0</asrwt>
<pdfrwt beam="1">  1       13 0.10000000E+01 0.52687388E+02</pdfrwt>
<pdfrwt beam="2">  1       22 0.19178987E+00 0.52687388E+02</pdfrwt>
<totfact> 0.49025482E-01</totfact>
</mgrwt>
</event>
<event>
 4    1  0.2416490E+000  0.5432300E+02  0.7957747E-01  0.1423328E+00
         13   -1    0    0    0    0  0.00000000000E+00  0.00000000000E+00  0.99999944179E+02  0.99999999999E+02  0.10566000000E+00 0. -1.
         22   -1    0    0    0    0 -0.00000000000E+00 -0.00000000000E+00 -0.19244518326E+02  0.19244518326E+02  0.00000000000E+00 0.  1.
         13    1    1    2    0    0  0.14988474852E+02 -0.15044397840E+02 -0.80173033788E+00  0.21251875689E+02  0.10566000000E+00 0.  1.
        996    1    1    2    0    0 -0.14988474852E+02  0.15044397840E+02  0.81557156191E+02  0.97992642635E+02  0.50000000000E+02 0.  0.
<mgrwt>
<rscale>  0 0.54323000E+02</rscale>
<asrwt>0</asrwt>
<pdfrwt beam="1">  1       13 0.10000000E+01 0.54323000E+02</pdfrwt>
<pdfrwt beam="2">  1       22 0.19244541E+00 0.54323000E+02</pdfrwt>
<totfact> 0.48860460E-01</totfact>
</mgrwt>
</event>
<event>
 4    1  0.2416490E+000  0.5152448E+02  0.7957747E-01  0.1437288E+00
         13   -1    0    0    0    0  0.00000000000E+00  0.00000000000E+00  0.99999944191E+02  0.10000000001E+03  0.10566000000E+00 0. -1.
         22   -1    0    0    0    0 -0.00000000000E+00 -0.00000000000E+00 -0.21659060297E+02  0.21659060297E+02  0.00000000000E+00 0.  1.
         13    1    1    2    0    0  0.11234020164E+02 -0.53449990273E+01 -0.12237774026E+02  0.17451260723E+02  0.10566000000E+00 0.  1.
        996    1    1    2    0    0 -0.11234020164E+02  0.53449990273E+01  0.90578657920E+02  0.10420779958E+03  0.50000000000E+02 0.  0.
<mgrwt>
<rscale>  0 0.51524482E+02</rscale>
<asrwt>0</asrwt>
<pdfrwt beam="1">  1       13 0.10000000E+01 0.51524482E+02</pdfrwt>
<pdfrwt beam="2">  1       22 0.21659082E+00 0.51524482E+02</pdfrwt>
<totfact> 0.38939342E-01</totfact>
</mgrwt>
</event>
<event>
 4    1  0.2416490E+000  0.5115715E+02  0.7957747E-01  0.1439198E+00
         13   -1    0    0    0    0  0.00000000000E+00  0.00000000000E+00  0.99999944177E+02  0.99999999997E+02  0.10566000000E+00 0.  1.
         22   -1    0    0    0    0 -0.00000000000E+00 -0.00000000000E+00 -0.96044749221E+01  0.96044749221E+01  0.00000000000E+00 0. -1.
         13    1    1    2    0    0 -0.69612170564E+01 -0.82822080420E+01  0.15233384556E+02  0.18684771393E+02  0.10566000000E+00 0. -1.
        996    1    1    2    0    0  0.69612170564E+01  0.82822080420E+01  0.75162084699E+02  0.90919703526E+02  0.50000000000E+02 0.  0.
<mgrwt>
<rscale>  0 0.51157145E+02</rscale>
<asrwt>0</asrwt>
<pdfrwt beam="1">  1       13 0.10000000E+01 0.51157145E+02</pdfrwt>
<pdfrwt beam="2">  1       22 0.96045002E-01 0.51157145E+02</pdfrwt>
<totfact> 0.14911157E+00</totfact>
</mgrwt>
</event>
<event>
 4    1  0.2416490E+000  0.5206541E+02  0.7957747E-01  0.1434509E+00
         13   -1    0    0    0    0  0.00000000000E+00  0.00000000000E+00  0.99999944191E+02  0.10000000001E+03  0.10566000000E+00 0. -1.
         22   -1    0    0    0    0 -0.00000000000E+00 -0.00000000000E+00 -0.81236791771E+02  0.81236791771E+02  0.00000000000E+00 0.  1.
         13    1    1    2    0    0 -0.11331065212E+02  0.90782037445E+01 -0.73703173035E+02  0.75119742422E+02  0.10566000000E+00 0.  1.
        996    1    1    2    0    0  0.11331065212E+02 -0.90782037445E+01  0.92466325455E+02  0.10611704936E+03  0.50000000000E+02 0.  0.
<mgrwt>
<rscale>  0 0.52065409E+02</rscale>
<asrwt>0</asrwt>
<pdfrwt beam="1">  1       13 0.10000000E+01 0.52065409E+02</pdfrwt>
<pdfrwt beam="2">  1       22 0.81236797E+00 0.52065409E+02</pdfrwt>
<totfact> 0.27528218E-02</totfact>
</mgrwt>
</event>
<event>
 4    1  0.2416490E+000  0.9268461E+02  0.7957747E-01  0.1296478E+00
         13   -1    0    0    0    0  0.00000000000E+00  0.00000000000E+00  0.99999944193E+02  0.10000000001E+03  0.10566000000E+00 0.  1.
         22   -1    0    0    0    0 -0.00000000000E+00 -0.00000000000E+00 -0.72946540153E+02  0.72946540153E+02  0.00000000000E+00 0. -1.
         13    1    1    2    0    0  0.78013105534E+02  0.20957673810E+01  0.95471129601E+01  0.78623122590E+02  0.10566000000E+00 0. -1.
        996    1    1    2    0    0 -0.78013105534E+02 -0.20957673810E+01  0.17506291080E+02  0.94323417576E+02  0.50000000000E+02 0.  0.
<mgrwt>
<rscale>  0 0.92684610E+02</rscale>
<asrwt>0</asrwt>
<pdfrwt beam="1">  1       13 0.10000000E+01 0.92684610E+02</pdfrwt>
<pdfrwt beam="2">  1       22 0.72946548E+00 0.92684610E+02</pdfrwt>
<totfact> 0.59005811E-02</totfact>
</mgrwt>
</event>
<event>
 4    1  0.2416490E+000  0.5230165E+02  0.7957747E-01  0.1433308E+00
         13   -1    0    0    0    0  0.00000000000E+00  0.00000000000E+00  0.99999944183E+02  0.10000000000E+03  0.10566000000E+00 0. -1.
         22   -1    0    0    0    0 -0.00000000000E+00 -0.00000000000E+00 -0.11757883059E+02  0.11757883059E+02  0.00000000000E+00 0. -1.
         13    1    1    2    0    0 -0.15094135464E+02  0.27622318284E+01  0.28405508197E+02  0.32285397783E+02  0.10566000000E+00 0.  1.
        996    1    1    2    0    0  0.15094135464E+02 -0.27622318284E+01  0.59836552928E+02  0.79472485279E+02  0.50000000000E+02 0.  0.
<mgrwt>
<rscale>  0 0.52301652E+02</rscale>
<asrwt>0</asrwt>
<pdfrwt beam="1">  1       13 0.10000000E+01 0.52301652E+02</pdfrwt>
<pdfrwt beam="2">  1       22 0.11757908E+00 0.52301652E+02</pdfrwt>
<totfact> 0.11096495E+00</totfact>
</mgrwt>
</event>
<event>
 4    1  0.2416490E+000  0.5402789E+02  0.7957747E-01  0.1424753E+00
         13   -1    0    0    0    0  0.00000000000E+00  0.00000000000E+00  0.99999944178E+02  0.99999999998E+02  0.10566000000E+00 0.  1.
         22   -1    0    0    0    0 -0.00000000000E+00 -0.00000000000E+00 -0.14437907147E+02  0.14437907147E+02  0.00000000000E+00 0.  1.
         13    1    1    2    0    0  0.22218756819E+01 -0.20348864176E+02  0.14123437647E+02  0.24869572972E+02  0.10566000000E+00 0. -1.
        996    1    1    2    0    0 -0.22218756819E+01  0.20348864176E+02  0.71438599383E+02  0.89568334174E+02  0.50000000000E+02 0.  0.
<mgrwt>
<rscale>  0 0.54027891E+02</rscale>
<asrwt>0</asrwt>
<pdfrwt beam="1">  1       13 0.10000000E+01 0.54027891E+02</pdfrwt>
<pdfrwt beam="2">  1       22 0.14437931E+00 0.54027891E+02</pdfrwt>
<totfact> 0.80529065E-01</totfact>
</mgrwt>
</event>
<event>
 4    1  0.2416490E+000  0.5439186E+02  0.7957747E-01  0.1422997E+00
         13   -1    0    0    0    0  0.00000000000E+00  0.00000000000E+00  0.99999944185E+02  0.10000000001E+03  0.10566000000E+00 0. -1.
         22   -1    0    0    0    0 -0.00000000000E+00 -0.00000000000E+00 -0.21624785591E+02  0.21624785591E+02  0.00000000000E+00 0.  1.
         13    1    1    2    0    0  0.30846553827E+01 -0.21188650443E+02 -0.50825376204E+01  0.22007211525E+02  0.10566000000E+00 0.  1.
        996    1    1    2    0    0 -0.30846553827E+01  0.21188650443E+02  0.83457696215E+02  0.99617574071E+02  0.50000000000E+02 0.  0.
<mgrwt>
<rscale>  0 0.54391856E+02</rscale>
<asrwt>0</asrwt>
<pdfrwt beam="1">  1       13 0.10000000E+01 0.54391856E+02</pdfrwt>
<pdfrwt beam="2">  1       22 0.21624807E+00 0.54391856E+02</pdfrwt>
<totfact> 0.39247218E-01</totfact>
</mgrwt>
</event>
<event>
 4    1  0.2416490E+000  0.5148443E+02  0.7957747E-01  0.1437496E+00
         13   -1    0    0    0    0  0.00000000000E+00  0.00000000000E+00  0.99999944175E+02  0.99999999995E+02  0.10566000000E+00 0. -1.
         22   -1    0    0    0    0 -0.00000000000E+00 -0.00000000000E+00 -0.23081710291E+02  0.23081710291E+02  0.00000000000E+00 0.  1.
         13    1    1    2    0    0  0.53135969561E+00 -0.12262292962E+02 -0.13987434400E+02  0.18609289533E+02  0.10566000000E+00 0.  1.
        996    1    1    2    0    0 -0.53135969561E+00  0.12262292962E+02  0.90905668284E+02  0.10447242075E+03  0.50000000000E+02 0.  0.
<mgrwt>
<rscale>  0 0.51484426E+02</rscale>
<asrwt>0</asrwt>
<pdfrwt beam="1">  1       13 0.10000000E+01 0.51484426E+02</pdfrwt>
<pdfrwt beam="2">  1       22 0.23081732E+00 0.51484426E+02</pdfrwt>
<totfact> 0.34438020E-01</totfact>
</mgrwt>
</event>
<event>
 4    1  0.2416490E+000  0.7234283E+02  0.7957747E-01  0.1352303E+00
         13   -1    0    0    0    0  0.00000000000E+00  0.00000000000E+00  0.99999944174E+02  0.99999999994E+02  0.10566000000E+00 0. -1.
         22   -1    0    0    0    0 -0.00000000000E+00 -0.00000000000E+00 -0.59296894304E+02  0.59296894304E+02  0.00000000000E+00 0.  1.
         13    1    1    2    0    0 -0.23846978943E+02 -0.46527479156E+02 -0.28189865233E+02  0.59398353405E+02  0.10566000000E+00 0.  1.
        996    1    1    2    0    0  0.23846978943E+02  0.46527479156E+02  0.68892915103E+02  0.99898540894E+02  0.50000000000E+02 0.  0.
<mgrwt>
<rscale>  0 0.72342828E+02</rscale>
<asrwt>0</asrwt>
<pdfrwt beam="1">  1       13 0.10000000E+01 0.72342828E+02</pdfrwt>
<pdfrwt beam="2">  1       22 0.59296906E+00 0.72342828E+02</pdfrwt>
<totfact> 0.61426726E-02</totfact>
</mgrwt>
</event>
<event>
 4    1  0.2416490E+000  0.5285462E+02  0.7957747E-01  0.1430526E+00
         13   -1    0    0    0    0  0.00000000000E+00  0.00000000000E+00  0.99999944171E+02  0.99999999992E+02  0.10566000000E+00 0. -1.
         22   -1    0    0    0    0 -0.00000000000E+00 -0.00000000000E+00 -0.23806313605E+02  0.23806313605E+02  0.00000000000E+00 0.  1.
         13    1    1    2    0    0  0.54846412396E+01 -0.16233596743E+02 -0.12047470774E+02  0.20946686345E+02  0.10566000000E+00 0.  1.
        996    1    1    2    0    0 -0.54846412396E+01  0.16233596743E+02  0.88241101340E+02  0.10285962725E+03  0.50000000000E+02 0.  0.
<mgrwt>
<rscale>  0 0.52854621E+02</rscale>
<asrwt>0</asrwt>
<pdfrwt beam="1">  1       13 0.10000000E+01 0.52854621E+02</pdfrwt>
<pdfrwt beam="2">  1       22 0.23806335E+00 0.52854621E+02</pdfrwt>
<totfact> 0.32494996E-01</totfact>
</mgrwt>
</event>
<event>
 4    1  0.2416490E+000  0.5133160E+02  0.7957747E-01  0.1438289E+00
         13   -1    0    0    0    0  0.00000000000E+00  0.00000000000E+00  0.99999944186E+02  0.10000000001E+03  0.10566000000E+00 0.  1.
         22   -1    0    0    0    0 -0.00000000000E+00 -0.00000000000E+00 -0.10116925755E+02  0.10116925755E+02  0.00000000000E+00 0.  1.
         13    1    1    2    0    0 -0.91446451486E+01 -0.71629921858E+01  0.10969747678E+02  0.15977469139E+02  0.10566000000E+00 0. -1.
        996    1    1    2    0    0  0.91446451486E+01  0.71629921858E+01  0.78913270753E+02  0.94139456621E+02  0.50000000000E+02 0.  0.
<mgrwt>
<rscale>  0 0.51331598E+02</rscale>
<asrwt>0</asrwt>
<pdfrwt beam="1">  1       13 0.10000000E+01 0.51331598E+02</pdfrwt>
<pdfrwt beam="2">  1       22 0.10116951E+00 0.51331598E+02</pdfrwt>
<totfact> 0.13839797E+00</totfact>
</mgrwt>
</event>
<event>
 4    1  0.2416490E+000  0.5529560E+02  0.7957747E-01  0.1418706E+00
         13   -1    0    0    0    0  0.00000000000E+00  0.00000000000E+00  0.99999944173E+02  0.99999999993E+02  0.10566000000E+00 0. -1.
         22   -1    0    0    0    0 -0.00000000000E+00 -0.00000000000E+00 -0.21648604904E+02  0.21648604904E+02  0.00000000000E+00 0.  1.
         13    1    1    2    0    0  0.13457917838E+01 -0.23575239733E+02 -0.24473332402E+01  0.23740338835E+02  0.10566000000E+00 0.  1.
        996    1    1    2    0    0 -0.13457917838E+01  0.23575239733E+02  0.80798672509E+02  0.97908266062E+02  0.50000000000E+02 0.  0.
<mgrwt>
<rscale>  0 0.55295597E+02</rscale>
<asrwt>0</asrwt>
<pdfrwt beam="1">  1       13 0.10000000E+01 0.55295597E+02</pdfrwt>
<pdfrwt beam="2">  1       22 0.21648627E+00 0.55295597E+02</pdfrwt>
<totfact> 0.39222106E-01</totfact>
</mgrwt>
</event>
<event>
 4    1  0.2416490E+000  0.5113867E+02  0.7957747E-01  0.1439295E+00
         13   -1    0    0    0    0  0.00000000000E+00  0.00000000000E+00  0.99999944178E+02  0.99999999999E+02  0.10566000000E+00 0. -1.
         22   -1    0    0    0    0 -0.00000000000E+00 -0.00000000000E+00 -0.98458904208E+01  0.98458904208E+01  0.00000000000E+00 0.  1.
         13    1    1    2    0    0  0.10544948820E+02  0.19919089814E+01  0.94274556482E+01  0.14284667691E+02  0.10566000000E+00 0.  1.
        996    1    1    2    0    0 -0.10544948820E+02 -0.19919089814E+01  0.80726598110E+02  0.95561222728E+02  0.50000000000E+02 0.  0.
<mgrwt>
<rscale>  0 0.51138671E+02</rscale>
<asrwt>0</asrwt>
<pdfrwt beam="1">  1       13 0.10000000E+01 0.51138671E+02</pdfrwt>
<pdfrwt beam="2">  1       22 0.98459156E-01 0.51138671E+02</pdfrwt>
<totfact> 0.14387807E+00</totfact>
</mgrwt>
</event>
<event>
 4    1  0.2416490E+000  0.5615950E+02  0.7957747E-01  0.1414694E+00
         13   -1    0    0    0    0  0.00000000000E+00  0.00000000000E+00  0.99999944180E+02  0.10000000000E+03  0.10566000000E+00 0. -1.
         22   -1    0    0    0    0 -0.00000000000E+00 -0.00000000000E+00 -0.25975986243E+02  0.25975986243E+02  0.00000000000E+00 0. -1.
         13    1    1    2    0    0 -0.15666649171E+02  0.20210032946E+02 -0.77990845526E+01  0.26734363875E+02  0.10566000000E+00 0.  1.
        996    1    1    2    0    0  0.15666649171E+02 -0.20210032946E+02  0.81823042490E+02  0.99241622368E+02  0.50000000000E+02 0.  0.
<mgrwt>
<rscale>  0 0.56159499E+02</rscale>
<asrwt>0</asrwt>
<pdfrwt beam="1">  1       13 0.10000000E+01 0.56159499E+02</pdfrwt>
<pdfrwt beam="2">  1       22 0.25976007E+00 0.56159499E+02</pdfrwt>
<totfact> 0.27506323E-01</totfact>
</mgrwt>
</event>
<event>
 4    1  0.2416490E+000  0.5129702E+02  0.7957747E-01  0.1438469E+00
         13   -1    0    0    0    0  0.00000000000E+00  0.00000000000E+00  0.99999944194E+02  0.10000000001E+03  0.10566000000E+00 0.  1.
         22   -1    0    0    0    0 -0.00000000000E+00 -0.00000000000E+00 -0.71171908856E+02  0.71171908856E+02  0.00000000000E+00 0. -1.
         13    1    1    2    0    0  0.25692287814E+01 -0.11170631724E+02 -0.64051020505E+02  0.65068643304E+02  0.10566000000E+00 0. -1.
        996    1    1    2    0    0 -0.25692287814E+01  0.11170631724E+02  0.92879055842E+02  0.10610326557E+03  0.50000000000E+02 0.  0.
<mgrwt>
<rscale>  0 0.51297017E+02</rscale>
<asrwt>0</asrwt>
<pdfrwt beam="1">  1       13 0.10000000E+01 0.51297017E+02</pdfrwt>
<pdfrwt beam="2">  1       22 0.71171917E+00 0.51297017E+02</pdfrwt>
<totfact> 0.68496296E-02</totfact>
</mgrwt>
</event>
<event>
 4    1  0.2416490E+000  0.5489507E+02  0.7957747E-01  0.1420596E+00
         13   -1    0    0    0    0  0.00000000000E+00  0.00000000000E+00  0.99999944179E+02  0.99999999999E+02  0.10566000000E+00 0. -1.
         22   -1    0    0    0    0 -0.00000000000E+00 -0.00000000000E+00 -0.18150783426E+02  0.18150783426E+02  0.00000000000E+00 0.  1.
         13    1    1    2    0    0  0.16087154287E+02 -0.15958436090E+02  0.41829832110E+01  0.23042932280E+02  0.10566000000E+00 0.  1.
        996    1    1    2    0    0 -0.16087154287E+02  0.15958436090E+02  0.77666177542E+02  0.95107851145E+02  0.50000000000E+02 0.  0.
<mgrwt>
<rscale>  0 0.54895065E+02</rscale>
<asrwt>0</asrwt>
<pdfrwt beam="1">  1       13 0.10000000E+01 0.54895065E+02</pdfrwt>
<pdfrwt beam="2">  1       22 0.18150806E+00 0.54895065E+02</pdfrwt>
<totfact> 0.54410499E-01</totfact>
</mgrwt>
</event>
<event>
 4    1  0.2416490E+000  0.6416991E+02  0.7957747E-01  0.1381121E+00
         13   -1    0    0    0    0  0.00000000000E+00  0.00000000000E+00  0.99999944178E+02  0.99999999998E+02  0.10566000000E+00 0. -1.
         22   -1    0    0    0    0 -0.00000000000E+00 -0.00000000000E+00 -0.40387942418E+02  0.40387942418E+02  0.00000000000E+00 0.  1.
         13    1    1    2    0    0 -0.33550585120E+02  0.22184136664E+02 -0.14133105790E+02  0.42632540679E+02  0.10566000000E+00 0.  1.
        996    1    1    2    0    0  0.33550585120E+02 -0.22184136664E+02  0.73745107549E+02  0.97755401738E+02  0.50000000000E+02 0.  0.
<mgrwt>
<rscale>  0 0.64169913E+02</rscale>
<asrwt>0</asrwt>
<pdfrwt beam="1">  1       13 0.10000000E+01 0.64169913E+02</pdfrwt>
<pdfrwt beam="2">  1       22 0.40387959E+00 0.64169913E+02</pdfrwt>
<totfact> 0.12244015E-01</totfact>
</mgrwt>
</event>
<event>
 4    1  0.2416490E+000  0.5190725E+02  0.7957747E-01  0.1435318E+00
         13   -1    0    0    0    0  0.00000000000E+00  0.00000000000E+00  0.99999944180E+02  0.10000000000E+03  0.10566000000E+00 0.  1.
         22   -1    0    0    0    0 -0.00000000000E+00 -0.00000000000E+00 -0.11353873053E+02  0.11353873053E+02  0.00000000000E+00 0. -1.
         13    1    1    2    0    0  0.36568331420E+01  0.13453264168E+02  0.10140288004E+02  0.17239470707E+02  0.10566000000E+00 0. -1.
        996    1    1    2    0    0 -0.36568331420E+01 -0.13453264168E+02  0.78505783123E+02  0.94114402347E+02  0.50000000000E+02 0.  0.
<mgrwt>
<rscale>  0 0.51907251E+02</rscale>
<asrwt>0</asrwt>
<pdfrwt beam="1">  1       13 0.10000000E+01 0.51907251E+02</pdfrwt>
<pdfrwt beam="2">  1       22 0.11353898E+00 0.51907251E+02</pdfrwt>
<totfact> 0.11688017E+00</totfact>
</mgrwt>
</event>
<event>
 4    1  0.2416490E+000  0.5817963E+02  0.7957747E-01  0.1405634E+00
         13   -1    0    0    0    0  0.00000000000E+00  0.00000000000E+00  0.99999944177E+02  0.99999999997E+02  0.10566000000E+00 0.  1.
         22   -1    0    0    0    0 -0.00000000000E+00 -0.00000000000E+00 -0.20106561314E+02  0.20106561314E+02  0.00000000000E+00 0.  1.
         13    1    1    2    0    0  0.20676611229E+02 -0.21385683473E+02  0.38739382684E+02  0.48842815687E+02  0.10566000000E+00 0. -1.
        996    1    1    2    0    0 -0.20676611229E+02  0.21385683473E+02  0.41154000179E+02  0.71263745623E+02  0.50000000000E+02 0.  0.
<mgrwt>
<rscale>  0 0.58179633E+02</rscale>
<asrwt>0</asrwt>
<pdfrwt beam="1">  1       13 0.10000000E+01 0.58179633E+02</pdfrwt>
<pdfrwt beam="2">  1       22 0.20106584E+00 0.58179633E+02</pdfrwt>
<totfact> 0.45329899E-01</totfact>
</mgrwt>
</event>
<event>
 4    1  0.2416490E+000  0.5432794E+02  0.7957747E-01  0.1423304E+00
         13   -1    0    0    0    0  0.00000000000E+00  0.00000000000E+00  0.99999944179E+02  0.99999999999E+02  0.10566000000E+00 0.  1.
         22   -1    0    0    0    0 -0.00000000000E+00 -0.00000000000E+00 -0.14699026745E+02  0.14699026745E+02  0.00000000000E+00 0.  1.
         13    1    1    2    0    0 -0.15646073694E+02  0.14377944153E+02  0.33253302663E+02  0.39462871185E+02  0.10566000000E+00 0. -1.
        996    1    1    2    0    0  0.15646073694E+02 -0.14377944153E+02  0.52047614771E+02  0.75236155560E+02  0.50000000000E+02 0.  0.
<mgrwt>
<rscale>  0 0.54327938E+02</rscale>
<asrwt>0</asrwt>
<pdfrwt beam="1">  1       13 0.10000000E+01 0.54327938E+02</pdfrwt>
<pdfrwt beam="2">  1       22 0.14699051E+00 0.54327938E+02</pdfrwt>
<totfact> 0.78231911E-01</totfact>
</mgrwt>
</event>
<event>
 4    1  0.2416490E+000  0.5344203E+02  0.7957747E-01  0.1427614E+00
         13   -1    0    0    0    0  0.00000000000E+00  0.00000000000E+00  0.99999944184E+02  0.10000000000E+03  0.10566000000E+00 0. -1.
         22   -1    0    0    0    0 -0.00000000000E+00 -0.00000000000E+00 -0.15862026730E+02  0.15862026730E+02  0.00000000000E+00 0.  1.
         13    1    1    2    0    0 -0.17765963001E+02 -0.63577959746E+01  0.36062749750E+01  0.19211126834E+02  0.10566000000E+00 0.  1.
        996    1    1    2    0    0  0.17765963001E+02  0.63577959746E+01  0.80531642479E+02  0.96650899900E+02  0.50000000000E+02 0.  0.
<mgrwt>
<rscale>  0 0.53442034E+02</rscale>
<asrwt>0</asrwt>
<pdfrwt beam="1">  1       13 0.10000000E+01 0.53442034E+02</pdfrwt>
<pdfrwt beam="2">  1       22 0.15862050E+00 0.53442034E+02</pdfrwt>
<totfact> 0.68724879E-01</totfact>
</mgrwt>
</event>
<event>
 4    1  0.2416490E+000  0.5671244E+02  0.7957747E-01  0.1412170E+00
         13   -1    0    0    0    0  0.00000000000E+00  0.00000000000E+00  0.99999944184E+02  0.10000000000E+03  0.10566000000E+00 0. -1.
         22   -1    0    0    0    0 -0.00000000000E+00 -0.00000000000E+00 -0.27111572841E+02  0.27111572841E+02  0.00000000000E+00 0.  1.
         13    1    1    2    0    0 -0.26494758862E+02 -0.37853425806E+01 -0.83496996840E+01  0.28036221472E+02  0.10566000000E+00 0.  1.
        996    1    1    2    0    0  0.26494758862E+02  0.37853425806E+01  0.81238071027E+02  0.99075351374E+02  0.50000000000E+02 0.  0.
<mgrwt>
<rscale>  0 0.56712442E+02</rscale>
<asrwt>0</asrwt>
<pdfrwt beam="1">  1       13 0.10000000E+01 0.56712442E+02</pdfrwt>
<pdfrwt beam="2">  1       22 0.27111593E+00 0.56712442E+02</pdfrwt>
<totfact> 0.25305675E-01</totfact>
</mgrwt>
</event>
<event>
 4    1  0.2416490E+000  0.5213283E+02  0.7957747E-01  0.1434166E+00
         13   -1    0    0    0    0  0.00000000000E+00  0.00000000000E+00  0.99999944180E+02  0.10000000000E+03  0.10566000000E+00 0.  1.
         22   -1    0    0    0    0 -0.00000000000E+00 -0.00000000000E+00 -0.12601816320E+02  0.12601816320E+02  0.00000000000E+00 0.  1.
         13    1    1    2    0    0 -0.14603420569E+02 -0.21381325481E+01  0.59835551786E+01  0.15926255044E+02  0.10566000000E+00 0. -1.
        996    1    1    2    0    0  0.14603420569E+02  0.21381325481E+01  0.81414572681E+02  0.96675561276E+02  0.50000000000E+02 0.  0.
<mgrwt>
<rscale>  0 0.52132826E+02</rscale>
<asrwt>0</asrwt>
<pdfrwt beam="1">  1       13 0.10000000E+01 0.52132826E+02</pdfrwt>
<pdfrwt beam="2">  1       22 0.12601841E+00 0.52132826E+02</pdfrwt>
<totfact> 0.99696558E-01</totfact>
</mgrwt>
</event>
<event>
 4    1  0.2416490E+000  0.5387560E+02  0.7957747E-01  0.1425492E+00
         13   -1    0    0    0    0  0.00000000000E+00  0.00000000000E+00  0.99999944178E+02  0.99999999998E+02  0.10566000000E+00 0. -1.
         22   -1    0    0    0    0 -0.00000000000E+00 -0.00000000000E+00 -0.21602050900E+02  0.21602050900E+02  0.00000000000E+00 0.  1.
         13    1    1    2    0    0 -0.16033169800E+02 -0.12063082016E+02 -0.64662498306E+01  0.21080892592E+02  0.10566000000E+00 0.  1.
        996    1    1    2    0    0  0.16033169800E+02  0.12063082016E+02  0.84864143108E+02  0.10052115831E+03  0.50000000000E+02 0.  0.
<mgrwt>
<rscale>  0 0.53875602E+02</rscale>
<asrwt>0</asrwt>
<pdfrwt beam="1">  1       13 0.10000000E+01 0.53875602E+02</pdfrwt>
<pdfrwt beam="2">  1       22 0.21602073E+00 0.53875602E+02</pdfrwt>
<totfact> 0.39292865E-01</totfact>
</mgrwt>
</event>
<event>
 4    1  0.2416490E+000  0.5375224E+02  0.7957747E-01  0.1426093E+00
         13   -1    0    0    0    0  0.00000000000E+00  0.00000000000E+00  0.99999944183E+02  0.10000000000E+03  0.10566000000E+00 0.  1.
         22   -1    0    0    0    0 -0.00000000000E+00 -0.00000000000E+00 -0.47702600794E+02  0.47702600794E+02  0.00000000000E+00 0. -1.
         13    1    1    2    0    0 -0.12034206959E+02  0.15635894277E+02 -0.37885538474E+02  0.42715670620E+02  0.10566000000E+00 0. -1.
        996    1    1    2    0    0  0.12034206959E+02 -0.15635894277E+02  0.90182881863E+02  0.10498693018E+03  0.50000000000E+02 0.  0.
<mgrwt>
<rscale>  0 0.53752240E+02</rscale>
<asrwt>0</asrwt>
<pdfrwt beam="1">  1       13 0.10000000E+01 0.53752240E+02</pdfrwt>
<pdfrwt beam="2">  1       22 0.47702615E+00 0.53752240E+02</pdfrwt>
<totfact> 0.83684471E-02</totfact>
</mgrwt>
</event>
<event>
 4    1  0.2416490E+000  0.5417623E+02  0.7957747E-01  0.1424035E+00
         13   -1    0    0    0    0  0.00000000000E+00  0.00000000000E+00  0.99999944174E+02  0.99999999995E+02  0.10566000000E+00 0.  1.
         22   -1    0    0    0    0 -0.00000000000E+00 -0.00000000000E+00 -0.22061955164E+02  0.22061955164E+02  0.00000000000E+00 0. -1.
         13    1    1    2    0    0  0.37079151300E+01  0.20525963079E+02 -0.64037149758E+01  0.21819315398E+02  0.10566000000E+00 0. -1.
        996    1    1    2    0    0 -0.37079151300E+01 -0.20525963079E+02  0.84341703986E+02  0.10024263976E+03  0.50000000000E+02 0.  0.
<mgrwt>
<rscale>  0 0.54176229E+02</rscale>
<asrwt>0</asrwt>
<pdfrwt beam="1">  1       13 0.10000000E+01 0.54176229E+02</pdfrwt>
<pdfrwt beam="2">  1       22 0.22061977E+00 0.54176229E+02</pdfrwt>
<totfact> 0.37753675E-01</totfact>
</mgrwt>
</event>
<event>
 4    1  0.2416490E+000  0.5116490E+02  0.7957747E-01  0.1439158E+00
         13   -1    0    0    0    0  0.00000000000E+00  0.00000000000E+00  0.99999944171E+02  0.99999999992E+02  0.10566000000E+00 0.  1.
         22   -1    0    0    0    0 -0.00000000000E+00 -0.00000000000E+00 -0.10866286842E+02  0.10866286842E+02  0.00000000000E+00 0.  1.
         13    1    1    2    0    0  0.49842426852E+01  0.96438731502E+01  0.40571153712E+01  0.11589577803E+02  0.10566000000E+00 0. -1.
        996    1    1    2    0    0 -0.49842426852E+01 -0.96438731502E+01  0.85076541958E+02  0.99276709031E+02  0.50000000000E+02 0.  0.
<mgrwt>
<rscale>  0 0.51164900E+02</rscale>
<asrwt>0</asrwt>
<pdfrwt beam="1">  1       13 0.10000000E+01 0.51164900E+02</pdfrwt>
<pdfrwt beam="2">  1       22 0.10866312E+00 0.51164900E+02</pdfrwt>
<totfact> 0.12457556E+00</totfact>
</mgrwt>
</event>
<event>
 4    1  0.2416490E+000  0.5880921E+02  0.7957747E-01  0.1402898E+00
         13   -1    0    0    0    0  0.00000000000E+00  0.00000000000E+00  0.99999944177E+02  0.99999999998E+02  0.10566000000E+00 0.  1.
         22   -1    0    0    0    0 -0.00000000000E+00 -0.00000000000E+00 -0.45253399044E+02  0.45253399044E+02  0.00000000000E+00 0. -1.
         13    1    1    2    0    0  0.19005299588E+00 -0.30959436130E+02 -0.29332087870E+02  0.42648626572E+02  0.10566000000E+00 0. -1.
        996    1    1    2    0    0 -0.19005299588E+00  0.30959436130E+02  0.84078633004E+02  0.10260477247E+03  0.50000000000E+02 0.  0.
<mgrwt>
<rscale>  0 0.58809207E+02</rscale>
<asrwt>0</asrwt>
<pdfrwt beam="1">  1       13 0.10000000E+01 0.58809207E+02</pdfrwt>
<pdfrwt beam="2">  1       22 0.45253414E+00 0.58809207E+02</pdfrwt>
<totfact> 0.95709085E-02</totfact>
</mgrwt>
</event>
<event>
 4    1  0.2416490E+000  0.5103831E+02  0.7957747E-01  0.1439820E+00
         13   -1    0    0    0    0  0.00000000000E+00  0.00000000000E+00  0.99999944178E+02  0.99999999999E+02  0.10566000000E+00 0.  1.
         22   -1    0    0    0    0 -0.00000000000E+00 -0.00000000000E+00 -0.10344997870E+02  0.10344997870E+02  0.00000000000E+00 0.  1.
         13    1    1    2    0    0  0.29516560784E+01 -0.98079815401E+01  0.30716187085E+02  0.32379068680E+02  0.10566000000E+00 0. -1.
        996    1    1    2    0    0 -0.29516560784E+01  0.98079815401E+01  0.58938759223E+02  0.77965929188E+02  0.50000000000E+02 0.  0.
<mgrwt>
<rscale>  0 0.51038307E+02</rscale>
<asrwt>0</asrwt>
<pdfrwt beam="1">  1       13 0.10000000E+01 0.51038307E+02</pdfrwt>
<pdfrwt beam="2">  1       22 0.10345023E+00 0.51038307E+02</pdfrwt>
<totfact> 0.13388039E+00</totfact>
</mgrwt>
</event>
<event>
 4    1  0.2416490E+000  0.5113668E+02  0.7957747E-01  0.1439305E+00
         13   -1    0    0    0    0  0.00000000000E+00  0.00000000000E+00  0.99999944183E+02  0.10000000000E+03  0.10566000000E+00 0.  1.
         22   -1    0    0    0    0 -0.00000000000E+00 -0.00000000000E+00 -0.10208281338E+02  0.10208281338E+02  0.00000000000E+00 0.  1.
         13    1    1    2    0    0  0.10199864483E+02  0.33050044001E+01  0.28112110815E+02  0.30087575976E+02  0.10566000000E+00 0. -1.
        996    1    1    2    0    0 -0.10199864483E+02 -0.33050044001E+01  0.61679552030E+02  0.80120705365E+02  0.50000000000E+02 0.  0.
<mgrwt>
<rscale>  0 0.51136682E+02</rscale>
<asrwt>0</asrwt>
<pdfrwt beam="1">  1       13 0.10000000E+01 0.51136682E+02</pdfrwt>
<pdfrwt beam="2">  1       22 0.10208306E+00 0.51136682E+02</pdfrwt>
<totfact> 0.13653607E+00</totfact>
</mgrwt>
</event>
<event>
 4    1  0.2416490E+000  0.5108806E+02  0.7957747E-01  0.1439560E+00
         13   -1    0    0    0    0  0.00000000000E+00  0.00000000000E+00  0.99999944179E+02  0.99999999999E+02  0.10566000000E+00 0. -1.
         22   -1    0    0    0    0 -0.00000000000E+00 -0.00000000000E+00 -0.49176621585E+02  0.49176621585E+02  0.00000000000E+00 0.  1.
         13    1    1    2    0    0 -0.26268701213E+01 -0.10153271841E+02 -0.41963885967E+02  0.43254690673E+02  0.10566000000E+00 0.  1.
        996    1    1    2    0    0  0.26268701213E+01  0.10153271841E+02  0.92787208560E+02  0.10592193091E+03  0.50000000000E+02 0.  0.
<mgrwt>
<rscale>  0 0.51088055E+02</rscale>
<asrwt>0</asrwt>
<pdfrwt beam="1">  1       13 0.10000000E+01 0.51088055E+02</pdfrwt>
<pdfrwt beam="2">  1       22 0.49176636E+00 0.51088055E+02</pdfrwt>
<totfact> 0.77020743E-02</totfact>
</mgrwt>
</event>
<event>
 4    1  0.2416490E+000  0.5226023E+02  0.7957747E-01  0.1433518E+00
         13   -1    0    0    0    0  0.00000000000E+00  0.00000000000E+00  0.99999944174E+02  0.99999999995E+02  0.10566000000E+00 0. -1.
         22   -1    0    0    0    0 -0.00000000000E+00 -0.00000000000E+00 -0.11640118803E+02  0.11640118803E+02  0.00000000000E+00 0. -1.
         13    1    1    2    0    0 -0.49911372106E+01  0.14360380604E+02  0.27487465292E+02  0.31411843212E+02  0.10566000000E+00 0.  1.
        996    1    1    2    0    0  0.49911372106E+01 -0.14360380604E+02  0.60872360080E+02  0.80228275586E+02  0.50000000000E+02 0.  0.
<mgrwt>
<rscale>  0 0.52260233E+02</rscale>
<asrwt>0</asrwt>
<pdfrwt beam="1">  1       13 0.10000000E+01 0.52260233E+02</pdfrwt>
<pdfrwt beam="2">  1       22 0.11640143E+00 0.52260233E+02</pdfrwt>
<totfact> 0.11266207E+00</totfact>
</mgrwt>
</event>
<event>
 4    1  0.2416490E+000  0.5136801E+02  0.7957747E-01  0.1438099E+00
         13   -1    0    0    0    0  0.00000000000E+00  0.00000000000E+00  0.99999944179E+02  0.99999999999E+02  0.10566000000E+00 0. -1.
         22   -1    0    0    0    0 -0.00000000000E+00 -0.00000000000E+00 -0.12874339112E+02  0.12874339112E+02  0.00000000000E+00 0.  1.
         13    1    1    2    0    0 -0.10530059053E+02  0.52716879815E+01  0.50377872610E-01  0.11776524946E+02  0.10566000000E+00 0.  1.
        996    1    1    2    0    0  0.10530059053E+02 -0.52716879815E+01  0.87075227195E+02  0.10109781416E+03  0.50000000000E+02 0.  0.
<mgrwt>
<rscale>  0 0.51368014E+02</rscale>
<asrwt>0</asrwt>
<pdfrwt beam="1">  1       13 0.10000000E+01 0.51368014E+02</pdfrwt>
<pdfrwt beam="2">  1       22 0.12874363E+00 0.51368014E+02</pdfrwt>
<totfact> 0.96254542E-01</totfact>
</mgrwt>
</event>
<event>
 4    1  0.2416490E+000  0.5121514E+02  0.7957747E-01  0.1438896E+00
         13   -1    0    0    0    0  0.00000000000E+00  0.00000000000E+00  0.99999944182E+02  0.10000000000E+03  0.10566000000E+00 0. -1.
         22   -1    0    0    0    0 -0.00000000000E+00 -0.00000000000E+00 -0.10481943114E+02  0.10481943114E+02  0.00000000000E+00 0. -1.
         13    1    1    2    0    0 -0.10065507853E+02  0.46557117915E+01  0.62669094723E+01  0.12738736946E+02  0.10566000000E+00 0.  1.
        996    1    1    2    0    0  0.10065507853E+02 -0.46557117915E+01  0.83251091595E+02  0.97743206170E+02  0.50000000000E+02 0.  0.
<mgrwt>
<rscale>  0 0.51215135E+02</rscale>
<asrwt>0</asrwt>
<pdfrwt beam="1">  1       13 0.10000000E+01 0.51215135E+02</pdfrwt>
<pdfrwt beam="2">  1       22 0.10481968E+00 0.51215135E+02</pdfrwt>
<totfact> 0.13138336E+00</totfact>
</mgrwt>
</event>
<event>
 4    1  0.2416490E+000  0.5272416E+02  0.7957747E-01  0.1431179E+00
         13   -1    0    0    0    0  0.00000000000E+00  0.00000000000E+00  0.99999944185E+02  0.10000000001E+03  0.10566000000E+00 0. -1.
         22   -1    0    0    0    0 -0.00000000000E+00 -0.00000000000E+00 -0.24251819850E+02  0.24251819850E+02  0.00000000000E+00 0.  1.
         13    1    1    2    0    0 -0.30261427032E+01 -0.16452332863E+02 -0.12889616529E+02  0.21118479457E+02  0.10566000000E+00 0.  1.
        996    1    1    2    0    0  0.30261427032E+01  0.16452332863E+02  0.88637740863E+02  0.10313334040E+03  0.50000000000E+02 0.  0.
<mgrwt>
<rscale>  0 0.52724158E+02</rscale>
<asrwt>0</asrwt>
<pdfrwt beam="1">  1       13 0.10000000E+01 0.52724158E+02</pdfrwt>
<pdfrwt beam="2">  1       22 0.24251841E+00 0.52724158E+02</pdfrwt>
<totfact> 0.31328823E-01</totfact>
</mgrwt>
</event>
<event>
 4    1  0.2416490E+000  0.5842918E+02  0.7957747E-01  0.1404545E+00
         13   -1    0    0    0    0  0.00000000000E+00  0.00000000000E+00  0.99999944170E+02  0.99999999990E+02  0.10566000000E+00 0. -1.
         22   -1    0    0    0    0 -0.00000000000E+00 -0.00000000000E+00 -0.50283785271E+02  0.50283785271E+02  0.00000000000E+00 0.  1.
         13    1    1    2    0    0 -0.26829886068E+02  0.13932919115E+02 -0.35708877723E+02  0.46787863103E+02  0.10566000000E+00 0.  1.
        996    1    1    2    0    0  0.26829886068E+02 -0.13932919115E+02  0.85425036622E+02  0.10349592216E+03  0.50000000000E+02 0.  0.
<mgrwt>
<rscale>  0 0.58429180E+02</rscale>
<asrwt>0</asrwt>
<pdfrwt beam="1">  1       13 0.10000000E+01 0.58429180E+02</pdfrwt>
<pdfrwt beam="2">  1       22 0.50283799E+00 0.58429180E+02</pdfrwt>
<totfact> 0.72671870E-02</totfact>
</mgrwt>
</event>
<event>
 4    1  0.2416490E+000  0.5121154E+02  0.7957747E-01  0.1438914E+00
         13   -1    0    0    0    0  0.00000000000E+00  0.00000000000E+00  0.99999944180E+02  0.10000000000E+03  0.10566000000E+00 0. -1.
         22   -1    0    0    0    0 -0.00000000000E+00 -0.00000000000E+00 -0.98016338241E+01  0.98016338241E+01  0.00000000000E+00 0. -1.
         13    1    1    2    0    0 -0.19739398830E+01  0.10896120783E+02  0.12023554361E+02  0.16346220061E+02  0.10566000000E+00 0.  1.
        996    1    1    2    0    0  0.19739398830E+01 -0.10896120783E+02  0.78174755995E+02  0.93455413764E+02  0.50000000000E+02 0.  0.
<mgrwt>
<rscale>  0 0.51211541E+02</rscale>
<asrwt>0</asrwt>
<pdfrwt beam="1">  1       13 0.10000000E+01 0.51211541E+02</pdfrwt>
<pdfrwt beam="2">  1       22 0.98016590E-01 0.51211541E+02</pdfrwt>
<totfact> 0.14484117E+00</totfact>
</mgrwt>
</event>
<event>
 4    1  0.2416490E+000  0.5168784E+02  0.7957747E-01  0.1436445E+00
         13   -1    0    0    0    0  0.00000000000E+00  0.00000000000E+00  0.99999944173E+02  0.99999999993E+02  0.10566000000E+00 0.  1.
         22   -1    0    0    0    0 -0.00000000000E+00 -0.00000000000E+00 -0.10503798069E+02  0.10503798069E+02  0.00000000000E+00 0.  1.
         13    1    1    2    0    0  0.65079041473E+01 -0.11370126375E+02  0.16769827525E+02  0.21280762896E+02  0.10566000000E+00 0. -1.
        996    1    1    2    0    0 -0.65079041473E+01  0.11370126375E+02  0.72726318579E+02  0.89223035166E+02  0.50000000000E+02 0.  0.
<mgrwt>
<rscale>  0 0.51687838E+02</rscale>
<asrwt>0</asrwt>
<pdfrwt beam="1">  1       13 0.10000000E+01 0.51687838E+02</pdfrwt>
<pdfrwt beam="2">  1       22 0.10503823E+00 0.51687838E+02</pdfrwt>
<totfact> 0.13112978E+00</totfact>
</mgrwt>
</event>
<event>
 4    1  0.2416490E+000  0.5236525E+02  0.7957747E-01  0.1432986E+00
         13   -1    0    0    0    0  0.00000000000E+00  0.00000000000E+00  0.99999944185E+02  0.10000000000E+03  0.10566000000E+00 0. -1.
         22   -1    0    0    0    0 -0.00000000000E+00 -0.00000000000E+00 -0.29909572702E+02  0.29909572702E+02  0.00000000000E+00 0. -1.
         13    1    1    2    0    0 -0.41760471106E+01  0.14989322399E+02 -0.20220848982E+02  0.25514957437E+02  0.10566000000E+00 0.  1.
        996    1    1    2    0    0  0.41760471106E+01 -0.14989322399E+02  0.90311220465E+02  0.10439461527E+03  0.50000000000E+02 0.  0.
<mgrwt>
<rscale>  0 0.52365248E+02</rscale>
<asrwt>0</asrwt>
<pdfrwt beam="1">  1       13 0.10000000E+01 0.52365248E+02</pdfrwt>
<pdfrwt beam="2">  1       22 0.29909592E+00 0.52365248E+02</pdfrwt>
<totfact> 0.20830455E-01</totfact>
</mgrwt>
</event>
<event>
 4    1  0.2416490E+000  0.5209018E+02  0.7957747E-01  0.1434383E+00
         13   -1    0    0    0    0  0.00000000000E+00  0.00000000000E+00  0.99999944183E+02  0.10000000000E+03  0.10566000000E+00 0.  1.
         22   -1    0    0    0    0 -0.00000000000E+00 -0.00000000000E+00 -0.15487583737E+02  0.15487583737E+02  0.00000000000E+00 0. -1.
         13    1    1    2    0    0  0.13286618259E+02  0.60706445231E+01 -0.17551667616E+01  0.14713215967E+02  0.10566000000E+00 0. -1.
        996    1    1    2    0    0 -0.13286618259E+02 -0.60706445231E+01  0.86267527208E+02  0.10077436777E+03  0.50000000000E+02 0.  0.
<mgrwt>
<rscale>  0 0.52090181E+02</rscale>
<asrwt>0</asrwt>
<pdfrwt beam="1">  1       13 0.10000000E+01 0.52090181E+02</pdfrwt>
<pdfrwt beam="2">  1       22 0.15487607E+00 0.52090181E+02</pdfrwt>
<totfact> 0.71375559E-01</totfact>
</mgrwt>
</event>
<event>
 4    1  0.2416490E+000  0.5279391E+02  0.7957747E-01  0.1430829E+00
         13   -1    0    0    0    0  0.00000000000E+00  0.00000000000E+00  0.99999944173E+02  0.99999999994E+02  0.10566000000E+00 0.  1.
         22   -1    0    0    0    0 -0.00000000000E+00 -0.00000000000E+00 -0.13898713878E+02  0.13898713878E+02  0.00000000000E+00 0.  1.
         13    1    1    2    0    0 -0.80825457464E+01 -0.14895277217E+02  0.60272636688E+01  0.17987103727E+02  0.10566000000E+00 0. -1.
        996    1    1    2    0    0  0.80825457464E+01  0.14895277217E+02  0.80073966627E+02  0.95911610144E+02  0.50000000000E+02 0.  0.
<mgrwt>
<rscale>  0 0.52793909E+02</rscale>
<asrwt>0</asrwt>
<pdfrwt beam="1">  1       13 0.10000000E+01 0.52793909E+02</pdfrwt>
<pdfrwt beam="2">  1       22 0.13898738E+00 0.52793909E+02</pdfrwt>
<totfact> 0.85466158E-01</totfact>
</mgrwt>
</event>
<event>
 4    1  0.2416490E+000  0.5182913E+02  0.7957747E-01  0.1435718E+00
         13   -1    0    0    0    0  0.00000000000E+00  0.00000000000E+00  0.99999944183E+02  0.10000000000E+03  0.10566000000E+00 0.  1.
         22   -1    0    0    0    0 -0.00000000000E+00 -0.00000000000E+00 -0.31420547786E+02  0.31420547786E+02  0.00000000000E+00 0. -1.
         13    1    1    2    0    0  0.24494220521E+01  0.13426071940E+02 -0.22680313835E+02  0.26470112879E+02  0.10566000000E+00 0. -1.
        996    1    1    2    0    0 -0.24494220521E+01 -0.13426071940E+02  0.91259710232E+02  0.10495043491E+03  0.50000000000E+02 0.  0.
<mgrwt>
<rscale>  0 0.51829133E+02</rscale>
<asrwt>0</asrwt>
<pdfrwt beam="1">  1       13 0.10000000E+01 0.51829133E+02</pdfrwt>
<pdfrwt beam="2">  1       22 0.31420567E+00 0.51829133E+02</pdfrwt>
<totfact> 0.19010155E-01</totfact>
</mgrwt>
</event>
<event>
 4    1  0.2416490E+000  0.5378724E+02  0.7957747E-01  0.1425923E+00
         13   -1    0    0    0    0  0.00000000000E+00  0.00000000000E+00  0.99999944178E+02  0.99999999998E+02  0.10566000000E+00 0. -1.
         22   -1    0    0    0    0 -0.00000000000E+00 -0.00000000000E+00 -0.18156369122E+02  0.18156369122E+02  0.00000000000E+00 0. -1.
         13    1    1    2    0    0 -0.16047816167E+02 -0.11641956487E+02 -0.46487191014E+00  0.19831662172E+02  0.10566000000E+00 0.  1.
        996    1    1    2    0    0  0.16047816167E+02  0.11641956487E+02  0.82308446966E+02  0.98324706948E+02  0.50000000000E+02 0.  0.
<mgrwt>
<rscale>  0 0.53787243E+02</rscale>
<asrwt>0</asrwt>
<pdfrwt beam="1">  1       13 0.10000000E+01 0.53787243E+02</pdfrwt>
<pdfrwt beam="2">  1       22 0.18156392E+00 0.53787243E+02</pdfrwt>
<totfact> 0.54272421E-01</totfact>
</mgrwt>
</event>
<event>
 4    1  0.2416490E+000  0.5135535E+02  0.7957747E-01  0.1438165E+00
         13   -1    0    0    0    0  0.00000000000E+00  0.00000000000E+00  0.99999944174E+02  0.99999999995E+02  0.10566000000E+00 0.  1.
         22   -1    0    0    0    0 -0.00000000000E+00 -0.00000000000E+00 -0.15290057512E+02  0.15290057512E+02  0.00000000000E+00 0. -1.
         13    1    1    2    0    0 -0.11699507044E+02  0.70241920647E+00 -0.43351885153E+01  0.12497074910E+02  0.10566000000E+00 0. -1.
        996    1    1    2    0    0  0.11699507044E+02 -0.70241920647E+00  0.89045075177E+02  0.10279298260E+03  0.50000000000E+02 0.  0.
<mgrwt>
<rscale>  0 0.51355349E+02</rscale>
<asrwt>0</asrwt>
<pdfrwt beam="1">  1       13 0.10000000E+01 0.51355349E+02</pdfrwt>
<pdfrwt beam="2">  1       22 0.15290081E+00 0.51355349E+02</pdfrwt>
<totfact> 0.72824429E-01</totfact>
</mgrwt>
</event>
<event>
 4    1  0.2416490E+000  0.5117775E+02  0.7957747E-01  0.1439091E+00
         13   -1    0    0    0    0  0.00000000000E+00  0.00000000000E+00  0.99999944180E+02  0.10000000000E+03  0.10566000000E+00 0.  1.
         22   -1    0    0    0    0 -0.00000000000E+00 -0.00000000000E+00 -0.16432009814E+02  0.16432009814E+02  0.00000000000E+00 0.  1.
         13    1    1    2    0    0  0.79427753402E+01 -0.74882998505E+01 -0.65970461176E+01  0.12755175274E+02  0.10566000000E+00 0. -1.
        996    1    1    2    0    0 -0.79427753402E+01  0.74882998505E+01  0.90164980484E+02  0.10367683454E+03  0.50000000000E+02 0.  0.
<mgrwt>
<rscale>  0 0.51177752E+02</rscale>
<asrwt>0</asrwt>
<pdfrwt beam="1">  1       13 0.10000000E+01 0.51177752E+02</pdfrwt>
<pdfrwt beam="2">  1       22 0.16432033E+00 0.51177752E+02</pdfrwt>
<totfact> 0.64397130E-01</totfact>
</mgrwt>
</event>
<event>
 4    1  0.2416490E+000  0.5613238E+02  0.7957747E-01  0.1414818E+00
         13   -1    0    0    0    0  0.00000000000E+00  0.00000000000E+00  0.99999944174E+02  0.99999999994E+02  0.10566000000E+00 0. -1.
         22   -1    0    0    0    0 -0.00000000000E+00 -0.00000000000E+00 -0.26640590444E+02  0.26640590444E+02  0.00000000000E+00 0.  1.
         13    1    1    2    0    0 -0.17797745419E+02 -0.18277976825E+02 -0.89298434763E+01  0.27029566171E+02  0.10566000000E+00 0.  1.
        996    1    1    2    0    0  0.17797745419E+02  0.18277976825E+02  0.82289197206E+02  0.99611024268E+02  0.50000000000E+02 0.  0.
<mgrwt>
<rscale>  0 0.56132381E+02</rscale>
<asrwt>0</asrwt>
<pdfrwt beam="1">  1       13 0.10000000E+01 0.56132381E+02</pdfrwt>
<pdfrwt beam="2">  1       22 0.26640611E+00 0.56132381E+02</pdfrwt>
<totfact> 0.26170486E-01</totfact>
</mgrwt>
</event>
<event>
 4    1  0.2416490E+000  0.5225913E+02  0.7957747E-01  0.1433524E+00
         13   -1    0    0    0    0  0.00000000000E+00  0.00000000000E+00  0.99999944172E+02  0.99999999992E+02  0.10566000000E+00 0. -1.
         22   -1    0    0    0    0 -0.00000000000E+00 -0.00000000000E+00 -0.25395062417E+02  0.25395062417E+02  0.00000000000E+00 0.  1.
         13    1    1    2    0    0  0.13310472209E+02  0.73381223944E+01 -0.15197337810E+02  0.21493881716E+02  0.10566000000E+00 0.  1.
        996    1    1    2    0    0 -0.13310472209E+02 -0.73381223944E+01  0.89802219564E+02  0.10390118069E+03  0.50000000000E+02 0.  0.
<mgrwt>
<rscale>  0 0.52259130E+02</rscale>
<asrwt>0</asrwt>
<pdfrwt beam="1">  1       13 0.10000000E+01 0.52259130E+02</pdfrwt>
<pdfrwt beam="2">  1       22 0.25395083E+00 0.52259130E+02</pdfrwt>
<totfact> 0.28595169E-01</totfact>
</mgrwt>
</event>
<event>
 4    1  0.2416490E+000  0.6523730E+02  0.7957747E-01  0.1377081E+00
         13   -1    0    0    0    0  0.00000000000E+00  0.00000000000E+00  0.99999944182E+02  0.10000000000E+03  0.10566000000E+00 0.  1.
         22   -1    0    0    0    0 -0.00000000000E+00 -0.00000000000E+00 -0.41759961776E+02  0.41759961776E+02  0.00000000000E+00 0. -1.
         13    1    1    2    0    0 -0.13907270647E+02  0.39528380543E+02 -0.14228196444E+02  0.44253336409E+02  0.10566000000E+00 0. -1.
        996    1    1    2    0    0  0.13907270647E+02 -0.39528380543E+02  0.72468178849E+02  0.97506625369E+02  0.50000000000E+02 0.  0.
<mgrwt>
<rscale>  0 0.65237298E+02</rscale>
<asrwt>0</asrwt>
<pdfrwt beam="1">  1       13 0.10000000E+01 0.65237298E+02</pdfrwt>
<pdfrwt beam="2">  1       22 0.41759978E+00 0.65237298E+02</pdfrwt>
<totfact> 0.11462917E-01</totfact>
</mgrwt>
</event>
<event>
 4    1  0.2416490E+000  0.5474255E+02  0.7957747E-01  0.1421320E+00
         13   -1    0    0    0    0  0.00000000000E+00  0.00000000000E+00  0.99999944177E+02  0.99999999997E+02  0.10566000000E+00 0.  1.
         22   -1    0    0    0    0 -0.00000000000E+00 -0.00000000000E+00 -0.15119257995E+02  0.15119257995E+02  0.00000000000E+00 0.  1.
         13    1    1    2    0    0  0.16176564936E+02 -0.15331862710E+02  0.32077886616E+02  0.39060840250E+02  0.10566000000E+00 0. -1.
        996    1    1    2    0    0 -0.16176564936E+02  0.15331862710E+02  0.52802799567E+02  0.76058417742E+02  0.50000000000E+02 0.  0.
<mgrwt>
<rscale>  0 0.54742554E+02</rscale>
<asrwt>0</asrwt>
<pdfrwt beam="1">  1       13 0.10000000E+01 0.54742554E+02</pdfrwt>
<pdfrwt beam="2">  1       22 0.15119282E+00 0.54742554E+02</pdfrwt>
<totfact> 0.74709318E-01</totfact>
</mgrwt>
</event>
<event>
 4    1  0.2416490E+000  0.5130607E+02  0.7957747E-01  0.1438422E+00
         13   -1    0    0    0    0  0.00000000000E+00  0.00000000000E+00  0.99999944178E+02  0.99999999999E+02  0.10566000000E+00 0. -1.
         22   -1    0    0    0    0 -0.00000000000E+00 -0.00000000000E+00 -0.10517164273E+02  0.10517164273E+02  0.00000000000E+00 0. -1.
         13    1    1    2    0    0  0.67114639790E+01 -0.93418085396E+01  0.72677811166E+01  0.13606797637E+02  0.10566000000E+00 0.  1.
        996    1    1    2    0    0 -0.67114639790E+01  0.93418085396E+01  0.82214998789E+02  0.96910366635E+02  0.50000000000E+02 0.  0.
<mgrwt>
<rscale>  0 0.51306073E+02</rscale>
<asrwt>0</asrwt>
<pdfrwt beam="1">  1       13 0.10000000E+01 0.51306073E+02</pdfrwt>
<pdfrwt beam="2">  1       22 0.10517189E+00 0.51306073E+02</pdfrwt>
<totfact> 0.13076660E+00</totfact>
</mgrwt>
</event>
<event>
 4    1  0.2416490E+000  0.6347330E+02  0.7957747E-01  0.1383808E+00
         13   -1    0    0    0    0  0.00000000000E+00  0.00000000000E+00  0.99999944179E+02  0.99999999999E+02  0.10566000000E+00 0. -1.
         22   -1    0    0    0    0 -0.00000000000E+00 -0.00000000000E+00 -0.35665969122E+02  0.35665969122E+02  0.00000000000E+00 0.  1.
         13    1    1    2    0    0  0.32041899203E+02 -0.22409306638E+02 -0.74927645726E+01  0.39812221911E+02  0.10566000000E+00 0.  1.
        996    1    1    2    0    0 -0.32041899203E+02  0.22409306638E+02  0.71826739629E+02  0.95853747210E+02  0.50000000000E+02 0.  0.
<mgrwt>
<rscale>  0 0.63473304E+02</rscale>
<asrwt>0</asrwt>
<pdfrwt beam="1">  1       13 0.10000000E+01 0.63473304E+02</pdfrwt>
<pdfrwt beam="2">  1       22 0.35665987E+00 0.63473304E+02</pdfrwt>
<totfact> 0.15364329E-01</totfact>
</mgrwt>
</event>
<event>
 4    1  0.2416490E+000  0.5404152E+02  0.7957747E-01  0.1424687E+00
         13   -1    0    0    0    0  0.00000000000E+00  0.00000000000E+00  0.99999944175E+02  0.99999999995E+02  0.10566000000E+00 0.  1.
         22   -1    0    0    0    0 -0.00000000000E+00 -0.00000000000E+00 -0.13918900998E+02  0.13918900998E+02  0.00000000000E+00 0. -1.
         13    1    1    2    0    0 -0.65071220164E+01  0.19445907409E+02  0.21532734088E+02  0.29734756653E+02  0.10566000000E+00 0. -1.
        996    1    1    2    0    0  0.65071220164E+01 -0.19445907409E+02  0.64548309089E+02  0.84184144339E+02  0.50000000000E+02 0.  0.
<mgrwt>
<rscale>  0 0.54041521E+02</rscale>
<asrwt>0</asrwt>
<pdfrwt beam="1">  1       13 0.10000000E+01 0.54041521E+02</pdfrwt>
<pdfrwt beam="2">  1       22 0.13918925E+00 0.54041521E+02</pdfrwt>
<totfact> 0.85483745E-01</totfact>
</mgrwt>
</event>
<event>
 4    1  0.2416490E+000  0.5167415E+02  0.7957747E-01  0.1436515E+00
         13   -1    0    0    0    0  0.00000000000E+00  0.00000000000E+00  0.99999944184E+02  0.10000000000E+03  0.10566000000E+00 0. -1.
         22   -1    0    0    0    0 -0.00000000000E+00 -0.00000000000E+00 -0.14572130236E+02  0.14572130236E+02  0.00000000000E+00 0.  1.
         13    1    1    2    0    0 -0.12674869799E+02 -0.30927777825E+01 -0.18164595086E+01  0.13173013627E+02  0.10566000000E+00 0.  1.
        996    1    1    2    0    0  0.12674869799E+02  0.30927777825E+01  0.87244273456E+02  0.10139911661E+03  0.50000000000E+02 0.  0.
<mgrwt>
<rscale>  0 0.51674148E+02</rscale>
<asrwt>0</asrwt>
<pdfrwt beam="1">  1       13 0.10000000E+01 0.51674148E+02</pdfrwt>
<pdfrwt beam="2">  1       22 0.14572154E+00 0.51674148E+02</pdfrwt>
<totfact> 0.78934148E-01</totfact>
</mgrwt>
</event>
<event>
 4    1  0.2416490E+000  0.6385733E+02  0.7957747E-01  0.1382322E+00
         13   -1    0    0    0    0  0.00000000000E+00  0.00000000000E+00  0.99999944182E+02  0.10000000000E+03  0.10566000000E+00 0.  1.
         22   -1    0    0    0    0 -0.00000000000E+00 -0.00000000000E+00 -0.62415799496E+02  0.62415799496E+02  0.00000000000E+00 0. -1.
         13    1    1    2    0    0  0.62975238886E+01  0.39218608793E+02 -0.43695701701E+02  0.59051533375E+02  0.10566000000E+00 0. -1.
        996    1    1    2    0    0 -0.62975238886E+01 -0.39218608793E+02  0.81279846387E+02  0.10336426612E+03  0.50000000000E+02 0.  0.
<mgrwt>
<rscale>  0 0.63857326E+02</rscale>
<asrwt>0</asrwt>
<pdfrwt beam="1">  1       13 0.10000000E+01 0.63857326E+02</pdfrwt>
<pdfrwt beam="2">  1       22 0.62415810E+00 0.63857326E+02</pdfrwt>
<totfact> 0.75411420E-02</totfact>
</mgrwt>
</event>
<event>
 4    1  0.2416490E+000  0.5192443E+02  0.7957747E-01  0.1435230E+00
         13   -1    0    0    0    0  0.00000000000E+00  0.00000000000E+00  0.99999944177E+02  0.99999999997E+02  0.10566000000E+00 0.  1.
         22   -1    0    0    0    0 -0.00000000000E+00 -0.00000000000E+00 -0.76211334647E+02  0.76211334647E+02  0.00000000000E+00 0. -1.
         13    1    1    2    0    0 -0.93804954693E+01  0.10399671617E+02 -0.68716655098E+02  0.70129428323E+02  0.10566000000E+00 0. -1.
        996    1    1    2    0    0  0.93804954693E+01 -0.10399671617E+02  0.92505264628E+02  0.10608190632E+03  0.50000000000E+02 0.  0.
<mgrwt>
<rscale>  0 0.51924434E+02</rscale>
<asrwt>0</asrwt>
<pdfrwt beam="1">  1       13 0.10000000E+01 0.51924434E+02</pdfrwt>
<pdfrwt beam="2">  1       22 0.76211341E+00 0.51924434E+02</pdfrwt>
<totfact> 0.43822452E-02</totfact>
</mgrwt>
</event>
<event>
 4    1  0.2416490E+000  0.5133149E+02  0.7957747E-01  0.1438289E+00
         13   -1    0    0    0    0  0.00000000000E+00  0.00000000000E+00  0.99999944184E+02  0.10000000000E+03  0.10566000000E+00 0.  1.
         22   -1    0    0    0    0 -0.00000000000E+00 -0.00000000000E+00 -0.10120890458E+02  0.10120890458E+02  0.00000000000E+00 0.  1.
         13    1    1    2    0    0 -0.61565743828E+01 -0.98497709816E+01  0.10919197676E+02  0.15942441421E+02  0.10566000000E+00 0. -1.
        996    1    1    2    0    0  0.61565743828E+01  0.98497709816E+01  0.78959856049E+02  0.94178449041E+02  0.50000000000E+02 0.  0.
<mgrwt>
<rscale>  0 0.51331485E+02</rscale>
<asrwt>0</asrwt>
<pdfrwt beam="1">  1       13 0.10000000E+01 0.51331485E+02</pdfrwt>
<pdfrwt beam="2">  1       22 0.10120916E+00 0.51331485E+02</pdfrwt>
<totfact> 0.13831918E+00</totfact>
</mgrwt>
</event>
<event>
 4    1  0.2416490E+000  0.5333830E+02  0.7957747E-01  0.1428125E+00
         13   -1    0    0    0    0  0.00000000000E+00  0.00000000000E+00  0.99999944177E+02  0.99999999998E+02  0.10566000000E+00 0. -1.
         22   -1    0    0    0    0 -0.00000000000E+00 -0.00000000000E+00 -0.18614038745E+02  0.18614038745E+02  0.00000000000E+00 0. -1.
         13    1    1    2    0    0 -0.10731391291E+02 -0.15159541231E+02 -0.29700189012E+01  0.18809748156E+02  0.10566000000E+00 0.  1.
        996    1    1    2    0    0  0.10731391291E+02  0.15159541231E+02  0.84355924334E+02  0.99804290587E+02  0.50000000000E+02 0.  0.
<mgrwt>
<rscale>  0 0.53338302E+02</rscale>
<asrwt>0</asrwt>
<pdfrwt beam="1">  1       13 0.10000000E+01 0.53338302E+02</pdfrwt>
<pdfrwt beam="2">  1       22 0.18614061E+00 0.53338302E+02</pdfrwt>
<totfact> 0.51840191E-01</totfact>
</mgrwt>
</event>
<event>
 4    1  0.2416490E+000  0.5296235E+02  0.7957747E-01  0.1429988E+00
         13   -1    0    0    0    0  0.00000000000E+00  0.00000000000E+00  0.99999944175E+02  0.99999999995E+02  0.10566000000E+00 0. -1.
         22   -1    0    0    0    0 -0.00000000000E+00 -0.00000000000E+00 -0.12501659110E+02  0.12501659110E+02  0.00000000000E+00 0. -1.
         13    1    1    2    0    0 -0.16732483884E+02  0.50035000677E+01  0.17489806613E+02  0.24716705469E+02  0.10566000000E+00 0.  1.
        996    1    1    2    0    0  0.16732483884E+02 -0.50035000677E+01  0.70008478451E+02  0.87784953636E+02  0.50000000000E+02 0.  0.
<mgrwt>
<rscale>  0 0.52962355E+02</rscale>
<asrwt>0</asrwt>
<pdfrwt beam="1">  1       13 0.10000000E+01 0.52962355E+02</pdfrwt>
<pdfrwt beam="2">  1       22 0.12501684E+00 0.52962355E+02</pdfrwt>
<totfact> 0.10112437E+00</totfact>
</mgrwt>
</event>
<event>
 4    1  0.2416490E+000  0.5223289E+02  0.7957747E-01  0.1433657E+00
         13   -1    0    0    0    0  0.00000000000E+00  0.00000000000E+00  0.99999944187E+02  0.10000000001E+03  0.10566000000E+00 0. -1.
         22   -1    0    0    0    0 -0.00000000000E+00 -0.00000000000E+00 -0.31918573436E+02  0.31918573436E+02  0.00000000000E+00 0.  1.
         13    1    1    2    0    0 -0.13026501626E+02  0.76540917289E+01 -0.22649642602E+02  0.27226684316E+02  0.10566000000E+00 0.  1.
        996    1    1    2    0    0  0.13026501626E+02 -0.76540917289E+01  0.90731013354E+02  0.10469188913E+03  0.50000000000E+02 0.  0.
<mgrwt>
<rscale>  0 0.52232891E+02</rscale>
<asrwt>0</asrwt>
<pdfrwt beam="1">  1       13 0.10000000E+01 0.52232891E+02</pdfrwt>
<pdfrwt beam="2">  1       22 0.31918592E+00 0.52232891E+02</pdfrwt>
<totfact> 0.18487645E-01</totfact>
</mgrwt>
</event>
<event>
 4    1  0.2416490E+000  0.5330786E+02  0.7957747E-01  0.1428275E+00
         13   -1    0    0    0    0  0.00000000000E+00  0.00000000000E+00  0.99999944183E+02  0.10000000000E+03  0.10566000000E+00 0.  1.
         22   -1    0    0    0    0 -0.00000000000E+00 -0.00000000000E+00 -0.21658872619E+02  0.21658872619E+02  0.00000000000E+00 0. -1.
         13    1    1    2    0    0 -0.42967489488E+01  0.17979595368E+02 -0.80353881138E+01  0.20157046592E+02  0.10566000000E+00 0. -1.
        996    1    1    2    0    0  0.42967489488E+01 -0.17979595368E+02  0.86376459678E+02  0.10150182603E+03  0.50000000000E+02 0.  0.
<mgrwt>
<rscale>  0 0.53307860E+02</rscale>
<asrwt>0</asrwt>
<pdfrwt beam="1">  1       13 0.10000000E+01 0.53307860E+02</pdfrwt>
<pdfrwt beam="2">  1       22 0.21658894E+00 0.53307860E+02</pdfrwt>
<totfact> 0.39058709E-01</totfact>
</mgrwt>
</event>
<event>
 4    1  0.2416490E+000  0.5241193E+02  0.7957747E-01  0.1432750E+00
         13   -1    0    0    0    0  0.00000000000E+00  0.00000000000E+00  0.99999944181E+02  0.10000000000E+03  0.10566000000E+00 0.  1.
         22   -1    0    0    0    0 -0.00000000000E+00 -0.00000000000E+00 -0.12178015298E+02  0.12178015298E+02  0.00000000000E+00 0.  1.
         13    1    1    2    0    0 -0.13111261337E+01  0.15661785801E+02  0.11015180517E+02  0.19192601493E+02  0.10566000000E+00 0. -1.
        996    1    1    2    0    0  0.13111261337E+01 -0.15661785801E+02  0.76806748366E+02  0.92985413806E+02  0.50000000000E+02 0.  0.
<mgrwt>
<rscale>  0 0.52411932E+02</rscale>
<asrwt>0</asrwt>
<pdfrwt beam="1">  1       13 0.10000000E+01 0.52411932E+02</pdfrwt>
<pdfrwt beam="2">  1       22 0.12178040E+00 0.52411932E+02</pdfrwt>
<totfact> 0.10518621E+00</totfact>
</mgrwt>
</event>
<event>
 4    1  0.2416490E+000  0.5182864E+02  0.7957747E-01  0.1435721E+00
         13   -1    0    0    0    0  0.00000000000E+00  0.00000000000E+00  0.99999944177E+02  0.99999999997E+02  0.10566000000E+00 0.  1.
         22   -1    0    0    0    0 -0.00000000000E+00 -0.00000000000E+00 -0.16023913927E+02  0.16023913927E+02  0.00000000000E+00 0.  1.
         13    1    1    2    0    0  0.12162128784E+02 -0.61879421049E+01 -0.37317008532E+01  0.14147252714E+02  0.10566000000E+00 0. -1.
        996    1    1    2    0    0 -0.12162128784E+02  0.61879421049E+01  0.87707731103E+02  0.10187666121E+03  0.50000000000E+02 0.  0.
<mgrwt>
<rscale>  0 0.51828641E+02</rscale>
<asrwt>0</asrwt>
<pdfrwt beam="1">  1       13 0.10000000E+01 0.51828641E+02</pdfrwt>
<pdfrwt beam="2">  1       22 0.16023937E+00 0.51828641E+02</pdfrwt>
<totfact> 0.67329523E-01</totfact>
</mgrwt>
</event>
<event>
 4    1  0.2416490E+000  0.5291724E+02  0.7957747E-01  0.1430213E+00
         13   -1    0    0    0    0  0.00000000000E+00  0.00000000000E+00  0.99999944180E+02  0.10000000000E+03  0.10566000000E+00 0. -1.
         22   -1    0    0    0    0 -0.00000000000E+00 -0.00000000000E+00 -0.13570036224E+02  0.13570036224E+02  0.00000000000E+00 0.  1.
         13    1    1    2    0    0  0.11941063281E+02 -0.12555682428E+02  0.83166967173E+01  0.19220113471E+02  0.10566000000E+00 0.  1.
        996    1    1    2    0    0 -0.11941063281E+02  0.12555682428E+02  0.78113211238E+02  0.94349922753E+02  0.50000000000E+02 0.  0.
<mgrwt>
<rscale>  0 0.52917239E+02</rscale>
<asrwt>0</asrwt>
<pdfrwt beam="1">  1       13 0.10000000E+01 0.52917239E+02</pdfrwt>
<pdfrwt beam="2">  1       22 0.13570060E+00 0.52917239E+02</pdfrwt>
<totfact> 0.88844660E-01</totfact>
</mgrwt>
</event>
<event>
 4    1  0.2416490E+000  0.5148225E+02  0.7957747E-01  0.1437507E+00
         13   -1    0    0    0    0  0.00000000000E+00  0.00000000000E+00  0.99999944181E+02  0.10000000000E+03  0.10566000000E+00 0. -1.
         22   -1    0    0    0    0 -0.00000000000E+00 -0.00000000000E+00 -0.30761669481E+02  0.30761669481E+02  0.00000000000E+00 0.  1.
         13    1    1    2    0    0  0.11360828983E+02 -0.46209863605E+01 -0.22465255406E+02  0.25595327984E+02  0.10566000000E+00 0.  1.
        996    1    1    2    0    0 -0.11360828983E+02  0.46209863605E+01  0.91703530106E+02  0.10516634150E+03  0.50000000000E+02 0.  0.
<mgrwt>
<rscale>  0 0.51482249E+02</rscale>
<asrwt>0</asrwt>
<pdfrwt beam="1">  1       13 0.10000000E+01 0.51482249E+02</pdfrwt>
<pdfrwt beam="2">  1       22 0.30761689E+00 0.51482249E+02</pdfrwt>
<totfact> 0.19750508E-01</totfact>
</mgrwt>
</event>
<event>
 4    1  0.2416490E+000  0.6735965E+02  0.7957747E-01  0.1369309E+00
         13   -1    0    0    0    0  0.00000000000E+00  0.00000000000E+00  0.99999944171E+02  0.99999999992E+02  0.10566000000E+00 0.  1.
         22   -1    0    0    0    0 -0.00000000000E+00 -0.00000000000E+00 -0.75949178298E+02  0.75949178298E+02  0.00000000000E+00 0. -1.
         13    1    1    2    0    0  0.27901282439E+02  0.35480152594E+02 -0.55612679792E+02  0.71624745078E+02  0.10566000000E+00 0. -1.
        996    1    1    2    0    0 -0.27901282439E+02 -0.35480152594E+02  0.79663445665E+02  0.10432443321E+03  0.50000000000E+02 0.  0.
<mgrwt>
<rscale>  0 0.67359653E+02</rscale>
<asrwt>0</asrwt>
<pdfrwt beam="1">  1       13 0.10000000E+01 0.67359653E+02</pdfrwt>
<pdfrwt beam="2">  1       22 0.75949185E+00 0.67359653E+02</pdfrwt>
<totfact> 0.44884588E-02</totfact>
</mgrwt>
</event>
<event>
 4    1  0.2416490E+000  0.5205096E+02  0.7957747E-01  0.1434583E+00
         13   -1    0    0    0    0  0.00000000000E+00  0.00000000000E+00  0.99999944179E+02  0.10000000000E+03  0.10566000000E+00 0.  1.
         22   -1    0    0    0    0 -0.00000000000E+00 -0.00000000000E+00 -0.15500464591E+02  0.15500464591E+02  0.00000000000E+00 0.  1.
         13    1    1    2    0    0 -0.10436896358E+02  0.10018638367E+02 -0.19419731167E+01  0.14597408809E+02  0.10566000000E+00 0. -1.
        996    1    1    2    0    0  0.10436896358E+02 -0.10018638367E+02  0.86441452705E+02  0.10090305578E+03  0.50000000000E+02 0.  0.
<mgrwt>
<rscale>  0 0.52050955E+02</rscale>
<asrwt>0</asrwt>
<pdfrwt beam="1">  1       13 0.10000000E+01 0.52050955E+02</pdfrwt>
<pdfrwt beam="2">  1       22 0.15500488E+00 0.52050955E+02</pdfrwt>
<totfact> 0.71269898E-01</totfact>
</mgrwt>
</event>
<event>
 4    1  0.2416490E+000  0.5127608E+02  0.7957747E-01  0.1438578E+00
         13   -1    0    0    0    0  0.00000000000E+00  0.00000000000E+00  0.99999944176E+02  0.99999999996E+02  0.10566000000E+00 0.  1.
         22   -1    0    0    0    0 -0.00000000000E+00 -0.00000000000E+00 -0.26043030650E+02  0.26043030650E+02  0.00000000000E+00 0. -1.
         13    1    1    2    0    0  0.65159039418E+01 -0.93155497081E+01 -0.17689246406E+02  0.21027531310E+02  0.10566000000E+00 0. -1.
        996    1    1    2    0    0 -0.65159039418E+01  0.93155497081E+01  0.91646159932E+02  0.10501549934E+03  0.50000000000E+02 0.  0.
<mgrwt>
<rscale>  0 0.51276081E+02</rscale>
<asrwt>0</asrwt>
<pdfrwt beam="1">  1       13 0.10000000E+01 0.51276081E+02</pdfrwt>
<pdfrwt beam="2">  1       22 0.26043051E+00 0.51276081E+02</pdfrwt>
<totfact> 0.27171141E-01</totfact>
</mgrwt>
</event>
<event>
 4    1  0.2416490E+000  0.5332929E+02  0.7957747E-01  0.1428169E+00
         13   -1    0    0    0    0  0.00000000000E+00  0.00000000000E+00  0.99999944180E+02  0.10000000000E+03  0.10566000000E+00 0. -1.
         22   -1    0    0    0    0 -0.00000000000E+00 -0.00000000000E+00 -0.13362722343E+02  0.13362722343E+02  0.00000000000E+00 0. -1.
         13    1    1    2    0    0  0.27343082157E+01 -0.18344944623E+02  0.13940093520E+02  0.23202387938E+02  0.10566000000E+00 0.  1.
        996    1    1    2    0    0 -0.27343082157E+01  0.18344944623E+02  0.72697128317E+02  0.90160334406E+02  0.50000000000E+02 0.  0.
<mgrwt>
<rscale>  0 0.53329292E+02</rscale>
<asrwt>0</asrwt>
<pdfrwt beam="1">  1       13 0.10000000E+01 0.53329292E+02</pdfrwt>
<pdfrwt beam="2">  1       22 0.13362747E+00 0.53329292E+02</pdfrwt>
<totfact> 0.91134430E-01</totfact>
</mgrwt>
</event>
<event>
 4    1  0.2416490E+000  0.5158472E+02  0.7957747E-01  0.1436977E+00
         13   -1    0    0    0    0  0.00000000000E+00  0.00000000000E+00  0.99999944181E+02  0.10000000000E+03  0.10566000000E+00 0. -1.
         22   -1    0    0    0    0 -0.00000000000E+00 -0.00000000000E+00 -0.11643543773E+02  0.11643543773E+02  0.00000000000E+00 0. -1.
         13    1    1    2    0    0 -0.16180319388E+01  0.12584346523E+02  0.50442803385E+01  0.13654293571E+02  0.10566000000E+00 0.  1.
        996    1    1    2    0    0  0.16180319388E+01 -0.12584346523E+02  0.83312120070E+02  0.97989250203E+02  0.50000000000E+02 0.  0.
<mgrwt>
<rscale>  0 0.51584725E+02</rscale>
<asrwt>0</asrwt>
<pdfrwt beam="1">  1       13 0.10000000E+01 0.51584725E+02</pdfrwt>
<pdfrwt beam="2">  1       22 0.11643568E+00 0.51584725E+02</pdfrwt>
<totfact> 0.11243972E+00</totfact>
</mgrwt>
</event>
<event>
 4    1  0.2416490E+000  0.5337833E+02  0.7957747E-01  0.1427927E+00
         13   -1    0    0    0    0  0.00000000000E+00  0.00000000000E+00  0.99999944178E+02  0.99999999999E+02  0.10566000000E+00 0. -1.
         22   -1    0    0    0    0 -0.00000000000E+00 -0.00000000000E+00 -0.14303076192E+02  0.14303076192E+02  0.00000000000E+00 0. -1.
         13    1    1    2    0    0 -0.65675621296E+01 -0.17496086412E+02  0.87022216349E+01  0.20615182208E+02  0.10566000000E+00 0.  1.
        996    1    1    2    0    0  0.65675621296E+01  0.17496086412E+02  0.76994646352E+02  0.93687893982E+02  0.50000000000E+02 0.  0.
<mgrwt>
<rscale>  0 0.53378328E+02</rscale>
<asrwt>0</asrwt>
<pdfrwt beam="1">  1       13 0.10000000E+01 0.53378328E+02</pdfrwt>
<pdfrwt beam="2">  1       22 0.14303100E+00 0.53378328E+02</pdfrwt>
<totfact> 0.81670071E-01</totfact>
</mgrwt>
</event>
<event>
 4    1  0.2416490E+000  0.5220959E+02  0.7957747E-01  0.1433775E+00
         13   -1    0    0    0    0  0.00000000000E+00  0.00000000000E+00  0.99999944183E+02  0.10000000000E+03  0.10566000000E+00 0. -1.
         22   -1    0    0    0    0 -0.00000000000E+00 -0.00000000000E+00 -0.11645603289E+02  0.11645603289E+02  0.00000000000E+00 0. -1.
         13    1    1    2    0    0  0.13154541814E+02  0.72663159492E+01  0.28505137719E+02  0.32224142475E+02  0.10566000000E+00 0.  1.
        996    1    1    2    0    0 -0.13154541814E+02 -0.72663159492E+01  0.59849203175E+02  0.79421460818E+02  0.50000000000E+02 0.  0.
<mgrwt>
<rscale>  0 0.52209590E+02</rscale>
<asrwt>0</asrwt>
<pdfrwt beam="1">  1       13 0.10000000E+01 0.52209590E+02</pdfrwt>
<pdfrwt beam="2">  1       22 0.11645628E+00 0.52209590E+02</pdfrwt>
<totfact> 0.11256889E+00</totfact>
</mgrwt>
</event>
<event>
 4    1  0.2416490E+000  0.5477337E+02  0.7957747E-01  0.1421174E+00
         13   -1    0    0    0    0  0.00000000000E+00  0.00000000000E+00  0.99999944180E+02  0.10000000000E+03  0.10566000000E+00 0.  1.
         22   -1    0    0    0    0 -0.00000000000E+00 -0.00000000000E+00 -0.14875348317E+02  0.14875348317E+02  0.00000000000E+00 0.  1.
         13    1    1    2    0    0 -0.21730284709E+02  0.52836021111E+01  0.24563873067E+02  0.33219222581E+02  0.10566000000E+00 0. -1.
        996    1    1    2    0    0  0.21730284709E+02 -0.52836021111E+01  0.60560722795E+02  0.81656125736E+02  0.50000000000E+02 0.  0.
<mgrwt>
<rscale>  0 0.54773367E+02</rscale>
<asrwt>0</asrwt>
<pdfrwt beam="1">  1       13 0.10000000E+01 0.54773367E+02</pdfrwt>
<pdfrwt beam="2">  1       22 0.14875372E+00 0.54773367E+02</pdfrwt>
<totfact> 0.76767358E-01</totfact>
</mgrwt>
</event>
<event>
 4    1  0.2416490E+000  0.5454391E+02  0.7957747E-01  0.1422268E+00
         13   -1    0    0    0    0  0.00000000000E+00  0.00000000000E+00  0.99999944175E+02  0.99999999995E+02  0.10566000000E+00 0.  1.
         22   -1    0    0    0    0 -0.00000000000E+00 -0.00000000000E+00 -0.15582875185E+02  0.15582875185E+02  0.00000000000E+00 0.  1.
         13    1    1    2    0    0 -0.41825919128E+01 -0.21390273618E+02  0.11868274177E+02  0.24817432916E+02  0.10566000000E+00 0. -1.
        996    1    1    2    0    0  0.41825919128E+01  0.21390273618E+02  0.72548794813E+02  0.90765442264E+02  0.50000000000E+02 0.  0.
<mgrwt>
<rscale>  0 0.54543908E+02</rscale>
<asrwt>0</asrwt>
<pdfrwt beam="1">  1       13 0.10000000E+01 0.54543908E+02</pdfrwt>
<pdfrwt beam="2">  1       22 0.15582899E+00 0.54543908E+02</pdfrwt>
<totfact> 0.70980023E-01</totfact>
</mgrwt>
</event>
<event>
 4    1  0.2416490E+000  0.5142479E+02  0.7957747E-01  0.1437805E+00
         13   -1    0    0    0    0  0.00000000000E+00  0.00000000000E+00  0.99999944182E+02  0.10000000000E+03  0.10566000000E+00 0.  1.
         22   -1    0    0    0    0 -0.00000000000E+00 -0.00000000000E+00 -0.10067190113E+02  0.10067190113E+02  0.00000000000E+00 0.  1.
         13    1    1    2    0    0  0.11845028433E+02  0.20504360647E+01  0.16235823811E+02  0.20202032707E+02  0.10566000000E+00 0. -1.
        996    1    1    2    0    0 -0.11845028433E+02 -0.20504360647E+01  0.73696930258E+02  0.89865157409E+02  0.50000000000E+02 0.  0.
<mgrwt>
<rscale>  0 0.51424790E+02</rscale>
<asrwt>0</asrwt>
<pdfrwt beam="1">  1       13 0.10000000E+01 0.51424790E+02</pdfrwt>
<pdfrwt beam="2">  1       22 0.10067215E+00 0.51424790E+02</pdfrwt>
<totfact> 0.13942304E+00</totfact>
</mgrwt>
</event>
<event>
 4    1  0.2416490E+000  0.6675454E+02  0.7957747E-01  0.1371491E+00
         13   -1    0    0    0    0  0.00000000000E+00  0.00000000000E+00  0.99999944177E+02  0.99999999997E+02  0.10566000000E+00 0. -1.
         22   -1    0    0    0    0 -0.00000000000E+00 -0.00000000000E+00 -0.45570155495E+02  0.45570155495E+02  0.00000000000E+00 0.  1.
         13    1    1    2    0    0  0.18767415297E+02 -0.40049378153E+02 -0.17383832269E+02  0.47522387942E+02  0.10566000000E+00 0.  1.
        996    1    1    2    0    0 -0.18767415297E+02  0.40049378153E+02  0.71813620951E+02  0.98047767550E+02  0.50000000000E+02 0.  0.
<mgrwt>
<rscale>  0 0.66754540E+02</rscale>
<asrwt>0</asrwt>
<pdfrwt beam="1">  1       13 0.10000000E+01 0.66754540E+02</pdfrwt>
<pdfrwt beam="2">  1       22 0.45570171E+00 0.66754540E+02</pdfrwt>
<totfact> 0.94480968E-02</totfact>
</mgrwt>
</event>
<event>
 4    1  0.2416490E+000  0.5312591E+02  0.7957747E-01  0.1429175E+00
         13   -1    0    0    0    0  0.00000000000E+00  0.00000000000E+00  0.99999944177E+02  0.99999999998E+02  0.10566000000E+00 0.  1.
         22   -1    0    0    0    0 -0.00000000000E+00 -0.00000000000E+00 -0.19895029178E+02  0.19895029178E+02  0.00000000000E+00 0. -1.
         13    1    1    2    0    0  0.11619496428E+02 -0.13687580122E+02 -0.58187066525E+01  0.18874084295E+02  0.10566000000E+00 0. -1.
        996    1    1    2    0    0 -0.11619496428E+02  0.13687580122E+02  0.85923621652E+02  0.10102094488E+03  0.50000000000E+02 0.  0.
<mgrwt>
<rscale>  0 0.53125912E+02</rscale>
<asrwt>0</asrwt>
<pdfrwt beam="1">  1       13 0.10000000E+01 0.53125912E+02</pdfrwt>
<pdfrwt beam="2">  1       22 0.19895052E+00 0.53125912E+02</pdfrwt>
<totfact> 0.45846218E-01</totfact>
</mgrwt>
</event>
<event>
 4    1  0.2416490E+000  0.5367123E+02  0.7957747E-01  0.1426489E+00
         13   -1    0    0    0    0  0.00000000000E+00  0.00000000000E+00  0.99999944180E+02  0.10000000000E+03  0.10566000000E+00 0. -1.
         22   -1    0    0    0    0 -0.00000000000E+00 -0.00000000000E+00 -0.15552275361E+02  0.15552275361E+02  0.00000000000E+00 0.  1.
         13    1    1    2    0    0 -0.76651875897E+00 -0.19493940911E+02  0.58310249135E+01  0.20362055368E+02  0.10566000000E+00 0.  1.
        996    1    1    2    0    0  0.76651875897E+00  0.19493940911E+02  0.78616643906E+02  0.95190219993E+02  0.50000000000E+02 0.  0.
<mgrwt>
<rscale>  0 0.53671233E+02</rscale>
<asrwt>0</asrwt>
<pdfrwt beam="1">  1       13 0.10000000E+01 0.53671233E+02</pdfrwt>
<pdfrwt beam="2">  1       22 0.15552299E+00 0.53671233E+02</pdfrwt>
<totfact> 0.71096889E-01</totfact>
</mgrwt>
</event>
<event>
 4    1  0.2416490E+000  0.8745982E+02  0.7957747E-01  0.1309122E+00
         13   -1    0    0    0    0  0.00000000000E+00  0.00000000000E+00  0.99999944177E+02  0.99999999997E+02  0.10566000000E+00 0.  1.
         22   -1    0    0    0    0 -0.00000000000E+00 -0.00000000000E+00 -0.63792257661E+02  0.63792257661E+02  0.00000000000E+00 0. -1.
         13    1    1    2    0    0  0.71038419949E+02  0.10137215467E+02  0.97458539946E+01  0.72416939181E+02  0.10566000000E+00 0. -1.
        996    1    1    2    0    0 -0.71038419949E+02 -0.10137215467E+02  0.26461832521E+02  0.91375318476E+02  0.50000000000E+02 0.  0.
<mgrwt>
<rscale>  0 0.87459821E+02</rscale>
<asrwt>0</asrwt>
<pdfrwt beam="1">  1       13 0.10000000E+01 0.87459821E+02</pdfrwt>
<pdfrwt beam="2">  1       22 0.63792268E+00 0.87459821E+02</pdfrwt>
<totfact> 0.82593525E-02</totfact>
</mgrwt>
</event>
<event>
 4    1  0.2416490E+000  0.6096504E+02  0.7957747E-01  0.1393826E+00
         13   -1    0    0    0    0  0.00000000000E+00  0.00000000000E+00  0.99999944170E+02  0.99999999990E+02  0.10566000000E+00 0. -1.
         22   -1    0    0    0    0 -0.00000000000E+00 -0.00000000000E+00 -0.62819020408E+02  0.62819020408E+02  0.00000000000E+00 0.  1.
         13    1    1    2    0    0  0.63911131196E+01 -0.34291250560E+02 -0.47217397055E+02  0.58704598973E+02  0.10566000000E+00 0.  1.
        996    1    1    2    0    0 -0.63911131196E+01  0.34291250560E+02  0.84398320817E+02  0.10411442142E+03  0.50000000000E+02 0.  0.
<mgrwt>
<rscale>  0 0.60965041E+02</rscale>
<asrwt>0</asrwt>
<pdfrwt beam="1">  1       13 0.10000000E+01 0.60965041E+02</pdfrwt>
<pdfrwt beam="2">  1       22 0.62819031E+00 0.60965041E+02</pdfrwt>
<totfact> 0.77729576E-02</totfact>
</mgrwt>
</event>
<event>
 4    1  0.2416490E+000  0.5240235E+02  0.7957747E-01  0.1432798E+00
         13   -1    0    0    0    0  0.00000000000E+00  0.00000000000E+00  0.99999944180E+02  0.10000000000E+03  0.10566000000E+00 0. -1.
         22   -1    0    0    0    0 -0.00000000000E+00 -0.00000000000E+00 -0.50788507437E+02  0.50788507437E+02  0.00000000000E+00 0.  1.
         13    1    1    2    0    0 -0.41053368890E+01  0.15137782374E+02 -0.42422421876E+02  0.45229186241E+02  0.10566000000E+00 0.  1.
        996    1    1    2    0    0  0.41053368890E+01 -0.15137782374E+02  0.91633858618E+02  0.10555932120E+03  0.50000000000E+02 0.  0.
<mgrwt>
<rscale>  0 0.52402350E+02</rscale>
<asrwt>0</asrwt>
<pdfrwt beam="1">  1       13 0.10000000E+01 0.52402350E+02</pdfrwt>
<pdfrwt beam="2">  1       22 0.50788521E+00 0.52402350E+02</pdfrwt>
<totfact> 0.70551707E-02</totfact>
</mgrwt>
</event>
<event>
 4    1  0.2416490E+000  0.5133862E+02  0.7957747E-01  0.1438252E+00
         13   -1    0    0    0    0  0.00000000000E+00  0.00000000000E+00  0.99999944176E+02  0.99999999996E+02  0.10566000000E+00 0.  1.
         22   -1    0    0    0    0 -0.00000000000E+00 -0.00000000000E+00 -0.10739017828E+02  0.10739017828E+02  0.00000000000E+00 0.  1.
         13    1    1    2    0    0 -0.11603889890E+02 -0.10016966532E+01  0.64739697310E+01  0.13325805975E+02  0.10566000000E+00 0. -1.
        996    1    1    2    0    0  0.11603889890E+02  0.10016966532E+01  0.82786956617E+02  0.97413211849E+02  0.50000000000E+02 0.  0.
<mgrwt>
<rscale>  0 0.51338618E+02</rscale>
<asrwt>0</asrwt>
<pdfrwt beam="1">  1       13 0.10000000E+01 0.51338618E+02</pdfrwt>
<pdfrwt beam="2">  1       22 0.10739043E+00 0.51338618E+02</pdfrwt>
<totfact> 0.12681791E+00</totfact>
</mgrwt>
</event>
<event>
 4    1  0.2416490E+000  0.5194284E+02  0.7957747E-01  0.1435135E+00
         13   -1    0    0    0    0  0.00000000000E+00  0.00000000000E+00  0.99999944168E+02  0.99999999988E+02  0.10566000000E+00 0. -1.
         22   -1    0    0    0    0 -0.00000000000E+00 -0.00000000000E+00 -0.50274036711E+02  0.50274036711E+02  0.00000000000E+00 0.  1.
         13    1    1    2    0    0  0.44480770633E+01  0.13351914506E+02 -0.42311546593E+02  0.44590774266E+02  0.10566000000E+00 0.  1.
        996    1    1    2    0    0 -0.44480770633E+01 -0.13351914506E+02  0.92037454050E+02  0.10568326243E+03  0.50000000000E+02 0.  0.
<mgrwt>
<rscale>  0 0.51942844E+02</rscale>
<asrwt>0</asrwt>
<pdfrwt beam="1">  1       13 0.10000000E+01 0.51942844E+02</pdfrwt>
<pdfrwt beam="2">  1       22 0.50274051E+00 0.51942844E+02</pdfrwt>
<totfact> 0.72514342E-02</totfact>
</mgrwt>
</event>
<event>
 4    1  0.2416490E+000  0.5131242E+02  0.7957747E-01  0.1438389E+00
         13   -1    0    0    0    0  0.00000000000E+00  0.00000000000E+00  0.99999944178E+02  0.99999999998E+02  0.10566000000E+00 0.  1.
         22   -1    0    0    0    0 -0.00000000000E+00 -0.00000000000E+00 -0.16104035611E+02  0.16104035611E+02  0.00000000000E+00 0. -1.
         13    1    1    2    0    0 -0.59340968182E+00 -0.11515735074E+02 -0.56935361244E+01  0.12860474602E+02  0.10566000000E+00 0. -1.
        996    1    1    2    0    0  0.59340968182E+00  0.11515735074E+02  0.89589444692E+02  0.10324356101E+03  0.50000000000E+02 0.  0.
<mgrwt>
<rscale>  0 0.51312418E+02</rscale>
<asrwt>0</asrwt>
<pdfrwt beam="1">  1       13 0.10000000E+01 0.51312418E+02</pdfrwt>
<pdfrwt beam="2">  1       22 0.16104059E+00 0.51312418E+02</pdfrwt>
<totfact> 0.66688094E-01</totfact>
</mgrwt>
</event>
<event>
 4    1  0.2416490E+000  0.5275484E+02  0.7957747E-01  0.1431025E+00
         13   -1    0    0    0    0  0.00000000000E+00  0.00000000000E+00  0.99999944178E+02  0.99999999999E+02  0.10566000000E+00 0.  1.
         22   -1    0    0    0    0 -0.00000000000E+00 -0.00000000000E+00 -0.16189789780E+02  0.16189789780E+02  0.00000000000E+00 0. -1.
         13    1    1    2    0    0 -0.15706463365E+02  0.60316050595E+01 -0.38827560722E+00  0.16829592182E+02  0.10566000000E+00 0. -1.
        996    1    1    2    0    0  0.15706463365E+02 -0.60316050595E+01  0.84198430006E+02  0.99360197597E+02  0.50000000000E+02 0.  0.
<mgrwt>
<rscale>  0 0.52754841E+02</rscale>
<asrwt>0</asrwt>
<pdfrwt beam="1">  1       13 0.10000000E+01 0.52754841E+02</pdfrwt>
<pdfrwt beam="2">  1       22 0.16189813E+00 0.52754841E+02</pdfrwt>
<totfact> 0.66272112E-01</totfact>
</mgrwt>
</event>
<event>
 4    1  0.2416490E+000  0.5124783E+02  0.7957747E-01  0.1438725E+00
         13   -1    0    0    0    0  0.00000000000E+00  0.00000000000E+00  0.99999944178E+02  0.99999999999E+02  0.10566000000E+00 0. -1.
         22   -1    0    0    0    0 -0.00000000000E+00 -0.00000000000E+00 -0.30263202244E+02  0.30263202244E+02  0.00000000000E+00 0. -1.
         13    1    1    2    0    0  0.45136974498E-01 -0.11240000275E+02 -0.22270348180E+02  0.24946326696E+02  0.10566000000E+00 0.  1.
        996    1    1    2    0    0 -0.45136974498E-01  0.11240000275E+02  0.92007090115E+02  0.10531687555E+03  0.50000000000E+02 0.  0.
<mgrwt>
<rscale>  0 0.51247826E+02</rscale>
<asrwt>0</asrwt>
<pdfrwt beam="1">  1       13 0.10000000E+01 0.51247826E+02</pdfrwt>
<pdfrwt beam="2">  1       22 0.30263222E+00 0.51247826E+02</pdfrwt>
<totfact> 0.20348589E-01</totfact>
</mgrwt>
</event>
<event>
 4    1  0.2416490E+000  0.5338778E+02  0.7957747E-01  0.1427881E+00
         13   -1    0    0    0    0  0.00000000000E+00  0.00000000000E+00  0.99999944184E+02  0.10000000000E+03  0.10566000000E+00 0. -1.
         22   -1    0    0    0    0 -0.00000000000E+00 -0.00000000000E+00 -0.32838222838E+02  0.32838222838E+02  0.00000000000E+00 0. -1.
         13    1    1    2    0    0 -0.14573596175E+02  0.11741626327E+02 -0.22019244637E+02  0.28898335466E+02  0.10566000000E+00 0.  1.
        996    1    1    2    0    0  0.14573596175E+02 -0.11741626327E+02  0.89180965982E+02  0.10393988738E+03  0.50000000000E+02 0.  0.
<mgrwt>
<rscale>  0 0.53387784E+02</rscale>
<asrwt>0</asrwt>
<pdfrwt beam="1">  1       13 0.10000000E+01 0.53387784E+02</pdfrwt>
<pdfrwt beam="2">  1       22 0.32838242E+00 0.53387784E+02</pdfrwt>
<totfact> 0.17598567E-01</totfact>
</mgrwt>
</event>
<event>
 4    1  0.2416490E+000  0.5425369E+02  0.7957747E-01  0.1423662E+00
         13   -1    0    0    0    0  0.00000000000E+00  0.00000000000E+00  0.99999944180E+02  0.10000000000E+03  0.10566000000E+00 0.  1.
         22   -1    0    0    0    0 -0.00000000000E+00 -0.00000000000E+00 -0.14384426102E+02  0.14384426102E+02  0.00000000000E+00 0.  1.
         13    1    1    2    0    0 -0.20641865404E+02 -0.41684866810E+01  0.30339809032E+02  0.36932073659E+02  0.10566000000E+00 0. -1.
        996    1    1    2    0    0  0.20641865404E+02  0.41684866810E+01  0.55275709045E+02  0.77452352444E+02  0.50000000000E+02 0.  0.
<mgrwt>
<rscale>  0 0.54253690E+02</rscale>
<asrwt>0</asrwt>
<pdfrwt beam="1">  1       13 0.10000000E+01 0.54253690E+02</pdfrwt>
<pdfrwt beam="2">  1       22 0.14384450E+00 0.54253690E+02</pdfrwt>
<totfact> 0.81057261E-01</totfact>
</mgrwt>
</event>
<event>
 4    1  0.2416490E+000  0.5860352E+02  0.7957747E-01  0.1403787E+00
         13   -1    0    0    0    0  0.00000000000E+00  0.00000000000E+00  0.99999944178E+02  0.99999999998E+02  0.10566000000E+00 0. -1.
         22   -1    0    0    0    0 -0.00000000000E+00 -0.00000000000E+00 -0.29809669033E+02  0.29809669033E+02  0.00000000000E+00 0.  1.
         13    1    1    2    0    0  0.28792975991E+02  0.10263409276E+02 -0.84694002197E+01  0.31719314944E+02  0.10566000000E+00 0.  1.
        996    1    1    2    0    0 -0.28792975991E+02 -0.10263409276E+02  0.78659675365E+02  0.98090354087E+02  0.50000000000E+02 0.  0.
<mgrwt>
<rscale>  0 0.58603524E+02</rscale>
<asrwt>0</asrwt>
<pdfrwt beam="1">  1       13 0.10000000E+01 0.58603524E+02</pdfrwt>
<pdfrwt beam="2">  1       22 0.29809689E+00 0.58603524E+02</pdfrwt>
<totfact> 0.21124629E-01</totfact>
</mgrwt>
</event>
<event>
 4    1  0.2416490E+000  0.5131712E+02  0.7957747E-01  0.1438364E+00
         13   -1    0    0    0    0  0.00000000000E+00  0.00000000000E+00  0.99999944179E+02  0.99999999999E+02  0.10566000000E+00 0.  1.
         22   -1    0    0    0    0 -0.00000000000E+00 -0.00000000000E+00 -0.10268182772E+02  0.10268182772E+02  0.00000000000E+00 0. -1.
         13    1    1    2    0    0 -0.88194446955E+00  0.11518216869E+02  0.91658059034E+01  0.14746874509E+02  0.10566000000E+00 0. -1.
        996    1    1    2    0    0  0.88194446955E+00 -0.11518216869E+02  0.80565955504E+02  0.95521308262E+02  0.50000000000E+02 0.  0.
<mgrwt>
<rscale>  0 0.51317123E+02</rscale>
<asrwt>0</asrwt>
<pdfrwt beam="1">  1       13 0.10000000E+01 0.51317123E+02</pdfrwt>
<pdfrwt beam="2">  1       22 0.10268208E+00 0.51317123E+02</pdfrwt>
<totfact> 0.13543589E+00</totfact>
</mgrwt>
</event>
<event>
 4    1  0.2416490E+000  0.5122292E+02  0.7957747E-01  0.1438855E+00
         13   -1    0    0    0    0  0.00000000000E+00  0.00000000000E+00  0.99999944175E+02  0.99999999995E+02  0.10566000000E+00 0. -1.
         22   -1    0    0    0    0 -0.00000000000E+00 -0.00000000000E+00 -0.20617196717E+02  0.20617196717E+02  0.00000000000E+00 0.  1.
         13    1    1    2    0    0 -0.24198773512E+01 -0.10859632863E+02 -0.11683230635E+02  0.16133706159E+02  0.10566000000E+00 0.  1.
        996    1    1    2    0    0  0.24198773512E+01  0.10859632863E+02  0.91065978093E+02  0.10448349055E+03  0.50000000000E+02 0.  0.
<mgrwt>
<rscale>  0 0.51222919E+02</rscale>
<asrwt>0</asrwt>
<pdfrwt beam="1">  1       13 0.10000000E+01 0.51222919E+02</pdfrwt>
<pdfrwt beam="2">  1       22 0.20617219E+00 0.51222919E+02</pdfrwt>
<totfact> 0.42738537E-01</totfact>
</mgrwt>
</event>
<event>
 4    1  0.2416490E+000  0.5235459E+02  0.7957747E-01  0.1433040E+00
         13   -1    0    0    0    0  0.00000000000E+00  0.00000000000E+00  0.99999944175E+02  0.99999999995E+02  0.10566000000E+00 0. -1.
         22   -1    0    0    0    0 -0.00000000000E+00 -0.00000000000E+00 -0.14286578714E+02  0.14286578714E+02  0.00000000000E+00 0. -1.
         13    1    1    2    0    0 -0.57907131739E+01 -0.14403834001E+02  0.21440063949E+01  0.15671972449E+02  0.10566000000E+00 0.  1.
        996    1    1    2    0    0  0.57907131739E+01  0.14403834001E+02  0.83569359066E+02  0.98614606260E+02  0.50000000000E+02 0.  0.
<mgrwt>
<rscale>  0 0.52354587E+02</rscale>
<asrwt>0</asrwt>
<pdfrwt beam="1">  1       13 0.10000000E+01 0.52354587E+02</pdfrwt>
<pdfrwt beam="2">  1       22 0.14286603E+00 0.52354587E+02</pdfrwt>
<totfact> 0.81652927E-01</totfact>
</mgrwt>
</event>
<event>
 4    1  0.2416490E+000  0.5395549E+02  0.7957747E-01  0.1425104E+00
         13   -1    0    0    0    0  0.00000000000E+00  0.00000000000E+00  0.99999944176E+02  0.99999999996E+02  0.10566000000E+00 0.  1.
         22   -1    0    0    0    0 -0.00000000000E+00 -0.00000000000E+00 -0.15772473057E+02  0.15772473057E+02  0.00000000000E+00 0. -1.
         13    1    1    2    0    0 -0.35091688110E+01  0.19971998327E+02  0.67765963127E+01  0.21380561371E+02  0.10566000000E+00 0. -1.
        996    1    1    2    0    0  0.35091688110E+01 -0.19971998327E+02  0.77450874806E+02  0.94391911683E+02  0.50000000000E+02 0.  0.
<mgrwt>
<rscale>  0 0.53955491E+02</rscale>
<asrwt>0</asrwt>
<pdfrwt beam="1">  1       13 0.10000000E+01 0.53955491E+02</pdfrwt>
<pdfrwt beam="2">  1       22 0.15772497E+00 0.53955491E+02</pdfrwt>
<totfact> 0.69459535E-01</totfact>
</mgrwt>
</event>
<event>
 4    1  0.2416490E+000  0.5317030E+02  0.7957747E-01  0.1428955E+00
         13   -1    0    0    0    0  0.00000000000E+00  0.00000000000E+00  0.99999944176E+02  0.99999999996E+02  0.10566000000E+00 0. -1.
         22   -1    0    0    0    0 -0.00000000000E+00 -0.00000000000E+00 -0.15519312515E+02  0.15519312515E+02  0.00000000000E+00 0.  1.
         13    1    1    2    0    0 -0.17319246540E+02  0.52080868508E+01  0.31609919687E+01  0.18359833976E+02  0.10566000000E+00 0.  1.
        996    1    1    2    0    0  0.17319246540E+02 -0.52080868508E+01  0.81319639692E+02  0.97159478534E+02  0.50000000000E+02 0.  0.
<mgrwt>
<rscale>  0 0.53170297E+02</rscale>
<asrwt>0</asrwt>
<pdfrwt beam="1">  1       13 0.10000000E+01 0.53170297E+02</pdfrwt>
<pdfrwt beam="2">  1       22 0.15519336E+00 0.53170297E+02</pdfrwt>
<totfact> 0.71282473E-01</totfact>
</mgrwt>
</event>
<event>
 4    1  0.2416490E+000  0.5389300E+02  0.7957747E-01  0.1425408E+00
         13   -1    0    0    0    0  0.00000000000E+00  0.00000000000E+00  0.99999944174E+02  0.99999999994E+02  0.10566000000E+00 0. -1.
         22   -1    0    0    0    0 -0.00000000000E+00 -0.00000000000E+00 -0.21424377608E+02  0.21424377608E+02  0.00000000000E+00 0. -1.
         13    1    1    2    0    0  0.13822889629E+02 -0.14607633341E+02 -0.61325520751E+01  0.21025569874E+02  0.10566000000E+00 0.  1.
        996    1    1    2    0    0 -0.13822889629E+02  0.14607633341E+02  0.84708118642E+02  0.10039880773E+03  0.50000000000E+02 0.  0.
<mgrwt>
<rscale>  0 0.53892998E+02</rscale>
<asrwt>0</asrwt>
<pdfrwt beam="1">  1       13 0.10000000E+01 0.53892998E+02</pdfrwt>
<pdfrwt beam="2">  1       22 0.21424400E+00 0.53892998E+02</pdfrwt>
<totfact> 0.39919444E-01</totfact>
</mgrwt>
</event>
<event>
 4    1  0.2416490E+000  0.5191373E+02  0.7957747E-01  0.1435285E+00
         13   -1    0    0    0    0  0.00000000000E+00  0.00000000000E+00  0.99999944177E+02  0.99999999997E+02  0.10566000000E+00 0. -1.
         22   -1    0    0    0    0 -0.00000000000E+00 -0.00000000000E+00 -0.28028804653E+02  0.28028804653E+02  0.00000000000E+00 0.  1.
         13    1    1    2    0    0 -0.13705494686E+02 -0.26822879423E+01 -0.18824637038E+02  0.23439568615E+02  0.10566000000E+00 0.  1.
        996    1    1    2    0    0  0.13705494686E+02  0.26822879423E+01  0.90795776562E+02  0.10458923604E+03  0.50000000000E+02 0.  0.
<mgrwt>
<rscale>  0 0.51913729E+02</rscale>
<asrwt>0</asrwt>
<pdfrwt beam="1">  1       13 0.10000000E+01 0.51913729E+02</pdfrwt>
<pdfrwt beam="2">  1       22 0.28028825E+00 0.51913729E+02</pdfrwt>
<totfact> 0.23560979E-01</totfact>
</mgrwt>
</event>
<event>
 4    1  0.2416490E+000  0.7460958E+02  0.7957747E-01  0.1345084E+00
         13   -1    0    0    0    0  0.00000000000E+00  0.00000000000E+00  0.99999944176E+02  0.99999999996E+02  0.10566000000E+00 0.  1.
         22   -1    0    0    0    0 -0.00000000000E+00 -0.00000000000E+00 -0.42649505025E+02  0.42649505025E+02  0.00000000000E+00 0. -1.
         13    1    1    2    0    0  0.54200937450E+02  0.11351132546E+02  0.17570415451E+02  0.58097508498E+02  0.10566000000E+00 0. -1.
        996    1    1    2    0    0 -0.54200937450E+02 -0.11351132546E+02  0.39780023700E+02  0.84551996523E+02  0.50000000000E+02 0.  0.
<mgrwt>
<rscale>  0 0.74609583E+02</rscale>
<asrwt>0</asrwt>
<pdfrwt beam="1">  1       13 0.10000000E+01 0.74609583E+02</pdfrwt>
<pdfrwt beam="2">  1       22 0.42649521E+00 0.74609583E+02</pdfrwt>
<totfact> 0.11021787E-01</totfact>
</mgrwt>
</event>
<event>
 4    1  0.2416490E+000  0.5202103E+02  0.7957747E-01  0.1434736E+00
         13   -1    0    0    0    0  0.00000000000E+00  0.00000000000E+00  0.99999944182E+02  0.10000000000E+03  0.10566000000E+00 0.  1.
         22   -1    0    0    0    0 -0.00000000000E+00 -0.00000000000E+00 -0.15181648345E+02  0.15181648345E+02  0.00000000000E+00 0. -1.
         13    1    1    2    0    0 -0.10281951215E+02  0.10023409120E+02 -0.14601515622E+01  0.14433657118E+02  0.10566000000E+00 0. -1.
        996    1    1    2    0    0  0.10281951215E+02 -0.10023409120E+02  0.86278447399E+02  0.10074799123E+03  0.50000000000E+02 0.  0.
<mgrwt>
<rscale>  0 0.52021027E+02</rscale>
<asrwt>0</asrwt>
<pdfrwt beam="1">  1       13 0.10000000E+01 0.52021027E+02</pdfrwt>
<pdfrwt beam="2">  1       22 0.15181672E+00 0.52021027E+02</pdfrwt>
<totfact> 0.73797990E-01</totfact>
</mgrwt>
</event>
<event>
 4    1  0.2416490E+000  0.5254154E+02  0.7957747E-01  0.1432096E+00
         13   -1    0    0    0    0  0.00000000000E+00  0.00000000000E+00  0.99999944181E+02  0.10000000000E+03  0.10566000000E+00 0. -1.
         22   -1    0    0    0    0 -0.00000000000E+00 -0.00000000000E+00 -0.14736359942E+02  0.14736359942E+02  0.00000000000E+00 0. -1.
         13    1    1    2    0    0 -0.14319555987E+02 -0.74541010196E+01  0.47120831255E+02  0.49809609593E+02  0.10566000000E+00 0.  1.
        996    1    1    2    0    0  0.14319555987E+02  0.74541010196E+01  0.38142752985E+02  0.64926750349E+02  0.50000000000E+02 0.  0.
<mgrwt>
<rscale>  0 0.52541539E+02</rscale>
<asrwt>0</asrwt>
<pdfrwt beam="1">  1       13 0.10000000E+01 0.52541539E+02</pdfrwt>
<pdfrwt beam="2">  1       22 0.14736384E+00 0.52541539E+02</pdfrwt>
<totfact> 0.77626618E-01</totfact>
</mgrwt>
</event>
<event>
 4    1  0.2416490E+000  0.5345436E+02  0.7957747E-01  0.1427553E+00
         13   -1    0    0    0    0  0.00000000000E+00  0.00000000000E+00  0.99999944178E+02  0.99999999998E+02  0.10566000000E+00 0. -1.
         22   -1    0    0    0    0 -0.00000000000E+00 -0.00000000000E+00 -0.30155045747E+02  0.30155045747E+02  0.00000000000E+00 0.  1.
         13    1    1    2    0    0 -0.13254714219E+02 -0.13478901491E+02 -0.18786666950E+02  0.26651796441E+02  0.10566000000E+00 0.  1.
        996    1    1    2    0    0  0.13254714219E+02  0.13478901491E+02  0.88631565382E+02  0.10350324930E+03  0.50000000000E+02 0.  0.
<mgrwt>
<rscale>  0 0.53454357E+02</rscale>
<asrwt>0</asrwt>
<pdfrwt beam="1">  1       13 0.10000000E+01 0.53454357E+02</pdfrwt>
<pdfrwt beam="2">  1       22 0.30155065E+00 0.53454357E+02</pdfrwt>
<totfact> 0.20543324E-01</totfact>
</mgrwt>
</event>
<event>
 4    1  0.2416490E+000  0.5141131E+02  0.7957747E-01  0.1437875E+00
         13   -1    0    0    0    0  0.00000000000E+00  0.00000000000E+00  0.99999944175E+02  0.99999999995E+02  0.10566000000E+00 0.  1.
         22   -1    0    0    0    0 -0.00000000000E+00 -0.00000000000E+00 -0.22459825132E+02  0.22459825132E+02  0.00000000000E+00 0. -1.
         13    1    1    2    0    0  0.56622313297E+01 -0.10538577297E+02 -0.13418404181E+02  0.17977408319E+02  0.10566000000E+00 0. -1.
        996    1    1    2    0    0 -0.56622313297E+01  0.10538577297E+02  0.90958523223E+02  0.10448241681E+03  0.50000000000E+02 0.  0.
<mgrwt>
<rscale>  0 0.51411307E+02</rscale>
<asrwt>0</asrwt>
<pdfrwt beam="1">  1       13 0.10000000E+01 0.51411307E+02</pdfrwt>
<pdfrwt beam="2">  1       22 0.22459847E+00 0.51411307E+02</pdfrwt>
<totfact> 0.36306203E-01</totfact>
</mgrwt>
</event>
<event>
 4    1  0.2416490E+000  0.5118376E+02  0.7957747E-01  0.1439059E+00
         13   -1    0    0    0    0  0.00000000000E+00  0.00000000000E+00  0.99999944178E+02  0.99999999998E+02  0.10566000000E+00 0.  1.
         22   -1    0    0    0    0 -0.00000000000E+00 -0.00000000000E+00 -0.11291431716E+02  0.11291431716E+02  0.00000000000E+00 0.  1.
         13    1    1    2    0    0  0.10291824062E+02 -0.37223694777E+01  0.28100076843E+01  0.11299778063E+02  0.10566000000E+00 0. -1.
        996    1    1    2    0    0 -0.10291824062E+02  0.37223694777E+01  0.85898504777E+02  0.99991653652E+02  0.50000000000E+02 0.  0.
<mgrwt>
<rscale>  0 0.51183764E+02</rscale>
<asrwt>0</asrwt>
<pdfrwt beam="1">  1       13 0.10000000E+01 0.51183764E+02</pdfrwt>
<pdfrwt beam="2">  1       22 0.11291456E+00 0.51183764E+02</pdfrwt>
<totfact> 0.11765501E+00</totfact>
</mgrwt>
</event>
<event>
 4    1  0.2416490E+000  0.6472063E+02  0.7957747E-01  0.1379025E+00
         13   -1    0    0    0    0  0.00000000000E+00  0.00000000000E+00  0.99999944177E+02  0.99999999998E+02  0.10566000000E+00 0.  1.
         22   -1    0    0    0    0 -0.00000000000E+00 -0.00000000000E+00 -0.32663615214E+02  0.32663615214E+02  0.00000000000E+00 0.  1.
         13    1    1    2    0    0  0.69894598126E+01 -0.40495762705E+02  0.26825974715E+01  0.41182117949E+02  0.10566000000E+00 0. -1.
        996    1    1    2    0    0 -0.69894598126E+01  0.40495762705E+02  0.64653731492E+02  0.91481497263E+02  0.50000000000E+02 0.  0.
<mgrwt>
<rscale>  0 0.64720625E+02</rscale>
<asrwt>0</asrwt>
<pdfrwt beam="1">  1       13 0.10000000E+01 0.64720625E+02</pdfrwt>
<pdfrwt beam="2">  1       22 0.32663634E+00 0.64720625E+02</pdfrwt>
<totfact> 0.17973436E-01</totfact>
</mgrwt>
</event>
<event>
 4    1  0.2416490E+000  0.5232132E+02  0.7957747E-01  0.1433209E+00
         13   -1    0    0    0    0  0.00000000000E+00  0.00000000000E+00  0.99999944177E+02  0.99999999997E+02  0.10566000000E+00 0.  1.
         22   -1    0    0    0    0 -0.00000000000E+00 -0.00000000000E+00 -0.19036019086E+02  0.19036019086E+02  0.00000000000E+00 0. -1.
         13    1    1    2    0    0  0.12992971706E+02 -0.82887407425E+01 -0.68111201684E+01  0.16850016582E+02  0.10566000000E+00 0. -1.
        996    1    1    2    0    0 -0.12992971706E+02  0.82887407425E+01  0.87775045259E+02  0.10218600250E+03  0.50000000000E+02 0.  0.
<mgrwt>
<rscale>  0 0.52321320E+02</rscale>
<asrwt>0</asrwt>
<pdfrwt beam="1">  1       13 0.10000000E+01 0.52321320E+02</pdfrwt>
<pdfrwt beam="2">  1       22 0.19036042E+00 0.52321320E+02</pdfrwt>
<totfact> 0.49670129E-01</totfact>
</mgrwt>
</event>
<event>
 4    1  0.2416490E+000  0.5170675E+02  0.7957747E-01  0.1436347E+00
         13   -1    0    0    0    0  0.00000000000E+00  0.00000000000E+00  0.99999944169E+02  0.99999999989E+02  0.10566000000E+00 0. -1.
         22   -1    0    0    0    0 -0.00000000000E+00 -0.00000000000E+00 -0.69994945494E+02  0.69994945494E+02  0.00000000000E+00 0.  1.
         13    1    1    2    0    0  0.14389115340E+00 -0.13174503988E+02 -0.62578829045E+02  0.63950834777E+02  0.10566000000E+00 0.  1.
        996    1    1    2    0    0 -0.14389115340E+00  0.13174503988E+02  0.92583827721E+02  0.10604411071E+03  0.50000000000E+02 0.  0.
<mgrwt>
<rscale>  0 0.51706753E+02</rscale>
<asrwt>0</asrwt>
<pdfrwt beam="1">  1       13 0.10000000E+01 0.51706753E+02</pdfrwt>
<pdfrwt beam="2">  1       22 0.69994954E+00 0.51706753E+02</pdfrwt>
<totfact> 0.74675876E-02</totfact>
</mgrwt>
</event>
<event>
 4    1  0.2416490E+000  0.5806741E+02  0.7957747E-01  0.1406126E+00
         13   -1    0    0    0    0  0.00000000000E+00  0.00000000000E+00  0.99999944173E+02  0.99999999994E+02  0.10566000000E+00 0.  1.
         22   -1    0    0    0    0 -0.00000000000E+00 -0.00000000000E+00 -0.21847823611E+02  0.21847823611E+02  0.00000000000E+00 0.  1.
         13    1    1    2    0    0  0.65419327445E+01 -0.28792836575E+02  0.48163433129E+02  0.56493820696E+02  0.10566000000E+00 0. -1.
        996    1    1    2    0    0 -0.65419327445E+01  0.28792836575E+02  0.29988687434E+02  0.65354002908E+02  0.50000000000E+02 0.  0.
<mgrwt>
<rscale>  0 0.58067412E+02</rscale>
<asrwt>0</asrwt>
<pdfrwt beam="1">  1       13 0.10000000E+01 0.58067412E+02</pdfrwt>
<pdfrwt beam="2">  1       22 0.21847845E+00 0.58067412E+02</pdfrwt>
<totfact> 0.38705549E-01</totfact>
</mgrwt>
</event>
<event>
 4    1  0.2416490E+000  0.5338899E+02  0.7957747E-01  0.1427875E+00
         13   -1    0    0    0    0  0.00000000000E+00  0.00000000000E+00  0.99999944179E+02  0.99999999999E+02  0.10566000000E+00 0.  1.
         22   -1    0    0    0    0 -0.00000000000E+00 -0.00000000000E+00 -0.39778170147E+02  0.39778170147E+02  0.00000000000E+00 0. -1.
         13    1    1    2    0    0 -0.18670711778E+02 -0.13374301053E+01 -0.29755439001E+02  0.35153684185E+02  0.10566000000E+00 0. -1.
        996    1    1    2    0    0  0.18670711778E+02  0.13374301053E+01  0.89977213033E+02  0.10462448596E+03  0.50000000000E+02 0.  0.
<mgrwt>
<rscale>  0 0.53388989E+02</rscale>
<asrwt>0</asrwt>
<pdfrwt beam="1">  1       13 0.10000000E+01 0.53388989E+02</pdfrwt>
<pdfrwt beam="2">  1       22 0.39778187E+00 0.53388989E+02</pdfrwt>
<totfact> 0.12512128E-01</totfact>
</mgrwt>
</event>
<event>
 4    1  0.2416490E+000  0.5128986E+02  0.7957747E-01  0.1438506E+00
         13   -1    0    0    0    0  0.00000000000E+00  0.00000000000E+00  0.99999944176E+02  0.99999999996E+02  0.10566000000E+00 0. -1.
         22   -1    0    0    0    0 -0.00000000000E+00 -0.00000000000E+00 -0.98475350813E+01  0.98475350813E+01  0.00000000000E+00 0. -1.
         13    1    1    2    0    0 -0.10533060651E+02 -0.44389547423E+01  0.14932697880E+02  0.18805486324E+02  0.10566000000E+00 0.  1.
        996    1    1    2    0    0  0.10533060651E+02  0.44389547423E+01  0.75219711214E+02  0.91042048753E+02  0.50000000000E+02 0.  0.
<mgrwt>
<rscale>  0 0.51289859E+02</rscale>
<asrwt>0</asrwt>
<pdfrwt beam="1">  1       13 0.10000000E+01 0.51289859E+02</pdfrwt>
<pdfrwt beam="2">  1       22 0.98475602E-01 0.51289859E+02</pdfrwt>
<totfact> 0.14389667E+00</totfact>
</mgrwt>
</event>
<event>
 4    1  0.2416490E+000  0.5154199E+02  0.7957747E-01  0.1437198E+00
         13   -1    0    0    0    0  0.00000000000E+00  0.00000000000E+00  0.99999944175E+02  0.99999999996E+02  0.10566000000E+00 0.  1.
         22   -1    0    0    0    0 -0.00000000000E+00 -0.00000000000E+00 -0.51580759586E+02  0.51580759586E+02  0.00000000000E+00 0. -1.
         13    1    1    2    0    0  0.64580541913E+01 -0.10717758253E+02 -0.44008662830E+02  0.45753146056E+02  0.10566000000E+00 0. -1.
        996    1    1    2    0    0 -0.64580541913E+01  0.10717758253E+02  0.92427847419E+02  0.10582761353E+03  0.50000000000E+02 0.  0.
<mgrwt>
<rscale>  0 0.51541991E+02</rscale>
<asrwt>0</asrwt>
<pdfrwt beam="1">  1       13 0.10000000E+01 0.51541991E+02</pdfrwt>
<pdfrwt beam="2">  1       22 0.51580773E+00 0.51541991E+02</pdfrwt>
<totfact> 0.67685110E-02</totfact>
</mgrwt>
</event>
<event>
 4    1  0.2416490E+000  0.5299532E+02  0.7957747E-01  0.1429824E+00
         13   -1    0    0    0    0  0.00000000000E+00  0.00000000000E+00  0.99999944175E+02  0.99999999995E+02  0.10566000000E+00 0.  1.
         22   -1    0    0    0    0 -0.00000000000E+00 -0.00000000000E+00 -0.13392789968E+02  0.13392789968E+02  0.00000000000E+00 0.  1.
         13    1    1    2    0    0  0.17245645960E+02 -0.33304193995E+01  0.36280846817E+02  0.40308994130E+02  0.10566000000E+00 0. -1.
        996    1    1    2    0    0 -0.17245645960E+02  0.33304193995E+01  0.50326307390E+02  0.73083795834E+02  0.50000000000E+02 0.  0.
<mgrwt>
<rscale>  0 0.52995321E+02</rscale>
<asrwt>0</asrwt>
<pdfrwt beam="1">  1       13 0.10000000E+01 0.52995321E+02</pdfrwt>
<pdfrwt beam="2">  1       22 0.13392814E+00 0.52995321E+02</pdfrwt>
<totfact> 0.90745323E-01</totfact>
</mgrwt>
</event>
<event>
 4    1  0.2416490E+000  0.5408478E+02  0.7957747E-01  0.1424477E+00
         13   -1    0    0    0    0  0.00000000000E+00  0.00000000000E+00  0.99999944169E+02  0.99999999989E+02  0.10566000000E+00 0. -1.
         22   -1    0    0    0    0 -0.00000000000E+00 -0.00000000000E+00 -0.17017985534E+02  0.17017985534E+02  0.00000000000E+00 0.  1.
         13    1    1    2    0    0  0.30804034384E+01  0.20388091325E+02  0.35529738305E+01  0.20923621587E+02  0.10566000000E+00 0.  1.
        996    1    1    2    0    0 -0.30804034384E+01 -0.20388091325E+02  0.79428984804E+02  0.96094363936E+02  0.50000000000E+02 0.  0.
<mgrwt>
<rscale>  0 0.54084777E+02</rscale>
<asrwt>0</asrwt>
<pdfrwt beam="1">  1       13 0.10000000E+01 0.54084777E+02</pdfrwt>
<pdfrwt beam="2">  1       22 0.17018009E+00 0.54084777E+02</pdfrwt>
<totfact> 0.60926244E-01</totfact>
</mgrwt>
</event>
<event>
 4    1  0.2416490E+000  0.5112189E+02  0.7957747E-01  0.1439383E+00
         13   -1    0    0    0    0  0.00000000000E+00  0.00000000000E+00  0.99999944178E+02  0.99999999998E+02  0.10566000000E+00 0.  1.
         22   -1    0    0    0    0 -0.00000000000E+00 -0.00000000000E+00 -0.95747817192E+01  0.95747817192E+01  0.00000000000E+00 0.  1.
         13    1    1    2    0    0  0.94062673318E+01 -0.49969688141E+01  0.18201198883E+02  0.21088915744E+02  0.10566000000E+00 0. -1.
        996    1    1    2    0    0 -0.94062673318E+01  0.49969688141E+01  0.72223963575E+02  0.88485865973E+02  0.50000000000E+02 0.  0.
<mgrwt>
<rscale>  0 0.51121889E+02</rscale>
<asrwt>0</asrwt>
<pdfrwt beam="1">  1       13 0.10000000E+01 0.51121889E+02</pdfrwt>
<pdfrwt beam="2">  1       22 0.95748070E-01 0.51121889E+02</pdfrwt>
<totfact> 0.14976120E+00</totfact>
</mgrwt>
</event>
<event>
 4    1  0.2416490E+000  0.5158521E+02  0.7957747E-01  0.1436974E+00
         13   -1    0    0    0    0  0.00000000000E+00  0.00000000000E+00  0.99999944176E+02  0.99999999996E+02  0.10566000000E+00 0.  1.
         22   -1    0    0    0    0 -0.00000000000E+00 -0.00000000000E+00 -0.13376624120E+02  0.13376624120E+02  0.00000000000E+00 0. -1.
         13    1    1    2    0    0 -0.65109949809E+01 -0.10892233660E+02  0.15657759463E+00  0.12691315548E+02  0.10566000000E+00 0. -1.
        996    1    1    2    0    0  0.65109949809E+01  0.10892233660E+02  0.86466742461E+02  0.10068530857E+03  0.50000000000E+02 0.  0.
<mgrwt>
<rscale>  0 0.51585209E+02</rscale>
<asrwt>0</asrwt>
<pdfrwt beam="1">  1       13 0.10000000E+01 0.51585209E+02</pdfrwt>
<pdfrwt beam="2">  1       22 0.13376648E+00 0.51585209E+02</pdfrwt>
<totfact> 0.90647627E-01</totfact>
</mgrwt>
</event>
<event>
 4    1  0.2416490E+000  0.5192476E+02  0.7957747E-01  0.1435228E+00
         13   -1    0    0    0    0  0.00000000000E+00  0.00000000000E+00  0.99999944181E+02  0.10000000000E+03  0.10566000000E+00 0.  1.
         22   -1    0    0    0    0 -0.00000000000E+00 -0.00000000000E+00 -0.31520843990E+02  0.31520843990E+02  0.00000000000E+00 0. -1.
         13    1    1    2    0    0 -0.54796823746E+01 -0.12890065425E+02 -0.22653241604E+02  0.26633836089E+02  0.10566000000E+00 0. -1.
        996    1    1    2    0    0  0.54796823746E+01  0.12890065425E+02  0.91132341795E+02  0.10488700790E+03  0.50000000000E+02 0.  0.
<mgrwt>
<rscale>  0 0.51924760E+02</rscale>
<asrwt>0</asrwt>
<pdfrwt beam="1">  1       13 0.10000000E+01 0.51924760E+02</pdfrwt>
<pdfrwt beam="2">  1       22 0.31520863E+00 0.51924760E+02</pdfrwt>
<totfact> 0.18903042E-01</totfact>
</mgrwt>
</event>
<event>
 4    1  0.2416490E+000  0.7825835E+02  0.7957747E-01  0.1334068E+00
         13   -1    0    0    0    0  0.00000000000E+00  0.00000000000E+00  0.99999944181E+02  0.10000000000E+03  0.10566000000E+00 0. -1.
         22   -1    0    0    0    0 -0.00000000000E+00 -0.00000000000E+00 -0.48596159648E+02  0.48596159648E+02  0.00000000000E+00 0.  1.
         13    1    1    2    0    0 -0.58057382574E+02 -0.15928258989E+02  0.13762455465E+02  0.61755853571E+02  0.10566000000E+00 0.  1.
        996    1    1    2    0    0  0.58057382574E+02  0.15928258989E+02  0.37641329068E+02  0.86840306078E+02  0.50000000000E+02 0.  0.
<mgrwt>
<rscale>  0 0.78258348E+02</rscale>
<asrwt>0</asrwt>
<pdfrwt beam="1">  1       13 0.10000000E+01 0.78258348E+02</pdfrwt>
<pdfrwt beam="2">  1       22 0.48596174E+00 0.78258348E+02</pdfrwt>
<totfact> 0.80416200E-02</totfact>
</mgrwt>
</event>
<event>
 4    1  0.2416490E+000  0.5267359E+02  0.7957747E-01  0.1431432E+00
         13   -1    0    0    0    0  0.00000000000E+00  0.00000000000E+00  0.99999944178E+02  0.99999999998E+02  0.10566000000E+00 0. -1.
         22   -1    0    0    0    0 -0.00000000000E+00 -0.00000000000E+00 -0.12650076977E+02  0.12650076977E+02  0.00000000000E+00 0. -1.
         13    1    1    2    0    0 -0.14436489810E+02  0.81299051705E+01  0.10978922662E+02  0.19876003194E+02  0.10566000000E+00 0.  1.
        996    1    1    2    0    0  0.14436489810E+02 -0.81299051705E+01  0.76370944539E+02  0.92774073781E+02  0.50000000000E+02 0.  0.
<mgrwt>
<rscale>  0 0.52673595E+02</rscale>
<asrwt>0</asrwt>
<pdfrwt beam="1">  1       13 0.10000000E+01 0.52673595E+02</pdfrwt>
<pdfrwt beam="2">  1       22 0.12650101E+00 0.52673595E+02</pdfrwt>
<totfact> 0.99220589E-01</totfact>
</mgrwt>
</event>
<event>
 4    1  0.2416490E+000  0.5131967E+02  0.7957747E-01  0.1438351E+00
         13   -1    0    0    0    0  0.00000000000E+00  0.00000000000E+00  0.99999944178E+02  0.99999999998E+02  0.10566000000E+00 0. -1.
         22   -1    0    0    0    0 -0.00000000000E+00 -0.00000000000E+00 -0.12391255747E+02  0.12391255747E+02  0.00000000000E+00 0.  1.
         13    1    1    2    0    0 -0.86689984259E+01 -0.76522588940E+01  0.85553381142E+00  0.11595331044E+02  0.10566000000E+00 0.  1.
        996    1    1    2    0    0  0.86689984259E+01  0.76522588940E+01  0.86753154619E+02  0.10079592470E+03  0.50000000000E+02 0.  0.
<mgrwt>
<rscale>  0 0.51319671E+02</rscale>
<asrwt>0</asrwt>
<pdfrwt beam="1">  1       13 0.10000000E+01 0.51319671E+02</pdfrwt>
<pdfrwt beam="2">  1       22 0.12391280E+00 0.51319671E+02</pdfrwt>
<totfact> 0.10215626E+00</totfact>
</mgrwt>
</event>
<event>
 4    1  0.2416490E+000  0.5869387E+02  0.7957747E-01  0.1403396E+00
         13   -1    0    0    0    0  0.00000000000E+00  0.00000000000E+00  0.99999944180E+02  0.10000000000E+03  0.10566000000E+00 0. -1.
         22   -1    0    0    0    0 -0.00000000000E+00 -0.00000000000E+00 -0.28442099692E+02  0.28442099692E+02  0.00000000000E+00 0.  1.
         13    1    1    2    0    0  0.30095551956E+02  0.62632106101E+01 -0.58560291400E+01  0.31293358657E+02  0.10566000000E+00 0.  1.
        996    1    1    2    0    0 -0.30095551956E+02 -0.62632106101E+01  0.77413873628E+02  0.97148741036E+02  0.50000000000E+02 0.  0.
<mgrwt>
<rscale>  0 0.58693867E+02</rscale>
<asrwt>0</asrwt>
<pdfrwt beam="1">  1       13 0.10000000E+01 0.58693867E+02</pdfrwt>
<pdfrwt beam="2">  1       22 0.28442120E+00 0.58693867E+02</pdfrwt>
<totfact> 0.23110012E-01</totfact>
</mgrwt>
</event>
<event>
 4    1  0.2416490E+000  0.5137917E+02  0.7957747E-01  0.1438042E+00
         13   -1    0    0    0    0  0.00000000000E+00  0.00000000000E+00  0.99999944176E+02  0.99999999996E+02  0.10566000000E+00 0. -1.
         22   -1    0    0    0    0 -0.00000000000E+00 -0.00000000000E+00 -0.10868416450E+02  0.10868416450E+02  0.00000000000E+00 0. -1.
         13    1    1    2    0    0  0.56291684781E+01  0.10398637746E+02  0.63067700018E+01  0.13401705735E+02  0.10566000000E+00 0.  1.
        996    1    1    2    0    0 -0.56291684781E+01 -0.10398637746E+02  0.82824757724E+02  0.97466710711E+02  0.50000000000E+02 0.  0.
<mgrwt>
<rscale>  0 0.51379171E+02</rscale>
<asrwt>0</asrwt>
<pdfrwt beam="1">  1       13 0.10000000E+01 0.51379171E+02</pdfrwt>
<pdfrwt beam="2">  1       22 0.10868441E+00 0.51379171E+02</pdfrwt>
<totfact> 0.12460228E+00</totfact>
</mgrwt>
</event>
<event>
 4    1  0.2416490E+000  0.5877776E+02  0.7957747E-01  0.1403034E+00
         13   -1    0    0    0    0  0.00000000000E+00  0.00000000000E+00  0.99999944188E+02  0.10000000001E+03  0.10566000000E+00 0. -1.
         22   -1    0    0    0    0 -0.00000000000E+00 -0.00000000000E+00 -0.21071792604E+02  0.21071792604E+02  0.00000000000E+00 0. -1.
         13    1    1    2    0    0  0.17049217037E+02  0.25771093162E+02  0.15407131993E+02  0.34528479906E+02  0.10566000000E+00 0.  1.
        996    1    1    2    0    0 -0.17049217037E+02 -0.25771093162E+02  0.63521019590E+02  0.86543312706E+02  0.50000000000E+02 0.  0.
<mgrwt>
<rscale>  0 0.58777760E+02</rscale>
<asrwt>0</asrwt>
<pdfrwt beam="1">  1       13 0.10000000E+01 0.58777760E+02</pdfrwt>
<pdfrwt beam="2">  1       22 0.21071815E+00 0.58777760E+02</pdfrwt>
<totfact> 0.41525402E-01</totfact>
</mgrwt>
</event>
<event>
 4    1  0.2416490E+000  0.5372277E+02  0.7957747E-01  0.1426237E+00
         13   -1    0    0    0    0  0.00000000000E+00  0.00000000000E+00  0.99999944178E+02  0.99999999998E+02  0.10566000000E+00 0. -1.
         22   -1    0    0    0    0 -0.00000000000E+00 -0.00000000000E+00 -0.13816712980E+02  0.13816712980E+02  0.00000000000E+00 0. -1.
         13    1    1    2    0    0 -0.15727383314E+02 -0.11780736708E+02  0.31736260467E+02  0.37327439448E+02  0.10566000000E+00 0.  1.
        996    1    1    2    0    0  0.15727383314E+02  0.11780736708E+02  0.54446970731E+02  0.76489273530E+02  0.50000000000E+02 0.  0.
<mgrwt>
<rscale>  0 0.53722773E+02</rscale>
<asrwt>0</asrwt>
<pdfrwt beam="1">  1       13 0.10000000E+01 0.53722773E+02</pdfrwt>
<pdfrwt beam="2">  1       22 0.13816737E+00 0.53722773E+02</pdfrwt>
<totfact> 0.86452004E-01</totfact>
</mgrwt>
</event>
<event>
 4    1  0.2416490E+000  0.7167340E+02  0.7957747E-01  0.1354493E+00
         13   -1    0    0    0    0  0.00000000000E+00  0.00000000000E+00  0.99999944173E+02  0.99999999993E+02  0.10566000000E+00 0. -1.
         22   -1    0    0    0    0 -0.00000000000E+00 -0.00000000000E+00 -0.49599398085E+02  0.49599398085E+02  0.00000000000E+00 0.  1.
         13    1    1    2    0    0  0.52912943612E+01 -0.51079137684E+02 -0.14017712742E+02  0.53231414945E+02  0.10566000000E+00 0.  1.
        996    1    1    2    0    0 -0.52912943612E+01  0.51079137684E+02  0.64418258830E+02  0.96367983133E+02  0.50000000000E+02 0.  0.
<mgrwt>
<rscale>  0 0.71673399E+02</rscale>
<asrwt>0</asrwt>
<pdfrwt beam="1">  1       13 0.10000000E+01 0.71673399E+02</pdfrwt>
<pdfrwt beam="2">  1       22 0.49599412E+00 0.71673399E+02</pdfrwt>
<totfact> 0.75839790E-02</totfact>
</mgrwt>
</event>
<event>
 4    1  0.2416490E+000  0.5294696E+02  0.7957747E-01  0.1430065E+00
         13   -1    0    0    0    0  0.00000000000E+00  0.00000000000E+00  0.99999944181E+02  0.10000000000E+03  0.10566000000E+00 0. -1.
         22   -1    0    0    0    0 -0.00000000000E+00 -0.00000000000E+00 -0.60000150603E+02  0.60000150603E+02  0.00000000000E+00 0.  1.
         13    1    1    2    0    0 -0.17412440722E+02 -0.43325384324E+00 -0.51455678400E+02  0.54323832748E+02  0.10566000000E+00 0.  1.
        996    1    1    2    0    0  0.17412440722E+02  0.43325384324E+00  0.91455471978E+02  0.10567631786E+03  0.50000000000E+02 0.  0.
<mgrwt>
<rscale>  0 0.52946962E+02</rscale>
<asrwt>0</asrwt>
<pdfrwt beam="1">  1       13 0.10000000E+01 0.52946962E+02</pdfrwt>
<pdfrwt beam="2">  1       22 0.60000162E+00 0.52946962E+02</pdfrwt>
<totfact> 0.63580023E-02</totfact>
</mgrwt>
</event>
<event>
 4    1  0.2416490E+000  0.5253760E+02  0.7957747E-01  0.1432116E+00
         13   -1    0    0    0    0  0.00000000000E+00  0.00000000000E+00  0.99999944176E+02  0.99999999997E+02  0.10566000000E+00 0. -1.
         22   -1    0    0    0    0 -0.00000000000E+00 -0.00000000000E+00 -0.11788438298E+02  0.11788438298E+02  0.00000000000E+00 0. -1.
         13    1    1    2    0    0 -0.47813185496E+01  0.15405796283E+02  0.20693764294E+02  0.26238189932E+02  0.10566000000E+00 0.  1.
        996    1    1    2    0    0  0.47813185496E+01 -0.15405796283E+02  0.67517741584E+02  0.85550248362E+02  0.50000000000E+02 0.  0.
<mgrwt>
<rscale>  0 0.52537601E+02</rscale>
<asrwt>0</asrwt>
<pdfrwt beam="1">  1       13 0.10000000E+01 0.52537601E+02</pdfrwt>
<pdfrwt beam="2">  1       22 0.11788463E+00 0.52537601E+02</pdfrwt>
<totfact> 0.11058619E+00</totfact>
</mgrwt>
</event>
<event>
 4    1  0.2416490E+000  0.5327732E+02  0.7957747E-01  0.1428426E+00
         13   -1    0    0    0    0  0.00000000000E+00  0.00000000000E+00  0.99999944183E+02  0.10000000000E+03  0.10566000000E+00 0.  1.
         22   -1    0    0    0    0 -0.00000000000E+00 -0.00000000000E+00 -0.16948147325E+02  0.16948147325E+02  0.00000000000E+00 0.  1.
         13    1    1    2    0    0 -0.25780563595E+01 -0.18216117096E+02  0.14488392981E+00  0.18398517659E+02  0.10566000000E+00 0. -1.
        996    1    1    2    0    0  0.25780563595E+01  0.18216117096E+02  0.82906912928E+02  0.98549629669E+02  0.50000000000E+02 0.  0.
<mgrwt>
<rscale>  0 0.53277324E+02</rscale>
<asrwt>0</asrwt>
<pdfrwt beam="1">  1       13 0.10000000E+01 0.53277324E+02</pdfrwt>
<pdfrwt beam="2">  1       22 0.16948171E+00 0.53277324E+02</pdfrwt>
<totfact> 0.61274282E-01</totfact>
</mgrwt>
</event>
<event>
 4    1  0.2416490E+000  0.5423954E+02  0.7957747E-01  0.1423730E+00
         13   -1    0    0    0    0  0.00000000000E+00  0.00000000000E+00  0.99999944176E+02  0.99999999996E+02  0.10566000000E+00 0.  1.
         22   -1    0    0    0    0 -0.00000000000E+00 -0.00000000000E+00 -0.32466787157E+02  0.32466787157E+02  0.00000000000E+00 0. -1.
         13    1    1    2    0    0  0.20415129199E+02  0.50149974284E+01 -0.20307924830E+02  0.29229277691E+02  0.10566000000E+00 0. -1.
        996    1    1    2    0    0 -0.20415129199E+02 -0.50149974284E+01  0.87841081849E+02  0.10323750946E+03  0.50000000000E+02 0.  0.
<mgrwt>
<rscale>  0 0.54239540E+02</rscale>
<asrwt>0</asrwt>
<pdfrwt beam="1">  1       13 0.10000000E+01 0.54239540E+02</pdfrwt>
<pdfrwt beam="2">  1       22 0.32466806E+00 0.54239540E+02</pdfrwt>
<totfact> 0.17975075E-01</totfact>
</mgrwt>
</event>
<event>
 4    1  0.2416490E+000  0.5169358E+02  0.7957747E-01  0.1436415E+00
         13   -1    0    0    0    0  0.00000000000E+00  0.00000000000E+00  0.99999944183E+02  0.10000000000E+03  0.10566000000E+00 0.  1.
         22   -1    0    0    0    0 -0.00000000000E+00 -0.00000000000E+00 -0.10504848559E+02  0.10504848559E+02  0.00000000000E+00 0.  1.
         13    1    1    2    0    0  0.27670516296E+01  0.12828455911E+02  0.17575319145E+02  0.21934649823E+02  0.10566000000E+00 0. -1.
        996    1    1    2    0    0 -0.27670516296E+01 -0.12828455911E+02  0.71919776479E+02  0.88570198739E+02  0.50000000000E+02 0.  0.
<mgrwt>
<rscale>  0 0.51693577E+02</rscale>
<asrwt>0</asrwt>
<pdfrwt beam="1">  1       13 0.10000000E+01 0.51693577E+02</pdfrwt>
<pdfrwt beam="2">  1       22 0.10504874E+00 0.51693577E+02</pdfrwt>
<totfact> 0.13111231E+00</totfact>
</mgrwt>
</event>
<event>
 4    1  0.2416490E+000  0.5770833E+02  0.7957747E-01  0.1407708E+00
         13   -1    0    0    0    0  0.00000000000E+00  0.00000000000E+00  0.99999944185E+02  0.10000000001E+03  0.10566000000E+00 0. -1.
         22   -1    0    0    0    0 -0.00000000000E+00 -0.00000000000E+00 -0.51199733786E+02  0.51199733786E+02  0.00000000000E+00 0.  1.
         13    1    1    2    0    0 -0.28031835321E+02  0.66684227773E+01 -0.37555960454E+02  0.47336169928E+02  0.10566000000E+00 0.  1.
        996    1    1    2    0    0  0.28031835321E+02 -0.66684227773E+01  0.86356170853E+02  0.10386356386E+03  0.50000000000E+02 0.  0.
<mgrwt>
<rscale>  0 0.57708333E+02</rscale>
<asrwt>0</asrwt>
<pdfrwt beam="1">  1       13 0.10000000E+01 0.57708333E+02</pdfrwt>
<pdfrwt beam="2">  1       22 0.51199747E+00 0.57708333E+02</pdfrwt>
<totfact> 0.69190232E-02</totfact>
</mgrwt>
</event>
<event>
 4    1  0.2416490E+000  0.5319024E+02  0.7957747E-01  0.1428856E+00
         13   -1    0    0    0    0  0.00000000000E+00  0.00000000000E+00  0.99999944183E+02  0.10000000000E+03  0.10566000000E+00 0. -1.
         22   -1    0    0    0    0 -0.00000000000E+00 -0.00000000000E+00 -0.14325437542E+02  0.14325437542E+02  0.00000000000E+00 0.  1.
         13    1    1    2    0    0 -0.77866852241E+01 -0.16388071431E+02  0.71940945069E+01  0.19518389069E+02  0.10566000000E+00 0.  1.
        996    1    1    2    0    0  0.77866852241E+01  0.16388071431E+02  0.78480412134E+02  0.94807048476E+02  0.50000000000E+02 0.  0.
<mgrwt>
<rscale>  0 0.53190237E+02</rscale>
<asrwt>0</asrwt>
<pdfrwt beam="1">  1       13 0.10000000E+01 0.53190237E+02</pdfrwt>
<pdfrwt beam="2">  1       22 0.14325461E+00 0.53190237E+02</pdfrwt>
<totfact> 0.81430571E-01</totfact>
</mgrwt>
</event>
<event>
 4    1  0.2416490E+000  0.5403704E+02  0.7957747E-01  0.1424708E+00
         13   -1    0    0    0    0  0.00000000000E+00  0.00000000000E+00  0.99999944172E+02  0.99999999992E+02  0.10566000000E+00 0. -1.
         22   -1    0    0    0    0 -0.00000000000E+00 -0.00000000000E+00 -0.13991032550E+02  0.13991032550E+02  0.00000000000E+00 0.  1.
         13    1    1    2    0    0 -0.12873889156E+02  0.15945687628E+02  0.19406117843E+02  0.28224290066E+02  0.10566000000E+00 0.  1.
        996    1    1    2    0    0  0.12873889156E+02 -0.15945687628E+02  0.66602793778E+02  0.85766742476E+02  0.50000000000E+02 0.  0.
<mgrwt>
<rscale>  0 0.54037043E+02</rscale>
<asrwt>0</asrwt>
<pdfrwt beam="1">  1       13 0.10000000E+01 0.54037043E+02</pdfrwt>
<pdfrwt beam="2">  1       22 0.13991057E+00 0.54037043E+02</pdfrwt>
<totfact> 0.84770022E-01</totfact>
</mgrwt>
</event>
<event>
 4    1  0.2416490E+000  0.5497334E+02  0.7957747E-01  0.1420225E+00
         13   -1    0    0    0    0  0.00000000000E+00  0.00000000000E+00  0.99999944179E+02  0.99999999999E+02  0.10566000000E+00 0.  1.
         22   -1    0    0    0    0 -0.00000000000E+00 -0.00000000000E+00 -0.20943745531E+02  0.20943745531E+02  0.00000000000E+00 0.  1.
         13    1    1    2    0    0 -0.20589030980E+02  0.99075824236E+01 -0.20738308517E+01  0.22942979855E+02  0.10566000000E+00 0. -1.
        996    1    1    2    0    0  0.20589030980E+02 -0.99075824236E+01  0.81130029500E+02  0.98000765675E+02  0.50000000000E+02 0.  0.
<mgrwt>
<rscale>  0 0.54973343E+02</rscale>
<asrwt>0</asrwt>
<pdfrwt beam="1">  1       13 0.10000000E+01 0.54973343E+02</pdfrwt>
<pdfrwt beam="2">  1       22 0.20943768E+00 0.54973343E+02</pdfrwt>
<totfact> 0.41756144E-01</totfact>
</mgrwt>
</event>
<event>
 4    1  0.2416490E+000  0.5862377E+02  0.7957747E-01  0.1403700E+00
         13   -1    0    0    0    0  0.00000000000E+00  0.00000000000E+00  0.99999944169E+02  0.99999999989E+02  0.10566000000E+00 0. -1.
         22   -1    0    0    0    0 -0.00000000000E+00 -0.00000000000E+00 -0.47757072811E+02  0.47757072811E+02  0.00000000000E+00 0.  1.
         13    1    1    2    0    0  0.29034680485E+02 -0.96815999137E+01 -0.32545009917E+02  0.44675887035E+02  0.10566000000E+00 0.  1.
        996    1    1    2    0    0 -0.29034680485E+02  0.96815999137E+01  0.84787881275E+02  0.10308118577E+03  0.50000000000E+02 0.  0.
<mgrwt>
<rscale>  0 0.58623767E+02</rscale>
<asrwt>0</asrwt>
<pdfrwt beam="1">  1       13 0.10000000E+01 0.58623767E+02</pdfrwt>
<pdfrwt beam="2">  1       22 0.47757087E+00 0.58623767E+02</pdfrwt>
<totfact> 0.83626389E-02</totfact>
</mgrwt>
</event>
<event>
 4    1  0.2416490E+000  0.6665141E+02  0.7957747E-01  0.1371865E+00
         13   -1    0    0    0    0  0.00000000000E+00  0.00000000000E+00  0.99999944169E+02  0.99999999989E+02  0.10566000000E+00 0.  1.
         22   -1    0    0    0    0 -0.00000000000E+00 -0.00000000000E+00 -0.31453572738E+02  0.31453572738E+02  0.00000000000E+00 0.  1.
         13    1    1    2    0    0  0.41471339433E+02  0.14917730023E+02  0.37755584141E+02  0.58033662311E+02  0.10566000000E+00 0. -1.
        996    1    1    2    0    0 -0.41471339433E+02 -0.14917730023E+02  0.30790787291E+02  0.73419910415E+02  0.50000000000E+02 0.  0.
<mgrwt>
<rscale>  0 0.66651412E+02</rscale>
<asrwt>0</asrwt>
<pdfrwt beam="1">  1       13 0.10000000E+01 0.66651412E+02</pdfrwt>
<pdfrwt beam="2">  1       22 0.31453592E+00 0.66651412E+02</pdfrwt>
<totfact> 0.19281463E-01</totfact>
</mgrwt>
</event>
<event>
 4    1  0.2416490E+000  0.5499730E+02  0.7957747E-01  0.1420112E+00
         13   -1    0    0    0    0  0.00000000000E+00  0.00000000000E+00  0.99999944188E+02  0.10000000001E+03  0.10566000000E+00 0.  1.
         22   -1    0    0    0    0 -0.00000000000E+00 -0.00000000000E+00 -0.18550582032E+02  0.18550582032E+02  0.00000000000E+00 0. -1.
         13    1    1    2    0    0 -0.30660390137E+01 -0.22700275150E+02  0.35301375007E+01  0.23177060252E+02  0.10566000000E+00 0. -1.
        996    1    1    2    0    0  0.30660390137E+01  0.22700275150E+02  0.77919224656E+02  0.95373521787E+02  0.50000000000E+02 0.  0.
<mgrwt>
<rscale>  0 0.54997301E+02</rscale>
<asrwt>0</asrwt>
<pdfrwt beam="1">  1       13 0.10000000E+01 0.54997301E+02</pdfrwt>
<pdfrwt beam="2">  1       22 0.18550605E+00 0.54997301E+02</pdfrwt>
<totfact> 0.52317195E-01</totfact>
</mgrwt>
</event>
<event>
 4    1  0.2416490E+000  0.5117406E+02  0.7957747E-01  0.1439110E+00
         13   -1    0    0    0    0  0.00000000000E+00  0.00000000000E+00  0.99999944181E+02  0.10000000000E+03  0.10566000000E+00 0.  1.
         22   -1    0    0    0    0 -0.00000000000E+00 -0.00000000000E+00 -0.14602016252E+02  0.14602016252E+02  0.00000000000E+00 0. -1.
         13    1    1    2    0    0  0.10296700101E+02  0.35724194018E+01 -0.39861906824E+01  0.11605390710E+02  0.10566000000E+00 0. -1.
        996    1    1    2    0    0 -0.10296700101E+02 -0.35724194018E+01  0.89384118611E+02  0.10299662554E+03  0.50000000000E+02 0.  0.
<mgrwt>
<rscale>  0 0.51174058E+02</rscale>
<asrwt>0</asrwt>
<pdfrwt beam="1">  1       13 0.10000000E+01 0.51174058E+02</pdfrwt>
<pdfrwt beam="2">  1       22 0.14602040E+00 0.51174058E+02</pdfrwt>
<totfact> 0.78586144E-01</totfact>
</mgrwt>
</event>
<event>
 4    1  0.2416490E+000  0.5255466E+02  0.7957747E-01  0.1432030E+00
         13   -1    0    0    0    0  0.00000000000E+00  0.00000000000E+00  0.99999944177E+02  0.99999999998E+02  0.10566000000E+00 0.  1.
         22   -1    0    0    0    0 -0.00000000000E+00 -0.00000000000E+00 -0.12790578642E+02  0.12790578642E+02  0.00000000000E+00 0.  1.
         13    1    1    2    0    0  0.13534259120E+02  0.88778632272E+01  0.88749426170E+01  0.18459913215E+02  0.10566000000E+00 0. -1.
        996    1    1    2    0    0 -0.13534259120E+02 -0.88778632272E+01  0.78334422919E+02  0.94330665424E+02  0.50000000000E+02 0.  0.
<mgrwt>
<rscale>  0 0.52554663E+02</rscale>
<asrwt>0</asrwt>
<pdfrwt beam="1">  1       13 0.10000000E+01 0.52554663E+02</pdfrwt>
<pdfrwt beam="2">  1       22 0.12790603E+00 0.52554663E+02</pdfrwt>
<totfact> 0.97496516E-01</totfact>
</mgrwt>
</event>
<event>
 4    1  0.2416490E+000  0.5445445E+02  0.7957747E-01  0.1422697E+00
         13   -1    0    0    0    0  0.00000000000E+00  0.00000000000E+00  0.99999944177E+02  0.99999999997E+02  0.10566000000E+00 0.  1.
         22   -1    0    0    0    0 -0.00000000000E+00 -0.00000000000E+00 -0.40904782694E+02  0.40904782694E+02  0.00000000000E+00 0. -1.
         13    1    1    2    0    0 -0.16184727958E+02  0.14259792572E+02 -0.29721240916E+02  0.36723976213E+02  0.10566000000E+00 0. -1.
        996    1    1    2    0    0  0.16184727958E+02 -0.14259792572E+02  0.88816402399E+02  0.10418080648E+03  0.50000000000E+02 0.  0.
<mgrwt>
<rscale>  0 0.54454450E+02</rscale>
<asrwt>0</asrwt>
<pdfrwt beam="1">  1       13 0.10000000E+01 0.54454450E+02</pdfrwt>
<pdfrwt beam="2">  1       22 0.40904799E+00 0.54454450E+02</pdfrwt>
<totfact> 0.11867053E-01</totfact>
</mgrwt>
</event>
<event>
 4    1  0.2416490E+000  0.5131658E+02  0.7957747E-01  0.1438367E+00
         13   -1    0    0    0    0  0.00000000000E+00  0.00000000000E+00  0.99999944183E+02  0.10000000000E+03  0.10566000000E+00 0.  1.
         22   -1    0    0    0    0 -0.00000000000E+00 -0.00000000000E+00 -0.10757842825E+02  0.10757842825E+02  0.00000000000E+00 0. -1.
         13    1    1    2    0    0 -0.77164644042E+01 -0.85934763591E+01  0.61200311785E+01  0.13071251069E+02  0.10566000000E+00 0. -1.
        996    1    1    2    0    0  0.77164644042E+01  0.85934763591E+01  0.83122070179E+02  0.97686591760E+02  0.50000000000E+02 0.  0.
<mgrwt>
<rscale>  0 0.51316583E+02</rscale>
<asrwt>0</asrwt>
<pdfrwt beam="1">  1       13 0.10000000E+01 0.51316583E+02</pdfrwt>
<pdfrwt beam="2">  1       22 0.10757868E+00 0.51316583E+02</pdfrwt>
<totfact> 0.12648362E+00</totfact>
</mgrwt>
</event>
<event>
 4    1  0.2416490E+000  0.5532377E+02  0.7957747E-01  0.1418574E+00
         13   -1    0    0    0    0  0.00000000000E+00  0.00000000000E+00  0.99999944178E+02  0.99999999998E+02  0.10566000000E+00 0.  1.
         22   -1    0    0    0    0 -0.00000000000E+00 -0.00000000000E+00 -0.19734945184E+02  0.19734945184E+02  0.00000000000E+00 0. -1.
         13    1    1    2    0    0 -0.12407357196E+02 -0.20168704586E+02  0.18280723307E+01  0.23750203573E+02  0.10566000000E+00 0. -1.
        996    1    1    2    0    0  0.12407357196E+02  0.20168704586E+02  0.78436926663E+02  0.95984741609E+02  0.50000000000E+02 0.  0.
<mgrwt>
<rscale>  0 0.55323767E+02</rscale>
<asrwt>0</asrwt>
<pdfrwt beam="1">  1       13 0.10000000E+01 0.55323767E+02</pdfrwt>
<pdfrwt beam="2">  1       22 0.19734968E+00 0.55323767E+02</pdfrwt>
<totfact> 0.46717528E-01</totfact>
</mgrwt>
</event>
<event>
 4    1  0.2416490E+000  0.5144275E+02  0.7957747E-01  0.1437712E+00
         13   -1    0    0    0    0  0.00000000000E+00  0.00000000000E+00  0.99999944179E+02  0.99999999999E+02  0.10566000000E+00 0. -1.
         22   -1    0    0    0    0 -0.00000000000E+00 -0.00000000000E+00 -0.19294362939E+02  0.19294362939E+02  0.00000000000E+00 0. -1.
         13    1    1    2    0    0  0.98521960663E+01 -0.70207219691E+01 -0.95462744113E+01  0.15410996836E+02  0.10566000000E+00 0.  1.
        996    1    1    2    0    0 -0.98521960663E+01  0.70207219691E+01  0.90251855651E+02  0.10388336610E+03  0.50000000000E+02 0.  0.
<mgrwt>
<rscale>  0 0.51442748E+02</rscale>
<asrwt>0</asrwt>
<pdfrwt beam="1">  1       13 0.10000000E+01 0.51442748E+02</pdfrwt>
<pdfrwt beam="2">  1       22 0.19294385E+00 0.51442748E+02</pdfrwt>
<totfact> 0.48377300E-01</totfact>
</mgrwt>
</event>
<event>
 4    1  0.2416490E+000  0.5229331E+02  0.7957747E-01  0.1433350E+00
         13   -1    0    0    0    0  0.00000000000E+00  0.00000000000E+00  0.99999944182E+02  0.10000000000E+03  0.10566000000E+00 0.  1.
         22   -1    0    0    0    0 -0.00000000000E+00 -0.00000000000E+00 -0.12008303618E+02  0.12008303618E+02  0.00000000000E+00 0.  1.
         13    1    1    2    0    0  0.65555589953E+00  0.15302297709E+02  0.31512256819E+02  0.35037459419E+02  0.10566000000E+00 0. -1.
        996    1    1    2    0    0 -0.65555589953E+00 -0.15302297709E+02  0.56479383746E+02  0.76970844201E+02  0.50000000000E+02 0.  0.
<mgrwt>
<rscale>  0 0.52293308E+02</rscale>
<asrwt>0</asrwt>
<pdfrwt beam="1">  1       13 0.10000000E+01 0.52293308E+02</pdfrwt>
<pdfrwt beam="2">  1       22 0.12008328E+00 0.52293308E+02</pdfrwt>
<totfact> 0.10745029E+00</totfact>
</mgrwt>
</event>
<event>
 4    1  0.2416490E+000  0.5170691E+02  0.7957747E-01  0.1436347E+00
         13   -1    0    0    0    0  0.00000000000E+00  0.00000000000E+00  0.99999944178E+02  0.99999999998E+02  0.10566000000E+00 0. -1.
         22   -1    0    0    0    0 -0.00000000000E+00 -0.00000000000E+00 -0.26928199301E+02  0.26928199301E+02  0.00000000000E+00 0.  1.
         13    1    1    2    0    0  0.13007444014E+02 -0.21001229380E+01 -0.17936918536E+02  0.22256422146E+02  0.10566000000E+00 0.  1.
        996    1    1    2    0    0 -0.13007444014E+02  0.21001229380E+01  0.91008663413E+02  0.10467177715E+03  0.50000000000E+02 0.  0.
<mgrwt>
<rscale>  0 0.51706906E+02</rscale>
<asrwt>0</asrwt>
<pdfrwt beam="1">  1       13 0.10000000E+01 0.51706906E+02</pdfrwt>
<pdfrwt beam="2">  1       22 0.26928220E+00 0.51706906E+02</pdfrwt>
<totfact> 0.25463691E-01</totfact>
</mgrwt>
</event>
<event>
 4    1  0.2416490E+000  0.5132516E+02  0.7957747E-01  0.1438322E+00
         13   -1    0    0    0    0  0.00000000000E+00  0.00000000000E+00  0.99999944177E+02  0.99999999998E+02  0.10566000000E+00 0.  1.
         22   -1    0    0    0    0 -0.00000000000E+00 -0.00000000000E+00 -0.13002392844E+02  0.13002392844E+02  0.00000000000E+00 0.  1.
         13    1    1    2    0    0  0.11380612756E+02 -0.21803755163E+01 -0.45954409089E+00  0.11597186249E+02  0.10566000000E+00 0. -1.
        996    1    1    2    0    0 -0.11380612756E+02  0.21803755163E+01  0.87457095424E+02  0.10140520659E+03  0.50000000000E+02 0.  0.
<mgrwt>
<rscale>  0 0.51325163E+02</rscale>
<asrwt>0</asrwt>
<pdfrwt beam="1">  1       13 0.10000000E+01 0.51325163E+02</pdfrwt>
<pdfrwt beam="2">  1       22 0.13002417E+00 0.51325163E+02</pdfrwt>
<totfact> 0.94759428E-01</totfact>
</mgrwt>
</event>
<event>
 4    1  0.2416490E+000  0.5166531E+02  0.7957747E-01  0.1436561E+00
         13   -1    0    0    0    0  0.00000000000E+00  0.00000000000E+00  0.99999944182E+02  0.10000000000E+03  0.10566000000E+00 0. -1.
         22   -1    0    0    0    0 -0.00000000000E+00 -0.00000000000E+00 -0.19054533686E+02  0.19054533686E+02  0.00000000000E+00 0. -1.
         13    1    1    2    0    0 -0.35958895062E+01  0.12504953864E+02 -0.86535550931E+01  0.15626882999E+02  0.10566000000E+00 0.  1.
        996    1    1    2    0    0  0.35958895062E+01 -0.12504953864E+02  0.89598965589E+02  0.10342765069E+03  0.50000000000E+02 0.  0.
<mgrwt>
<rscale>  0 0.51665310E+02</rscale>
<asrwt>0</asrwt>
<pdfrwt beam="1">  1       13 0.10000000E+01 0.51665310E+02</pdfrwt>
<pdfrwt beam="2">  1       22 0.19054556E+00 0.51665310E+02</pdfrwt>
<totfact> 0.49521909E-01</totfact>
</mgrwt>
</event>
<event>
 4    1  0.2416490E+000  0.5868089E+02  0.7957747E-01  0.1403452E+00
         13   -1    0    0    0    0  0.00000000000E+00  0.00000000000E+00  0.99999944175E+02  0.99999999995E+02  0.10566000000E+00 0. -1.
         22   -1    0    0    0    0 -0.00000000000E+00 -0.00000000000E+00 -0.68653374827E+02  0.68653374827E+02  0.00000000000E+00 0.  1.
         13    1    1    2    0    0  0.87398581168E+01  0.29445906081E+02 -0.55739176107E+02  0.63642072735E+02  0.10566000000E+00 0.  1.
        996    1    1    2    0    0 -0.87398581168E+01 -0.29445906081E+02  0.87085745454E+02  0.10501130209E+03  0.50000000000E+02 0.  0.
<mgrwt>
<rscale>  0 0.58680887E+02</rscale>
<asrwt>0</asrwt>
<pdfrwt beam="1">  1       13 0.10000000E+01 0.58680887E+02</pdfrwt>
<pdfrwt beam="2">  1       22 0.68653384E+00 0.58680887E+02</pdfrwt>
<totfact> 0.80951625E-02</totfact>
</mgrwt>
</event>
<event>
 4    1  0.2416490E+000  0.5110236E+02  0.7957747E-01  0.1439485E+00
         13   -1    0    0    0    0  0.00000000000E+00  0.00000000000E+00  0.99999944182E+02  0.10000000000E+03  0.10566000000E+00 0. -1.
         22   -1    0    0    0    0 -0.00000000000E+00 -0.00000000000E+00 -0.15022018291E+02  0.15022018291E+02  0.00000000000E+00 0. -1.
         13    1    1    2    0    0  0.10556154553E+02  0.13877173575E+00 -0.48943675880E+01  0.11636909154E+02  0.10566000000E+00 0.  1.
        996    1    1    2    0    0 -0.10556154553E+02 -0.13877173575E+00  0.89872293478E+02  0.10338510914E+03  0.50000000000E+02 0.  0.
<mgrwt>
<rscale>  0 0.51102364E+02</rscale>
<asrwt>0</asrwt>
<pdfrwt beam="1">  1       13 0.10000000E+01 0.51102364E+02</pdfrwt>
<pdfrwt beam="2">  1       22 0.15022042E+00 0.51102364E+02</pdfrwt>
<totfact> 0.74969908E-01</totfact>
</mgrwt>
</event>
<event>
 4    1  0.2416490E+000  0.5267842E+02  0.7957747E-01  0.1431408E+00
         13   -1    0    0    0    0  0.00000000000E+00  0.00000000000E+00  0.99999944181E+02  0.10000000000E+03  0.10566000000E+00 0. -1.
         22   -1    0    0    0    0 -0.00000000000E+00 -0.00000000000E+00 -0.15992606806E+02  0.15992606806E+02  0.00000000000E+00 0.  1.
         13    1    1    2    0    0 -0.10938458175E+02  0.12464605845E+02 -0.29301830474E+00  0.16586539418E+02  0.10566000000E+00 0.  1.
        996    1    1    2    0    0  0.10938458175E+02 -0.12464605845E+02  0.84300355679E+02  0.99406067389E+02  0.50000000000E+02 0.  0.
<mgrwt>
<rscale>  0 0.52678423E+02</rscale>
<asrwt>0</asrwt>
<pdfrwt beam="1">  1       13 0.10000000E+01 0.52678423E+02</pdfrwt>
<pdfrwt beam="2">  1       22 0.15992630E+00 0.52678423E+02</pdfrwt>
<totfact> 0.67668784E-01</totfact>
</mgrwt>
</event>
<event>
 4    1  0.2416490E+000  0.5375177E+02  0.7957747E-01  0.1426096E+00
         13   -1    0    0    0    0  0.00000000000E+00  0.00000000000E+00  0.99999944183E+02  0.10000000000E+03  0.10566000000E+00 0.  1.
         22   -1    0    0    0    0 -0.00000000000E+00 -0.00000000000E+00 -0.13796562668E+02  0.13796562668E+02  0.00000000000E+00 0.  1.
         13    1    1    2    0    0  0.62743857670E+01  0.18705221969E+02  0.16145815771E+02  0.25494151812E+02  0.10566000000E+00 0. -1.
        996    1    1    2    0    0 -0.62743857670E+01 -0.18705221969E+02  0.70057565744E+02  0.88302410860E+02  0.50000000000E+02 0.  0.
<mgrwt>
<rscale>  0 0.53751774E+02</rscale>
<asrwt>0</asrwt>
<pdfrwt beam="1">  1       13 0.10000000E+01 0.53751774E+02</pdfrwt>
<pdfrwt beam="2">  1       22 0.13796587E+00 0.53751774E+02</pdfrwt>
<totfact> 0.86660944E-01</totfact>
</mgrwt>
</event>
<event>
 4    1  0.2416490E+000  0.5155912E+02  0.7957747E-01  0.1437109E+00
         13   -1    0    0    0    0  0.00000000000E+00  0.00000000000E+00  0.99999944179E+02  0.99999999999E+02  0.10566000000E+00 0. -1.
         22   -1    0    0    0    0 -0.00000000000E+00 -0.00000000000E+00 -0.15597546814E+02  0.15597546814E+02  0.00000000000E+00 0.  1.
         13    1    1    2    0    0 -0.43002401393E+01 -0.11825859407E+02 -0.40461738546E+01  0.13218385033E+02  0.10566000000E+00 0.  1.
        996    1    1    2    0    0  0.43002401393E+01  0.11825859407E+02  0.88448571220E+02  0.10237916178E+03  0.50000000000E+02 0.  0.
<mgrwt>
<rscale>  0 0.51559122E+02</rscale>
<asrwt>0</asrwt>
<pdfrwt beam="1">  1       13 0.10000000E+01 0.51559122E+02</pdfrwt>
<pdfrwt beam="2">  1       22 0.15597570E+00 0.51559122E+02</pdfrwt>
<totfact> 0.70451930E-01</totfact>
</mgrwt>
</event>
<event>
 4    1  0.2416490E+000  0.5401049E+02  0.7957747E-01  0.1424837E+00
         13   -1    0    0    0    0  0.00000000000E+00  0.00000000000E+00  0.99999944184E+02  0.10000000000E+03  0.10566000000E+00 0. -1.
         22   -1    0    0    0    0 -0.00000000000E+00 -0.00000000000E+00 -0.17371515358E+02  0.17371515358E+02  0.00000000000E+00 0.  1.
         13    1    1    2    0    0 -0.18573988997E+02  0.84935237495E+01  0.22712827281E+01  0.20550009786E+02  0.10566000000E+00 0.  1.
        996    1    1    2    0    0  0.18573988997E+02 -0.84935237495E+01  0.80357146098E+02  0.96821505576E+02  0.50000000000E+02 0.  0.
<mgrwt>
<rscale>  0 0.54010490E+02</rscale>
<asrwt>0</asrwt>
<pdfrwt beam="1">  1       13 0.10000000E+01 0.54010490E+02</pdfrwt>
<pdfrwt beam="2">  1       22 0.17371538E+00 0.54010490E+02</pdfrwt>
<totfact> 0.58750468E-01</totfact>
</mgrwt>
</event>
<event>
 4    1  0.2416490E+000  0.5293288E+02  0.7957747E-01  0.1430135E+00
         13   -1    0    0    0    0  0.00000000000E+00  0.00000000000E+00  0.99999944171E+02  0.99999999991E+02  0.10566000000E+00 0. -1.
         22   -1    0    0    0    0 -0.00000000000E+00 -0.00000000000E+00 -0.19083442759E+02  0.19083442759E+02  0.00000000000E+00 0.  1.
         13    1    1    2    0    0  0.12885593415E+02  0.11655522145E+02 -0.50792349188E+01  0.18102472359E+02  0.10566000000E+00 0.  1.
        996    1    1    2    0    0 -0.12885593415E+02 -0.11655522145E+02  0.85995736330E+02  0.10098097039E+03  0.50000000000E+02 0.  0.
<mgrwt>
<rscale>  0 0.52932879E+02</rscale>
<asrwt>0</asrwt>
<pdfrwt beam="1">  1       13 0.10000000E+01 0.52932879E+02</pdfrwt>
<pdfrwt beam="2">  1       22 0.19083465E+00 0.52932879E+02</pdfrwt>
<totfact> 0.49498976E-01</totfact>
</mgrwt>
</event>
<event>
 4    1  0.2416490E+000  0.5290474E+02  0.7957747E-01  0.1430276E+00
         13   -1    0    0    0    0  0.00000000000E+00  0.00000000000E+00  0.99999944172E+02  0.99999999993E+02  0.10566000000E+00 0. -1.
         22   -1    0    0    0    0 -0.00000000000E+00 -0.00000000000E+00 -0.16804150900E+02  0.16804150900E+02  0.00000000000E+00 0.  1.
         13    1    1    2    0    0  0.98571428420E+01 -0.14203820682E+02 -0.10532315641E+01  0.17321438963E+02  0.10566000000E+00 0.  1.
        996    1    1    2    0    0 -0.98571428420E+01  0.14203820682E+02  0.84249024837E+02  0.99482711930E+02  0.50000000000E+02 0.  0.
<mgrwt>
<rscale>  0 0.52904743E+02</rscale>
<asrwt>0</asrwt>
<pdfrwt beam="1">  1       13 0.10000000E+01 0.52904743E+02</pdfrwt>
<pdfrwt beam="2">  1       22 0.16804174E+00 0.52904743E+02</pdfrwt>
<totfact> 0.62150963E-01</totfact>
</mgrwt>
</event>
<event>
 4    1  0.2416490E+000  0.5466795E+02  0.7957747E-01  0.1421676E+00
         13   -1    0    0    0    0  0.00000000000E+00  0.00000000000E+00  0.99999944182E+02  0.10000000000E+03  0.10566000000E+00 0.  1.
         22   -1    0    0    0    0 -0.00000000000E+00 -0.00000000000E+00 -0.14869941964E+02  0.14869941964E+02  0.00000000000E+00 0.  1.
         13    1    1    2    0    0 -0.19353254534E+02 -0.10678799760E+02  0.19712861763E+02  0.29617449389E+02  0.10566000000E+00 0. -1.
        996    1    1    2    0    0  0.19353254534E+02  0.10678799760E+02  0.65417140455E+02  0.85252492577E+02  0.50000000000E+02 0.  0.
<mgrwt>
<rscale>  0 0.54667954E+02</rscale>
<asrwt>0</asrwt>
<pdfrwt beam="1">  1       13 0.10000000E+01 0.54667954E+02</pdfrwt>
<pdfrwt beam="2">  1       22 0.14869966E+00 0.54667954E+02</pdfrwt>
<totfact> 0.76798041E-01</totfact>
</mgrwt>
</event>
<event>
 4    1  0.2416490E+000  0.5160361E+02  0.7957747E-01  0.1436879E+00
         13   -1    0    0    0    0  0.00000000000E+00  0.00000000000E+00  0.99999944176E+02  0.99999999997E+02  0.10566000000E+00 0.  1.
         22   -1    0    0    0    0 -0.00000000000E+00 -0.00000000000E+00 -0.49404125090E+02  0.49404125090E+02  0.00000000000E+00 0. -1.
         13    1    1    2    0    0 -0.81780792420E+01 -0.98005858608E+01 -0.41728280996E+02  0.43637060651E+02  0.10566000000E+00 0. -1.
        996    1    1    2    0    0  0.81780792420E+01  0.98005858608E+01  0.92324100083E+02  0.10576706444E+03  0.50000000000E+02 0.  0.
<mgrwt>
<rscale>  0 0.51603609E+02</rscale>
<asrwt>0</asrwt>
<pdfrwt beam="1">  1       13 0.10000000E+01 0.51603609E+02</pdfrwt>
<pdfrwt beam="2">  1       22 0.49404139E+00 0.51603609E+02</pdfrwt>
<totfact> 0.76069153E-02</totfact>
</mgrwt>
</event>
<event>
 4    1  0.2416490E+000  0.5324495E+02  0.7957747E-01  0.1428586E+00
         13   -1    0    0    0    0  0.00000000000E+00  0.00000000000E+00  0.99999944173E+02  0.99999999993E+02  0.10566000000E+00 0.  1.
         22   -1    0    0    0    0 -0.00000000000E+00 -0.00000000000E+00 -0.17874141182E+02  0.17874141182E+02  0.00000000000E+00 0. -1.
         13    1    1    2    0    0 -0.74451596266E+01 -0.16721087330E+02 -0.18961677583E+01  0.18401950428E+02  0.10566000000E+00 0. -1.
        996    1    1    2    0    0  0.74451596266E+01  0.16721087330E+02  0.84021970750E+02  0.99472190747E+02  0.50000000000E+02 0.  0.
<mgrwt>
<rscale>  0 0.53244954E+02</rscale>
<asrwt>0</asrwt>
<pdfrwt beam="1">  1       13 0.10000000E+01 0.53244954E+02</pdfrwt>
<pdfrwt beam="2">  1       22 0.17874164E+00 0.53244954E+02</pdfrwt>
<totfact> 0.55764681E-01</totfact>
</mgrwt>
</event>
<event>
 4    1  0.2416490E+000  0.5124006E+02  0.7957747E-01  0.1438765E+00
         13   -1    0    0    0    0  0.00000000000E+00  0.00000000000E+00  0.99999944177E+02  0.99999999997E+02  0.10566000000E+00 0.  1.
         22   -1    0    0    0    0 -0.00000000000E+00 -0.00000000000E+00 -0.14859367894E+02  0.14859367894E+02  0.00000000000E+00 0. -1.
         13    1    1    2    0    0  0.11083020670E+02 -0.16464095899E+01 -0.41187781682E+01  0.11938153515E+02  0.10566000000E+00 0. -1.
        996    1    1    2    0    0 -0.11083020670E+02  0.16464095899E+01  0.89259354451E+02  0.10292121438E+03  0.50000000000E+02 0.  0.
<mgrwt>
<rscale>  0 0.51240063E+02</rscale>
<asrwt>0</asrwt>
<pdfrwt beam="1">  1       13 0.10000000E+01 0.51240063E+02</pdfrwt>
<pdfrwt beam="2">  1       22 0.14859392E+00 0.51240063E+02</pdfrwt>
<totfact> 0.76360375E-01</totfact>
</mgrwt>
</event>
<event>
 4    1  0.2416490E+000  0.5276235E+02  0.7957747E-01  0.1430987E+00
         13   -1    0    0    0    0  0.00000000000E+00  0.00000000000E+00  0.99999944188E+02  0.10000000001E+03  0.10566000000E+00 0. -1.
         22   -1    0    0    0    0 -0.00000000000E+00 -0.00000000000E+00 -0.17706145462E+02  0.17706145462E+02  0.00000000000E+00 0. -1.
         13    1    1    2    0    0 -0.10684357579E+02 -0.13027287776E+02 -0.32885509789E+01  0.17166579603E+02  0.10566000000E+00 0.  1.
        996    1    1    2    0    0  0.10684357579E+02  0.13027287776E+02  0.85582349705E+02  0.10053956587E+03  0.50000000000E+02 0.  0.
<mgrwt>
<rscale>  0 0.52762351E+02</rscale>
<asrwt>0</asrwt>
<pdfrwt beam="1">  1       13 0.10000000E+01 0.52762351E+02</pdfrwt>
<pdfrwt beam="2">  1       22 0.17706168E+00 0.52762351E+02</pdfrwt>
<totfact> 0.56661950E-01</totfact>
</mgrwt>
</event>
<event>
 4    1  0.2416490E+000  0.5227359E+02  0.7957747E-01  0.1433450E+00
         13   -1    0    0    0    0  0.00000000000E+00  0.00000000000E+00  0.99999944176E+02  0.99999999996E+02  0.10566000000E+00 0. -1.
         22   -1    0    0    0    0 -0.00000000000E+00 -0.00000000000E+00 -0.17011576151E+02  0.17011576151E+02  0.00000000000E+00 0.  1.
         13    1    1    2    0    0 -0.46449977263E+01 -0.14524208904E+02 -0.37825889053E+01  0.15711390487E+02  0.10566000000E+00 0.  1.
        996    1    1    2    0    0  0.46449977263E+01  0.14524208904E+02  0.86770956930E+02  0.10130018566E+03  0.50000000000E+02 0.  0.
<mgrwt>
<rscale>  0 0.52273594E+02</rscale>
<asrwt>0</asrwt>
<pdfrwt beam="1">  1       13 0.10000000E+01 0.52273594E+02</pdfrwt>
<pdfrwt beam="2">  1       22 0.17011599E+00 0.52273594E+02</pdfrwt>
<totfact> 0.60758086E-01</totfact>
</mgrwt>
</event>
<event>
 4    1  0.2416490E+000  0.5099569E+02  0.7957747E-01  0.1440044E+00
         13   -1    0    0    0    0  0.00000000000E+00  0.00000000000E+00  0.99999944178E+02  0.99999999998E+02  0.10566000000E+00 0.  1.
         22   -1    0    0    0    0 -0.00000000000E+00 -0.00000000000E+00 -0.94136997760E+01  0.94136997760E+01  0.00000000000E+00 0. -1.
         13    1    1    2    0    0 -0.35809843617E+01  0.93668080178E+01  0.10944504033E+02  0.14844321271E+02  0.10566000000E+00 0. -1.
        996    1    1    2    0    0  0.35809843617E+01 -0.93668080178E+01  0.79641740369E+02  0.94569378503E+02  0.50000000000E+02 0.  0.
<mgrwt>
<rscale>  0 0.50995691E+02</rscale>
<asrwt>0</asrwt>
<pdfrwt beam="1">  1       13 0.10000000E+01 0.50995691E+02</pdfrwt>
<pdfrwt beam="2">  1       22 0.94137251E-01 0.50995691E+02</pdfrwt>
<totfact> 0.15338691E+00</totfact>
</mgrwt>
</event>
<event>
 4    1  0.2416490E+000  0.5183447E+02  0.7957747E-01  0.1435691E+00
         13   -1    0    0    0    0  0.00000000000E+00  0.00000000000E+00  0.99999944183E+02  0.10000000000E+03  0.10566000000E+00 0.  1.
         22   -1    0    0    0    0 -0.00000000000E+00 -0.00000000000E+00 -0.15846282529E+02  0.15846282529E+02  0.00000000000E+00 0. -1.
         13    1    1    2    0    0  0.33958833964E+01 -0.13239327835E+02 -0.34130772783E+01  0.14088012141E+02  0.10566000000E+00 0. -1.
        996    1    1    2    0    0 -0.33958833964E+01  0.13239327835E+02  0.87566738933E+02  0.10175827039E+03  0.50000000000E+02 0.  0.
<mgrwt>
<rscale>  0 0.51834466E+02</rscale>
<asrwt>0</asrwt>
<pdfrwt beam="1">  1       13 0.10000000E+01 0.51834466E+02</pdfrwt>
<pdfrwt beam="2">  1       22 0.15846306E+00 0.51834466E+02</pdfrwt>
<totfact> 0.68623456E-01</totfact>
</mgrwt>
</event>
<event>
 4    1  0.2416490E+000  0.5107978E+02  0.7957747E-01  0.1439603E+00
         13   -1    0    0    0    0  0.00000000000E+00  0.00000000000E+00  0.99999944173E+02  0.99999999993E+02  0.10566000000E+00 0.  1.
         22   -1    0    0    0    0 -0.00000000000E+00 -0.00000000000E+00 -0.28531096646E+02  0.28531096646E+02  0.00000000000E+00 0. -1.
         13    1    1    2    0    0 -0.61439246986E+01 -0.84496490493E+01 -0.20681468851E+02  0.23170643013E+02  0.10566000000E+00 0. -1.
        996    1    1    2    0    0  0.61439246986E+01  0.84496490493E+01  0.92150316378E+02  0.10536045363E+03  0.50000000000E+02 0.  0.
<mgrwt>
<rscale>  0 0.51079784E+02</rscale>
<asrwt>0</asrwt>
<pdfrwt beam="1">  1       13 0.10000000E+01 0.51079784E+02</pdfrwt>
<pdfrwt beam="2">  1       22 0.28531117E+00 0.51079784E+02</pdfrwt>
<totfact> 0.22741210E-01</totfact>
</mgrwt>
</event>
<event>
 4    1  0.2416490E+000  0.5321279E+02  0.7957747E-01  0.1428745E+00
         13   -1    0    0    0    0  0.00000000000E+00  0.00000000000E+00  0.99999944175E+02  0.99999999995E+02  0.10566000000E+00 0.  1.
         22   -1    0    0    0    0 -0.00000000000E+00 -0.00000000000E+00 -0.16504291893E+02  0.16504291893E+02  0.00000000000E+00 0. -1.
         13    1    1    2    0    0 -0.13560661155E+01  0.18159346936E+02  0.87613872877E+00  0.18231280250E+02  0.10566000000E+00 0. -1.
        996    1    1    2    0    0  0.13560661155E+01 -0.18159346936E+02  0.82619513554E+02  0.98273011638E+02  0.50000000000E+02 0.  0.
<mgrwt>
<rscale>  0 0.53212788E+02</rscale>
<asrwt>0</asrwt>
<pdfrwt beam="1">  1       13 0.10000000E+01 0.53212788E+02</pdfrwt>
<pdfrwt beam="2">  1       22 0.16504315E+00 0.53212788E+02</pdfrwt>
<totfact> 0.64165035E-01</totfact>
</mgrwt>
</event>
<event>
 4    1  0.2416490E+000  0.6327539E+02  0.7957747E-01  0.1384579E+00
         13   -1    0    0    0    0  0.00000000000E+00  0.00000000000E+00  0.99999944177E+02  0.99999999997E+02  0.10566000000E+00 0. -1.
         22   -1    0    0    0    0 -0.00000000000E+00 -0.00000000000E+00 -0.63352636905E+02  0.63352636905E+02  0.00000000000E+00 0.  1.
         13    1    1    2    0    0  0.38390670379E+02 -0.54710044522E+01 -0.45421277804E+02  0.59723354755E+02  0.10566000000E+00 0.  1.
        996    1    1    2    0    0 -0.38390670379E+02  0.54710044522E+01  0.82068585076E+02  0.10362928215E+03  0.50000000000E+02 0.  0.
<mgrwt>
<rscale>  0 0.63275394E+02</rscale>
<asrwt>0</asrwt>
<pdfrwt beam="1">  1       13 0.10000000E+01 0.63275394E+02</pdfrwt>
<pdfrwt beam="2">  1       22 0.63352647E+00 0.63275394E+02</pdfrwt>
<totfact> 0.80590967E-02</totfact>
</mgrwt>
</event>
<event>
 4    1  0.2416490E+000  0.5525831E+02  0.7957747E-01  0.1418881E+00
         13   -1    0    0    0    0  0.00000000000E+00  0.00000000000E+00  0.99999944173E+02  0.99999999993E+02  0.10566000000E+00 0.  1.
         22   -1    0    0    0    0 -0.00000000000E+00 -0.00000000000E+00 -0.37516760077E+02  0.37516760077E+02  0.00000000000E+00 0. -1.
         13    1    1    2    0    0  0.36616950997E+01  0.23239475387E+02 -0.24818070642E+02  0.34196915383E+02  0.10566000000E+00 0. -1.
        996    1    1    2    0    0 -0.36616950997E+01 -0.23239475387E+02  0.87301254738E+02  0.10331984469E+03  0.50000000000E+02 0.  0.
<mgrwt>
<rscale>  0 0.55258314E+02</rscale>
<asrwt>0</asrwt>
<pdfrwt beam="1">  1       13 0.10000000E+01 0.55258314E+02</pdfrwt>
<pdfrwt beam="2">  1       22 0.37516778E+00 0.55258314E+02</pdfrwt>
<totfact> 0.13949672E-01</totfact>
</mgrwt>
</event>
<event>
 4    1  0.2416490E+000  0.6108680E+02  0.7957747E-01  0.1393327E+00
         13   -1    0    0    0    0  0.00000000000E+00  0.00000000000E+00  0.99999944177E+02  0.99999999997E+02  0.10566000000E+00 0. -1.
         22   -1    0    0    0    0 -0.00000000000E+00 -0.00000000000E+00 -0.32477867381E+02  0.32477867381E+02  0.00000000000E+00 0.  1.
         13    1    1    2    0    0  0.35017155198E+02 -0.23228798832E+01 -0.73416552616E+01  0.35853981579E+02  0.10566000000E+00 0.  1.
        996    1    1    2    0    0 -0.35017155198E+02  0.23228798832E+01  0.74863732058E+02  0.96623885798E+02  0.50000000000E+02 0.  0.
<mgrwt>
<rscale>  0 0.61086798E+02</rscale>
<asrwt>0</asrwt>
<pdfrwt beam="1">  1       13 0.10000000E+01 0.61086798E+02</pdfrwt>
<pdfrwt beam="2">  1       22 0.32477886E+00 0.61086798E+02</pdfrwt>
<totfact> 0.18094883E-01</totfact>
</mgrwt>
</event>
<event>
 4    1  0.2416490E+000  0.5448887E+02  0.7957747E-01  0.1422532E+00
         13   -1    0    0    0    0  0.00000000000E+00  0.00000000000E+00  0.99999944182E+02  0.10000000000E+03  0.10566000000E+00 0.  1.
         22   -1    0    0    0    0 -0.00000000000E+00 -0.00000000000E+00 -0.15067651429E+02  0.15067651429E+02  0.00000000000E+00 0.  1.
         13    1    1    2    0    0  0.26487243303E+01  0.21494670850E+02  0.14693414868E+02  0.26171439014E+02  0.10566000000E+00 0. -1.
        996    1    1    2    0    0 -0.26487243303E+01 -0.21494670850E+02  0.70238877886E+02  0.88896212417E+02  0.50000000000E+02 0.  0.
<mgrwt>
<rscale>  0 0.54488867E+02</rscale>
<asrwt>0</asrwt>
<pdfrwt beam="1">  1       13 0.10000000E+01 0.54488867E+02</pdfrwt>
<pdfrwt beam="2">  1       22 0.15067675E+00 0.54488867E+02</pdfrwt>
<totfact> 0.75100663E-01</totfact>
</mgrwt>
</event>
<event>
 4    1  0.2416490E+000  0.5398533E+02  0.7957747E-01  0.1424959E+00
         13   -1    0    0    0    0  0.00000000000E+00  0.00000000000E+00  0.99999944176E+02  0.99999999996E+02  0.10566000000E+00 0.  1.
         22   -1    0    0    0    0 -0.00000000000E+00 -0.00000000000E+00 -0.39522272838E+02  0.39522272838E+02  0.00000000000E+00 0. -1.
         13    1    1    2    0    0 -0.20895684122E+01  0.20249681955E+02 -0.28753924436E+02  0.35230884887E+02  0.10566000000E+00 0. -1.
        996    1    1    2    0    0  0.20895684122E+01 -0.20249681955E+02  0.89231595774E+02  0.10429138795E+03  0.50000000000E+02 0.  0.
<mgrwt>
<rscale>  0 0.53985331E+02</rscale>
<asrwt>0</asrwt>
<pdfrwt beam="1">  1       13 0.10000000E+01 0.53985331E+02</pdfrwt>
<pdfrwt beam="2">  1       22 0.39522290E+00 0.53985331E+02</pdfrwt>
<totfact> 0.12670809E-01</totfact>
</mgrwt>
</event>
<event>
 4    1  0.2416490E+000  0.5295220E+02  0.7957747E-01  0.1430039E+00
         13   -1    0    0    0    0  0.00000000000E+00  0.00000000000E+00  0.99999944179E+02  0.99999999999E+02  0.10566000000E+00 0.  1.
         22   -1    0    0    0    0 -0.00000000000E+00 -0.00000000000E+00 -0.21440790460E+02  0.21440790460E+02  0.00000000000E+00 0. -1.
         13    1    1    2    0    0 -0.59564961734E+01 -0.16384601427E+02 -0.86134038838E+01  0.19445742492E+02  0.10566000000E+00 0. -1.
        996    1    1    2    0    0  0.59564961734E+01  0.16384601427E+02  0.87172557603E+02  0.10199504797E+03  0.50000000000E+02 0.  0.
<mgrwt>
<rscale>  0 0.52952196E+02</rscale>
<asrwt>0</asrwt>
<pdfrwt beam="1">  1       13 0.10000000E+01 0.52952196E+02</pdfrwt>
<pdfrwt beam="2">  1       22 0.21440812E+00 0.52952196E+02</pdfrwt>
<totfact> 0.39798085E-01</totfact>
</mgrwt>
</event>
<event>
 4    1  0.2416490E+000  0.5249400E+02  0.7957747E-01  0.1432336E+00
         13   -1    0    0    0    0  0.00000000000E+00  0.00000000000E+00  0.99999944183E+02  0.10000000000E+03  0.10566000000E+00 0. -1.
         22   -1    0    0    0    0 -0.00000000000E+00 -0.00000000000E+00 -0.12124472202E+02  0.12124472202E+02  0.00000000000E+00 0. -1.
         13    1    1    2    0    0 -0.66720794857E+01 -0.14529400689E+02  0.12618299913E+02  0.20367935236E+02  0.10566000000E+00 0.  1.
        996    1    1    2    0    0  0.66720794857E+01  0.14529400689E+02  0.75257172067E+02  0.91756536969E+02  0.50000000000E+02 0.  0.
<mgrwt>
<rscale>  0 0.52494001E+02</rscale>
<asrwt>0</asrwt>
<pdfrwt beam="1">  1       13 0.10000000E+01 0.52494001E+02</pdfrwt>
<pdfrwt beam="2">  1       22 0.12124497E+00 0.52494001E+02</pdfrwt>
<totfact> 0.10592101E+00</totfact>
</mgrwt>
</event>
<event>
 4    1  0.2416490E+000  0.5165824E+02  0.7957747E-01  0.1436597E+00
         13   -1    0    0    0    0  0.00000000000E+00  0.00000000000E+00  0.99999944181E+02  0.10000000000E+03  0.10566000000E+00 0.  1.
         22   -1    0    0    0    0 -0.00000000000E+00 -0.00000000000E+00 -0.11647244292E+02  0.11647244292E+02  0.00000000000E+00 0.  1.
         13    1    1    2    0    0 -0.43681749832E+01  0.12226704646E+02  0.57022115403E+01  0.14180960464E+02  0.10566000000E+00 0. -1.
        996    1    1    2    0    0  0.43681749832E+01 -0.12226704646E+02  0.82650488349E+02  0.97466283829E+02  0.50000000000E+02 0.  0.
<mgrwt>
<rscale>  0 0.51658235E+02</rscale>
<asrwt>0</asrwt>
<pdfrwt beam="1">  1       13 0.10000000E+01 0.51658235E+02</pdfrwt>
<pdfrwt beam="2">  1       22 0.11647269E+00 0.51658235E+02</pdfrwt>
<totfact> 0.11240444E+00</totfact>
</mgrwt>
</event>
<event>
 4    1  0.2416490E+000  0.5189196E+02  0.7957747E-01  0.1435396E+00
         13   -1    0    0    0    0  0.00000000000E+00  0.00000000000E+00  0.99999944173E+02  0.99999999994E+02  0.10566000000E+00 0.  1.
         22   -1    0    0    0    0 -0.00000000000E+00 -0.00000000000E+00 -0.11257965719E+02  0.11257965719E+02  0.00000000000E+00 0.  1.
         13    1    1    2    0    0  0.13781121670E+02 -0.16899555993E+01  0.10658475491E+02  0.17503986067E+02  0.10566000000E+00 0. -1.
        996    1    1    2    0    0 -0.13781121670E+02  0.16899555993E+01  0.78083502963E+02  0.93753979646E+02  0.50000000000E+02 0.  0.
<mgrwt>
<rscale>  0 0.51891958E+02</rscale>
<asrwt>0</asrwt>
<pdfrwt beam="1">  1       13 0.10000000E+01 0.51891958E+02</pdfrwt>
<pdfrwt beam="2">  1       22 0.11257990E+00 0.51891958E+02</pdfrwt>
<totfact> 0.11837310E+00</totfact>
</mgrwt>
</event>
<event>
 4    1  0.2416490E+000  0.5199909E+02  0.7957747E-01  0.1434848E+00
         13   -1    0    0    0    0  0.00000000000E+00  0.00000000000E+00  0.99999944175E+02  0.99999999995E+02  0.10566000000E+00 0.  1.
         22   -1    0    0    0    0 -0.00000000000E+00 -0.00000000000E+00 -0.13459311995E+02  0.13459311995E+02  0.00000000000E+00 0. -1.
         13    1    1    2    0    0  0.32719865547E+01  0.13899638325E+02  0.23023081347E+01  0.14464357171E+02  0.10566000000E+00 0. -1.
        996    1    1    2    0    0 -0.32719865547E+01 -0.13899638325E+02  0.84238324046E+02  0.98994954819E+02  0.50000000000E+02 0.  0.
<mgrwt>
<rscale>  0 0.51999095E+02</rscale>
<asrwt>0</asrwt>
<pdfrwt beam="1">  1       13 0.10000000E+01 0.51999095E+02</pdfrwt>
<pdfrwt beam="2">  1       22 0.13459336E+00 0.51999095E+02</pdfrwt>
<totfact> 0.89841501E-01</totfact>
</mgrwt>
</event>
<event>
 4    1  0.2416490E+000  0.5253776E+02  0.7957747E-01  0.1432115E+00
         13   -1    0    0    0    0  0.00000000000E+00  0.00000000000E+00  0.99999944182E+02  0.10000000000E+03  0.10566000000E+00 0.  1.
         22   -1    0    0    0    0 -0.00000000000E+00 -0.00000000000E+00 -0.73683568948E+02  0.73683568948E+02  0.00000000000E+00 0. -1.
         13    1    1    2    0    0  0.11768224312E+02 -0.11032895800E+02 -0.65739959407E+02  0.67690245384E+02  0.10566000000E+00 0. -1.
        996    1    1    2    0    0 -0.11768224312E+02  0.11032895800E+02  0.92056334641E+02  0.10599332357E+03  0.50000000000E+02 0.  0.
<mgrwt>
<rscale>  0 0.52537757E+02</rscale>
<asrwt>0</asrwt>
<pdfrwt beam="1">  1       13 0.10000000E+01 0.52537757E+02</pdfrwt>
<pdfrwt beam="2">  1       22 0.73683576E+00 0.52537757E+02</pdfrwt>
<totfact> 0.55298666E-02</totfact>
</mgrwt>
</event>
<event>
 4    1  0.2416490E+000  0.6597765E+02  0.7957747E-01  0.1374331E+00
         13   -1    0    0    0    0  0.00000000000E+00  0.00000000000E+00  0.99999944160E+02  0.99999999980E+02  0.10566000000E+00 0. -1.
         22   -1    0    0    0    0 -0.00000000000E+00 -0.00000000000E+00 -0.68367542998E+02  0.68367542998E+02  0.00000000000E+00 0.  1.
         13    1    1    2    0    0  0.36969369633E+02 -0.22052573929E+02 -0.48315706643E+02  0.64710655849E+02  0.10566000000E+00 0.  1.
        996    1    1    2    0    0 -0.36969369633E+02  0.22052573929E+02  0.79948107804E+02  0.10365688713E+03  0.50000000000E+02 0.  0.
<mgrwt>
<rscale>  0 0.65977650E+02</rscale>
<asrwt>0</asrwt>
<pdfrwt beam="1">  1       13 0.10000000E+01 0.65977650E+02</pdfrwt>
<pdfrwt beam="2">  1       22 0.68367552E+00 0.65977650E+02</pdfrwt>
<totfact> 0.82104493E-02</totfact>
</mgrwt>
</event>
<event>
 4    1  0.2416490E+000  0.5117266E+02  0.7957747E-01  0.1439117E+00
         13   -1    0    0    0    0  0.00000000000E+00  0.00000000000E+00  0.99999944179E+02  0.99999999999E+02  0.10566000000E+00 0. -1.
         22   -1    0    0    0    0 -0.00000000000E+00 -0.00000000000E+00 -0.96542328168E+01  0.96542328168E+01  0.00000000000E+00 0. -1.
         13    1    1    2    0    0  0.35291728157E+01 -0.10304666620E+02  0.13848772389E+02  0.17619332441E+02  0.10566000000E+00 0.  1.
        996    1    1    2    0    0 -0.35291728157E+01  0.10304666620E+02  0.76496938972E+02  0.92034900375E+02  0.50000000000E+02 0.  0.
<mgrwt>
<rscale>  0 0.51172661E+02</rscale>
<asrwt>0</asrwt>
<pdfrwt beam="1">  1       13 0.10000000E+01 0.51172661E+02</pdfrwt>
<pdfrwt beam="2">  1       22 0.96542580E-01 0.51172661E+02</pdfrwt>
<totfact> 0.14801663E+00</totfact>
</mgrwt>
</event>
<event>
 4    1  0.2416490E+000  0.6021619E+02  0.7957747E-01  0.1396927E+00
         13   -1    0    0    0    0  0.00000000000E+00  0.00000000000E+00  0.99999944180E+02  0.10000000000E+03  0.10566000000E+00 0. -1.
         22   -1    0    0    0    0 -0.00000000000E+00 -0.00000000000E+00 -0.43390144899E+02  0.43390144899E+02  0.00000000000E+00 0.  1.
         13    1    1    2    0    0  0.10983576517E+02  0.31707267918E+02 -0.25088761276E+02  0.41898053635E+02  0.10566000000E+00 0.  1.
        996    1    1    2    0    0 -0.10983576517E+02 -0.31707267918E+02  0.81698560558E+02  0.10149209126E+03  0.50000000000E+02 0.  0.
<mgrwt>
<rscale>  0 0.60216192E+02</rscale>
<asrwt>0</asrwt>
<pdfrwt beam="1">  1       13 0.10000000E+01 0.60216192E+02</pdfrwt>
<pdfrwt beam="2">  1       22 0.43390161E+00 0.60216192E+02</pdfrwt>
<totfact> 0.10541635E-01</totfact>
</mgrwt>
</event>
<event>
 4    1  0.2416490E+000  0.5343255E+02  0.7957747E-01  0.1427660E+00
         13   -1    0    0    0    0  0.00000000000E+00  0.00000000000E+00  0.99999944178E+02  0.99999999999E+02  0.10566000000E+00 0. -1.
         22   -1    0    0    0    0 -0.00000000000E+00 -0.00000000000E+00 -0.13076876370E+02  0.13076876370E+02  0.00000000000E+00 0.  1.
         13    1    1    2    0    0 -0.10837337563E+02 -0.15413930309E+02  0.20867276958E+02  0.28115681473E+02  0.10566000000E+00 0.  1.
        996    1    1    2    0    0  0.10837337563E+02  0.15413930309E+02  0.66055790851E+02  0.84961194895E+02  0.50000000000E+02 0.  0.
<mgrwt>
<rscale>  0 0.53432548E+02</rscale>
<asrwt>0</asrwt>
<pdfrwt beam="1">  1       13 0.10000000E+01 0.53432548E+02</pdfrwt>
<pdfrwt beam="2">  1       22 0.13076901E+00 0.53432548E+02</pdfrwt>
<totfact> 0.94335079E-01</totfact>
</mgrwt>
</event>
<event>
 4    1  0.2416490E+000  0.5222978E+02  0.7957747E-01  0.1433673E+00
         13   -1    0    0    0    0  0.00000000000E+00  0.00000000000E+00  0.99999944181E+02  0.10000000000E+03  0.10566000000E+00 0. -1.
         22   -1    0    0    0    0 -0.00000000000E+00 -0.00000000000E+00 -0.29067486711E+02  0.29067486711E+02  0.00000000000E+00 0.  1.
         13    1    1    2    0    0 -0.13625844905E+02 -0.65027573386E+01 -0.19484222479E+02  0.24649454193E+02  0.10566000000E+00 0.  1.
        996    1    1    2    0    0  0.13625844905E+02  0.65027573386E+01  0.90416679949E+02  0.10441803252E+03  0.50000000000E+02 0.  0.
<mgrwt>
<rscale>  0 0.52229776E+02</rscale>
<asrwt>0</asrwt>
<pdfrwt beam="1">  1       13 0.10000000E+01 0.52229776E+02</pdfrwt>
<pdfrwt beam="2">  1       22 0.29067507E+00 0.52229776E+02</pdfrwt>
<totfact> 0.21981205E-01</totfact>
</mgrwt>
</event>
<event>
 4    1  0.2416490E+000  0.5141312E+02  0.7957747E-01  0.1437865E+00
         13   -1    0    0    0    0  0.00000000000E+00  0.00000000000E+00  0.99999944181E+02  0.10000000000E+03  0.10566000000E+00 0.  1.
         22   -1    0    0    0    0 -0.00000000000E+00 -0.00000000000E+00 -0.15563674687E+02  0.15563674687E+02  0.00000000000E+00 0. -1.
         13    1    1    2    0    0 -0.94797392330E+01 -0.73104915016E+01 -0.45382179125E+01  0.12802942153E+02  0.10566000000E+00 0. -1.
        996    1    1    2    0    0  0.94797392330E+01  0.73104915016E+01  0.88974487406E+02  0.10276073254E+03  0.50000000000E+02 0.  0.
<mgrwt>
<rscale>  0 0.51413118E+02</rscale>
<asrwt>0</asrwt>
<pdfrwt beam="1">  1       13 0.10000000E+01 0.51413118E+02</pdfrwt>
<pdfrwt beam="2">  1       22 0.15563698E+00 0.51413118E+02</pdfrwt>
<totfact> 0.70690396E-01</totfact>
</mgrwt>
</event>
<event>
 4    1  0.2416490E+000  0.5171165E+02  0.7957747E-01  0.1436322E+00
         13   -1    0    0    0    0  0.00000000000E+00  0.00000000000E+00  0.99999944181E+02  0.10000000000E+03  0.10566000000E+00 0.  1.
         22   -1    0    0    0    0 -0.00000000000E+00 -0.00000000000E+00 -0.24255235391E+02  0.24255235391E+02  0.00000000000E+00 0. -1.
         13    1    1    2    0    0  0.94407343227E+01 -0.92177620622E+01 -0.14896749080E+02  0.19900223596E+02  0.10566000000E+00 0. -1.
        996    1    1    2    0    0 -0.94407343227E+01  0.92177620622E+01  0.90641457870E+02  0.10435501180E+03  0.50000000000E+02 0.  0.
<mgrwt>
<rscale>  0 0.51711649E+02</rscale>
<asrwt>0</asrwt>
<pdfrwt beam="1">  1       13 0.10000000E+01 0.51711649E+02</pdfrwt>
<pdfrwt beam="2">  1       22 0.24255257E+00 0.51711649E+02</pdfrwt>
<totfact> 0.31269541E-01</totfact>
</mgrwt>
</event>
<event>
 4    1  0.2416490E+000  0.5139325E+02  0.7957747E-01  0.1437968E+00
         13   -1    0    0    0    0  0.00000000000E+00  0.00000000000E+00  0.99999944186E+02  0.10000000001E+03  0.10566000000E+00 0.  1.
         22   -1    0    0    0    0 -0.00000000000E+00 -0.00000000000E+00 -0.10037474021E+02  0.10037474021E+02  0.00000000000E+00 0.  1.
         13    1    1    2    0    0  0.72901425196E+01  0.93872175954E+01  0.14748864203E+02  0.18942180219E+02  0.10566000000E+00 0. -1.
        996    1    1    2    0    0 -0.72901425196E+01 -0.93872175954E+01  0.75213605962E+02  0.91095293808E+02  0.50000000000E+02 0.  0.
<mgrwt>
<rscale>  0 0.51393249E+02</rscale>
<asrwt>0</asrwt>
<pdfrwt beam="1">  1       13 0.10000000E+01 0.51393249E+02</pdfrwt>
<pdfrwt beam="2">  1       22 0.10037499E+00 0.51393249E+02</pdfrwt>
<totfact> 0.14001133E+00</totfact>
</mgrwt>
</event>
<event>
 4    1  0.2416490E+000  0.5253660E+02  0.7957747E-01  0.1432121E+00
         13   -1    0    0    0    0  0.00000000000E+00  0.00000000000E+00  0.99999944172E+02  0.99999999992E+02  0.10566000000E+00 0.  1.
         22   -1    0    0    0    0 -0.00000000000E+00 -0.00000000000E+00 -0.53632177823E+02  0.53632177823E+02  0.00000000000E+00 0. -1.
         13    1    1    2    0    0  0.80196145924E+01 -0.13992161329E+02 -0.45240000790E+02  0.48028779209E+02  0.10566000000E+00 0. -1.
        996    1    1    2    0    0 -0.80196145924E+01  0.13992161329E+02  0.91607767139E+02  0.10560339861E+03  0.50000000000E+02 0.  0.
<mgrwt>
<rscale>  0 0.52536604E+02</rscale>
<asrwt>0</asrwt>
<pdfrwt beam="1">  1       13 0.10000000E+01 0.52536604E+02</pdfrwt>
<pdfrwt beam="2">  1       22 0.53632191E+00 0.52536604E+02</pdfrwt>
<totfact> 0.61458950E-02</totfact>
</mgrwt>
</event>
<event>
 4    1  0.2416490E+000  0.5145962E+02  0.7957747E-01  0.1437624E+00
         13   -1    0    0    0    0  0.00000000000E+00  0.00000000000E+00  0.99999944184E+02  0.10000000000E+03  0.10566000000E+00 0. -1.
         22   -1    0    0    0    0 -0.00000000000E+00 -0.00000000000E+00 -0.15593525209E+02  0.15593525209E+02  0.00000000000E+00 0.  1.
         13    1    1    2    0    0 -0.61157640800E+01  0.10520945526E+02 -0.44117621250E+01  0.12944793322E+02  0.10566000000E+00 0.  1.
        996    1    1    2    0    0  0.61157640800E+01 -0.10520945526E+02  0.88818181100E+02  0.10264873189E+03  0.50000000000E+02 0.  0.
<mgrwt>
<rscale>  0 0.51459624E+02</rscale>
<asrwt>0</asrwt>
<pdfrwt beam="1">  1       13 0.10000000E+01 0.51459624E+02</pdfrwt>
<pdfrwt beam="2">  1       22 0.15593549E+00 0.51459624E+02</pdfrwt>
<totfact> 0.70468431E-01</totfact>
</mgrwt>
</event>
<event>
 4    1  0.2416490E+000  0.5196039E+02  0.7957747E-01  0.1435046E+00
         13   -1    0    0    0    0  0.00000000000E+00  0.00000000000E+00  0.99999944180E+02  0.10000000000E+03  0.10566000000E+00 0.  1.
         22   -1    0    0    0    0 -0.00000000000E+00 -0.00000000000E+00 -0.13873018486E+02  0.13873018486E+02  0.00000000000E+00 0. -1.
         13    1    1    2    0    0  0.27292667288E+01 -0.13872019202E+02  0.10418064702E+01  0.14176682911E+02  0.10566000000E+00 0. -1.
        996    1    1    2    0    0 -0.27292667288E+01  0.13872019202E+02  0.85085119224E+02  0.99696335574E+02  0.50000000000E+02 0.  0.
<mgrwt>
<rscale>  0 0.51960387E+02</rscale>
<asrwt>0</asrwt>
<pdfrwt beam="1">  1       13 0.10000000E+01 0.51960387E+02</pdfrwt>
<pdfrwt beam="2">  1       22 0.13873043E+00 0.51960387E+02</pdfrwt>
<totfact> 0.85572646E-01</totfact>
</mgrwt>
</event>
<event>
 4    1  0.2416490E+000  0.5666418E+02  0.7957747E-01  0.1412389E+00
         13   -1    0    0    0    0  0.00000000000E+00  0.00000000000E+00  0.99999944170E+02  0.99999999991E+02  0.10566000000E+00 0. -1.
         22   -1    0    0    0    0 -0.00000000000E+00 -0.00000000000E+00 -0.17460179864E+02  0.17460179864E+02  0.00000000000E+00 0.  1.
         13    1    1    2    0    0 -0.80665747632E+01  0.25411802039E+02  0.22302528927E+02  0.34759793898E+02  0.10566000000E+00 0.  1.
        996    1    1    2    0    0  0.80665747632E+01 -0.25411802039E+02  0.60237235379E+02  0.82700385957E+02  0.50000000000E+02 0.  0.
<mgrwt>
<rscale>  0 0.56664180E+02</rscale>
<asrwt>0</asrwt>
<pdfrwt beam="1">  1       13 0.10000000E+01 0.56664180E+02</pdfrwt>
<pdfrwt beam="2">  1       22 0.17460203E+00 0.56664180E+02</pdfrwt>
<totfact> 0.58500257E-01</totfact>
</mgrwt>
</event>
<event>
 4    1  0.2416490E+000  0.5124830E+02  0.7957747E-01  0.1438723E+00
         13   -1    0    0    0    0  0.00000000000E+00  0.00000000000E+00  0.99999944183E+02  0.10000000000E+03  0.10566000000E+00 0.  1.
         22   -1    0    0    0    0 -0.00000000000E+00 -0.00000000000E+00 -0.11988576318E+02  0.11988576318E+02  0.00000000000E+00 0. -1.
         13    1    1    2    0    0 -0.17267106431E+01  0.11108846264E+02  0.13709444256E+01  0.11326016405E+02  0.10566000000E+00 0. -1.
        996    1    1    2    0    0  0.17267106431E+01 -0.11108846264E+02  0.86640423440E+02  0.10066255992E+03  0.50000000000E+02 0.  0.
<mgrwt>
<rscale>  0 0.51248297E+02</rscale>
<asrwt>0</asrwt>
<pdfrwt beam="1">  1       13 0.10000000E+01 0.51248297E+02</pdfrwt>
<pdfrwt beam="2">  1       22 0.11988601E+00 0.51248297E+02</pdfrwt>
<totfact> 0.10746873E+00</totfact>
</mgrwt>
</event>
<event>
 4    1  0.2416490E+000  0.5448499E+02  0.7957747E-01  0.1422550E+00
         13   -1    0    0    0    0  0.00000000000E+00  0.00000000000E+00  0.99999944182E+02  0.10000000000E+03  0.10566000000E+00 0.  1.
         22   -1    0    0    0    0 -0.00000000000E+00 -0.00000000000E+00 -0.14984977829E+02  0.14984977829E+02  0.00000000000E+00 0.  1.
         13    1    1    2    0    0 -0.20889467006E+02  0.56784452947E+01  0.34236504598E+02  0.40506344983E+02  0.10566000000E+00 0. -1.
        996    1    1    2    0    0  0.20889467006E+02 -0.56784452947E+01  0.50778461755E+02  0.74478632849E+02  0.50000000000E+02 0.  0.
<mgrwt>
<rscale>  0 0.54484994E+02</rscale>
<asrwt>0</asrwt>
<pdfrwt beam="1">  1       13 0.10000000E+01 0.54484994E+02</pdfrwt>
<pdfrwt beam="2">  1       22 0.14985002E+00 0.54484994E+02</pdfrwt>
<totfact> 0.75792598E-01</totfact>
</mgrwt>
</event>
<event>
 4    1  0.2416490E+000  0.5369583E+02  0.7957747E-01  0.1426369E+00
         13   -1    0    0    0    0  0.00000000000E+00  0.00000000000E+00  0.99999944172E+02  0.99999999992E+02  0.10566000000E+00 0. -1.
         22   -1    0    0    0    0 -0.00000000000E+00 -0.00000000000E+00 -0.15497337397E+02  0.15497337397E+02  0.00000000000E+00 0. -1.
         13    1    1    2    0    0 -0.18702581828E+02 -0.57841052844E+01  0.61671056784E+01  0.20525272165E+02  0.10566000000E+00 0.  1.
        996    1    1    2    0    0  0.18702581828E+02  0.57841052844E+01  0.78335501097E+02  0.94972065224E+02  0.50000000000E+02 0.  0.
<mgrwt>
<rscale>  0 0.53695833E+02</rscale>
<asrwt>0</asrwt>
<pdfrwt beam="1">  1       13 0.10000000E+01 0.53695833E+02</pdfrwt>
<pdfrwt beam="2">  1       22 0.15497361E+00 0.53695833E+02</pdfrwt>
<totfact> 0.71526787E-01</totfact>
</mgrwt>
</event>
<event>
 4    1  0.2416490E+000  0.5268706E+02  0.7957747E-01  0.1431365E+00
         13   -1    0    0    0    0  0.00000000000E+00  0.00000000000E+00  0.99999944170E+02  0.99999999990E+02  0.10566000000E+00 0.  1.
         22   -1    0    0    0    0 -0.00000000000E+00 -0.00000000000E+00 -0.34906766227E+02  0.34906766227E+02  0.00000000000E+00 0. -1.
         13    1    1    2    0    0  0.13378302438E+02  0.98461633341E+01 -0.25308011915E+02  0.30272636813E+02  0.10566000000E+00 0. -1.
        996    1    1    2    0    0 -0.13378302438E+02 -0.98461633341E+01  0.90401189857E+02  0.10463412940E+03  0.50000000000E+02 0.  0.
<mgrwt>
<rscale>  0 0.52687056E+02</rscale>
<asrwt>0</asrwt>
<pdfrwt beam="1">  1       13 0.10000000E+01 0.52687056E+02</pdfrwt>
<pdfrwt beam="2">  1       22 0.34906784E+00 0.52687056E+02</pdfrwt>
<totfact> 0.15798801E-01</totfact>
</mgrwt>
</event>
<event>
 4    1  0.2416490E+000  0.5282605E+02  0.7957747E-01  0.1430669E+00
         13   -1    0    0    0    0  0.00000000000E+00  0.00000000000E+00  0.99999944182E+02  0.10000000000E+03  0.10566000000E+00 0.  1.
         22   -1    0    0    0    0 -0.00000000000E+00 -0.00000000000E+00 -0.14674327668E+02  0.14674327668E+02  0.00000000000E+00 0.  1.
         13    1    1    2    0    0  0.15920847567E+02  0.60924698839E+01  0.36966730316E+01  0.17443283294E+02  0.10566000000E+00 0. -1.
        996    1    1    2    0    0 -0.15920847567E+02 -0.60924698839E+01  0.81628943482E+02  0.97231044376E+02  0.50000000000E+02 0.  0.
<mgrwt>
<rscale>  0 0.52826050E+02</rscale>
<asrwt>0</asrwt>
<pdfrwt beam="1">  1       13 0.10000000E+01 0.52826050E+02</pdfrwt>
<pdfrwt beam="2">  1       22 0.14674351E+00 0.52826050E+02</pdfrwt>
<totfact> 0.78214859E-01</totfact>
</mgrwt>
</event>
<event>
 4    1  0.2416490E+000  0.6259001E+02  0.7957747E-01  0.1387273E+00
         13   -1    0    0    0    0  0.00000000000E+00  0.00000000000E+00  0.99999944195E+02  0.10000000002E+03  0.10566000000E+00 0. -1.
         22   -1    0    0    0    0 -0.00000000000E+00 -0.00000000000E+00 -0.71750419914E+02  0.71750419914E+02  0.00000000000E+00 0.  1.
         13    1    1    2    0    0 -0.36260733528E+02 -0.10132518774E+02 -0.55580564620E+02  0.67132101562E+02  0.10566000000E+00 0.  1.
        996    1    1    2    0    0  0.36260733528E+02  0.10132518774E+02  0.83830088901E+02  0.10461831837E+03  0.50000000000E+02 0.  0.
<mgrwt>
<rscale>  0 0.62590005E+02</rscale>
<asrwt>0</asrwt>
<pdfrwt beam="1">  1       13 0.10000000E+01 0.62590005E+02</pdfrwt>
<pdfrwt beam="2">  1       22 0.71750428E+00 0.62590005E+02</pdfrwt>
<totfact> 0.65376888E-02</totfact>
</mgrwt>
</event>
<event>
 4    1  0.2416490E+000  0.5620919E+02  0.7957747E-01  0.1414466E+00
         13   -1    0    0    0    0  0.00000000000E+00  0.00000000000E+00  0.99999944182E+02  0.10000000000E+03  0.10566000000E+00 0.  1.
         22   -1    0    0    0    0 -0.00000000000E+00 -0.00000000000E+00 -0.22704734448E+02  0.22704734448E+02  0.00000000000E+00 0. -1.
         13    1    1    2    0    0 -0.11617747493E+02 -0.22901993297E+02 -0.17181130719E+01  0.25737840437E+02  0.10566000000E+00 0. -1.
        996    1    1    2    0    0  0.11617747493E+02  0.22901993297E+02  0.79013322806E+02  0.96966894013E+02  0.50000000000E+02 0.  0.
<mgrwt>
<rscale>  0 0.56209193E+02</rscale>
<asrwt>0</asrwt>
<pdfrwt beam="1">  1       13 0.10000000E+01 0.56209193E+02</pdfrwt>
<pdfrwt beam="2">  1       22 0.22704756E+00 0.56209193E+02</pdfrwt>
<totfact> 0.35828826E-01</totfact>
</mgrwt>
</event>
<event>
 4    1  0.2416490E+000  0.5411723E+02  0.7957747E-01  0.1424320E+00
         13   -1    0    0    0    0  0.00000000000E+00  0.00000000000E+00  0.99999944176E+02  0.99999999997E+02  0.10566000000E+00 0.  1.
         22   -1    0    0    0    0 -0.00000000000E+00 -0.00000000000E+00 -0.14085119770E+02  0.14085119770E+02  0.00000000000E+00 0.  1.
         13    1    1    2    0    0  0.17264160556E+02  0.11429050198E+02  0.19828120234E+02  0.28667750944E+02  0.10566000000E+00 0. -1.
        996    1    1    2    0    0 -0.17264160556E+02 -0.11429050198E+02  0.66086704172E+02  0.85417368822E+02  0.50000000000E+02 0.  0.
<mgrwt>
<rscale>  0 0.54117229E+02</rscale>
<asrwt>0</asrwt>
<pdfrwt beam="1">  1       13 0.10000000E+01 0.54117229E+02</pdfrwt>
<pdfrwt beam="2">  1       22 0.14085144E+00 0.54117229E+02</pdfrwt>
<totfact> 0.83865839E-01</totfact>
</mgrwt>
</event>
<event>
 4    1  0.2416490E+000  0.6105976E+02  0.7957747E-01  0.1393437E+00
         13   -1    0    0    0    0  0.00000000000E+00  0.00000000000E+00  0.99999944171E+02  0.99999999991E+02  0.10566000000E+00 0. -1.
         22   -1    0    0    0    0 -0.00000000000E+00 -0.00000000000E+00 -0.29715714106E+02  0.29715714106E+02  0.00000000000E+00 0.  1.
         13    1    1    2    0    0  0.21698977233E+02 -0.27521794509E+02 -0.19873212124E+01  0.35103495489E+02  0.10566000000E+00 0.  1.
        996    1    1    2    0    0 -0.21698977233E+02  0.27521794509E+02  0.72271551277E+02  0.94612218608E+02  0.50000000000E+02 0.  0.
<mgrwt>
<rscale>  0 0.61059764E+02</rscale>
<asrwt>0</asrwt>
<pdfrwt beam="1">  1       13 0.10000000E+01 0.61059764E+02</pdfrwt>
<pdfrwt beam="2">  1       22 0.29715734E+00 0.61059764E+02</pdfrwt>
<totfact> 0.21311024E-01</totfact>
</mgrwt>
</event>
<event>
 4    1  0.2416490E+000  0.5190753E+02  0.7957747E-01  0.1435316E+00
         13   -1    0    0    0    0  0.00000000000E+00  0.00000000000E+00  0.99999944180E+02  0.10000000000E+03  0.10566000000E+00 0.  1.
         22   -1    0    0    0    0 -0.00000000000E+00 -0.00000000000E+00 -0.17806540453E+02  0.17806540453E+02  0.00000000000E+00 0. -1.
         13    1    1    2    0    0  0.12896865110E+02 -0.52973929297E+01 -0.62314042192E+01  0.15271969883E+02  0.10566000000E+00 0. -1.
        996    1    1    2    0    0 -0.12896865110E+02  0.52973929297E+01  0.88424807946E+02  0.10253457057E+03  0.50000000000E+02 0.  0.
<mgrwt>
<rscale>  0 0.51907528E+02</rscale>
<asrwt>0</asrwt>
<pdfrwt beam="1">  1       13 0.10000000E+01 0.51907528E+02</pdfrwt>
<pdfrwt beam="2">  1       22 0.17806563E+00 0.51907528E+02</pdfrwt>
<totfact> 0.56002993E-01</totfact>
</mgrwt>
</event>
<event>
 4    1  0.2416490E+000  0.5483136E+02  0.7957747E-01  0.1420898E+00
         13   -1    0    0    0    0  0.00000000000E+00  0.00000000000E+00  0.99999944178E+02  0.99999999998E+02  0.10566000000E+00 0.  1.
         22   -1    0    0    0    0 -0.00000000000E+00 -0.00000000000E+00 -0.50840709921E+02  0.50840709921E+02  0.00000000000E+00 0. -1.
         13    1    1    2    0    0  0.20880205308E+02  0.83961311670E+01 -0.40158949622E+02  0.46035099555E+02  0.10566000000E+00 0. -1.
        996    1    1    2    0    0 -0.20880205308E+02 -0.83961311670E+01  0.89318183879E+02  0.10480561036E+03  0.50000000000E+02 0.  0.
<mgrwt>
<rscale>  0 0.54831360E+02</rscale>
<asrwt>0</asrwt>
<pdfrwt beam="1">  1       13 0.10000000E+01 0.54831360E+02</pdfrwt>
<pdfrwt beam="2">  1       22 0.50840724E+00 0.54831360E+02</pdfrwt>
<totfact> 0.70427762E-02</totfact>
</mgrwt>
</event>
<event>
 4    1  0.2416490E+000  0.5151680E+02  0.7957747E-01  0.1437328E+00
         13   -1    0    0    0    0  0.00000000000E+00  0.00000000000E+00  0.99999944178E+02  0.99999999998E+02  0.10566000000E+00 0. -1.
         22   -1    0    0    0    0 -0.00000000000E+00 -0.00000000000E+00 -0.18834171499E+02  0.18834171499E+02  0.00000000000E+00 0. -1.
         13    1    1    2    0    0 -0.11692369741E+02 -0.41556678560E+01 -0.87651140370E+01  0.15192744110E+02  0.10566000000E+00 0.  1.
        996    1    1    2    0    0  0.11692369741E+02  0.41556678560E+01  0.89930886716E+02  0.10364142739E+03  0.50000000000E+02 0.  0.
<mgrwt>
<rscale>  0 0.51516804E+02</rscale>
<asrwt>0</asrwt>
<pdfrwt beam="1">  1       13 0.10000000E+01 0.51516804E+02</pdfrwt>
<pdfrwt beam="2">  1       22 0.18834194E+00 0.51516804E+02</pdfrwt>
<totfact> 0.50572487E-01</totfact>
</mgrwt>
</event>
<event>
 4    1  0.2416490E+000  0.5127302E+02  0.7957747E-01  0.1438594E+00
         13   -1    0    0    0    0  0.00000000000E+00  0.00000000000E+00  0.99999944177E+02  0.99999999997E+02  0.10566000000E+00 0. -1.
         22   -1    0    0    0    0 -0.00000000000E+00 -0.00000000000E+00 -0.66312092451E+02  0.66312092451E+02  0.00000000000E+00 0.  1.
         13    1    1    2    0    0  0.29105950038E+01  0.10975033214E+02 -0.59164247970E+02  0.60244023100E+02  0.10566000000E+00 0.  1.
        996    1    1    2    0    0 -0.29105950038E+01 -0.10975033214E+02  0.92852099696E+02  0.10606806935E+03  0.50000000000E+02 0.  0.
<mgrwt>
<rscale>  0 0.51273023E+02</rscale>
<asrwt>0</asrwt>
<pdfrwt beam="1">  1       13 0.10000000E+01 0.51273023E+02</pdfrwt>
<pdfrwt beam="2">  1       22 0.66312102E+00 0.51273023E+02</pdfrwt>
<totfact> 0.87150255E-02</totfact>
</mgrwt>
</event>
<event>
 4    1  0.2416490E+000  0.5099832E+02  0.7957747E-01  0.1440030E+00
         13   -1    0    0    0    0  0.00000000000E+00  0.00000000000E+00  0.99999944176E+02  0.99999999996E+02  0.10566000000E+00 0. -1.
         22   -1    0    0    0    0 -0.00000000000E+00 -0.00000000000E+00 -0.35433332086E+02  0.35433332086E+02  0.00000000000E+00 0.  1.
         13    1    1    2    0    0  0.10031772067E+02  0.43797901394E+00 -0.28000919519E+02  0.29747116404E+02  0.10566000000E+00 0.  1.
        996    1    1    2    0    0 -0.10031772067E+02 -0.43797901394E+00  0.92567531608E+02  0.10568621568E+03  0.50000000000E+02 0.  0.
<mgrwt>
<rscale>  0 0.50998316E+02</rscale>
<asrwt>0</asrwt>
<pdfrwt beam="1">  1       13 0.10000000E+01 0.50998316E+02</pdfrwt>
<pdfrwt beam="2">  1       22 0.35433350E+00 0.50998316E+02</pdfrwt>
<totfact> 0.15365097E-01</totfact>
</mgrwt>
</event>
<event>
 4    1  0.2416490E+000  0.6850267E+02  0.7957747E-01  0.1365260E+00
         13   -1    0    0    0    0  0.00000000000E+00  0.00000000000E+00  0.99999944178E+02  0.99999999998E+02  0.10566000000E+00 0. -1.
         22   -1    0    0    0    0 -0.00000000000E+00 -0.00000000000E+00 -0.37087800319E+02  0.37087800319E+02  0.00000000000E+00 0.  1.
         13    1    1    2    0    0  0.44140188713E+02  0.15628787044E+02  0.44619605019E+01  0.47037596661E+02  0.10566000000E+00 0.  1.
        996    1    1    2    0    0 -0.44140188713E+02 -0.15628787044E+02  0.58450183357E+02  0.90050203656E+02  0.50000000000E+02 0.  0.
<mgrwt>
<rscale>  0 0.68502666E+02</rscale>
<asrwt>0</asrwt>
<pdfrwt beam="1">  1       13 0.10000000E+01 0.68502666E+02</pdfrwt>
<pdfrwt beam="2">  1       22 0.37087818E+00 0.68502666E+02</pdfrwt>
<totfact> 0.14385722E-01</totfact>
</mgrwt>
</event>
<event>
 4    1  0.2416490E+000  0.5130202E+02  0.7957747E-01  0.1438443E+00
         13   -1    0    0    0    0  0.00000000000E+00  0.00000000000E+00  0.99999944175E+02  0.99999999995E+02  0.10566000000E+00 0.  1.
         22   -1    0    0    0    0 -0.00000000000E+00 -0.00000000000E+00 -0.20021410853E+02  0.20021410853E+02  0.00000000000E+00 0. -1.
         13    1    1    2    0    0  0.11246727221E+02  0.23256628444E+01 -0.10789733795E+02  0.15758397769E+02  0.10566000000E+00 0. -1.
        996    1    1    2    0    0 -0.11246727221E+02 -0.23256628444E+01  0.90768267117E+02  0.10426301308E+03  0.50000000000E+02 0.  0.
<mgrwt>
<rscale>  0 0.51302023E+02</rscale>
<asrwt>0</asrwt>
<pdfrwt beam="1">  1       13 0.10000000E+01 0.51302023E+02</pdfrwt>
<pdfrwt beam="2">  1       22 0.20021433E+00 0.51302023E+02</pdfrwt>
<totfact> 0.45160515E-01</totfact>
</mgrwt>
</event>
<event>
 4    1  0.2416490E+000  0.6483318E+02  0.7957747E-01  0.1378600E+00
         13   -1    0    0    0    0  0.00000000000E+00  0.00000000000E+00  0.99999944169E+02  0.99999999989E+02  0.10566000000E+00 0.  1.
         22   -1    0    0    0    0 -0.00000000000E+00 -0.00000000000E+00 -0.28558451750E+02  0.28558451750E+02  0.00000000000E+00 0. -1.
         13    1    1    2    0    0 -0.31946786458E+02  0.26129376505E+02  0.35441859019E+02  0.54401084698E+02  0.10566000000E+00 0. -1.
        996    1    1    2    0    0  0.31946786458E+02 -0.26129376505E+02  0.35999633401E+02  0.74157367041E+02  0.50000000000E+02 0.  0.
<mgrwt>
<rscale>  0 0.64833182E+02</rscale>
<asrwt>0</asrwt>
<pdfrwt beam="1">  1       13 0.10000000E+01 0.64833182E+02</pdfrwt>
<pdfrwt beam="2">  1       22 0.28558472E+00 0.64833182E+02</pdfrwt>
<totfact> 0.23092885E-01</totfact>
</mgrwt>
</event>
<event>
 4    1  0.2416490E+000  0.5248161E+02  0.7957747E-01  0.1432398E+00
         13   -1    0    0    0    0  0.00000000000E+00  0.00000000000E+00  0.99999944171E+02  0.99999999991E+02  0.10566000000E+00 0. -1.
         22   -1    0    0    0    0 -0.00000000000E+00 -0.00000000000E+00 -0.25495790576E+02  0.25495790576E+02  0.00000000000E+00 0.  1.
         13    1    1    2    0    0  0.11753680700E+01 -0.15904025262E+02 -0.14900508474E+02  0.21825577346E+02  0.10566000000E+00 0.  1.
        996    1    1    2    0    0 -0.11753680700E+01  0.15904025262E+02  0.89404662069E+02  0.10367021322E+03  0.50000000000E+02 0.  0.
<mgrwt>
<rscale>  0 0.52481611E+02</rscale>
<asrwt>0</asrwt>
<pdfrwt beam="1">  1       13 0.10000000E+01 0.52481611E+02</pdfrwt>
<pdfrwt beam="2">  1       22 0.25495811E+00 0.52481611E+02</pdfrwt>
<totfact> 0.28382918E-01</totfact>
</mgrwt>
</event>
<event>
 4    1  0.2416490E+000  0.5128074E+02  0.7957747E-01  0.1438554E+00
         13   -1    0    0    0    0  0.00000000000E+00  0.00000000000E+00  0.99999944174E+02  0.99999999994E+02  0.10566000000E+00 0.  1.
         22   -1    0    0    0    0 -0.00000000000E+00 -0.00000000000E+00 -0.43203101908E+02  0.43203101908E+02  0.00000000000E+00 0. -1.
         13    1    1    2    0    0  0.11096742802E+02 -0.25645463378E+01 -0.35683185501E+02  0.37456848376E+02  0.10566000000E+00 0. -1.
        996    1    1    2    0    0 -0.11096742802E+02  0.25645463378E+01  0.92480027768E+02  0.10574625353E+03  0.50000000000E+02 0.  0.
<mgrwt>
<rscale>  0 0.51280743E+02</rscale>
<asrwt>0</asrwt>
<pdfrwt beam="1">  1       13 0.10000000E+01 0.51280743E+02</pdfrwt>
<pdfrwt beam="2">  1       22 0.43203118E+00 0.51280743E+02</pdfrwt>
<totfact> 0.10583256E-01</totfact>
</mgrwt>
</event>
<event>
 4    1  0.2416490E+000  0.5322834E+02  0.7957747E-01  0.1428668E+00
         13   -1    0    0    0    0  0.00000000000E+00  0.00000000000E+00  0.99999944187E+02  0.10000000001E+03  0.10566000000E+00 0. -1.
         22   -1    0    0    0    0 -0.00000000000E+00 -0.00000000000E+00 -0.48702288952E+02  0.48702288952E+02  0.00000000000E+00 0.  1.
         13    1    1    2    0    0  0.18250831650E+02  0.40415553346E+00 -0.39465069318E+02  0.43482859358E+02  0.10566000000E+00 0.  1.
        996    1    1    2    0    0 -0.18250831650E+02 -0.40415553346E+00  0.90762724552E+02  0.10521942960E+03  0.50000000000E+02 0.  0.
<mgrwt>
<rscale>  0 0.53228340E+02</rscale>
<asrwt>0</asrwt>
<pdfrwt beam="1">  1       13 0.10000000E+01 0.53228340E+02</pdfrwt>
<pdfrwt beam="2">  1       22 0.48702303E+00 0.53228340E+02</pdfrwt>
<totfact> 0.79168383E-02</totfact>
</mgrwt>
</event>
<event>
 4    1  0.2416490E+000  0.5438801E+02  0.7957747E-01  0.1423015E+00
         13   -1    0    0    0    0  0.00000000000E+00  0.00000000000E+00  0.99999944178E+02  0.99999999999E+02  0.10566000000E+00 0.  1.
         22   -1    0    0    0    0 -0.00000000000E+00 -0.00000000000E+00 -0.15412182604E+02  0.15412182604E+02  0.00000000000E+00 0.  1.
         13    1    1    2    0    0 -0.12310298279E+02 -0.17507482954E+02  0.11463303743E+02  0.24279083587E+02  0.10566000000E+00 0. -1.
        996    1    1    2    0    0  0.12310298279E+02  0.17507482954E+02  0.73124457831E+02  0.91133099016E+02  0.50000000000E+02 0.  0.
<mgrwt>
<rscale>  0 0.54388008E+02</rscale>
<asrwt>0</asrwt>
<pdfrwt beam="1">  1       13 0.10000000E+01 0.54388008E+02</pdfrwt>
<pdfrwt beam="2">  1       22 0.15412206E+00 0.54388008E+02</pdfrwt>
<totfact> 0.72291460E-01</totfact>
</mgrwt>
</event>
<event>
 4    1  0.2416490E+000  0.5769623E+02  0.7957747E-01  0.1407762E+00
         13   -1    0    0    0    0  0.00000000000E+00  0.00000000000E+00  0.99999944182E+02  0.10000000000E+03  0.10566000000E+00 0.  1.
         22   -1    0    0    0    0 -0.00000000000E+00 -0.00000000000E+00 -0.22613732934E+02  0.22613732934E+02  0.00000000000E+00 0. -1.
         13    1    1    2    0    0  0.35741807748E+01  0.28567114938E+02  0.37000108518E+01  0.29026816368E+02  0.10566000000E+00 0. -1.
        996    1    1    2    0    0 -0.35741807748E+01 -0.28567114938E+02  0.73686200396E+02  0.93586916569E+02  0.50000000000E+02 0.  0.
<mgrwt>
<rscale>  0 0.57696229E+02</rscale>
<asrwt>0</asrwt>
<pdfrwt beam="1">  1       13 0.10000000E+01 0.57696229E+02</pdfrwt>
<pdfrwt beam="2">  1       22 0.22613755E+00 0.57696229E+02</pdfrwt>
<totfact> 0.36191022E-01</totfact>
</mgrwt>
</event>
<event>
 4    1  0.2416490E+000  0.5456741E+02  0.7957747E-01  0.1422156E+00
         13   -1    0    0    0    0  0.00000000000E+00  0.00000000000E+00  0.99999944180E+02  0.10000000000E+03  0.10566000000E+00 0. -1.
         22   -1    0    0    0    0 -0.00000000000E+00 -0.00000000000E+00 -0.14671286202E+02  0.14671286202E+02  0.00000000000E+00 0. -1.
         13    1    1    2    0    0 -0.69020905351E+01 -0.20735550128E+02  0.20893037066E+02  0.30234616828E+02  0.10566000000E+00 0.  1.
        996    1    1    2    0    0  0.69020905351E+01  0.20735550128E+02  0.64435620911E+02  0.84436669374E+02  0.50000000000E+02 0.  0.
<mgrwt>
<rscale>  0 0.54567407E+02</rscale>
<asrwt>0</asrwt>
<pdfrwt beam="1">  1       13 0.10000000E+01 0.54567407E+02</pdfrwt>
<pdfrwt beam="2">  1       22 0.14671310E+00 0.54567407E+02</pdfrwt>
<totfact> 0.78513441E-01</totfact>
</mgrwt>
</event>
<event>
 4    1  0.2416490E+000  0.5575710E+02  0.7957747E-01  0.1416552E+00
         13   -1    0    0    0    0  0.00000000000E+00  0.00000000000E+00  0.99999944176E+02  0.99999999996E+02  0.10566000000E+00 0. -1.
         22   -1    0    0    0    0 -0.00000000000E+00 -0.00000000000E+00 -0.32613582936E+02  0.32613582936E+02  0.00000000000E+00 0.  1.
         13    1    1    2    0    0 -0.18327228195E+02 -0.16521695280E+02 -0.18064384600E+02  0.30580825091E+02  0.10566000000E+00 0.  1.
        996    1    1    2    0    0  0.18327228195E+02  0.16521695280E+02  0.85450745840E+02  0.10203275784E+03  0.50000000000E+02 0.  0.
<mgrwt>
<rscale>  0 0.55757096E+02</rscale>
<asrwt>0</asrwt>
<pdfrwt beam="1">  1       13 0.10000000E+01 0.55757096E+02</pdfrwt>
<pdfrwt beam="2">  1       22 0.32613602E+00 0.55757096E+02</pdfrwt>
<totfact> 0.17861230E-01</totfact>
</mgrwt>
</event>
<event>
 4    1  0.2416490E+000  0.5643327E+02  0.7957747E-01  0.1413440E+00
         13   -1    0    0    0    0  0.00000000000E+00  0.00000000000E+00  0.99999944181E+02  0.10000000000E+03  0.10566000000E+00 0.  1.
         22   -1    0    0    0    0 -0.00000000000E+00 -0.00000000000E+00 -0.18128473071E+02  0.18128473071E+02  0.00000000000E+00 0. -1.
         13    1    1    2    0    0 -0.22954398018E+02  0.12562234216E+02  0.13401588401E+02  0.29399453270E+02  0.10566000000E+00 0. -1.
        996    1    1    2    0    0  0.22954398018E+02 -0.12562234216E+02  0.68469882708E+02  0.88729019802E+02  0.50000000000E+02 0.  0.
<mgrwt>
<rscale>  0 0.56433271E+02</rscale>
<asrwt>0</asrwt>
<pdfrwt beam="1">  1       13 0.10000000E+01 0.56433271E+02</pdfrwt>
<pdfrwt beam="2">  1       22 0.18128496E+00 0.56433271E+02</pdfrwt>
<totfact> 0.54677952E-01</totfact>
</mgrwt>
</event>
<event>
 4    1  0.2416490E+000  0.5471431E+02  0.7957747E-01  0.1421455E+00
         13   -1    0    0    0    0  0.00000000000E+00  0.00000000000E+00  0.99999944173E+02  0.99999999994E+02  0.10566000000E+00 0.  1.
         22   -1    0    0    0    0 -0.00000000000E+00 -0.00000000000E+00 -0.87364406137E+02  0.87364406137E+02  0.00000000000E+00 0. -1.
         13    1    1    2    0    0  0.14548097805E+02 -0.16793112604E+02 -0.78215370975E+02  0.81309969877E+02  0.10566000000E+00 0. -1.
        996    1    1    2    0    0 -0.14548097805E+02  0.16793112604E+02  0.90850909012E+02  0.10605443625E+03  0.50000000000E+02 0.  0.
<mgrwt>
<rscale>  0 0.54714311E+02</rscale>
<asrwt>0</asrwt>
<pdfrwt beam="1">  1       13 0.10000000E+01 0.54714311E+02</pdfrwt>
<pdfrwt beam="2">  1       22 0.87364410E+00 0.54714311E+02</pdfrwt>
<totfact> 0.14589607E-02</totfact>
</mgrwt>
</event>
<event>
 4    1  0.2416490E+000  0.5128376E+02  0.7957747E-01  0.1438538E+00
         13   -1    0    0    0    0  0.00000000000E+00  0.00000000000E+00  0.99999944180E+02  0.10000000000E+03  0.10566000000E+00 0.  1.
         22   -1    0    0    0    0 -0.00000000000E+00 -0.00000000000E+00 -0.10261293034E+02  0.10261293034E+02  0.00000000000E+00 0.  1.
         13    1    1    2    0    0  0.11401554969E+02 -0.17042912936E+00  0.86347320325E+01  0.14303645098E+02  0.10566000000E+00 0. -1.
        996    1    1    2    0    0 -0.11401554969E+02  0.17042912936E+00  0.81103919113E+02  0.95957647935E+02  0.50000000000E+02 0.  0.
<mgrwt>
<rscale>  0 0.51283765E+02</rscale>
<asrwt>0</asrwt>
<pdfrwt beam="1">  1       13 0.10000000E+01 0.51283765E+02</pdfrwt>
<pdfrwt beam="2">  1       22 0.10261318E+00 0.51283765E+02</pdfrwt>
<totfact> 0.13555764E+00</totfact>
</mgrwt>
</event>
<event>
 4    1  0.2416490E+000  0.5193037E+02  0.7957747E-01  0.1435199E+00
         13   -1    0    0    0    0  0.00000000000E+00  0.00000000000E+00  0.99999944170E+02  0.99999999990E+02  0.10566000000E+00 0. -1.
         22   -1    0    0    0    0 -0.00000000000E+00 -0.00000000000E+00 -0.11741203101E+02  0.11741203101E+02  0.00000000000E+00 0. -1.
         13    1    1    2    0    0 -0.94647482744E+01  0.10352876262E+02  0.33273665950E+02  0.36109714989E+02  0.10566000000E+00 0.  1.
        996    1    1    2    0    0  0.94647482744E+01 -0.10352876262E+02  0.54985075119E+02  0.75631488103E+02  0.50000000000E+02 0.  0.
<mgrwt>
<rscale>  0 0.51930372E+02</rscale>
<asrwt>0</asrwt>
<pdfrwt beam="1">  1       13 0.10000000E+01 0.51930372E+02</pdfrwt>
<pdfrwt beam="2">  1       22 0.11741228E+00 0.51930372E+02</pdfrwt>
<totfact> 0.11111170E+00</totfact>
</mgrwt>
</event>
<event>
 4    1  0.2416490E+000  0.5258268E+02  0.7957747E-01  0.1431889E+00
         13   -1    0    0    0    0  0.00000000000E+00  0.00000000000E+00  0.99999944172E+02  0.99999999992E+02  0.10566000000E+00 0. -1.
         22   -1    0    0    0    0 -0.00000000000E+00 -0.00000000000E+00 -0.25127684994E+02  0.25127684994E+02  0.00000000000E+00 0.  1.
         13    1    1    2    0    0  0.14352512745E+02 -0.76774778033E+01 -0.14260531997E+02  0.21640522738E+02  0.10566000000E+00 0.  1.
        996    1    1    2    0    0 -0.14352512745E+02  0.76774778033E+01  0.89132791175E+02  0.10348716225E+03  0.50000000000E+02 0.  0.
<mgrwt>
<rscale>  0 0.52582680E+02</rscale>
<asrwt>0</asrwt>
<pdfrwt beam="1">  1       13 0.10000000E+01 0.52582680E+02</pdfrwt>
<pdfrwt beam="2">  1       22 0.25127706E+00 0.52582680E+02</pdfrwt>
<totfact> 0.29211782E-01</totfact>
</mgrwt>
</event>
<event>
 4    1  0.2416490E+000  0.5666155E+02  0.7957747E-01  0.1412401E+00
         13   -1    0    0    0    0  0.00000000000E+00  0.00000000000E+00  0.99999944175E+02  0.99999999995E+02  0.10566000000E+00 0. -1.
         22   -1    0    0    0    0 -0.00000000000E+00 -0.00000000000E+00 -0.27902279318E+02  0.27902279318E+02  0.00000000000E+00 0.  1.
         13    1    1    2    0    0  0.19412566261E+02  0.18267004389E+02 -0.97262038436E+01  0.28375013365E+02  0.10566000000E+00 0.  1.
        996    1    1    2    0    0 -0.19412566261E+02 -0.18267004389E+02  0.81823868700E+02  0.99527265949E+02  0.50000000000E+02 0.  0.
<mgrwt>
<rscale>  0 0.56661549E+02</rscale>
<asrwt>0</asrwt>
<pdfrwt beam="1">  1       13 0.10000000E+01 0.56661549E+02</pdfrwt>
<pdfrwt beam="2">  1       22 0.27902299E+00 0.56661549E+02</pdfrwt>
<totfact> 0.23922945E-01</totfact>
</mgrwt>
</event>
<event>
 4    1  0.2416490E+000  0.5780757E+02  0.7957747E-01  0.1407270E+00
         13   -1    0    0    0    0  0.00000000000E+00  0.00000000000E+00  0.99999944174E+02  0.99999999994E+02  0.10566000000E+00 0.  1.
         22   -1    0    0    0    0 -0.00000000000E+00 -0.00000000000E+00 -0.33172402099E+02  0.33172402099E+02  0.00000000000E+00 0. -1.
         13    1    1    2    0    0 -0.17548695347E+02 -0.23103209504E+02 -0.15253613363E+02  0.32778024383E+02  0.10566000000E+00 0. -1.
        996    1    1    2    0    0  0.17548695347E+02  0.23103209504E+02  0.82081155438E+02  0.10039437771E+03  0.50000000000E+02 0.  0.
<mgrwt>
<rscale>  0 0.57807569E+02</rscale>
<asrwt>0</asrwt>
<pdfrwt beam="1">  1       13 0.10000000E+01 0.57807569E+02</pdfrwt>
<pdfrwt beam="2">  1       22 0.33172421E+00 0.57807569E+02</pdfrwt>
<totfact> 0.17367959E-01</totfact>
</mgrwt>
</event>
<event>
 4    1  0.2416490E+000  0.5221568E+02  0.7957747E-01  0.1433744E+00
         13   -1    0    0    0    0  0.00000000000E+00  0.00000000000E+00  0.99999944177E+02  0.99999999997E+02  0.10566000000E+00 0.  1.
         22   -1    0    0    0    0 -0.00000000000E+00 -0.00000000000E+00 -0.11312280684E+02  0.11312280684E+02  0.00000000000E+00 0.  1.
         13    1    1    2    0    0  0.10482370331E+02 -0.10798029710E+02  0.19459095738E+02  0.24599697242E+02  0.10566000000E+00 0. -1.
        996    1    1    2    0    0 -0.10482370331E+02  0.10798029710E+02  0.69228567755E+02  0.86712583440E+02  0.50000000000E+02 0.  0.
<mgrwt>
<rscale>  0 0.52215683E+02</rscale>
<asrwt>0</asrwt>
<pdfrwt beam="1">  1       13 0.10000000E+01 0.52215683E+02</pdfrwt>
<pdfrwt beam="2">  1       22 0.11312305E+00 0.52215683E+02</pdfrwt>
<totfact> 0.11760884E+00</totfact>
</mgrwt>
</event>
<event>
 4    1  0.2416490E+000  0.5180043E+02  0.7957747E-01  0.1435866E+00
         13   -1    0    0    0    0  0.00000000000E+00  0.00000000000E+00  0.99999944171E+02  0.99999999992E+02  0.10566000000E+00 0. -1.
         22   -1    0    0    0    0 -0.00000000000E+00 -0.00000000000E+00 -0.11068931837E+02  0.11068931837E+02  0.00000000000E+00 0. -1.
         13    1    1    2    0    0 -0.13538246547E+02 -0.20221132408E-01  0.27951879748E+02  0.31058062946E+02  0.10566000000E+00 0.  1.
        996    1    1    2    0    0  0.13538246547E+02  0.20221132408E-01  0.60979132586E+02  0.80010868883E+02  0.50000000000E+02 0.  0.
<mgrwt>
<rscale>  0 0.51800430E+02</rscale>
<asrwt>0</asrwt>
<pdfrwt beam="1">  1       13 0.10000000E+01 0.51800430E+02</pdfrwt>
<pdfrwt beam="2">  1       22 0.11068957E+00 0.51800430E+02</pdfrwt>
<totfact> 0.12138132E+00</totfact>
</mgrwt>
</event>
<event>
 4    1  0.2416490E+000  0.5188772E+02  0.7957747E-01  0.1435418E+00
         13   -1    0    0    0    0  0.00000000000E+00  0.00000000000E+00  0.99999944184E+02  0.10000000000E+03  0.10566000000E+00 0. -1.
         22   -1    0    0    0    0 -0.00000000000E+00 -0.00000000000E+00 -0.32644722378E+02  0.32644722378E+02  0.00000000000E+00 0.  1.
         13    1    1    2    0    0  0.13803102311E+02  0.13452137125E+01 -0.23921172995E+02  0.27650839316E+02  0.10566000000E+00 0.  1.
        996    1    1    2    0    0 -0.13803102311E+02 -0.13452137125E+01  0.91276394801E+02  0.10499388307E+03  0.50000000000E+02 0.  0.
<mgrwt>
<rscale>  0 0.51887718E+02</rscale>
<asrwt>0</asrwt>
<pdfrwt beam="1">  1       13 0.10000000E+01 0.51887718E+02</pdfrwt>
<pdfrwt beam="2">  1       22 0.32644741E+00 0.51887718E+02</pdfrwt>
<totfact> 0.17753163E-01</totfact>
</mgrwt>
</event>
<event>
 4    1  0.2416490E+000  0.7291005E+02  0.7957747E-01  0.1350468E+00
         13   -1    0    0    0    0  0.00000000000E+00  0.00000000000E+00  0.99999944174E+02  0.99999999994E+02  0.10566000000E+00 0. -1.
         22   -1    0    0    0    0 -0.00000000000E+00 -0.00000000000E+00 -0.59274170051E+02  0.59274170051E+02  0.00000000000E+00 0.  1.
         13    1    1    2    0    0 -0.52938399567E+02 -0.36607851731E+01 -0.27196434148E+02  0.59628287676E+02  0.10566000000E+00 0.  1.
        996    1    1    2    0    0  0.52938399567E+02  0.36607851731E+01  0.67922208271E+02  0.99645882369E+02  0.50000000000E+02 0.  0.
<mgrwt>
<rscale>  0 0.72910051E+02</rscale>
<asrwt>0</asrwt>
<pdfrwt beam="1">  1       13 0.10000000E+01 0.72910051E+02</pdfrwt>
<pdfrwt beam="2">  1       22 0.59274181E+00 0.72910051E+02</pdfrwt>
<totfact> 0.61363083E-02</totfact>
</mgrwt>
</event>
<event>
 4    1  0.2416490E+000  0.5290665E+02  0.7957747E-01  0.1430266E+00
         13   -1    0    0    0    0  0.00000000000E+00  0.00000000000E+00  0.99999944181E+02  0.10000000000E+03  0.10566000000E+00 0. -1.
         22   -1    0    0    0    0 -0.00000000000E+00 -0.00000000000E+00 -0.14861771719E+02  0.14861771719E+02  0.00000000000E+00 0.  1.
         13    1    1    2    0    0 -0.11240620438E+02  0.13143879375E+02  0.36044606479E+01  0.17666816733E+02  0.10566000000E+00 0.  1.
        996    1    1    2    0    0  0.11240620438E+02 -0.13143879375E+02  0.81533711814E+02  0.97194954988E+02  0.50000000000E+02 0.  0.
<mgrwt>
<rscale>  0 0.52906645E+02</rscale>
<asrwt>0</asrwt>
<pdfrwt beam="1">  1       13 0.10000000E+01 0.52906645E+02</pdfrwt>
<pdfrwt beam="2">  1       22 0.14861795E+00 0.52906645E+02</pdfrwt>
<totfact> 0.76600957E-01</totfact>
</mgrwt>
</event>
<event>
 4    1  0.2416490E+000  0.5122140E+02  0.7957747E-01  0.1438863E+00
         13   -1    0    0    0    0  0.00000000000E+00  0.00000000000E+00  0.99999944178E+02  0.99999999998E+02  0.10566000000E+00 0. -1.
         22   -1    0    0    0    0 -0.00000000000E+00 -0.00000000000E+00 -0.16560365703E+02  0.16560365703E+02  0.00000000000E+00 0. -1.
         13    1    1    2    0    0  0.58195117578E+01 -0.94744597090E+01 -0.66291814789E+01  0.12945629185E+02  0.10566000000E+00 0.  1.
        996    1    1    2    0    0 -0.58195117578E+01  0.94744597090E+01  0.90068759954E+02  0.10361473652E+03  0.50000000000E+02 0.  0.
<mgrwt>
<rscale>  0 0.51221403E+02</rscale>
<asrwt>0</asrwt>
<pdfrwt beam="1">  1       13 0.10000000E+01 0.51221403E+02</pdfrwt>
<pdfrwt beam="2">  1       22 0.16560389E+00 0.51221403E+02</pdfrwt>
<totfact> 0.63541493E-01</totfact>
</mgrwt>
</event>
<event>
 4    1  0.2416490E+000  0.5343053E+02  0.7957747E-01  0.1427670E+00
         13   -1    0    0    0    0  0.00000000000E+00  0.00000000000E+00  0.99999944181E+02  0.10000000000E+03  0.10566000000E+00 0. -1.
         22   -1    0    0    0    0 -0.00000000000E+00 -0.00000000000E+00 -0.20707516982E+02  0.20707516982E+02  0.00000000000E+00 0.  1.
         13    1    1    2    0    0  0.18708801281E+02  0.21914407460E+01 -0.62523717897E+01  0.19847543298E+02  0.10566000000E+00 0.  1.
        996    1    1    2    0    0 -0.18708801281E+02 -0.21914407460E+01  0.85544798988E+02  0.10085997369E+03  0.50000000000E+02 0.  0.
<mgrwt>
<rscale>  0 0.53430531E+02</rscale>
<asrwt>0</asrwt>
<pdfrwt beam="1">  1       13 0.10000000E+01 0.53430531E+02</pdfrwt>
<pdfrwt beam="2">  1       22 0.20707539E+00 0.53430531E+02</pdfrwt>
<totfact> 0.42552007E-01</totfact>
</mgrwt>
</event>
<event>
 4    1  0.2416490E+000  0.5602803E+02  0.7957747E-01  0.1415299E+00
         13   -1    0    0    0    0  0.00000000000E+00  0.00000000000E+00  0.99999944182E+02  0.10000000000E+03  0.10566000000E+00 0. -1.
         22   -1    0    0    0    0 -0.00000000000E+00 -0.00000000000E+00 -0.27352280942E+02  0.27352280942E+02  0.00000000000E+00 0.  1.
         13    1    1    2    0    0  0.19987888109E+02  0.15479817708E+02 -0.10263444787E+02  0.27285342041E+02  0.10566000000E+00 0.  1.
        996    1    1    2    0    0 -0.19987888109E+02 -0.15479817708E+02  0.82911108027E+02  0.10006693890E+03  0.50000000000E+02 0.  0.
<mgrwt>
<rscale>  0 0.56028033E+02</rscale>
<asrwt>0</asrwt>
<pdfrwt beam="1">  1       13 0.10000000E+01 0.56028033E+02</pdfrwt>
<pdfrwt beam="2">  1       22 0.27352301E+00 0.56028033E+02</pdfrwt>
<totfact> 0.24848860E-01</totfact>
</mgrwt>
</event>
<event>
 4    1  0.2416490E+000  0.5254960E+02  0.7957747E-01  0.1432056E+00
         13   -1    0    0    0    0  0.00000000000E+00  0.00000000000E+00  0.99999944181E+02  0.10000000000E+03  0.10566000000E+00 0. -1.
         22   -1    0    0    0    0 -0.00000000000E+00 -0.00000000000E+00 -0.11831426827E+02  0.11831426827E+02  0.00000000000E+00 0. -1.
         13    1    1    2    0    0  0.16129596552E+02 -0.11387385634E+01  0.22998284041E+02  0.28113926145E+02  0.10566000000E+00 0.  1.
        996    1    1    2    0    0 -0.16129596552E+02  0.11387385634E+01  0.65170233313E+02  0.83717500683E+02  0.50000000000E+02 0.  0.
<mgrwt>
<rscale>  0 0.52549601E+02</rscale>
<asrwt>0</asrwt>
<pdfrwt beam="1">  1       13 0.10000000E+01 0.52549601E+02</pdfrwt>
<pdfrwt beam="2">  1       22 0.11831451E+00 0.52549601E+02</pdfrwt>
<totfact> 0.10997814E+00</totfact>
</mgrwt>
</event>
<event>
 4    1  0.2416490E+000  0.5537586E+02  0.7957747E-01  0.1418330E+00
         13   -1    0    0    0    0  0.00000000000E+00  0.00000000000E+00  0.99999944174E+02  0.99999999994E+02  0.10566000000E+00 0.  1.
         22   -1    0    0    0    0 -0.00000000000E+00 -0.00000000000E+00 -0.23368257575E+02  0.23368257575E+02  0.00000000000E+00 0. -1.
         13    1    1    2    0    0  0.16635538119E+02  0.17021878078E+02 -0.53895574691E+01  0.24403769290E+02  0.10566000000E+00 0. -1.
        996    1    1    2    0    0 -0.16635538119E+02 -0.17021878078E+02  0.82021244068E+02  0.98964488279E+02  0.50000000000E+02 0.  0.
<mgrwt>
<rscale>  0 0.55375856E+02</rscale>
<asrwt>0</asrwt>
<pdfrwt beam="1">  1       13 0.10000000E+01 0.55375856E+02</pdfrwt>
<pdfrwt beam="2">  1       22 0.23368279E+00 0.55375856E+02</pdfrwt>
<totfact> 0.33830263E-01</totfact>
</mgrwt>
</event>
<event>
 4    1  0.2416490E+000  0.5264840E+02  0.7957747E-01  0.1431559E+00
         13   -1    0    0    0    0  0.00000000000E+00  0.00000000000E+00  0.99999944180E+02  0.10000000000E+03  0.10566000000E+00 0. -1.
         22   -1    0    0    0    0 -0.00000000000E+00 -0.00000000000E+00 -0.39919068540E+02  0.39919068540E+02  0.00000000000E+00 0.  1.
         13    1    1    2    0    0  0.47760497318E+01  0.15781115326E+02 -0.30773594035E+02  0.34912454882E+02  0.10566000000E+00 0.  1.
        996    1    1    2    0    0 -0.47760497318E+01 -0.15781115326E+02  0.90854469675E+02  0.10500661366E+03  0.50000000000E+02 0.  0.
<mgrwt>
<rscale>  0 0.52648402E+02</rscale>
<asrwt>0</asrwt>
<pdfrwt beam="1">  1       13 0.10000000E+01 0.52648402E+02</pdfrwt>
<pdfrwt beam="2">  1       22 0.39919085E+00 0.52648402E+02</pdfrwt>
<totfact> 0.12421576E-01</totfact>
</mgrwt>
</event>
<event>
 4    1  0.2416490E+000  0.5508903E+02  0.7957747E-01  0.1419678E+00
         13   -1    0    0    0    0  0.00000000000E+00  0.00000000000E+00  0.99999944181E+02  0.10000000000E+03  0.10566000000E+00 0.  1.
         22   -1    0    0    0    0 -0.00000000000E+00 -0.00000000000E+00 -0.49328007933E+02  0.49328007933E+02  0.00000000000E+00 0. -1.
         13    1    1    2    0    0 -0.16181684589E+02 -0.16521332064E+02 -0.38265720731E+02  0.44711048706E+02  0.10566000000E+00 0. -1.
        996    1    1    2    0    0  0.16181684589E+02  0.16521332064E+02  0.88937656979E+02  0.10461695923E+03  0.50000000000E+02 0.  0.
<mgrwt>
<rscale>  0 0.55089031E+02</rscale>
<asrwt>0</asrwt>
<pdfrwt beam="1">  1       13 0.10000000E+01 0.55089031E+02</pdfrwt>
<pdfrwt beam="2">  1       22 0.49328022E+00 0.55089031E+02</pdfrwt>
<totfact> 0.76513614E-02</totfact>
</mgrwt>
</event>
<event>
 4    1  0.2416490E+000  0.5210046E+02  0.7957747E-01  0.1434331E+00
         13   -1    0    0    0    0  0.00000000000E+00  0.00000000000E+00  0.99999944181E+02  0.10000000000E+03  0.10566000000E+00 0. -1.
         22   -1    0    0    0    0 -0.00000000000E+00 -0.00000000000E+00 -0.12361909898E+02  0.12361909898E+02  0.00000000000E+00 0. -1.
         13    1    1    2    0    0  0.11239754586E+02 -0.93875280203E+01  0.66994884558E+01  0.16104411666E+02  0.10566000000E+00 0.  1.
        996    1    1    2    0    0 -0.11239754586E+02  0.93875280203E+01  0.80938545827E+02  0.96257498233E+02  0.50000000000E+02 0.  0.
<mgrwt>
<rscale>  0 0.52100458E+02</rscale>
<asrwt>0</asrwt>
<pdfrwt beam="1">  1       13 0.10000000E+01 0.52100458E+02</pdfrwt>
<pdfrwt beam="2">  1       22 0.12361934E+00 0.52100458E+02</pdfrwt>
<totfact> 0.10270985E+00</totfact>
</mgrwt>
</event>
<event>
 4    1  0.2416490E+000  0.5428986E+02  0.7957747E-01  0.1423487E+00
         13   -1    0    0    0    0  0.00000000000E+00  0.00000000000E+00  0.99999944188E+02  0.10000000001E+03  0.10566000000E+00 0.  1.
         22   -1    0    0    0    0 -0.00000000000E+00 -0.00000000000E+00 -0.17360310336E+02  0.17360310336E+02  0.00000000000E+00 0. -1.
         13    1    1    2    0    0 -0.28756805257E+01 -0.20955178490E+02  0.35763314980E+01  0.21452047806E+02  0.10566000000E+00 0. -1.
        996    1    1    2    0    0  0.28756805257E+01  0.20955178490E+02  0.79063302354E+02  0.95908262538E+02  0.50000000000E+02 0.  0.
<mgrwt>
<rscale>  0 0.54289861E+02</rscale>
<asrwt>0</asrwt>
<pdfrwt beam="1">  1       13 0.10000000E+01 0.54289861E+02</pdfrwt>
<pdfrwt beam="2">  1       22 0.17360333E+00 0.54289861E+02</pdfrwt>
<totfact> 0.58847760E-01</totfact>
</mgrwt>
</event>
<event>
 4    1  0.2416490E+000  0.5381878E+02  0.7957747E-01  0.1425769E+00
         13   -1    0    0    0    0  0.00000000000E+00  0.00000000000E+00  0.99999944182E+02  0.10000000000E+03  0.10566000000E+00 0.  1.
         22   -1    0    0    0    0 -0.00000000000E+00 -0.00000000000E+00 -0.26452749835E+02  0.26452749835E+02  0.00000000000E+00 0. -1.
         13    1    1    2    0    0  0.19139538675E+02 -0.54898867422E+01 -0.13539038448E+02  0.24078569793E+02  0.10566000000E+00 0. -1.
        996    1    1    2    0    0 -0.19139538675E+02  0.54898867422E+01  0.87086232796E+02  0.10237418004E+03  0.50000000000E+02 0.  0.
<mgrwt>
<rscale>  0 0.53818777E+02</rscale>
<asrwt>0</asrwt>
<pdfrwt beam="1">  1       13 0.10000000E+01 0.53818777E+02</pdfrwt>
<pdfrwt beam="2">  1       22 0.26452770E+00 0.53818777E+02</pdfrwt>
<totfact> 0.26450485E-01</totfact>
</mgrwt>
</event>
<event>
 4    1  0.2416490E+000  0.5431182E+02  0.7957747E-01  0.1423382E+00
         13   -1    0    0    0    0  0.00000000000E+00  0.00000000000E+00  0.99999944181E+02  0.10000000000E+03  0.10566000000E+00 0. -1.
         22   -1    0    0    0    0 -0.00000000000E+00 -0.00000000000E+00 -0.14354622076E+02  0.14354622076E+02  0.00000000000E+00 0. -1.
         13    1    1    2    0    0  0.19545397578E+02  0.82310939951E+01  0.19960977692E+02  0.29124307190E+02  0.10566000000E+00 0.  1.
        996    1    1    2    0    0 -0.19545397578E+02 -0.82310939951E+01  0.65684344414E+02  0.85230314888E+02  0.50000000000E+02 0.  0.
<mgrwt>
<rscale>  0 0.54311817E+02</rscale>
<asrwt>0</asrwt>
<pdfrwt beam="1">  1       13 0.10000000E+01 0.54311817E+02</pdfrwt>
<pdfrwt beam="2">  1       22 0.14354646E+00 0.54311817E+02</pdfrwt>
<totfact> 0.81342660E-01</totfact>
</mgrwt>
</event>
<event>
 4    1  0.2416490E+000  0.5162131E+02  0.7957747E-01  0.1436788E+00
         13   -1    0    0    0    0  0.00000000000E+00  0.00000000000E+00  0.99999944183E+02  0.10000000000E+03  0.10566000000E+00 0.  1.
         22   -1    0    0    0    0 -0.00000000000E+00 -0.00000000000E+00 -0.36165633555E+02  0.36165633555E+02  0.00000000000E+00 0. -1.
         13    1    1    2    0    0 -0.99804099726E+01  0.80716393193E+01 -0.28008441939E+02  0.30809802473E+02  0.10566000000E+00 0. -1.
        996    1    1    2    0    0  0.99804099726E+01 -0.80716393193E+01  0.91842752567E+02  0.10535583109E+03  0.50000000000E+02 0.  0.
<mgrwt>
<rscale>  0 0.51621313E+02</rscale>
<asrwt>0</asrwt>
<pdfrwt beam="1">  1       13 0.10000000E+01 0.51621313E+02</pdfrwt>
<pdfrwt beam="2">  1       22 0.36165651E+00 0.51621313E+02</pdfrwt>
<totfact> 0.14835056E-01</totfact>
</mgrwt>
</event>
<event>
 4    1  0.2416490E+000  0.5289246E+02  0.7957747E-01  0.1430337E+00
         13   -1    0    0    0    0  0.00000000000E+00  0.00000000000E+00  0.99999944181E+02  0.10000000000E+03  0.10566000000E+00 0. -1.
         22   -1    0    0    0    0 -0.00000000000E+00 -0.00000000000E+00 -0.14006651611E+02  0.14006651611E+02  0.00000000000E+00 0. -1.
         13    1    1    2    0    0  0.82390907763E+01 -0.15156826652E+02  0.41305722074E+02  0.44763666640E+02  0.10566000000E+00 0.  1.
        996    1    1    2    0    0 -0.82390907763E+01  0.15156826652E+02  0.44687570496E+02  0.69242984972E+02  0.50000000000E+02 0.  0.
<mgrwt>
<rscale>  0 0.52892457E+02</rscale>
<asrwt>0</asrwt>
<pdfrwt beam="1">  1       13 0.10000000E+01 0.52892457E+02</pdfrwt>
<pdfrwt beam="2">  1       22 0.14006676E+00 0.52892457E+02</pdfrwt>
<totfact> 0.84419466E-01</totfact>
</mgrwt>
</event>
<event>
 4    1  0.2416490E+000  0.5124054E+02  0.7957747E-01  0.1438763E+00
         13   -1    0    0    0    0  0.00000000000E+00  0.00000000000E+00  0.99999944183E+02  0.10000000000E+03  0.10566000000E+00 0.  1.
         22   -1    0    0    0    0 -0.00000000000E+00 -0.00000000000E+00 -0.13286974027E+02  0.13286974027E+02  0.00000000000E+00 0.  1.
         13    1    1    2    0    0  0.78080759190E+01 -0.80390589812E+01 -0.14642864911E+01  0.11302558021E+02  0.10566000000E+00 0. -1.
        996    1    1    2    0    0 -0.78080759190E+01  0.80390589812E+01  0.88177256647E+02  0.10198441601E+03  0.50000000000E+02 0.  0.
<mgrwt>
<rscale>  0 0.51240536E+02</rscale>
<asrwt>0</asrwt>
<pdfrwt beam="1">  1       13 0.10000000E+01 0.51240536E+02</pdfrwt>
<pdfrwt beam="2">  1       22 0.13286998E+00 0.51240536E+02</pdfrwt>
<totfact> 0.91553325E-01</totfact>
</mgrwt>
</event>
<event>
 4    1  0.2416490E+000  0.5887836E+02  0.7957747E-01  0.1402600E+00
         13   -1    0    0    0    0  0.00000000000E+00  0.00000000000E+00  0.99999944181E+02  0.10000000000E+03  0.10566000000E+00 0.  1.
         22   -1    0    0    0    0 -0.00000000000E+00 -0.00000000000E+00 -0.21505023356E+02  0.21505023356E+02  0.00000000000E+00 0. -1.
         13    1    1    2    0    0 -0.26712226999E+02 -0.15909694342E+02  0.13762875155E+02  0.34001313825E+02  0.10566000000E+00 0. -1.
        996    1    1    2    0    0  0.26712226999E+02  0.15909694342E+02  0.64732045669E+02  0.87503709532E+02  0.50000000000E+02 0.  0.
<mgrwt>
<rscale>  0 0.58878361E+02</rscale>
<asrwt>0</asrwt>
<pdfrwt beam="1">  1       13 0.10000000E+01 0.58878361E+02</pdfrwt>
<pdfrwt beam="2">  1       22 0.21505045E+00 0.58878361E+02</pdfrwt>
<totfact> 0.39948120E-01</totfact>
</mgrwt>
</event>
<event>
 4    1  0.2416490E+000  0.6214916E+02  0.7957747E-01  0.1389028E+00
         13   -1    0    0    0    0  0.00000000000E+00  0.00000000000E+00  0.99999944186E+02  0.10000000001E+03  0.10566000000E+00 0.  1.
         22   -1    0    0    0    0 -0.00000000000E+00 -0.00000000000E+00 -0.25082277486E+02  0.25082277486E+02  0.00000000000E+00 0. -1.
         13    1    1    2    0    0 -0.11817410891E+02  0.34969507485E+02  0.37081496111E+02  0.52321756199E+02  0.10566000000E+00 0. -1.
        996    1    1    2    0    0  0.11817410891E+02 -0.34969507485E+02  0.37836170589E+02  0.72760521293E+02  0.50000000000E+02 0.  0.
<mgrwt>
<rscale>  0 0.62149157E+02</rscale>
<asrwt>0</asrwt>
<pdfrwt beam="1">  1       13 0.10000000E+01 0.62149157E+02</pdfrwt>
<pdfrwt beam="2">  1       22 0.25082298E+00 0.62149157E+02</pdfrwt>
<totfact> 0.29714853E-01</totfact>
</mgrwt>
</event>
<event>
 4    1  0.2416490E+000  0.5144873E+02  0.7957747E-01  0.1437681E+00
         13   -1    0    0    0    0  0.00000000000E+00  0.00000000000E+00  0.99999944179E+02  0.99999999999E+02  0.10566000000E+00 0.  1.
         22   -1    0    0    0    0 -0.00000000000E+00 -0.00000000000E+00 -0.11391769810E+02  0.11391769810E+02  0.00000000000E+00 0. -1.
         13    1    1    2    0    0 -0.74626742655E+01 -0.95540625696E+01  0.47745178303E+01  0.13029919544E+02  0.10566000000E+00 0. -1.
        996    1    1    2    0    0  0.74626742655E+01  0.95540625696E+01  0.83833656539E+02  0.98361850264E+02  0.50000000000E+02 0.  0.
<mgrwt>
<rscale>  0 0.51448728E+02</rscale>
<asrwt>0</asrwt>
<pdfrwt beam="1">  1       13 0.10000000E+01 0.51448728E+02</pdfrwt>
<pdfrwt beam="2">  1       22 0.11391795E+00 0.51448728E+02</pdfrwt>
<totfact> 0.11617392E+00</totfact>
</mgrwt>
</event>
<event>
 4    1  0.2416490E+000  0.5144612E+02  0.7957747E-01  0.1437694E+00
         13   -1    0    0    0    0  0.00000000000E+00  0.00000000000E+00  0.99999944181E+02  0.10000000000E+03  0.10566000000E+00 0. -1.
         22   -1    0    0    0    0 -0.00000000000E+00 -0.00000000000E+00 -0.11315409804E+02  0.11315409804E+02  0.00000000000E+00 0.  1.
         13    1    1    2    0    0 -0.18782894300E+01  0.11965601682E+02  0.50469525778E+01  0.13121984955E+02  0.10566000000E+00 0.  1.
        996    1    1    2    0    0  0.18782894300E+01 -0.11965601682E+02  0.83637581798E+02  0.98193424851E+02  0.50000000000E+02 0.  0.
<mgrwt>
<rscale>  0 0.51446123E+02</rscale>
<asrwt>0</asrwt>
<pdfrwt beam="1">  1       13 0.10000000E+01 0.51446123E+02</pdfrwt>
<pdfrwt beam="2">  1       22 0.11315435E+00 0.51446123E+02</pdfrwt>
<totfact> 0.11735267E+00</totfact>
</mgrwt>
</event>
<event>
 4    1  0.2416490E+000  0.7858745E+02  0.7957747E-01  0.1333109E+00
         13   -1    0    0    0    0  0.00000000000E+00  0.00000000000E+00  0.99999944176E+02  0.99999999996E+02  0.10566000000E+00 0. -1.
         22   -1    0    0    0    0 -0.00000000000E+00 -0.00000000000E+00 -0.76444930880E+02  0.76444930880E+02  0.00000000000E+00 0.  1.
         13    1    1    2    0    0 -0.27723926993E+02  0.53920037884E+02 -0.42287698677E+02  0.73920546784E+02  0.10566000000E+00 0.  1.
        996    1    1    2    0    0  0.27723926993E+02 -0.53920037884E+02  0.65842711973E+02  0.10252438409E+03  0.50000000000E+02 0.  0.
<mgrwt>
<rscale>  0 0.78587446E+02</rscale>
<asrwt>0</asrwt>
<pdfrwt beam="1">  1       13 0.10000000E+01 0.78587446E+02</pdfrwt>
<pdfrwt beam="2">  1       22 0.76444937E+00 0.78587446E+02</pdfrwt>
<totfact> 0.42850050E-02</totfact>
</mgrwt>
</event>
<event>
 4    1  0.2416490E+000  0.5548182E+02  0.7957747E-01  0.1417834E+00
         13   -1    0    0    0    0  0.00000000000E+00  0.00000000000E+00  0.99999944176E+02  0.99999999996E+02  0.10566000000E+00 0.  1.
         22   -1    0    0    0    0 -0.00000000000E+00 -0.00000000000E+00 -0.16461692208E+02  0.16461692208E+02  0.00000000000E+00 0.  1.
         13    1    1    2    0    0  0.23426206530E+02 -0.54263901454E+01  0.15245305214E+02  0.28472150560E+02  0.10566000000E+00 0. -1.
        996    1    1    2    0    0 -0.23426206530E+02  0.54263901454E+01  0.68292946754E+02  0.87989541644E+02  0.50000000000E+02 0.  0.
<mgrwt>
<rscale>  0 0.55481825E+02</rscale>
<asrwt>0</asrwt>
<pdfrwt beam="1">  1       13 0.10000000E+01 0.55481825E+02</pdfrwt>
<pdfrwt beam="2">  1       22 0.16461716E+00 0.55481825E+02</pdfrwt>
<totfact> 0.64727270E-01</totfact>
</mgrwt>
</event>
<event>
 4    1  0.2416490E+000  0.5157967E+02  0.7957747E-01  0.1437003E+00
         13   -1    0    0    0    0  0.00000000000E+00  0.00000000000E+00  0.99999944181E+02  0.10000000000E+03  0.10566000000E+00 0. -1.
         22   -1    0    0    0    0 -0.00000000000E+00 -0.00000000000E+00 -0.12772790329E+02  0.12772790329E+02  0.00000000000E+00 0. -1.
         13    1    1    2    0    0 -0.21116926631E+01  0.12490131840E+02  0.15427895737E+01  0.12761426370E+02  0.10566000000E+00 0.  1.
        996    1    1    2    0    0  0.21116926631E+01 -0.12490131840E+02  0.85684364279E+02  0.10001136396E+03  0.50000000000E+02 0.  0.
<mgrwt>
<rscale>  0 0.51579673E+02</rscale>
<asrwt>0</asrwt>
<pdfrwt beam="1">  1       13 0.10000000E+01 0.51579673E+02</pdfrwt>
<pdfrwt beam="2">  1       22 0.12772815E+00 0.51579673E+02</pdfrwt>
<totfact> 0.97502016E-01</totfact>
</mgrwt>
</event>
<event>
 4    1  0.2416490E+000  0.5262086E+02  0.7957747E-01  0.1431697E+00
         13   -1    0    0    0    0  0.00000000000E+00  0.00000000000E+00  0.99999944178E+02  0.99999999999E+02  0.10566000000E+00 0. -1.
         22   -1    0    0    0    0 -0.00000000000E+00 -0.00000000000E+00 -0.24893246262E+02  0.24893246262E+02  0.00000000000E+00 0.  1.
         13    1    1    2    0    0  0.16399103789E+02 -0.15436419951E+00 -0.13897993271E+02  0.21496972215E+02  0.10566000000E+00 0.  1.
        996    1    1    2    0    0 -0.16399103789E+02  0.15436419951E+00  0.89004691187E+02  0.10339627405E+03  0.50000000000E+02 0.  0.
<mgrwt>
<rscale>  0 0.52620855E+02</rscale>
<asrwt>0</asrwt>
<pdfrwt beam="1">  1       13 0.10000000E+01 0.52620855E+02</pdfrwt>
<pdfrwt beam="2">  1       22 0.24893267E+00 0.52620855E+02</pdfrwt>
<totfact> 0.29757403E-01</totfact>
</mgrwt>
</event>
<event>
 4    1  0.2416490E+000  0.5278693E+02  0.7957747E-01  0.1430864E+00
         13   -1    0    0    0    0  0.00000000000E+00  0.00000000000E+00  0.99999944174E+02  0.99999999994E+02  0.10566000000E+00 0. -1.
         22   -1    0    0    0    0 -0.00000000000E+00 -0.00000000000E+00 -0.66805352432E+02  0.66805352432E+02  0.00000000000E+00 0.  1.
         13    1    1    2    0    0  0.16209075214E+02  0.48709617907E+01 -0.58556192090E+02  0.60953254091E+02  0.10566000000E+00 0.  1.
        996    1    1    2    0    0 -0.16209075214E+02 -0.48709617907E+01  0.91750783833E+02  0.10585209834E+03  0.50000000000E+02 0.  0.
<mgrwt>
<rscale>  0 0.52786934E+02</rscale>
<asrwt>0</asrwt>
<pdfrwt beam="1">  1       13 0.10000000E+01 0.52786934E+02</pdfrwt>
<pdfrwt beam="2">  1       22 0.66805362E+00 0.52786934E+02</pdfrwt>
<totfact> 0.86613382E-02</totfact>
</mgrwt>
</event>
<event>
 4    1  0.2416490E+000  0.5235873E+02  0.7957747E-01  0.1433019E+00
         13   -1    0    0    0    0  0.00000000000E+00  0.00000000000E+00  0.99999944176E+02  0.99999999996E+02  0.10566000000E+00 0. -1.
         22   -1    0    0    0    0 -0.00000000000E+00 -0.00000000000E+00 -0.13091433468E+02  0.13091433468E+02  0.00000000000E+00 0. -1.
         13    1    1    2    0    0  0.11781605584E+02 -0.10130654110E+02  0.58708661548E+01  0.16610677779E+02  0.10566000000E+00 0.  1.
        996    1    1    2    0    0 -0.11781605584E+02  0.10130654110E+02  0.81037644553E+02  0.96480755685E+02  0.50000000000E+02 0.  0.
<mgrwt>
<rscale>  0 0.52358728E+02</rscale>
<asrwt>0</asrwt>
<pdfrwt beam="1">  1       13 0.10000000E+01 0.52358728E+02</pdfrwt>
<pdfrwt beam="2">  1       22 0.13091458E+00 0.52358728E+02</pdfrwt>
<totfact> 0.93955222E-01</totfact>
</mgrwt>
</event>
<event>
 4    1  0.2416490E+000  0.5124716E+02  0.7957747E-01  0.1438728E+00
         13   -1    0    0    0    0  0.00000000000E+00  0.00000000000E+00  0.99999944172E+02  0.99999999993E+02  0.10566000000E+00 0.  1.
         22   -1    0    0    0    0 -0.00000000000E+00 -0.00000000000E+00 -0.98508135240E+01  0.98508135240E+01  0.00000000000E+00 0.  1.
         13    1    1    2    0    0  0.30938715062E+01 -0.10802746966E+02  0.12431338910E+02  0.16757706706E+02  0.10566000000E+00 0. -1.
        996    1    1    2    0    0 -0.30938715062E+01  0.10802746966E+02  0.77717791738E+02  0.93093106810E+02  0.50000000000E+02 0.  0.
<mgrwt>
<rscale>  0 0.51247160E+02</rscale>
<asrwt>0</asrwt>
<pdfrwt beam="1">  1       13 0.10000000E+01 0.51247160E+02</pdfrwt>
<pdfrwt beam="2">  1       22 0.98508387E-01 0.51247160E+02</pdfrwt>
<totfact> 0.14381259E+00</totfact>
</mgrwt>
</event>
<event>
 4    1  0.2416490E+000  0.5509720E+02  0.7957747E-01  0.1419640E+00
         13   -1    0    0    0    0  0.00000000000E+00  0.00000000000E+00  0.99999944182E+02  0.10000000000E+03  0.10566000000E+00 0.  1.
         22   -1    0    0    0    0 -0.00000000000E+00 -0.00000000000E+00 -0.27022717939E+02  0.27022717939E+02  0.00000000000E+00 0. -1.
         13    1    1    2    0    0 -0.19777280060E+02  0.12023357314E+02 -0.11749373884E+02  0.25956904253E+02  0.10566000000E+00 0. -1.
        996    1    1    2    0    0  0.19777280060E+02 -0.12023357314E+02  0.84726600126E+02  0.10106581369E+03  0.50000000000E+02 0.  0.
<mgrwt>
<rscale>  0 0.55097204E+02</rscale>
<asrwt>0</asrwt>
<pdfrwt beam="1">  1       13 0.10000000E+01 0.55097204E+02</pdfrwt>
<pdfrwt beam="2">  1       22 0.27022738E+00 0.55097204E+02</pdfrwt>
<totfact> 0.25412998E-01</totfact>
</mgrwt>
</event>
<event>
 4    1  0.2416490E+000  0.5104987E+02  0.7957747E-01  0.1439760E+00
         13   -1    0    0    0    0  0.00000000000E+00  0.00000000000E+00  0.99999944172E+02  0.99999999993E+02  0.10566000000E+00 0.  1.
         22   -1    0    0    0    0 -0.00000000000E+00 -0.00000000000E+00 -0.14219998832E+02  0.14219998832E+02  0.00000000000E+00 0.  1.
         13    1    1    2    0    0  0.10123229798E+02 -0.18997403242E+01 -0.39114047080E+01  0.11018123510E+02  0.10566000000E+00 0. -1.
        996    1    1    2    0    0 -0.10123229798E+02  0.18997403242E+01  0.89691350049E+02  0.10320187531E+03  0.50000000000E+02 0.  0.
<mgrwt>
<rscale>  0 0.51049866E+02</rscale>
<asrwt>0</asrwt>
<pdfrwt beam="1">  1       13 0.10000000E+01 0.51049866E+02</pdfrwt>
<pdfrwt beam="2">  1       22 0.14220023E+00 0.51049866E+02</pdfrwt>
<totfact> 0.82052557E-01</totfact>
</mgrwt>
</event>
<event>
 4    1  0.2416490E+000  0.5202172E+02  0.7957747E-01  0.1434732E+00
         13   -1    0    0    0    0  0.00000000000E+00  0.00000000000E+00  0.99999944182E+02  0.10000000000E+03  0.10566000000E+00 0. -1.
         22   -1    0    0    0    0 -0.00000000000E+00 -0.00000000000E+00 -0.12383008738E+02  0.12383008738E+02  0.00000000000E+00 0. -1.
         13    1    1    2    0    0  0.11503671055E+02 -0.85979608706E+01  0.59310785419E+01  0.15538604686E+02  0.10566000000E+00 0.  1.
        996    1    1    2    0    0 -0.11503671055E+02  0.85979608706E+01  0.81685856902E+02  0.96844404054E+02  0.50000000000E+02 0.  0.
<mgrwt>
<rscale>  0 0.52021720E+02</rscale>
<asrwt>0</asrwt>
<pdfrwt beam="1">  1       13 0.10000000E+01 0.52021720E+02</pdfrwt>
<pdfrwt beam="2">  1       22 0.12383033E+00 0.52021720E+02</pdfrwt>
<totfact> 0.10242126E+00</totfact>
</mgrwt>
</event>
<event>
 4    1  0.2416490E+000  0.5409176E+02  0.7957747E-01  0.1424443E+00
         13   -1    0    0    0    0  0.00000000000E+00  0.00000000000E+00  0.99999944178E+02  0.99999999998E+02  0.10566000000E+00 0. -1.
         22   -1    0    0    0    0 -0.00000000000E+00 -0.00000000000E+00 -0.14173781910E+02  0.14173781910E+02  0.00000000000E+00 0. -1.
         13    1    1    2    0    0 -0.14397716970E+02  0.14785948628E+02  0.30251705091E+02  0.36620968799E+02  0.10566000000E+00 0.  1.
        996    1    1    2    0    0  0.14397716970E+02 -0.14785948628E+02  0.55574457176E+02  0.77552813110E+02  0.50000000000E+02 0.  0.
<mgrwt>
<rscale>  0 0.54091760E+02</rscale>
<asrwt>0</asrwt>
<pdfrwt beam="1">  1       13 0.10000000E+01 0.54091760E+02</pdfrwt>
<pdfrwt beam="2">  1       22 0.14173806E+00 0.54091760E+02</pdfrwt>
<totfact> 0.83009135E-01</totfact>
</mgrwt>
</event>
<event>
 4    1  0.2416490E+000  0.5316335E+02  0.7957747E-01  0.1428990E+00
         13   -1    0    0    0    0  0.00000000000E+00  0.00000000000E+00  0.99999944181E+02  0.10000000000E+03  0.10566000000E+00 0. -1.
         22   -1    0    0    0    0 -0.00000000000E+00 -0.00000000000E+00 -0.13036509777E+02  0.13036509777E+02  0.00000000000E+00 0. -1.
         13    1    1    2    0    0  0.17531095953E+02  0.43591317394E+01  0.30760780780E+02  0.35673213382E+02  0.10566000000E+00 0.  1.
        996    1    1    2    0    0 -0.17531095953E+02 -0.43591317394E+01  0.56202653624E+02  0.77363296396E+02  0.50000000000E+02 0.  0.
<mgrwt>
<rscale>  0 0.53163346E+02</rscale>
<asrwt>0</asrwt>
<pdfrwt beam="1">  1       13 0.10000000E+01 0.53163346E+02</pdfrwt>
<pdfrwt beam="2">  1       22 0.13036534E+00 0.53163346E+02</pdfrwt>
<totfact> 0.94743058E-01</totfact>
</mgrwt>
</event>
<event>
 4    1  0.2416490E+000  0.5173766E+02  0.7957747E-01  0.1436188E+00
         13   -1    0    0    0    0  0.00000000000E+00  0.00000000000E+00  0.99999944183E+02  0.10000000000E+03  0.10566000000E+00 0.  1.
         22   -1    0    0    0    0 -0.00000000000E+00 -0.00000000000E+00 -0.11206486466E+02  0.11206486466E+02  0.00000000000E+00 0.  1.
         13    1    1    2    0    0 -0.72958324942E+01  0.11115608576E+02  0.88174046468E+01  0.15954426174E+02  0.10566000000E+00 0. -1.
        996    1    1    2    0    0  0.72958324942E+01 -0.11115608576E+02  0.79976053070E+02  0.95252060295E+02  0.50000000000E+02 0.  0.
<mgrwt>
<rscale>  0 0.51737664E+02</rscale>
<asrwt>0</asrwt>
<pdfrwt beam="1">  1       13 0.10000000E+01 0.51737664E+02</pdfrwt>
<pdfrwt beam="2">  1       22 0.11206511E+00 0.51737664E+02</pdfrwt>
<totfact> 0.11914587E+00</totfact>
</mgrwt>
</event>
<event>
 4    1  0.2416490E+000  0.5183335E+02  0.7957747E-01  0.1435697E+00
         13   -1    0    0    0    0  0.00000000000E+00  0.00000000000E+00  0.99999944187E+02  0.10000000001E+03  0.10566000000E+00 0. -1.
         22   -1    0    0    0    0 -0.00000000000E+00 -0.00000000000E+00 -0.20098612878E+02  0.20098612878E+02  0.00000000000E+00 0.  1.
         13    1    1    2    0    0 -0.52058250078E+01 -0.12633104328E+02 -0.95806263458E+01  0.16688184569E+02  0.10566000000E+00 0.  1.
        996    1    1    2    0    0  0.52058250078E+01  0.12633104328E+02  0.89481957654E+02  0.10341042832E+03  0.50000000000E+02 0.  0.
<mgrwt>
<rscale>  0 0.51833348E+02</rscale>
<asrwt>0</asrwt>
<pdfrwt beam="1">  1       13 0.10000000E+01 0.51833348E+02</pdfrwt>
<pdfrwt beam="2">  1       22 0.20098635E+00 0.51833348E+02</pdfrwt>
<totfact> 0.44880284E-01</totfact>
</mgrwt>
</event>
<event>
 4    1  0.2416490E+000  0.5166045E+02  0.7957747E-01  0.1436586E+00
         13   -1    0    0    0    0  0.00000000000E+00  0.00000000000E+00  0.99999944189E+02  0.10000000001E+03  0.10566000000E+00 0. -1.
         22   -1    0    0    0    0 -0.00000000000E+00 -0.00000000000E+00 -0.52669521768E+02  0.52669521768E+02  0.00000000000E+00 0.  1.
         13    1    1    2    0    0 -0.95156425601E+01 -0.88461599896E+01 -0.45016927906E+02  0.46854423079E+02  0.10566000000E+00 0.  1.
        996    1    1    2    0    0  0.95156425601E+01  0.88461599896E+01  0.92347350328E+02  0.10581509870E+03  0.50000000000E+02 0.  0.
<mgrwt>
<rscale>  0 0.51660449E+02</rscale>
<asrwt>0</asrwt>
<pdfrwt beam="1">  1       13 0.10000000E+01 0.51660449E+02</pdfrwt>
<pdfrwt beam="2">  1       22 0.52669535E+00 0.51660449E+02</pdfrwt>
<totfact> 0.64133733E-02</totfact>
</mgrwt>
</event>
<event>
 4    1  0.2416490E+000  0.5408219E+02  0.7957747E-01  0.1424490E+00
         13   -1    0    0    0    0  0.00000000000E+00  0.00000000000E+00  0.99999944178E+02  0.99999999998E+02  0.10566000000E+00 0.  1.
         22   -1    0    0    0    0 -0.00000000000E+00 -0.00000000000E+00 -0.16590600390E+02  0.16590600390E+02  0.00000000000E+00 0. -1.
         13    1    1    2    0    0  0.78198465506E+01 -0.19071782222E+02  0.47838804190E+01  0.21160802279E+02  0.10566000000E+00 0. -1.
        996    1    1    2    0    0 -0.78198465506E+01  0.19071782222E+02  0.78625463369E+02  0.95429798109E+02  0.50000000000E+02 0.  0.
<mgrwt>
<rscale>  0 0.54082186E+02</rscale>
<asrwt>0</asrwt>
<pdfrwt beam="1">  1       13 0.10000000E+01 0.54082186E+02</pdfrwt>
<pdfrwt beam="2">  1       22 0.16590624E+00 0.54082186E+02</pdfrwt>
<totfact> 0.63692023E-01</totfact>
</mgrwt>
</event>
<event>
 4    1  0.2416490E+000  0.5372368E+02  0.7957747E-01  0.1426233E+00
         13   -1    0    0    0    0  0.00000000000E+00  0.00000000000E+00  0.99999944178E+02  0.99999999998E+02  0.10566000000E+00 0. -1.
         22   -1    0    0    0    0 -0.00000000000E+00 -0.00000000000E+00 -0.30389496488E+02  0.30389496488E+02  0.00000000000E+00 0.  1.
         13    1    1    2    0    0  0.48341961769E+00 -0.19646885017E+02 -0.18630812952E+02  0.27080475267E+02  0.10566000000E+00 0.  1.
        996    1    1    2    0    0 -0.48341961769E+00  0.19646885017E+02  0.88241260642E+02  0.10330902122E+03  0.50000000000E+02 0.  0.
<mgrwt>
<rscale>  0 0.53723680E+02</rscale>
<asrwt>0</asrwt>
<pdfrwt beam="1">  1       13 0.10000000E+01 0.53723680E+02</pdfrwt>
<pdfrwt beam="2">  1       22 0.30389516E+00 0.53723680E+02</pdfrwt>
<totfact> 0.20256595E-01</totfact>
</mgrwt>
</event>
<event>
 4    1  0.2416490E+000  0.5256983E+02  0.7957747E-01  0.1431954E+00
         13   -1    0    0    0    0  0.00000000000E+00  0.00000000000E+00  0.99999944181E+02  0.10000000000E+03  0.10566000000E+00 0. -1.
         22   -1    0    0    0    0 -0.00000000000E+00 -0.00000000000E+00 -0.12150309369E+02  0.12150309369E+02  0.00000000000E+00 0. -1.
         13    1    1    2    0    0 -0.50421693449E+01  0.15432551724E+02  0.13626966664E+02  0.21196521151E+02  0.10566000000E+00 0.  1.
        996    1    1    2    0    0  0.50421693449E+01 -0.15432551724E+02  0.74222668148E+02  0.90953788219E+02  0.50000000000E+02 0.  0.
<mgrwt>
<rscale>  0 0.52569831E+02</rscale>
<asrwt>0</asrwt>
<pdfrwt beam="1">  1       13 0.10000000E+01 0.52569831E+02</pdfrwt>
<pdfrwt beam="2">  1       22 0.12150334E+00 0.52569831E+02</pdfrwt>
<totfact> 0.10559235E+00</totfact>
</mgrwt>
</event>
<event>
 4    1  0.2416490E+000  0.5189392E+02  0.7957747E-01  0.1435386E+00
         13   -1    0    0    0    0  0.00000000000E+00  0.00000000000E+00  0.99999944180E+02  0.10000000000E+03  0.10566000000E+00 0.  1.
         22   -1    0    0    0    0 -0.00000000000E+00 -0.00000000000E+00 -0.11587782404E+02  0.11587782404E+02  0.00000000000E+00 0.  1.
         13    1    1    2    0    0 -0.26024168228E+00  0.13889248775E+02  0.84429306791E+01  0.16256481777E+02  0.10566000000E+00 0. -1.
        996    1    1    2    0    0  0.26024168228E+00 -0.13889248775E+02  0.79969231096E+02  0.95331300628E+02  0.50000000000E+02 0.  0.
<mgrwt>
<rscale>  0 0.51893920E+02</rscale>
<asrwt>0</asrwt>
<pdfrwt beam="1">  1       13 0.10000000E+01 0.51893920E+02</pdfrwt>
<pdfrwt beam="2">  1       22 0.11587807E+00 0.51893920E+02</pdfrwt>
<totfact> 0.11333911E+00</totfact>
</mgrwt>
</event>
<event>
 4    1  0.2416490E+000  0.5202717E+02  0.7957747E-01  0.1434704E+00
         13   -1    0    0    0    0  0.00000000000E+00  0.00000000000E+00  0.99999944185E+02  0.10000000001E+03  0.10566000000E+00 0. -1.
         22   -1    0    0    0    0 -0.00000000000E+00 -0.00000000000E+00 -0.11472084651E+02  0.11472084651E+02  0.00000000000E+00 0. -1.
         13    1    1    2    0    0  0.69795089262E+00  0.14364520617E+02  0.11005387105E+02  0.18109563699E+02  0.10566000000E+00 0.  1.
        996    1    1    2    0    0 -0.69795089262E+00 -0.14364520617E+02  0.77522472430E+02  0.93362520958E+02  0.50000000000E+02 0.  0.
<mgrwt>
<rscale>  0 0.52027172E+02</rscale>
<asrwt>0</asrwt>
<pdfrwt beam="1">  1       13 0.10000000E+01 0.52027172E+02</pdfrwt>
<pdfrwt beam="2">  1       22 0.11472109E+00 0.52027172E+02</pdfrwt>
<totfact> 0.11510402E+00</totfact>
</mgrwt>
</event>
<event>
 4    1  0.2416490E+000  0.5143464E+02  0.7957747E-01  0.1437754E+00
         13   -1    0    0    0    0  0.00000000000E+00  0.00000000000E+00  0.99999944179E+02  0.99999999999E+02  0.10566000000E+00 0. -1.
         22   -1    0    0    0    0 -0.00000000000E+00 -0.00000000000E+00 -0.15054275650E+02  0.15054275650E+02  0.00000000000E+00 0. -1.
         13    1    1    2    0    0 -0.53523431080E+01  0.10810840772E+02  0.53335325896E+02  0.54682629851E+02  0.10566000000E+00 0.  1.
        996    1    1    2    0    0  0.53523431080E+01 -0.10810840772E+02  0.31610342633E+02  0.60371645798E+02  0.50000000000E+02 0.  0.
<mgrwt>
<rscale>  0 0.51434637E+02</rscale>
<asrwt>0</asrwt>
<pdfrwt beam="1">  1       13 0.10000000E+01 0.51434637E+02</pdfrwt>
<pdfrwt beam="2">  1       22 0.15054299E+00 0.51434637E+02</pdfrwt>
<totfact> 0.74753891E-01</totfact>
</mgrwt>
</event>
<event>
 4    1  0.2416490E+000  0.5100771E+02  0.7957747E-01  0.1439981E+00
         13   -1    0    0    0    0  0.00000000000E+00  0.00000000000E+00  0.99999944179E+02  0.99999999999E+02  0.10566000000E+00 0.  1.
         22   -1    0    0    0    0 -0.00000000000E+00 -0.00000000000E+00 -0.10656400975E+02  0.10656400975E+02  0.00000000000E+00 0.  1.
         13    1    1    2    0    0 -0.97587522060E+01 -0.25599630266E+01  0.32735466234E+01  0.10607258215E+02  0.10566000000E+00 0. -1.
        996    1    1    2    0    0  0.97587522060E+01  0.25599630266E+01  0.86069996580E+02  0.10004914276E+03  0.50000000000E+02 0.  0.
<mgrwt>
<rscale>  0 0.51007712E+02</rscale>
<asrwt>0</asrwt>
<pdfrwt beam="1">  1       13 0.10000000E+01 0.51007712E+02</pdfrwt>
<pdfrwt beam="2">  1       22 0.10656426E+00 0.51007712E+02</pdfrwt>
<totfact> 0.12817015E+00</totfact>
</mgrwt>
</event>
<event>
 4    1  0.2416490E+000  0.5168717E+02  0.7957747E-01  0.1436448E+00
         13   -1    0    0    0    0  0.00000000000E+00  0.00000000000E+00  0.99999944177E+02  0.99999999997E+02  0.10566000000E+00 0. -1.
         22   -1    0    0    0    0 -0.00000000000E+00 -0.00000000000E+00 -0.14535587081E+02  0.14535587081E+02  0.00000000000E+00 0. -1.
         13    1    1    2    0    0  0.13079230023E+02 -0.70539799439E+00  0.50406629942E+02  0.52080738767E+02  0.10566000000E+00 0.  1.
        996    1    1    2    0    0 -0.13079230023E+02  0.70539799439E+00  0.35057727154E+02  0.62454848311E+02  0.50000000000E+02 0.  0.
<mgrwt>
<rscale>  0 0.51687173E+02</rscale>
<asrwt>0</asrwt>
<pdfrwt beam="1">  1       13 0.10000000E+01 0.51687173E+02</pdfrwt>
<pdfrwt beam="2">  1       22 0.14535611E+00 0.51687173E+02</pdfrwt>
<totfact> 0.79263004E-01</totfact>
</mgrwt>
</event>
<event>
 4    1  0.2416490E+000  0.5440930E+02  0.7957747E-01  0.1422913E+00
         13   -1    0    0    0    0  0.00000000000E+00  0.00000000000E+00  0.99999944177E+02  0.99999999997E+02  0.10566000000E+00 0.  1.
         22   -1    0    0    0    0 -0.00000000000E+00 -0.00000000000E+00 -0.25845288459E+02  0.25845288459E+02  0.00000000000E+00 0. -1.
         13    1    1    2    0    0  0.17905323484E+02 -0.11822473205E+02 -0.11520241844E+02  0.24353616117E+02  0.10566000000E+00 0. -1.
        996    1    1    2    0    0 -0.17905323484E+02  0.11822473205E+02  0.85674897563E+02  0.10149167234E+03  0.50000000000E+02 0.  0.
<mgrwt>
<rscale>  0 0.54409296E+02</rscale>
<asrwt>0</asrwt>
<pdfrwt beam="1">  1       13 0.10000000E+01 0.54409296E+02</pdfrwt>
<pdfrwt beam="2">  1       22 0.25845309E+00 0.54409296E+02</pdfrwt>
<totfact> 0.27711686E-01</totfact>
</mgrwt>
</event>
<event>
 4    1  0.2416490E+000  0.5210655E+02  0.7957747E-01  0.1434300E+00
         13   -1    0    0    0    0  0.00000000000E+00  0.00000000000E+00  0.99999944170E+02  0.99999999990E+02  0.10566000000E+00 0. -1.
         22   -1    0    0    0    0 -0.00000000000E+00 -0.00000000000E+00 -0.19847208875E+02  0.19847208875E+02  0.00000000000E+00 0.  1.
         13    1    1    2    0    0  0.92364863648E+01  0.11392098849E+02 -0.85467487093E+01  0.16975001446E+02  0.10566000000E+00 0.  1.
        996    1    1    2    0    0 -0.92364863648E+01 -0.11392098849E+02  0.88699484005E+02  0.10287220742E+03  0.50000000000E+02 0.  0.
<mgrwt>
<rscale>  0 0.52106550E+02</rscale>
<asrwt>0</asrwt>
<pdfrwt beam="1">  1       13 0.10000000E+01 0.52106550E+02</pdfrwt>
<pdfrwt beam="2">  1       22 0.19847231E+00 0.52106550E+02</pdfrwt>
<totfact> 0.45968622E-01</totfact>
</mgrwt>
</event>
<event>
 4    1  0.2416490E+000  0.5139345E+02  0.7957747E-01  0.1437967E+00
         13   -1    0    0    0    0  0.00000000000E+00  0.00000000000E+00  0.99999944180E+02  0.10000000000E+03  0.10566000000E+00 0.  1.
         22   -1    0    0    0    0 -0.00000000000E+00 -0.00000000000E+00 -0.10587635317E+02  0.10587635317E+02  0.00000000000E+00 0.  1.
         13    1    1    2    0    0  0.11652700113E+02  0.23455181944E+01  0.80613883462E+01  0.14362591049E+02  0.10566000000E+00 0. -1.
        996    1    1    2    0    0 -0.11652700113E+02 -0.23455181944E+01  0.81350920517E+02  0.96225044268E+02  0.50000000000E+02 0.  0.
<mgrwt>
<rscale>  0 0.51393452E+02</rscale>
<asrwt>0</asrwt>
<pdfrwt beam="1">  1       13 0.10000000E+01 0.51393452E+02</pdfrwt>
<pdfrwt beam="2">  1       22 0.10587660E+00 0.51393452E+02</pdfrwt>
<totfact> 0.12951643E+00</totfact>
</mgrwt>
</event>
<event>
 4    1  0.2416490E+000  0.5509958E+02  0.7957747E-01  0.1419629E+00
         13   -1    0    0    0    0  0.00000000000E+00  0.00000000000E+00  0.99999944185E+02  0.10000000001E+03  0.10566000000E+00 0. -1.
         22   -1    0    0    0    0 -0.00000000000E+00 -0.00000000000E+00 -0.15906506132E+02  0.15906506132E+02  0.00000000000E+00 0. -1.
         13    1    1    2    0    0 -0.30895912831E+01 -0.22943803420E+02  0.35826966397E+02  0.42656141116E+02  0.10566000000E+00 0.  1.
        996    1    1    2    0    0  0.30895912831E+01  0.22943803420E+02  0.48266471655E+02  0.73250365021E+02  0.50000000000E+02 0.  0.
<mgrwt>
<rscale>  0 0.55099580E+02</rscale>
<asrwt>0</asrwt>
<pdfrwt beam="1">  1       13 0.10000000E+01 0.55099580E+02</pdfrwt>
<pdfrwt beam="2">  1       22 0.15906530E+00 0.55099580E+02</pdfrwt>
<totfact> 0.68613511E-01</totfact>
</mgrwt>
</event>
<event>
 4    1  0.2416490E+000  0.5122832E+02  0.7957747E-01  0.1438827E+00
         13   -1    0    0    0    0  0.00000000000E+00  0.00000000000E+00  0.99999944168E+02  0.99999999988E+02  0.10566000000E+00 0.  1.
         22   -1    0    0    0    0 -0.00000000000E+00 -0.00000000000E+00 -0.21692023537E+02  0.21692023537E+02  0.00000000000E+00 0. -1.
         13    1    1    2    0    0 -0.42125013985E+01  0.10324505566E+02 -0.12918674167E+02  0.17065869139E+02  0.10566000000E+00 0. -1.
        996    1    1    2    0    0  0.42125013985E+01 -0.10324505566E+02  0.91226594798E+02  0.10462615439E+03  0.50000000000E+02 0.  0.
<mgrwt>
<rscale>  0 0.51228318E+02</rscale>
<asrwt>0</asrwt>
<pdfrwt beam="1">  1       13 0.10000000E+01 0.51228318E+02</pdfrwt>
<pdfrwt beam="2">  1       22 0.21692045E+00 0.51228318E+02</pdfrwt>
<totfact> 0.38806147E-01</totfact>
</mgrwt>
</event>
<event>
 4    1  0.2416490E+000  0.5518877E+02  0.7957747E-01  0.1419208E+00
         13   -1    0    0    0    0  0.00000000000E+00  0.00000000000E+00  0.99999944184E+02  0.10000000000E+03  0.10566000000E+00 0. -1.
         22   -1    0    0    0    0 -0.00000000000E+00 -0.00000000000E+00 -0.15529174195E+02  0.15529174195E+02  0.00000000000E+00 0. -1.
         13    1    1    2    0    0  0.14978230945E+02 -0.17929096344E+02  0.29549336757E+02  0.37669276138E+02  0.10566000000E+00 0.  1.
        996    1    1    2    0    0 -0.14978230945E+02  0.17929096344E+02  0.54921433232E+02  0.77859898062E+02  0.50000000000E+02 0.  0.
<mgrwt>
<rscale>  0 0.55188766E+02</rscale>
<asrwt>0</asrwt>
<pdfrwt beam="1">  1       13 0.10000000E+01 0.55188766E+02</pdfrwt>
<pdfrwt beam="2">  1       22 0.15529198E+00 0.55188766E+02</pdfrwt>
<totfact> 0.71483385E-01</totfact>
</mgrwt>
</event>
<event>
 4    1  0.2416490E+000  0.5447279E+02  0.7957747E-01  0.1422609E+00
         13   -1    0    0    0    0  0.00000000000E+00  0.00000000000E+00  0.99999944175E+02  0.99999999995E+02  0.10566000000E+00 0. -1.
         22   -1    0    0    0    0 -0.00000000000E+00 -0.00000000000E+00 -0.15996288333E+02  0.15996288333E+02  0.00000000000E+00 0.  1.
         13    1    1    2    0    0 -0.16515749949E+02  0.13946855621E+02  0.92790326839E+01  0.23524378625E+02  0.10566000000E+00 0.  1.
        996    1    1    2    0    0  0.16515749949E+02 -0.13946855621E+02  0.74724623158E+02  0.92471909703E+02  0.50000000000E+02 0.  0.
<mgrwt>
<rscale>  0 0.54472789E+02</rscale>
<asrwt>0</asrwt>
<pdfrwt beam="1">  1       13 0.10000000E+01 0.54472789E+02</pdfrwt>
<pdfrwt beam="2">  1       22 0.15996312E+00 0.54472789E+02</pdfrwt>
<totfact> 0.67876315E-01</totfact>
</mgrwt>
</event>
<event>
 4    1  0.2416490E+000  0.5215396E+02  0.7957747E-01  0.1434058E+00
         13   -1    0    0    0    0  0.00000000000E+00  0.00000000000E+00  0.99999944180E+02  0.10000000000E+03  0.10566000000E+00 0.  1.
         22   -1    0    0    0    0 -0.00000000000E+00 -0.00000000000E+00 -0.11381783735E+02  0.11381783735E+02  0.00000000000E+00 0. -1.
         13    1    1    2    0    0 -0.11464026941E+02 -0.94133694587E+01  0.14419758977E+02  0.20687582055E+02  0.10566000000E+00 0. -1.
        996    1    1    2    0    0  0.11464026941E+02  0.94133694587E+01  0.74198401467E+02  0.90694201681E+02  0.50000000000E+02 0.  0.
<mgrwt>
<rscale>  0 0.52153959E+02</rscale>
<asrwt>0</asrwt>
<pdfrwt beam="1">  1       13 0.10000000E+01 0.52153959E+02</pdfrwt>
<pdfrwt beam="2">  1       22 0.11381808E+00 0.52153959E+02</pdfrwt>
<totfact> 0.11651522E+00</totfact>
</mgrwt>
</event>
<event>
 4    1  0.2416490E+000  0.5279233E+02  0.7957747E-01  0.1430837E+00
         13   -1    0    0    0    0  0.00000000000E+00  0.00000000000E+00  0.99999944176E+02  0.99999999996E+02  0.10566000000E+00 0.  1.
         22   -1    0    0    0    0 -0.00000000000E+00 -0.00000000000E+00 -0.12572601199E+02  0.12572601199E+02  0.00000000000E+00 0.  1.
         13    1    1    2    0    0  0.16712801970E+02  0.27770720340E+01  0.30809995765E+02  0.35161013664E+02  0.10566000000E+00 0. -1.
        996    1    1    2    0    0 -0.16712801970E+02 -0.27770720340E+01  0.56617347212E+02  0.77411587531E+02  0.50000000000E+02 0.  0.
<mgrwt>
<rscale>  0 0.52792328E+02</rscale>
<asrwt>0</asrwt>
<pdfrwt beam="1">  1       13 0.10000000E+01 0.52792328E+02</pdfrwt>
<pdfrwt beam="2">  1       22 0.12572626E+00 0.52792328E+02</pdfrwt>
<totfact> 0.10020117E+00</totfact>
</mgrwt>
</event>
<event>
 4    1  0.2416490E+000  0.5165677E+02  0.7957747E-01  0.1436605E+00
         13   -1    0    0    0    0  0.00000000000E+00  0.00000000000E+00  0.99999944180E+02  0.10000000000E+03  0.10566000000E+00 0. -1.
         22   -1    0    0    0    0 -0.00000000000E+00 -0.00000000000E+00 -0.12173308859E+02  0.12173308859E+02  0.00000000000E+00 0. -1.
         13    1    1    2    0    0  0.94367381335E+01 -0.89089811536E+01  0.37736351395E+01  0.13515674530E+02  0.10566000000E+00 0.  1.
        996    1    1    2    0    0 -0.94367381335E+01  0.89089811536E+01  0.84053000181E+02  0.98657634329E+02  0.50000000000E+02 0.  0.
<mgrwt>
<rscale>  0 0.51656771E+02</rscale>
<asrwt>0</asrwt>
<pdfrwt beam="1">  1       13 0.10000000E+01 0.51656771E+02</pdfrwt>
<pdfrwt beam="2">  1       22 0.12173333E+00 0.51656771E+02</pdfrwt>
<totfact> 0.10507244E+00</totfact>
</mgrwt>
</event>
<event>
 4    1  0.2416490E+000  0.5179090E+02  0.7957747E-01  0.1435915E+00
         13   -1    0    0    0    0  0.00000000000E+00  0.00000000000E+00  0.99999944182E+02  0.10000000000E+03  0.10566000000E+00 0.  1.
         22   -1    0    0    0    0 -0.00000000000E+00 -0.00000000000E+00 -0.63100686745E+02  0.63100686745E+02  0.00000000000E+00 0. -1.
         13    1    1    2    0    0 -0.13433587972E+02 -0.13548172894E+01 -0.55531322273E+02  0.57149240880E+02  0.10566000000E+00 0. -1.
        996    1    1    2    0    0  0.13433587972E+02  0.13548172894E+01  0.92430579711E+02  0.10595144587E+03  0.50000000000E+02 0.  0.
<mgrwt>
<rscale>  0 0.51790895E+02</rscale>
<asrwt>0</asrwt>
<pdfrwt beam="1">  1       13 0.10000000E+01 0.51790895E+02</pdfrwt>
<pdfrwt beam="2">  1       22 0.63100697E+00 0.51790895E+02</pdfrwt>
<totfact> 0.79260600E-02</totfact>
</mgrwt>
</event>
<event>
 4    1  0.2416490E+000  0.5787600E+02  0.7957747E-01  0.1406968E+00
         13   -1    0    0    0    0  0.00000000000E+00  0.00000000000E+00  0.99999944180E+02  0.10000000000E+03  0.10566000000E+00 0.  1.
         22   -1    0    0    0    0 -0.00000000000E+00 -0.00000000000E+00 -0.68927307248E+02  0.68927307248E+02  0.00000000000E+00 0. -1.
         13    1    1    2    0    0  0.27629893067E+02 -0.92854711465E+01 -0.56721576775E+02  0.63772873553E+02  0.10566000000E+00 0. -1.
        996    1    1    2    0    0 -0.27629893067E+02  0.92854711465E+01  0.87794213707E+02  0.10515443369E+03  0.50000000000E+02 0.  0.
<mgrwt>
<rscale>  0 0.57875996E+02</rscale>
<asrwt>0</asrwt>
<pdfrwt beam="1">  1       13 0.10000000E+01 0.57875996E+02</pdfrwt>
<pdfrwt beam="2">  1       22 0.68927316E+00 0.57875996E+02</pdfrwt>
<totfact> 0.79774397E-02</totfact>
</mgrwt>
</event>
<event>
 4    1  0.2416490E+000  0.5191150E+02  0.7957747E-01  0.1435296E+00
         13   -1    0    0    0    0  0.00000000000E+00  0.00000000000E+00  0.99999944174E+02  0.99999999994E+02  0.10566000000E+00 0.  1.
         22   -1    0    0    0    0 -0.00000000000E+00 -0.00000000000E+00 -0.17336023064E+02  0.17336023064E+02  0.00000000000E+00 0. -1.
         13    1    1    2    0    0  0.11727656906E+02  0.75674302401E+01 -0.55180392657E+01  0.15008792700E+02  0.10566000000E+00 0. -1.
        996    1    1    2    0    0 -0.11727656906E+02 -0.75674302401E+01  0.88181960376E+02  0.10232723036E+03  0.50000000000E+02 0.  0.
<mgrwt>
<rscale>  0 0.51911501E+02</rscale>
<asrwt>0</asrwt>
<pdfrwt beam="1">  1       13 0.10000000E+01 0.51911501E+02</pdfrwt>
<pdfrwt beam="2">  1       22 0.17336046E+00 0.51911501E+02</pdfrwt>
<totfact> 0.58730669E-01</totfact>
</mgrwt>
</event>
<event>
 4    1  0.2416490E+000  0.5103627E+02  0.7957747E-01  0.1439831E+00
         13   -1    0    0    0    0  0.00000000000E+00  0.00000000000E+00  0.99999944176E+02  0.99999999996E+02  0.10566000000E+00 0.  1.
         22   -1    0    0    0    0 -0.00000000000E+00 -0.00000000000E+00 -0.15635447301E+02  0.15635447301E+02  0.00000000000E+00 0. -1.
         13    1    1    2    0    0  0.94063978567E+01  0.40275315081E+01 -0.59945287947E+01  0.11859463318E+02  0.10566000000E+00 0. -1.
        996    1    1    2    0    0 -0.94063978567E+01 -0.40275315081E+01  0.90359025670E+02  0.10377598398E+03  0.50000000000E+02 0.  0.
<mgrwt>
<rscale>  0 0.51036275E+02</rscale>
<asrwt>0</asrwt>
<pdfrwt beam="1">  1       13 0.10000000E+01 0.51036275E+02</pdfrwt>
<pdfrwt beam="2">  1       22 0.15635471E+00 0.51036275E+02</pdfrwt>
<totfact> 0.70088459E-01</totfact>
</mgrwt>
</event>
<event>
 4    1  0.2416490E+000  0.5231362E+02  0.7957747E-01  0.1433248E+00
         13   -1    0    0    0    0  0.00000000000E+00  0.00000000000E+00  0.99999944179E+02  0.99999999999E+02  0.10566000000E+00 0. -1.
         22   -1    0    0    0    0 -0.00000000000E+00 -0.00000000000E+00 -0.14192654812E+02  0.14192654812E+02  0.00000000000E+00 0.  1.
         13    1    1    2    0    0 -0.54509780647E+00  0.15375882115E+02  0.21643122250E+01  0.15537383753E+02  0.10566000000E+00 0.  1.
        996    1    1    2    0    0  0.54509780647E+00 -0.15375882115E+02  0.83642977142E+02  0.98655271058E+02  0.50000000000E+02 0.  0.
<mgrwt>
<rscale>  0 0.52313620E+02</rscale>
<asrwt>0</asrwt>
<pdfrwt beam="1">  1       13 0.10000000E+01 0.52313620E+02</pdfrwt>
<pdfrwt beam="2">  1       22 0.14192679E+00 0.52313620E+02</pdfrwt>
<totfact> 0.82529402E-01</totfact>
</mgrwt>
</event>
<event>
 4    1  0.2416490E+000  0.5403268E+02  0.7957747E-01  0.1424730E+00
         13   -1    0    0    0    0  0.00000000000E+00  0.00000000000E+00  0.99999944185E+02  0.10000000001E+03  0.10566000000E+00 0.  1.
         22   -1    0    0    0    0 -0.00000000000E+00 -0.00000000000E+00 -0.29215290487E+02  0.29215290487E+02  0.00000000000E+00 0. -1.
         13    1    1    2    0    0 -0.17747602409E+02  0.10225105646E+02 -0.16674287207E+02  0.26411610981E+02  0.10566000000E+00 0. -1.
        996    1    1    2    0    0  0.17747602409E+02 -0.10225105646E+02  0.87458940905E+02  0.10280367951E+03  0.50000000000E+02 0.  0.
<mgrwt>
<rscale>  0 0.54032677E+02</rscale>
<asrwt>0</asrwt>
<pdfrwt beam="1">  1       13 0.10000000E+01 0.54032677E+02</pdfrwt>
<pdfrwt beam="2">  1       22 0.29215310E+00 0.54032677E+02</pdfrwt>
<totfact> 0.21822571E-01</totfact>
</mgrwt>
</event>
<event>
 4    1  0.2416490E+000  0.5446617E+02  0.7957747E-01  0.1422640E+00
         13   -1    0    0    0    0  0.00000000000E+00  0.00000000000E+00  0.99999944180E+02  0.10000000000E+03  0.10566000000E+00 0. -1.
         22   -1    0    0    0    0 -0.00000000000E+00 -0.00000000000E+00 -0.59466808014E+02  0.59466808014E+02  0.00000000000E+00 0.  1.
         13    1    1    2    0    0 -0.21446124526E+02 -0.25744787627E+01 -0.49631495287E+02  0.54128187542E+02  0.10566000000E+00 0.  1.
        996    1    1    2    0    0  0.21446124526E+02  0.25744787627E+01  0.90164631453E+02  0.10533862047E+03  0.50000000000E+02 0.  0.
<mgrwt>
<rscale>  0 0.54466175E+02</rscale>
<asrwt>0</asrwt>
<pdfrwt beam="1">  1       13 0.10000000E+01 0.54466175E+02</pdfrwt>
<pdfrwt beam="2">  1       22 0.59466819E+00 0.54466175E+02</pdfrwt>
<totfact> 0.61812323E-02</totfact>
</mgrwt>
</event>
<event>
 4    1  0.2416490E+000  0.5292517E+02  0.7957747E-01  0.1430174E+00
         13   -1    0    0    0    0  0.00000000000E+00  0.00000000000E+00  0.99999944183E+02  0.10000000000E+03  0.10566000000E+00 0. -1.
         22   -1    0    0    0    0 -0.00000000000E+00 -0.00000000000E+00 -0.12501428189E+02  0.12501428189E+02  0.00000000000E+00 0. -1.
         13    1    1    2    0    0  0.17016989883E+02  0.33905915114E+01  0.16475985318E+02  0.23927877292E+02  0.10566000000E+00 0.  1.
        996    1    1    2    0    0 -0.17016989883E+02 -0.33905915114E+01  0.71022530675E+02  0.88573550900E+02  0.50000000000E+02 0.  0.
<mgrwt>
<rscale>  0 0.52925174E+02</rscale>
<asrwt>0</asrwt>
<pdfrwt beam="1">  1       13 0.10000000E+01 0.52925174E+02</pdfrwt>
<pdfrwt beam="2">  1       22 0.12501453E+00 0.52925174E+02</pdfrwt>
<totfact> 0.10111916E+00</totfact>
</mgrwt>
</event>
<event>
 4    1  0.2416490E+000  0.5327823E+02  0.7957747E-01  0.1428421E+00
         13   -1    0    0    0    0  0.00000000000E+00  0.00000000000E+00  0.99999944178E+02  0.99999999998E+02  0.10566000000E+00 0.  1.
         22   -1    0    0    0    0 -0.00000000000E+00 -0.00000000000E+00 -0.12872330198E+02  0.12872330198E+02  0.00000000000E+00 0.  1.
         13    1    1    2    0    0  0.23513100896E+01  0.18249418170E+02  0.20123025508E+02  0.27267512580E+02  0.10566000000E+00 0. -1.
        996    1    1    2    0    0 -0.23513100896E+01 -0.18249418170E+02  0.67004588472E+02  0.85604817616E+02  0.50000000000E+02 0.  0.
<mgrwt>
<rscale>  0 0.53278231E+02</rscale>
<asrwt>0</asrwt>
<pdfrwt beam="1">  1       13 0.10000000E+01 0.53278231E+02</pdfrwt>
<pdfrwt beam="2">  1       22 0.12872355E+00 0.53278231E+02</pdfrwt>
<totfact> 0.96676132E-01</totfact>
</mgrwt>
</event>
<event>
 4    1  0.2416490E+000  0.5140920E+02  0.7957747E-01  0.1437886E+00
         13   -1    0    0    0    0  0.00000000000E+00  0.00000000000E+00  0.99999944178E+02  0.99999999998E+02  0.10566000000E+00 0.  1.
         22   -1    0    0    0    0 -0.00000000000E+00 -0.00000000000E+00 -0.10202904888E+02  0.10202904888E+02  0.00000000000E+00 0.  1.
         13    1    1    2    0    0 -0.11660542367E+02  0.26338831490E+01  0.22913754879E+02  0.25844862457E+02  0.10566000000E+00 0. -1.
        996    1    1    2    0    0  0.11660542367E+02 -0.26338831490E+01  0.66883284412E+02  0.84358042429E+02  0.50000000000E+02 0.  0.
<mgrwt>
<rscale>  0 0.51409198E+02</rscale>
<asrwt>0</asrwt>
<pdfrwt beam="1">  1       13 0.10000000E+01 0.51409198E+02</pdfrwt>
<pdfrwt beam="2">  1       22 0.10202930E+00 0.51409198E+02</pdfrwt>
<totfact> 0.13673071E+00</totfact>
</mgrwt>
</event>
<event>
 4    1  0.2416490E+000  0.5140271E+02  0.7957747E-01  0.1437919E+00
         13   -1    0    0    0    0  0.00000000000E+00  0.00000000000E+00  0.99999944182E+02  0.10000000000E+03  0.10566000000E+00 0.  1.
         22   -1    0    0    0    0 -0.00000000000E+00 -0.00000000000E+00 -0.10056978175E+02  0.10056978175E+02  0.00000000000E+00 0.  1.
         13    1    1    2    0    0  0.44769580542E+01 -0.11054202178E+02  0.19392592925E+02  0.22766694174E+02  0.10566000000E+00 0. -1.
        996    1    1    2    0    0 -0.44769580542E+01  0.11054202178E+02  0.70550373083E+02  0.87290284003E+02  0.50000000000E+02 0.  0.
<mgrwt>
<rscale>  0 0.51402709E+02</rscale>
<asrwt>0</asrwt>
<pdfrwt beam="1">  1       13 0.10000000E+01 0.51402709E+02</pdfrwt>
<pdfrwt beam="2">  1       22 0.10057003E+00 0.51402709E+02</pdfrwt>
<totfact> 0.13962099E+00</totfact>
</mgrwt>
</event>
<event>
 4    1  0.2416490E+000  0.5659212E+02  0.7957747E-01  0.1412716E+00
         13   -1    0    0    0    0  0.00000000000E+00  0.00000000000E+00  0.99999944179E+02  0.99999999999E+02  0.10566000000E+00 0.  1.
         22   -1    0    0    0    0 -0.00000000000E+00 -0.00000000000E+00 -0.28878106942E+02  0.28878106942E+02  0.00000000000E+00 0.  1.
         13    1    1    2    0    0  0.24112441655E+02 -0.11011743782E+02 -0.11367211731E+02  0.28842555543E+02  0.10566000000E+00 0. -1.
        996    1    1    2    0    0 -0.24112441655E+02  0.11011743782E+02  0.82489048968E+02  0.10003555140E+03  0.50000000000E+02 0.  0.
<mgrwt>
<rscale>  0 0.56592123E+02</rscale>
<asrwt>0</asrwt>
<pdfrwt beam="1">  1       13 0.10000000E+01 0.56592123E+02</pdfrwt>
<pdfrwt beam="2">  1       22 0.28878127E+00 0.56592123E+02</pdfrwt>
<totfact> 0.22384836E-01</totfact>
</mgrwt>
</event>
<event>
 4    1  0.2416490E+000  0.6592167E+02  0.7957747E-01  0.1374538E+00
         13   -1    0    0    0    0  0.00000000000E+00  0.00000000000E+00  0.99999944180E+02  0.10000000000E+03  0.10566000000E+00 0. -1.
         22   -1    0    0    0    0 -0.00000000000E+00 -0.00000000000E+00 -0.35401161235E+02  0.35401161235E+02  0.00000000000E+00 0.  1.
         13    1    1    2    0    0  0.83906824189E+00  0.42953028765E+02 -0.20370224872E+00  0.42961836253E+02  0.10566000000E+00 0.  1.
        996    1    1    2    0    0 -0.83906824189E+00 -0.42953028765E+02  0.64802485194E+02  0.92439324981E+02  0.50000000000E+02 0.  0.
<mgrwt>
<rscale>  0 0.65921671E+02</rscale>
<asrwt>0</asrwt>
<pdfrwt beam="1">  1       13 0.10000000E+01 0.65921671E+02</pdfrwt>
<pdfrwt beam="2">  1       22 0.35401179E+00 0.65921671E+02</pdfrwt>
<totfact> 0.15598519E-01</totfact>
</mgrwt>
</event>
<event>
 4    1  0.2416490E+000  0.5232572E+02  0.7957747E-01  0.1433186E+00
         13   -1    0    0    0    0  0.00000000000E+00  0.00000000000E+00  0.99999944180E+02  0.10000000000E+03  0.10566000000E+00 0.  1.
         22   -1    0    0    0    0 -0.00000000000E+00 -0.00000000000E+00 -0.13214570074E+02  0.13214570074E+02  0.00000000000E+00 0. -1.
         13    1    1    2    0    0  0.15375290778E+02 -0.12575839852E+01  0.51783672650E+01  0.16272914170E+02  0.10566000000E+00 0. -1.
        996    1    1    2    0    0 -0.15375290778E+02  0.12575839852E+01  0.81607006841E+02  0.96941655905E+02  0.50000000000E+02 0.  0.
<mgrwt>
<rscale>  0 0.52325721E+02</rscale>
<asrwt>0</asrwt>
<pdfrwt beam="1">  1       13 0.10000000E+01 0.52325721E+02</pdfrwt>
<pdfrwt beam="2">  1       22 0.13214594E+00 0.52325721E+02</pdfrwt>
<totfact> 0.92566958E-01</totfact>
</mgrwt>
</event>
<event>
 4    1  0.2416490E+000  0.5352818E+02  0.7957747E-01  0.1427190E+00
         13   -1    0    0    0    0  0.00000000000E+00  0.00000000000E+00  0.99999944177E+02  0.99999999997E+02  0.10566000000E+00 0.  1.
         22   -1    0    0    0    0 -0.00000000000E+00 -0.00000000000E+00 -0.28096449045E+02  0.28096449045E+02  0.00000000000E+00 0. -1.
         13    1    1    2    0    0 -0.18963974651E+02 -0.23736367534E+01 -0.16168300851E+02  0.25033809188E+02  0.10566000000E+00 0. -1.
        996    1    1    2    0    0  0.18963974651E+02  0.23736367534E+01  0.88071795984E+02  0.10306263985E+03  0.50000000000E+02 0.  0.
<mgrwt>
<rscale>  0 0.53528184E+02</rscale>
<asrwt>0</asrwt>
<pdfrwt beam="1">  1       13 0.10000000E+01 0.53528184E+02</pdfrwt>
<pdfrwt beam="2">  1       22 0.28096469E+00 0.53528184E+02</pdfrwt>
<totfact> 0.23504438E-01</totfact>
</mgrwt>
</event>
<event>
 4    1  0.2416490E+000  0.5738325E+02  0.7957747E-01  0.1409153E+00
         13   -1    0    0    0    0  0.00000000000E+00  0.00000000000E+00  0.99999944175E+02  0.99999999995E+02  0.10566000000E+00 0. -1.
         22   -1    0    0    0    0 -0.00000000000E+00 -0.00000000000E+00 -0.21796243475E+02  0.21796243475E+02  0.00000000000E+00 0.  1.
         13    1    1    2    0    0  0.20412418912E+02 -0.19395109959E+02  0.47020027564E+01  0.28547454004E+02  0.10566000000E+00 0.  1.
        996    1    1    2    0    0 -0.20412418912E+02  0.19395109959E+02  0.73501697943E+02  0.93248789465E+02  0.50000000000E+02 0.  0.
<mgrwt>
<rscale>  0 0.57383248E+02</rscale>
<asrwt>0</asrwt>
<pdfrwt beam="1">  1       13 0.10000000E+01 0.57383248E+02</pdfrwt>
<pdfrwt beam="2">  1       22 0.21796265E+00 0.57383248E+02</pdfrwt>
<totfact> 0.38841232E-01</totfact>
</mgrwt>
</event>
<event>
 4    1  0.2416490E+000  0.5411839E+02  0.7957747E-01  0.1424315E+00
         13   -1    0    0    0    0  0.00000000000E+00  0.00000000000E+00  0.99999944184E+02  0.10000000000E+03  0.10566000000E+00 0. -1.
         22   -1    0    0    0    0 -0.00000000000E+00 -0.00000000000E+00 -0.18279781907E+02  0.18279781907E+02  0.00000000000E+00 0.  1.
         13    1    1    2    0    0  0.20203901722E+02 -0.45390179996E+01  0.54059838067E+00  0.20714819329E+02  0.10566000000E+00 0.  1.
        996    1    1    2    0    0 -0.20203901722E+02  0.45390179996E+01  0.81179563896E+02  0.97564962582E+02  0.50000000000E+02 0.  0.
<mgrwt>
<rscale>  0 0.54118392E+02</rscale>
<asrwt>0</asrwt>
<pdfrwt beam="1">  1       13 0.10000000E+01 0.54118392E+02</pdfrwt>
<pdfrwt beam="2">  1       22 0.18279805E+00 0.54118392E+02</pdfrwt>
<totfact> 0.53645606E-01</totfact>
</mgrwt>
</event>
<event>
 4    1  0.2416490E+000  0.5348424E+02  0.7957747E-01  0.1427406E+00
         13   -1    0    0    0    0  0.00000000000E+00  0.00000000000E+00  0.99999944184E+02  0.10000000000E+03  0.10566000000E+00 0.  1.
         22   -1    0    0    0    0 -0.00000000000E+00 -0.00000000000E+00 -0.17500385153E+02  0.17500385153E+02  0.00000000000E+00 0. -1.
         13    1    1    2    0    0  0.18707441408E+02 -0.32550548324E+01 -0.22709406825E+00  0.18990168028E+02  0.10566000000E+00 0. -1.
        996    1    1    2    0    0 -0.18707441408E+02  0.32550548324E+01  0.82726653098E+02  0.98510217129E+02  0.50000000000E+02 0.  0.
<mgrwt>
<rscale>  0 0.53484238E+02</rscale>
<asrwt>0</asrwt>
<pdfrwt beam="1">  1       13 0.10000000E+01 0.53484238E+02</pdfrwt>
<pdfrwt beam="2">  1       22 0.17500408E+00 0.53484238E+02</pdfrwt>
<totfact> 0.57929773E-01</totfact>
</mgrwt>
</event>
<event>
 4    1  0.2416490E+000  0.5236967E+02  0.7957747E-01  0.1432964E+00
         13   -1    0    0    0    0  0.00000000000E+00  0.00000000000E+00  0.99999944178E+02  0.99999999998E+02  0.10566000000E+00 0.  1.
         22   -1    0    0    0    0 -0.00000000000E+00 -0.00000000000E+00 -0.16285444407E+02  0.16285444407E+02  0.00000000000E+00 0.  1.
         13    1    1    2    0    0  0.11579171065E+02 -0.10416555148E+02 -0.21374130393E+01  0.15721371513E+02  0.10566000000E+00 0. -1.
        996    1    1    2    0    0 -0.11579171065E+02  0.10416555148E+02  0.85851912810E+02  0.10056407289E+03  0.50000000000E+02 0.  0.
<mgrwt>
<rscale>  0 0.52369665E+02</rscale>
<asrwt>0</asrwt>
<pdfrwt beam="1">  1       13 0.10000000E+01 0.52369665E+02</pdfrwt>
<pdfrwt beam="2">  1       22 0.16285468E+00 0.52369665E+02</pdfrwt>
<totfact> 0.65554519E-01</totfact>
</mgrwt>
</event>
<event>
 4    1  0.2416490E+000  0.5232087E+02  0.7957747E-01  0.1433211E+00
         13   -1    0    0    0    0  0.00000000000E+00  0.00000000000E+00  0.99999944187E+02  0.10000000001E+03  0.10566000000E+00 0.  1.
         22   -1    0    0    0    0 -0.00000000000E+00 -0.00000000000E+00 -0.20506052200E+02  0.20506052200E+02  0.00000000000E+00 0.  1.
         13    1    1    2    0    0  0.13113297616E+02  0.80941527974E+01 -0.88943312340E+01  0.17793093492E+02  0.10566000000E+00 0. -1.
        996    1    1    2    0    0 -0.13113297616E+02 -0.80941527974E+01  0.88388223221E+02  0.10271295872E+03  0.50000000000E+02 0.  0.
<mgrwt>
<rscale>  0 0.52320874E+02</rscale>
<asrwt>0</asrwt>
<pdfrwt beam="1">  1       13 0.10000000E+01 0.52320874E+02</pdfrwt>
<pdfrwt beam="2">  1       22 0.20506074E+00 0.52320874E+02</pdfrwt>
<totfact> 0.43260176E-01</totfact>
</mgrwt>
</event>
<event>
 4    1  0.2416490E+000  0.5099825E+02  0.7957747E-01  0.1440030E+00
         13   -1    0    0    0    0  0.00000000000E+00  0.00000000000E+00  0.99999944178E+02  0.99999999998E+02  0.10566000000E+00 0. -1.
         22   -1    0    0    0    0 -0.00000000000E+00 -0.00000000000E+00 -0.12689271811E+02  0.12689271811E+02  0.00000000000E+00 0.  1.
         13    1    1    2    0    0 -0.10028980872E+02  0.49104035861E+00 -0.16220440473E+01  0.10171714157E+02  0.10566000000E+00 0.  1.
        996    1    1    2    0    0  0.10028980872E+02 -0.49104035861E+00  0.88932716415E+02  0.10251755765E+03  0.50000000000E+02 0.  0.
<mgrwt>
<rscale>  0 0.50998251E+02</rscale>
<asrwt>0</asrwt>
<pdfrwt beam="1">  1       13 0.10000000E+01 0.50998251E+02</pdfrwt>
<pdfrwt beam="2">  1       22 0.12689296E+00 0.50998251E+02</pdfrwt>
<totfact> 0.98380167E-01</totfact>
</mgrwt>
</event>
<event>
 4    1  0.2416490E+000  0.5147163E+02  0.7957747E-01  0.1437562E+00
         13   -1    0    0    0    0  0.00000000000E+00  0.00000000000E+00  0.99999944167E+02  0.99999999987E+02  0.10566000000E+00 0.  1.
         22   -1    0    0    0    0 -0.00000000000E+00 -0.00000000000E+00 -0.27167216300E+02  0.27167216300E+02  0.00000000000E+00 0. -1.
         13    1    1    2    0    0  0.95237571495E+01  0.76568396964E+01 -0.18592262178E+02  0.22248876855E+02  0.10566000000E+00 0. -1.
        996    1    1    2    0    0 -0.95237571495E+01 -0.76568396964E+01  0.91424990045E+02  0.10491833943E+03  0.50000000000E+02 0.  0.
<mgrwt>
<rscale>  0 0.51471634E+02</rscale>
<asrwt>0</asrwt>
<pdfrwt beam="1">  1       13 0.10000000E+01 0.51471634E+02</pdfrwt>
<pdfrwt beam="2">  1       22 0.27167237E+00 0.51471634E+02</pdfrwt>
<totfact> 0.25019086E-01</totfact>
</mgrwt>
</event>
<event>
 4    1  0.2416490E+000  0.5545437E+02  0.7957747E-01  0.1417962E+00
         13   -1    0    0    0    0  0.00000000000E+00  0.00000000000E+00  0.99999944168E+02  0.99999999988E+02  0.10566000000E+00 0.  1.
         22   -1    0    0    0    0 -0.00000000000E+00 -0.00000000000E+00 -0.17456281334E+02  0.17456281334E+02  0.00000000000E+00 0. -1.
         13    1    1    2    0    0  0.23981538635E+02  0.26984409050E+00  0.96153086092E+01  0.25838969307E+02  0.10566000000E+00 0. -1.
        996    1    1    2    0    0 -0.23981538635E+02 -0.26984409050E+00  0.72928354224E+02  0.91617312016E+02  0.50000000000E+02 0.  0.
<mgrwt>
<rscale>  0 0.55454369E+02</rscale>
<asrwt>0</asrwt>
<pdfrwt beam="1">  1       13 0.10000000E+01 0.55454369E+02</pdfrwt>
<pdfrwt beam="2">  1       22 0.17456304E+00 0.55454369E+02</pdfrwt>
<totfact> 0.58398682E-01</totfact>
</mgrwt>
</event>
<event>
 4    1  0.2416490E+000  0.5140067E+02  0.7957747E-01  0.1437930E+00
         13   -1    0    0    0    0  0.00000000000E+00  0.00000000000E+00  0.99999944177E+02  0.99999999997E+02  0.10566000000E+00 0.  1.
         22   -1    0    0    0    0 -0.00000000000E+00 -0.00000000000E+00 -0.12627162219E+02  0.12627162219E+02  0.00000000000E+00 0. -1.
         13    1    1    2    0    0 -0.11913518516E+02  0.31090819527E+00  0.79968547390E+00  0.11944841909E+02  0.10566000000E+00 0. -1.
        996    1    1    2    0    0  0.11913518516E+02 -0.31090819527E+00  0.86573096484E+02  0.10068232031E+03  0.50000000000E+02 0.  0.
<mgrwt>
<rscale>  0 0.51400667E+02</rscale>
<asrwt>0</asrwt>
<pdfrwt beam="1">  1       13 0.10000000E+01 0.51400667E+02</pdfrwt>
<pdfrwt beam="2">  1       22 0.12627187E+00 0.51400667E+02</pdfrwt>
<totfact> 0.99224785E-01</totfact>
</mgrwt>
</event>
<event>
 4    1  0.2416490E+000  0.5540073E+02  0.7957747E-01  0.1418213E+00
         13   -1    0    0    0    0  0.00000000000E+00  0.00000000000E+00  0.99999944185E+02  0.10000000001E+03  0.10566000000E+00 0. -1.
         22   -1    0    0    0    0 -0.00000000000E+00 -0.00000000000E+00 -0.23427016773E+02  0.23427016773E+02  0.00000000000E+00 0.  1.
         13    1    1    2    0    0  0.19794586456E+02  0.13319712427E+02 -0.54249515027E+01  0.24467972023E+02  0.10566000000E+00 0.  1.
        996    1    1    2    0    0 -0.19794586456E+02 -0.13319712427E+02  0.81997878915E+02  0.98959044755E+02  0.50000000000E+02 0.  0.
<mgrwt>
<rscale>  0 0.55400726E+02</rscale>
<asrwt>0</asrwt>
<pdfrwt beam="1">  1       13 0.10000000E+01 0.55400726E+02</pdfrwt>
<pdfrwt beam="2">  1       22 0.23427038E+00 0.55400726E+02</pdfrwt>
<totfact> 0.33665940E-01</totfact>
</mgrwt>
</event>
<event>
 4    1  0.2416490E+000  0.5212613E+02  0.7957747E-01  0.1434200E+00
         13   -1    0    0    0    0  0.00000000000E+00  0.00000000000E+00  0.99999944178E+02  0.99999999999E+02  0.10566000000E+00 0.  1.
         22   -1    0    0    0    0 -0.00000000000E+00 -0.00000000000E+00 -0.13003403880E+02  0.13003403880E+02  0.00000000000E+00 0.  1.
         13    1    1    2    0    0  0.51999974262E+00 -0.14726258859E+02  0.44803187335E+01  0.15401867410E+02  0.10566000000E+00 0. -1.
        996    1    1    2    0    0 -0.51999974262E+00  0.14726258859E+02  0.82516221565E+02  0.97601536469E+02  0.50000000000E+02 0.  0.
<mgrwt>
<rscale>  0 0.52126127E+02</rscale>
<asrwt>0</asrwt>
<pdfrwt beam="1">  1       13 0.10000000E+01 0.52126127E+02</pdfrwt>
<pdfrwt beam="2">  1       22 0.13003428E+00 0.52126127E+02</pdfrwt>
<totfact> 0.94913205E-01</totfact>
</mgrwt>
</event>
<event>
 4    1  0.2416490E+000  0.6512644E+02  0.7957747E-01  0.1377497E+00
         13   -1    0    0    0    0  0.00000000000E+00  0.00000000000E+00  0.99999944185E+02  0.10000000001E+03  0.10566000000E+00 0.  1.
         22   -1    0    0    0    0 -0.00000000000E+00 -0.00000000000E+00 -0.29229325402E+02  0.29229325402E+02  0.00000000000E+00 0. -1.
         13    1    1    2    0    0  0.60874599630E+01  0.41284324045E+02  0.18174814853E+02  0.45516894002E+02  0.10566000000E+00 0. -1.
        996    1    1    2    0    0 -0.60874599630E+01 -0.41284324045E+02  0.52595803930E+02  0.83712431405E+02  0.50000000000E+02 0.  0.
<mgrwt>
<rscale>  0 0.65126435E+02</rscale>
<asrwt>0</asrwt>
<pdfrwt beam="1">  1       13 0.10000000E+01 0.65126435E+02</pdfrwt>
<pdfrwt beam="2">  1       22 0.29229345E+00 0.65126435E+02</pdfrwt>
<totfact> 0.22090012E-01</totfact>
</mgrwt>
</event>
<event>
 4    1  0.2416490E+000  0.5326829E+02  0.7957747E-01  0.1428470E+00
         13   -1    0    0    0    0  0.00000000000E+00  0.00000000000E+00  0.99999944181E+02  0.10000000000E+03  0.10566000000E+00 0. -1.
         22   -1    0    0    0    0 -0.00000000000E+00 -0.00000000000E+00 -0.31482390214E+02  0.31482390214E+02  0.00000000000E+00 0.  1.
         13    1    1    2    0    0 -0.18277440380E+02 -0.18562031922E+01 -0.20634931916E+02  0.27628280734E+02  0.10566000000E+00 0.  1.
        996    1    1    2    0    0  0.18277440380E+02  0.18562031922E+01  0.89152485883E+02  0.10385410948E+03  0.50000000000E+02 0.  0.
<mgrwt>
<rscale>  0 0.53268286E+02</rscale>
<asrwt>0</asrwt>
<pdfrwt beam="1">  1       13 0.10000000E+01 0.53268286E+02</pdfrwt>
<pdfrwt beam="2">  1       22 0.31482409E+00 0.53268286E+02</pdfrwt>
<totfact> 0.18975958E-01</totfact>
</mgrwt>
</event>
<event>
 4    1  0.2416490E+000  0.5127557E+02  0.7957747E-01  0.1438580E+00
         13   -1    0    0    0    0  0.00000000000E+00  0.00000000000E+00  0.99999944184E+02  0.10000000000E+03  0.10566000000E+00 0.  1.
         22   -1    0    0    0    0 -0.00000000000E+00 -0.00000000000E+00 -0.12528047938E+02  0.12528047938E+02  0.00000000000E+00 0. -1.
         13    1    1    2    0    0  0.65603995286E+01  0.92814711267E+01  0.27195103964E+00  0.11369682038E+02  0.10566000000E+00 0. -1.
        996    1    1    2    0    0 -0.65603995286E+01 -0.92814711267E+01  0.87199945207E+02  0.10115836590E+03  0.50000000000E+02 0.  0.
<mgrwt>
<rscale>  0 0.51275575E+02</rscale>
<asrwt>0</asrwt>
<pdfrwt beam="1">  1       13 0.10000000E+01 0.51275575E+02</pdfrwt>
<pdfrwt beam="2">  1       22 0.12528072E+00 0.51275575E+02</pdfrwt>
<totfact> 0.10042132E+00</totfact>
</mgrwt>
</event>
<event>
 4    1  0.2416490E+000  0.5489496E+02  0.7957747E-01  0.1420596E+00
         13   -1    0    0    0    0  0.00000000000E+00  0.00000000000E+00  0.99999944179E+02  0.99999999999E+02  0.10566000000E+00 0. -1.
         22   -1    0    0    0    0 -0.00000000000E+00 -0.00000000000E+00 -0.18790938531E+02  0.18790938531E+02  0.00000000000E+00 0.  1.
         13    1    1    2    0    0  0.21233844456E+02 -0.79107691689E+01  0.24545257056E+01  0.22792373280E+02  0.10566000000E+00 0.  1.
        996    1    1    2    0    0 -0.21233844456E+02  0.79107691689E+01  0.78754479943E+02  0.95998565251E+02  0.50000000000E+02 0.  0.
<mgrwt>
<rscale>  0 0.54894958E+02</rscale>
<asrwt>0</asrwt>
<pdfrwt beam="1">  1       13 0.10000000E+01 0.54894958E+02</pdfrwt>
<pdfrwt beam="2">  1       22 0.18790961E+00 0.54894958E+02</pdfrwt>
<totfact> 0.51095762E-01</totfact>
</mgrwt>
</event>
<event>
 4    1  0.2416490E+000  0.5248802E+02  0.7957747E-01  0.1432366E+00
         13   -1    0    0    0    0  0.00000000000E+00  0.00000000000E+00  0.99999944183E+02  0.10000000000E+03  0.10566000000E+00 0. -1.
         22   -1    0    0    0    0 -0.00000000000E+00 -0.00000000000E+00 -0.11870800396E+02  0.11870800396E+02  0.00000000000E+00 0. -1.
         13    1    1    2    0    0  0.84532541983E+01 -0.13547495928E+02  0.15444828199E+02  0.22215895989E+02  0.10566000000E+00 0.  1.
        996    1    1    2    0    0 -0.84532541983E+01  0.13547495928E+02  0.72684315588E+02  0.89654904411E+02  0.50000000000E+02 0.  0.
<mgrwt>
<rscale>  0 0.52488019E+02</rscale>
<asrwt>0</asrwt>
<pdfrwt beam="1">  1       13 0.10000000E+01 0.52488019E+02</pdfrwt>
<pdfrwt beam="2">  1       22 0.11870825E+00 0.52488019E+02</pdfrwt>
<totfact> 0.10940716E+00</totfact>
</mgrwt>
</event>
<event>
 4    1  0.2416490E+000  0.5293415E+02  0.7957747E-01  0.1430129E+00
         13   -1    0    0    0    0  0.00000000000E+00  0.00000000000E+00  0.99999944176E+02  0.99999999996E+02  0.10566000000E+00 0. -1.
         22   -1    0    0    0    0 -0.00000000000E+00 -0.00000000000E+00 -0.35468193244E+02  0.35468193244E+02  0.00000000000E+00 0.  1.
         13    1    1    2    0    0 -0.85548763293E+00 -0.17357779624E+02 -0.25600023015E+02  0.30941827919E+02  0.10566000000E+00 0.  1.
        996    1    1    2    0    0  0.85548763293E+00  0.17357779624E+02  0.90131773947E+02  0.10452636532E+03  0.50000000000E+02 0.  0.
<mgrwt>
<rscale>  0 0.52934151E+02</rscale>
<asrwt>0</asrwt>
<pdfrwt beam="1">  1       13 0.10000000E+01 0.52934151E+02</pdfrwt>
<pdfrwt beam="2">  1       22 0.35468211E+00 0.52934151E+02</pdfrwt>
<totfact> 0.15368922E-01</totfact>
</mgrwt>
</event>
<event>
 4    1  0.2416490E+000  0.5225272E+02  0.7957747E-01  0.1433556E+00
         13   -1    0    0    0    0  0.00000000000E+00  0.00000000000E+00  0.99999944177E+02  0.99999999998E+02  0.10566000000E+00 0.  1.
         22   -1    0    0    0    0 -0.00000000000E+00 -0.00000000000E+00 -0.11375693326E+02  0.11375693326E+02  0.00000000000E+00 0.  1.
         13    1    1    2    0    0  0.10151765631E+02  0.11282236854E+02  0.18686603273E+02  0.24073793215E+02  0.10566000000E+00 0. -1.
        996    1    1    2    0    0 -0.10151765631E+02 -0.11282236854E+02  0.69937647578E+02  0.87301900109E+02  0.50000000000E+02 0.  0.
<mgrwt>
<rscale>  0 0.52252724E+02</rscale>
<asrwt>0</asrwt>
<pdfrwt beam="1">  1       13 0.10000000E+01 0.52252724E+02</pdfrwt>
<pdfrwt beam="2">  1       22 0.11375718E+00 0.52252724E+02</pdfrwt>
<totfact> 0.11663520E+00</totfact>
</mgrwt>
</event>
<event>
 4    1  0.2416490E+000  0.5188342E+02  0.7957747E-01  0.1435440E+00
         13   -1    0    0    0    0  0.00000000000E+00  0.00000000000E+00  0.99999944188E+02  0.10000000001E+03  0.10566000000E+00 0.  1.
         22   -1    0    0    0    0 -0.00000000000E+00 -0.00000000000E+00 -0.20410244533E+02  0.20410244533E+02  0.00000000000E+00 0. -1.
         13    1    1    2    0    0 -0.10327545804E+02  0.92320513605E+01 -0.98593730598E+01  0.17003157819E+02  0.10566000000E+00 0. -1.
        996    1    1    2    0    0  0.10327545804E+02 -0.92320513605E+01  0.89449072715E+02  0.10340708672E+03  0.50000000000E+02 0.  0.
<mgrwt>
<rscale>  0 0.51883417E+02</rscale>
<asrwt>0</asrwt>
<pdfrwt beam="1">  1       13 0.10000000E+01 0.51883417E+02</pdfrwt>
<pdfrwt beam="2">  1       22 0.20410267E+00 0.51883417E+02</pdfrwt>
<totfact> 0.43608944E-01</totfact>
</mgrwt>
</event>
<event>
 4    1  0.2416490E+000  0.5175078E+02  0.7957747E-01  0.1436121E+00
         13   -1    0    0    0    0  0.00000000000E+00  0.00000000000E+00  0.99999944173E+02  0.99999999993E+02  0.10566000000E+00 0. -1.
         22   -1    0    0    0    0 -0.00000000000E+00 -0.00000000000E+00 -0.11714885286E+02  0.11714885286E+02  0.00000000000E+00 0. -1.
         13    1    1    2    0    0  0.94390289289E+01 -0.94364972469E+01  0.62920360693E+01  0.14756138700E+02  0.10566000000E+00 0.  1.
        996    1    1    2    0    0 -0.94390289289E+01  0.94364972469E+01  0.81993022818E+02  0.96958746579E+02  0.50000000000E+02 0.  0.
<mgrwt>
<rscale>  0 0.51750775E+02</rscale>
<asrwt>0</asrwt>
<pdfrwt beam="1">  1       13 0.10000000E+01 0.51750775E+02</pdfrwt>
<pdfrwt beam="2">  1       22 0.11714910E+00 0.51750775E+02</pdfrwt>
<totfact> 0.11144552E+00</totfact>
</mgrwt>
</event>
<event>
 4    1  0.2416490E+000  0.5147288E+02  0.7957747E-01  0.1437555E+00
         13   -1    0    0    0    0  0.00000000000E+00  0.00000000000E+00  0.99999944176E+02  0.99999999996E+02  0.10566000000E+00 0. -1.
         22   -1    0    0    0    0 -0.00000000000E+00 -0.00000000000E+00 -0.24505164436E+02  0.24505164436E+02  0.00000000000E+00 0.  1.
         13    1    1    2    0    0  0.72439535799E+01  0.98479442864E+01 -0.15632533095E+02  0.19845506422E+02  0.10566000000E+00 0.  1.
        996    1    1    2    0    0 -0.72439535799E+01 -0.98479442864E+01  0.91127312836E+02  0.10465965801E+03  0.50000000000E+02 0.  0.
<mgrwt>
<rscale>  0 0.51472875E+02</rscale>
<asrwt>0</asrwt>
<pdfrwt beam="1">  1       13 0.10000000E+01 0.51472875E+02</pdfrwt>
<pdfrwt beam="2">  1       22 0.24505186E+00 0.51472875E+02</pdfrwt>
<totfact> 0.30635007E-01</totfact>
</mgrwt>
</event>
<event>
 4    1  0.2416490E+000  0.5122129E+02  0.7957747E-01  0.1438863E+00
         13   -1    0    0    0    0  0.00000000000E+00  0.00000000000E+00  0.99999944183E+02  0.10000000000E+03  0.10566000000E+00 0. -1.
         22   -1    0    0    0    0 -0.00000000000E+00 -0.00000000000E+00 -0.99452727881E+01  0.99452727881E+01  0.00000000000E+00 0. -1.
         13    1    1    2    0    0  0.82186233258E+01  0.74883334316E+01  0.10284813014E+02  0.15146268508E+02  0.10566000000E+00 0.  1.
        996    1    1    2    0    0 -0.82186233258E+01 -0.74883334316E+01  0.79769858381E+02  0.94799004283E+02  0.50000000000E+02 0.  0.
<mgrwt>
<rscale>  0 0.51221293E+02</rscale>
<asrwt>0</asrwt>
<pdfrwt beam="1">  1       13 0.10000000E+01 0.51221293E+02</pdfrwt>
<pdfrwt beam="2">  1       22 0.99452979E-01 0.51221293E+02</pdfrwt>
<totfact> 0.14183520E+00</totfact>
</mgrwt>
</event>
<event>
 4    1  0.2416490E+000  0.5195775E+02  0.7957747E-01  0.1435059E+00
         13   -1    0    0    0    0  0.00000000000E+00  0.00000000000E+00  0.99999944184E+02  0.10000000000E+03  0.10566000000E+00 0.  1.
         22   -1    0    0    0    0 -0.00000000000E+00 -0.00000000000E+00 -0.25248076820E+02  0.25248076820E+02  0.00000000000E+00 0. -1.
         13    1    1    2    0    0  0.80676524762E+01 -0.11598287398E+02 -0.15584442067E+02  0.21035524372E+02  0.10566000000E+00 0. -1.
        996    1    1    2    0    0 -0.80676524762E+01  0.11598287398E+02  0.90336309431E+02  0.10421255245E+03  0.50000000000E+02 0.  0.
<mgrwt>
<rscale>  0 0.51957745E+02</rscale>
<asrwt>0</asrwt>
<pdfrwt beam="1">  1       13 0.10000000E+01 0.51957745E+02</pdfrwt>
<pdfrwt beam="2">  1       22 0.25248098E+00 0.51957745E+02</pdfrwt>
<totfact> 0.28910200E-01</totfact>
</mgrwt>
</event>
<event>
 4    1  0.2416490E+000  0.5174012E+02  0.7957747E-01  0.1436176E+00
         13   -1    0    0    0    0  0.00000000000E+00  0.00000000000E+00  0.99999944174E+02  0.99999999995E+02  0.10566000000E+00 0.  1.
         22   -1    0    0    0    0 -0.00000000000E+00 -0.00000000000E+00 -0.10610223215E+02  0.10610223215E+02  0.00000000000E+00 0.  1.
         13    1    1    2    0    0  0.13220867777E+02  0.14996993732E+01  0.15887220966E+02  0.20723305650E+02  0.10566000000E+00 0. -1.
        996    1    1    2    0    0 -0.13220867777E+02 -0.14996993732E+01  0.73502499994E+02  0.89886917560E+02  0.50000000000E+02 0.  0.
<mgrwt>
<rscale>  0 0.51740124E+02</rscale>
<asrwt>0</asrwt>
<pdfrwt beam="1">  1       13 0.10000000E+01 0.51740124E+02</pdfrwt>
<pdfrwt beam="2">  1       22 0.10610248E+00 0.51740124E+02</pdfrwt>
<totfact> 0.12921670E+00</totfact>
</mgrwt>
</event>
<event>
 4    1  0.2416490E+000  0.5345325E+02  0.7957747E-01  0.1427558E+00
         13   -1    0    0    0    0  0.00000000000E+00  0.00000000000E+00  0.99999944175E+02  0.99999999995E+02  0.10566000000E+00 0. -1.
         22   -1    0    0    0    0 -0.00000000000E+00 -0.00000000000E+00 -0.55648188900E+02  0.55648188900E+02  0.00000000000E+00 0.  1.
         13    1    1    2    0    0  0.16113110262E+02 -0.98801488394E+01 -0.46524240700E+02  0.50217186303E+02  0.10566000000E+00 0.  1.
        996    1    1    2    0    0 -0.16113110262E+02  0.98801488394E+01  0.90875995974E+02  0.10543100259E+03  0.50000000000E+02 0.  0.
<mgrwt>
<rscale>  0 0.53453247E+02</rscale>
<asrwt>0</asrwt>
<pdfrwt beam="1">  1       13 0.10000000E+01 0.53453247E+02</pdfrwt>
<pdfrwt beam="2">  1       22 0.55648201E+00 0.53453247E+02</pdfrwt>
<totfact> 0.58724321E-02</totfact>
</mgrwt>
</event>
<event>
 4    1  0.2416490E+000  0.5433428E+02  0.7957747E-01  0.1423274E+00
         13   -1    0    0    0    0  0.00000000000E+00  0.00000000000E+00  0.99999944179E+02  0.99999999999E+02  0.10566000000E+00 0. -1.
         22   -1    0    0    0    0 -0.00000000000E+00 -0.00000000000E+00 -0.15626076112E+02  0.15626076112E+02  0.00000000000E+00 0. -1.
         13    1    1    2    0    0 -0.88053906072E+01  0.19356631299E+02  0.40678225052E+02  0.45901451354E+02  0.10566000000E+00 0.  1.
        996    1    1    2    0    0  0.88053906072E+01 -0.19356631299E+02  0.43695643015E+02  0.69724624757E+02  0.50000000000E+02 0.  0.
<mgrwt>
<rscale>  0 0.54334281E+02</rscale>
<asrwt>0</asrwt>
<pdfrwt beam="1">  1       13 0.10000000E+01 0.54334281E+02</pdfrwt>
<pdfrwt beam="2">  1       22 0.15626100E+00 0.54334281E+02</pdfrwt>
<totfact> 0.70619554E-01</totfact>
</mgrwt>
</event>
<event>
 4    1  0.2416490E+000  0.5466757E+02  0.7957747E-01  0.1421678E+00
         13   -1    0    0    0    0  0.00000000000E+00  0.00000000000E+00  0.99999944176E+02  0.99999999997E+02  0.10566000000E+00 0. -1.
         22   -1    0    0    0    0 -0.00000000000E+00 -0.00000000000E+00 -0.17053184847E+02  0.17053184847E+02  0.00000000000E+00 0.  1.
         13    1    1    2    0    0 -0.11035962135E+02  0.19150744455E+02  0.64402820193E+01  0.23022421027E+02  0.10566000000E+00 0.  1.
        996    1    1    2    0    0  0.11035962135E+02 -0.19150744455E+02  0.76506477310E+02  0.94030763816E+02  0.50000000000E+02 0.  0.
<mgrwt>
<rscale>  0 0.54667572E+02</rscale>
<asrwt>0</asrwt>
<pdfrwt beam="1">  1       13 0.10000000E+01 0.54667572E+02</pdfrwt>
<pdfrwt beam="2">  1       22 0.17053208E+00 0.54667572E+02</pdfrwt>
<totfact> 0.60770900E-01</totfact>
</mgrwt>
</event>
<event>
 4    1  0.2416490E+000  0.5100686E+02  0.7957747E-01  0.1439985E+00
         13   -1    0    0    0    0  0.00000000000E+00  0.00000000000E+00  0.99999944184E+02  0.10000000000E+03  0.10566000000E+00 0.  1.
         22   -1    0    0    0    0 -0.00000000000E+00 -0.00000000000E+00 -0.46417809871E+02  0.46417809871E+02  0.00000000000E+00 0. -1.
         13    1    1    2    0    0 -0.10007581369E+02  0.12442977117E+01 -0.39234101892E+02  0.40509577595E+02  0.10566000000E+00 0. -1.
        996    1    1    2    0    0  0.10007581369E+02 -0.12442977117E+01  0.92816236204E+02  0.10590823228E+03  0.50000000000E+02 0.  0.
<mgrwt>
<rscale>  0 0.51006862E+02</rscale>
<asrwt>0</asrwt>
<pdfrwt beam="1">  1       13 0.10000000E+01 0.51006862E+02</pdfrwt>
<pdfrwt beam="2">  1       22 0.46417825E+00 0.51006862E+02</pdfrwt>
<totfact> 0.89600631E-02</totfact>
</mgrwt>
</event>
<event>
 4    1  0.2416490E+000  0.5138034E+02  0.7957747E-01  0.1438035E+00
         13   -1    0    0    0    0  0.00000000000E+00  0.00000000000E+00  0.99999944180E+02  0.10000000000E+03  0.10566000000E+00 0.  1.
         22   -1    0    0    0    0 -0.00000000000E+00 -0.00000000000E+00 -0.35228316854E+02  0.35228316854E+02  0.00000000000E+00 0. -1.
         13    1    1    2    0    0  0.80736773683E+01 -0.86460930496E+01 -0.27320970808E+02  0.29772232050E+02  0.10566000000E+00 0. -1.
        996    1    1    2    0    0 -0.80736773683E+01  0.86460930496E+01  0.92092598134E+02  0.10545608480E+03  0.50000000000E+02 0.  0.
<mgrwt>
<rscale>  0 0.51380339E+02</rscale>
<asrwt>0</asrwt>
<pdfrwt beam="1">  1       13 0.10000000E+01 0.51380339E+02</pdfrwt>
<pdfrwt beam="2">  1       22 0.35228335E+00 0.51380339E+02</pdfrwt>
<totfact> 0.15527327E-01</totfact>
</mgrwt>
</event>
<event>
 4    1  0.2416490E+000  0.5132732E+02  0.7957747E-01  0.1438311E+00
         13   -1    0    0    0    0  0.00000000000E+00  0.00000000000E+00  0.99999944174E+02  0.99999999994E+02  0.10566000000E+00 0. -1.
         22   -1    0    0    0    0 -0.00000000000E+00 -0.00000000000E+00 -0.99048428965E+01  0.99048428965E+01  0.00000000000E+00 0. -1.
         13    1    1    2    0    0 -0.11509243206E+02  0.14252446165E+01  0.15574199363E+02  0.19418054774E+02  0.10566000000E+00 0.  1.
        996    1    1    2    0    0  0.11509243206E+02 -0.14252446165E+01  0.74520901915E+02  0.90486788116E+02  0.50000000000E+02 0.  0.
<mgrwt>
<rscale>  0 0.51327322E+02</rscale>
<asrwt>0</asrwt>
<pdfrwt beam="1">  1       13 0.10000000E+01 0.51327322E+02</pdfrwt>
<pdfrwt beam="2">  1       22 0.99048680E-01 0.51327322E+02</pdfrwt>
<totfact> 0.14270956E+00</totfact>
</mgrwt>
</event>
<event>
 4    1  0.2416490E+000  0.6311171E+02  0.7957747E-01  0.1385219E+00
         13   -1    0    0    0    0  0.00000000000E+00  0.00000000000E+00  0.99999944179E+02  0.99999999999E+02  0.10566000000E+00 0. -1.
         22   -1    0    0    0    0 -0.00000000000E+00 -0.00000000000E+00 -0.33013661734E+02  0.33013661734E+02  0.00000000000E+00 0. -1.
         13    1    1    2    0    0 -0.38041153717E+02 -0.59965407293E+01 -0.31774187598E+01  0.38641881823E+02  0.10566000000E+00 0.  1.
        996    1    1    2    0    0  0.38041153717E+02  0.59965407293E+01  0.70163701204E+02  0.94371779911E+02  0.50000000000E+02 0.  0.
<mgrwt>
<rscale>  0 0.63111710E+02</rscale>
<asrwt>0</asrwt>
<pdfrwt beam="1">  1       13 0.10000000E+01 0.63111710E+02</pdfrwt>
<pdfrwt beam="2">  1       22 0.33013680E+00 0.63111710E+02</pdfrwt>
<totfact> 0.17607644E-01</totfact>
</mgrwt>
</event>
<event>
 4    1  0.2416490E+000  0.5103202E+02  0.7957747E-01  0.1439853E+00
         13   -1    0    0    0    0  0.00000000000E+00  0.00000000000E+00  0.99999944177E+02  0.99999999997E+02  0.10566000000E+00 0.  1.
         22   -1    0    0    0    0 -0.00000000000E+00 -0.00000000000E+00 -0.36906803783E+02  0.36906803783E+02  0.00000000000E+00 0. -1.
         13    1    1    2    0    0 -0.57406614991E+01  0.84446141761E+01 -0.29480483595E+02  0.31198986844E+02  0.10566000000E+00 0. -1.
        996    1    1    2    0    0  0.57406614991E+01 -0.84446141761E+01  0.92573623989E+02  0.10570781694E+03  0.50000000000E+02 0.  0.
<mgrwt>
<rscale>  0 0.51032016E+02</rscale>
<asrwt>0</asrwt>
<pdfrwt beam="1">  1       13 0.10000000E+01 0.51032016E+02</pdfrwt>
<pdfrwt beam="2">  1       22 0.36906821E+00 0.51032016E+02</pdfrwt>
<totfact> 0.14307166E-01</totfact>
</mgrwt>
</event>
<event>
 4    1  0.2416490E+000  0.5102217E+02  0.7957747E-01  0.1439905E+00
         13   -1    0    0    0    0  0.00000000000E+00  0.00000000000E+00  0.99999944171E+02  0.99999999991E+02  0.10566000000E+00 0.  1.
         22   -1    0    0    0    0 -0.00000000000E+00 -0.00000000000E+00 -0.20559365375E+02  0.20559365375E+02  0.00000000000E+00 0. -1.
         13    1    1    2    0    0  0.78334202532E+01 -0.64729703499E+01 -0.12074668828E+02  0.15781971022E+02  0.10566000000E+00 0. -1.
        996    1    1    2    0    0 -0.78334202532E+01  0.64729703499E+01  0.91515247623E+02  0.10477739434E+03  0.50000000000E+02 0.  0.
<mgrwt>
<rscale>  0 0.51022170E+02</rscale>
<asrwt>0</asrwt>
<pdfrwt beam="1">  1       13 0.10000000E+01 0.51022170E+02</pdfrwt>
<pdfrwt beam="2">  1       22 0.20559388E+00 0.51022170E+02</pdfrwt>
<totfact> 0.42949692E-01</totfact>
</mgrwt>
</event>
<event>
 4    1  0.2416490E+000  0.5398456E+02  0.7957747E-01  0.1424963E+00
         13   -1    0    0    0    0  0.00000000000E+00  0.00000000000E+00  0.99999944182E+02  0.10000000000E+03  0.10566000000E+00 0.  1.
         22   -1    0    0    0    0 -0.00000000000E+00 -0.00000000000E+00 -0.20484322431E+02  0.20484322431E+02  0.00000000000E+00 0.  1.
         13    1    1    2    0    0  0.15126198361E+02 -0.13620958534E+02 -0.42839318346E+01  0.20801337078E+02  0.10566000000E+00 0. -1.
        996    1    1    2    0    0 -0.15126198361E+02  0.13620958534E+02  0.83799553586E+02  0.99682985355E+02  0.50000000000E+02 0.  0.
<mgrwt>
<rscale>  0 0.53984557E+02</rscale>
<asrwt>0</asrwt>
<pdfrwt beam="1">  1       13 0.10000000E+01 0.53984557E+02</pdfrwt>
<pdfrwt beam="2">  1       22 0.20484345E+00 0.53984557E+02</pdfrwt>
<totfact> 0.43471705E-01</totfact>
</mgrwt>
</event>
<event>
 4    1  0.2416490E+000  0.5305496E+02  0.7957747E-01  0.1429528E+00
         13   -1    0    0    0    0  0.00000000000E+00  0.00000000000E+00  0.99999944177E+02  0.99999999997E+02  0.10566000000E+00 0. -1.
         22   -1    0    0    0    0 -0.00000000000E+00 -0.00000000000E+00 -0.18848004449E+02  0.18848004449E+02  0.00000000000E+00 0.  1.
         13    1    1    2    0    0 -0.15789273992E+02 -0.80948959496E+01 -0.43074363204E+01  0.18259071316E+02  0.10566000000E+00 0.  1.
        996    1    1    2    0    0  0.15789273992E+02  0.80948959496E+01  0.85459376048E+02  0.10058893313E+03  0.50000000000E+02 0.  0.
<mgrwt>
<rscale>  0 0.53054957E+02</rscale>
<asrwt>0</asrwt>
<pdfrwt beam="1">  1       13 0.10000000E+01 0.53054957E+02</pdfrwt>
<pdfrwt beam="2">  1       22 0.18848027E+00 0.53054957E+02</pdfrwt>
<totfact> 0.50647781E-01</totfact>
</mgrwt>
</event>
<event>
 4    1  0.2416490E+000  0.6034179E+02  0.7957747E-01  0.1396403E+00
         13   -1    0    0    0    0  0.00000000000E+00  0.00000000000E+00  0.99999944177E+02  0.99999999997E+02  0.10566000000E+00 0.  1.
         22   -1    0    0    0    0 -0.00000000000E+00 -0.00000000000E+00 -0.48744131821E+02  0.48744131821E+02  0.00000000000E+00 0. -1.
         13    1    1    2    0    0 -0.15120100258E+02  0.30207841812E+02 -0.31591536704E+02  0.46251135058E+02  0.10566000000E+00 0. -1.
        996    1    1    2    0    0  0.15120100258E+02 -0.30207841812E+02  0.82847349060E+02  0.10249299676E+03  0.50000000000E+02 0.  0.
<mgrwt>
<rscale>  0 0.60341786E+02</rscale>
<asrwt>0</asrwt>
<pdfrwt beam="1">  1       13 0.10000000E+01 0.60341786E+02</pdfrwt>
<pdfrwt beam="2">  1       22 0.48744146E+00 0.60341786E+02</pdfrwt>
<totfact> 0.79232217E-02</totfact>
</mgrwt>
</event>
<event>
 4    1  0.2416490E+000  0.5540003E+02  0.7957747E-01  0.1418217E+00
         13   -1    0    0    0    0  0.00000000000E+00  0.00000000000E+00  0.99999944189E+02  0.10000000001E+03  0.10566000000E+00 0. -1.
         22   -1    0    0    0    0 -0.00000000000E+00 -0.00000000000E+00 -0.22172286098E+02  0.22172286098E+02  0.00000000000E+00 0.  1.
         13    1    1    2    0    0 -0.14387759437E+02 -0.19030379726E+02 -0.31425799020E+01  0.24063456664E+02  0.10566000000E+00 0.  1.
        996    1    1    2    0    0  0.14387759437E+02  0.19030379726E+02  0.80970237993E+02  0.98108829443E+02  0.50000000000E+02 0.  0.
<mgrwt>
<rscale>  0 0.55400027E+02</rscale>
<asrwt>0</asrwt>
<pdfrwt beam="1">  1       13 0.10000000E+01 0.55400027E+02</pdfrwt>
<pdfrwt beam="2">  1       22 0.22172308E+00 0.55400027E+02</pdfrwt>
<totfact> 0.37465949E-01</totfact>
</mgrwt>
</event>
<event>
 4    1  0.2416490E+000  0.7852241E+02  0.7957747E-01  0.1333298E+00
         13   -1    0    0    0    0  0.00000000000E+00  0.00000000000E+00  0.99999944176E+02  0.99999999996E+02  0.10566000000E+00 0.  1.
         22   -1    0    0    0    0 -0.00000000000E+00 -0.00000000000E+00 -0.49342865219E+02  0.49342865219E+02  0.00000000000E+00 0. -1.
         13    1    1    2    0    0  0.50472391314E+02  0.33441079612E+02  0.11614191787E+02  0.61649563709E+02  0.10566000000E+00 0. -1.
        996    1    1    2    0    0 -0.50472391314E+02 -0.33441079612E+02  0.39042887169E+02  0.87693301506E+02  0.50000000000E+02 0.  0.
<mgrwt>
<rscale>  0 0.78522405E+02</rscale>
<asrwt>0</asrwt>
<pdfrwt beam="1">  1       13 0.10000000E+01 0.78522405E+02</pdfrwt>
<pdfrwt beam="2">  1       22 0.49342879E+00 0.78522405E+02</pdfrwt>
<totfact> 0.77107713E-02</totfact>
</mgrwt>
</event>
<event>
 4    1  0.2416490E+000  0.5130898E+02  0.7957747E-01  0.1438406E+00
         13   -1    0    0    0    0  0.00000000000E+00  0.00000000000E+00  0.99999944177E+02  0.99999999997E+02  0.10566000000E+00 0.  1.
         22   -1    0    0    0    0 -0.00000000000E+00 -0.00000000000E+00 -0.99583008612E+01  0.99583008612E+01  0.00000000000E+00 0.  1.
         13    1    1    2    0    0  0.11493399368E+02 -0.71624254951E+00  0.12689714993E+02  0.17136255806E+02  0.10566000000E+00 0. -1.
        996    1    1    2    0    0 -0.11493399368E+02  0.71624254951E+00  0.77351928322E+02  0.92822045052E+02  0.50000000000E+02 0.  0.
<mgrwt>
<rscale>  0 0.51308978E+02</rscale>
<asrwt>0</asrwt>
<pdfrwt beam="1">  1       13 0.10000000E+01 0.51308978E+02</pdfrwt>
<pdfrwt beam="2">  1       22 0.99583260E-01 0.51308978E+02</pdfrwt>
<totfact> 0.14159716E+00</totfact>
</mgrwt>
</event>
<event>
 4    1  0.2416490E+000  0.5116648E+02  0.7957747E-01  0.1439150E+00
         13   -1    0    0    0    0  0.00000000000E+00  0.00000000000E+00  0.99999944180E+02  0.10000000000E+03  0.10566000000E+00 0. -1.
         22   -1    0    0    0    0 -0.00000000000E+00 -0.00000000000E+00 -0.12716049568E+02  0.12716049568E+02  0.00000000000E+00 0. -1.
         13    1    1    2    0    0  0.39012486483E+01  0.10138501853E+02 -0.75345768024E+00  0.10889803641E+02  0.10566000000E+00 0.  1.
        996    1    1    2    0    0 -0.39012486483E+01 -0.10138501853E+02  0.88037352292E+02  0.10182624593E+03  0.50000000000E+02 0.  0.
<mgrwt>
<rscale>  0 0.51166483E+02</rscale>
<asrwt>0</asrwt>
<pdfrwt beam="1">  1       13 0.10000000E+01 0.51166483E+02</pdfrwt>
<pdfrwt beam="2">  1       22 0.12716074E+00 0.51166483E+02</pdfrwt>
<totfact> 0.98093576E-01</totfact>
</mgrwt>
</event>
<event>
 4    1  0.2416490E+000  0.5946636E+02  0.7957747E-01  0.1400085E+00
         13   -1    0    0    0    0  0.00000000000E+00  0.00000000000E+00  0.99999944175E+02  0.99999999995E+02  0.10566000000E+00 0.  1.
         22   -1    0    0    0    0 -0.00000000000E+00 -0.00000000000E+00 -0.22081650596E+02  0.22081650596E+02  0.00000000000E+00 0.  1.
         13    1    1    2    0    0 -0.16952385545E+02 -0.27365387005E+02  0.15019699549E+02  0.35522532570E+02  0.10566000000E+00 0. -1.
        996    1    1    2    0    0  0.16952385545E+02  0.27365387005E+02  0.62898594030E+02  0.86559118021E+02  0.50000000000E+02 0.  0.
<mgrwt>
<rscale>  0 0.59466358E+02</rscale>
<asrwt>0</asrwt>
<pdfrwt beam="1">  1       13 0.10000000E+01 0.59466358E+02</pdfrwt>
<pdfrwt beam="2">  1       22 0.22081672E+00 0.59466358E+02</pdfrwt>
<totfact> 0.37998690E-01</totfact>
</mgrwt>
</event>
<event>
 4    1  0.2416490E+000  0.5193321E+02  0.7957747E-01  0.1435185E+00
         13   -1    0    0    0    0  0.00000000000E+00  0.00000000000E+00  0.99999944175E+02  0.99999999995E+02  0.10566000000E+00 0.  1.
         22   -1    0    0    0    0 -0.00000000000E+00 -0.00000000000E+00 -0.12198506661E+02  0.12198506661E+02  0.00000000000E+00 0.  1.
         13    1    1    2    0    0 -0.40865797166E-01 -0.14037676991E+02  0.59174251842E+01  0.15234340490E+02  0.10566000000E+00 0. -1.
        996    1    1    2    0    0  0.40865797166E-01  0.14037676991E+02  0.81884012329E+02  0.96964166167E+02  0.50000000000E+02 0.  0.
<mgrwt>
<rscale>  0 0.51933208E+02</rscale>
<asrwt>0</asrwt>
<pdfrwt beam="1">  1       13 0.10000000E+01 0.51933208E+02</pdfrwt>
<pdfrwt beam="2">  1       22 0.12198531E+00 0.51933208E+02</pdfrwt>
<totfact> 0.10480305E+00</totfact>
</mgrwt>
</event>
<event>
 4    1  0.2416490E+000  0.5121332E+02  0.7957747E-01  0.1438905E+00
         13   -1    0    0    0    0  0.00000000000E+00  0.00000000000E+00  0.99999944182E+02  0.10000000000E+03  0.10566000000E+00 0.  1.
         22   -1    0    0    0    0 -0.00000000000E+00 -0.00000000000E+00 -0.10235098474E+02  0.10235098474E+02  0.00000000000E+00 0.  1.
         13    1    1    2    0    0  0.52720519498E+01 -0.97472691005E+01  0.27274567345E+02  0.29440057313E+02  0.10566000000E+00 0. -1.
        996    1    1    2    0    0 -0.52720519498E+01  0.97472691005E+01  0.62490278363E+02  0.80795041163E+02  0.50000000000E+02 0.  0.
<mgrwt>
<rscale>  0 0.51213316E+02</rscale>
<asrwt>0</asrwt>
<pdfrwt beam="1">  1       13 0.10000000E+01 0.51213316E+02</pdfrwt>
<pdfrwt beam="2">  1       22 0.10235124E+00 0.51213316E+02</pdfrwt>
<totfact> 0.13604052E+00</totfact>
</mgrwt>
</event>
<event>
 4    1  0.2416490E+000  0.5345398E+02  0.7957747E-01  0.1427555E+00
         13   -1    0    0    0    0  0.00000000000E+00  0.00000000000E+00  0.99999944189E+02  0.10000000001E+03  0.10566000000E+00 0.  1.
         22   -1    0    0    0    0 -0.00000000000E+00 -0.00000000000E+00 -0.20808525907E+02  0.20808525907E+02  0.00000000000E+00 0. -1.
         13    1    1    2    0    0  0.21450886206E+01  0.18781011003E+02 -0.63478959876E+01  0.19940780501E+02  0.10566000000E+00 0. -1.
        996    1    1    2    0    0 -0.21450886206E+01 -0.18781011003E+02  0.85539314270E+02  0.10086774542E+03  0.50000000000E+02 0.  0.
<mgrwt>
<rscale>  0 0.53453978E+02</rscale>
<asrwt>0</asrwt>
<pdfrwt beam="1">  1       13 0.10000000E+01 0.53453978E+02</pdfrwt>
<pdfrwt beam="2">  1       22 0.20808548E+00 0.53453978E+02</pdfrwt>
<totfact> 0.42164045E-01</totfact>
</mgrwt>
</event>
<event>
 4    1  0.2416490E+000  0.5108373E+02  0.7957747E-01  0.1439582E+00
         13   -1    0    0    0    0  0.00000000000E+00  0.00000000000E+00  0.99999944173E+02  0.99999999993E+02  0.10566000000E+00 0.  1.
         22   -1    0    0    0    0 -0.00000000000E+00 -0.00000000000E+00 -0.19998026892E+02  0.19998026892E+02  0.00000000000E+00 0. -1.
         13    1    1    2    0    0  0.63519672711E+01 -0.83186301157E+01 -0.11283812075E+02  0.15390993282E+02  0.10566000000E+00 0. -1.
        996    1    1    2    0    0 -0.63519672711E+01  0.83186301157E+01  0.91285729356E+02  0.10460703360E+03  0.50000000000E+02 0.  0.
<mgrwt>
<rscale>  0 0.51083726E+02</rscale>
<asrwt>0</asrwt>
<pdfrwt beam="1">  1       13 0.10000000E+01 0.51083726E+02</pdfrwt>
<pdfrwt beam="2">  1       22 0.19998049E+00 0.51083726E+02</pdfrwt>
<totfact> 0.45241025E-01</totfact>
</mgrwt>
</event>
<event>
 4    1  0.2416490E+000  0.5189692E+02  0.7957747E-01  0.1435371E+00
         13   -1    0    0    0    0  0.00000000000E+00  0.00000000000E+00  0.99999944179E+02  0.99999999999E+02  0.10566000000E+00 0.  1.
         22   -1    0    0    0    0 -0.00000000000E+00 -0.00000000000E+00 -0.14008488754E+02  0.14008488754E+02  0.00000000000E+00 0.  1.
         13    1    1    2    0    0  0.10980363067E+02  0.85277230409E+01  0.47230206641E+02  0.49234073736E+02  0.10566000000E+00 0. -1.
        996    1    1    2    0    0 -0.10980363067E+02 -0.85277230409E+01  0.38761248785E+02  0.64774415016E+02  0.50000000000E+02 0.  0.
<mgrwt>
<rscale>  0 0.51896921E+02</rscale>
<asrwt>0</asrwt>
<pdfrwt beam="1">  1       13 0.10000000E+01 0.51896921E+02</pdfrwt>
<pdfrwt beam="2">  1       22 0.14008513E+00 0.51896921E+02</pdfrwt>
<totfact> 0.84226486E-01</totfact>
</mgrwt>
</event>
<event>
 4    1  0.2416490E+000  0.5129613E+02  0.7957747E-01  0.1438473E+00
         13   -1    0    0    0    0  0.00000000000E+00  0.00000000000E+00  0.99999944181E+02  0.10000000000E+03  0.10566000000E+00 0. -1.
         22   -1    0    0    0    0 -0.00000000000E+00 -0.00000000000E+00 -0.11689383684E+02  0.11689383684E+02  0.00000000000E+00 0.  1.
         13    1    1    2    0    0 -0.96839712901E+01  0.61248215398E+01  0.25196720693E+01  0.11732546621E+02  0.10566000000E+00 0.  1.
        996    1    1    2    0    0  0.96839712901E+01 -0.61248215398E+01  0.85790888428E+02  0.99956837065E+02  0.50000000000E+02 0.  0.
<mgrwt>
<rscale>  0 0.51296128E+02</rscale>
<asrwt>0</asrwt>
<pdfrwt beam="1">  1       13 0.10000000E+01 0.51296128E+02</pdfrwt>
<pdfrwt beam="2">  1       22 0.11689408E+00 0.51296128E+02</pdfrwt>
<totfact> 0.11169872E+00</totfact>
</mgrwt>
</event>
<event>
 4    1  0.2416490E+000  0.5123578E+02  0.7957747E-01  0.1438788E+00
         13   -1    0    0    0    0  0.00000000000E+00  0.00000000000E+00  0.99999944183E+02  0.10000000000E+03  0.10566000000E+00 0.  1.
         22   -1    0    0    0    0 -0.00000000000E+00 -0.00000000000E+00 -0.10104292677E+02  0.10104292677E+02  0.00000000000E+00 0.  1.
         13    1    1    2    0    0  0.47757854809E+01 -0.10114216841E+02  0.90390400001E+01  0.14381269674E+02  0.10566000000E+00 0. -1.
        996    1    1    2    0    0 -0.47757854809E+01  0.10114216841E+02  0.80856611506E+02  0.95723023007E+02  0.50000000000E+02 0.  0.
<mgrwt>
<rscale>  0 0.51235783E+02</rscale>
<asrwt>0</asrwt>
<pdfrwt beam="1">  1       13 0.10000000E+01 0.51235783E+02</pdfrwt>
<pdfrwt beam="2">  1       22 0.10104318E+00 0.51235783E+02</pdfrwt>
<totfact> 0.13861718E+00</totfact>
</mgrwt>
</event>
<event>
 4    1  0.2416490E+000  0.5289284E+02  0.7957747E-01  0.1430335E+00
         13   -1    0    0    0    0  0.00000000000E+00  0.00000000000E+00  0.99999944184E+02  0.10000000000E+03  0.10566000000E+00 0.  1.
         22   -1    0    0    0    0 -0.00000000000E+00 -0.00000000000E+00 -0.42055737865E+02  0.42055737865E+02  0.00000000000E+00 0. -1.
         13    1    1    2    0    0  0.13033956093E+02 -0.11303462666E+02 -0.32777600220E+02  0.37040984327E+02  0.10566000000E+00 0. -1.
        996    1    1    2    0    0 -0.13033956093E+02  0.11303462666E+02  0.90721806539E+02  0.10501475354E+03  0.50000000000E+02 0.  0.
<mgrwt>
<rscale>  0 0.52892838E+02</rscale>
<asrwt>0</asrwt>
<pdfrwt beam="1">  1       13 0.10000000E+01 0.52892838E+02</pdfrwt>
<pdfrwt beam="2">  1       22 0.42055754E+00 0.52892838E+02</pdfrwt>
<totfact> 0.11211813E-01</totfact>
</mgrwt>
</event>
<event>
 4    1  0.2416490E+000  0.5251429E+02  0.7957747E-01  0.1432233E+00
         13   -1    0    0    0    0  0.00000000000E+00  0.00000000000E+00  0.99999944183E+02  0.10000000000E+03  0.10566000000E+00 0.  1.
         22   -1    0    0    0    0 -0.00000000000E+00 -0.00000000000E+00 -0.15134124876E+02  0.15134124876E+02  0.00000000000E+00 0. -1.
         13    1    1    2    0    0 -0.10400845426E+02 -0.12230015829E+02  0.87659237463E+00  0.16078882144E+02  0.10566000000E+00 0. -1.
        996    1    1    2    0    0  0.10400845426E+02  0.12230015829E+02  0.83989226932E+02  0.99055242736E+02  0.50000000000E+02 0.  0.
<mgrwt>
<rscale>  0 0.52514292E+02</rscale>
<asrwt>0</asrwt>
<pdfrwt beam="1">  1       13 0.10000000E+01 0.52514292E+02</pdfrwt>
<pdfrwt beam="2">  1       22 0.15134149E+00 0.52514292E+02</pdfrwt>
<totfact> 0.74260038E-01</totfact>
</mgrwt>
</event>
<event>
 4    1  0.2416490E+000  0.5889276E+02  0.7957747E-01  0.1402538E+00
         13   -1    0    0    0    0  0.00000000000E+00  0.00000000000E+00  0.99999944173E+02  0.99999999993E+02  0.10566000000E+00 0.  1.
         22   -1    0    0    0    0 -0.00000000000E+00 -0.00000000000E+00 -0.20694824836E+02  0.20694824836E+02  0.00000000000E+00 0. -1.
         13    1    1    2    0    0 -0.30094409080E+02 -0.79173313565E+01  0.19300492657E+02  0.36617997959E+02  0.10566000000E+00 0. -1.
        996    1    1    2    0    0  0.30094409080E+02  0.79173313565E+01  0.60004626680E+02  0.84076826871E+02  0.50000000000E+02 0.  0.
<mgrwt>
<rscale>  0 0.58892764E+02</rscale>
<asrwt>0</asrwt>
<pdfrwt beam="1">  1       13 0.10000000E+01 0.58892764E+02</pdfrwt>
<pdfrwt beam="2">  1       22 0.20694847E+00 0.58892764E+02</pdfrwt>
<totfact> 0.42980994E-01</totfact>
</mgrwt>
</event>
<event>
 4    1  0.2416490E+000  0.5183100E+02  0.7957747E-01  0.1435709E+00
         13   -1    0    0    0    0  0.00000000000E+00  0.00000000000E+00  0.99999944181E+02  0.10000000000E+03  0.10566000000E+00 0.  1.
         22   -1    0    0    0    0 -0.00000000000E+00 -0.00000000000E+00 -0.11114347804E+02  0.11114347804E+02  0.00000000000E+00 0.  1.
         13    1    1    2    0    0  0.97546400390E+01 -0.95550964612E+01  0.10883015884E+02  0.17461502497E+02  0.10566000000E+00 0. -1.
        996    1    1    2    0    0 -0.97546400390E+01  0.95550964612E+01  0.78002580493E+02  0.93652845308E+02  0.50000000000E+02 0.  0.
<mgrwt>
<rscale>  0 0.51831003E+02</rscale>
<asrwt>0</asrwt>
<pdfrwt beam="1">  1       13 0.10000000E+01 0.51831003E+02</pdfrwt>
<pdfrwt beam="2">  1       22 0.11114373E+00 0.51831003E+02</pdfrwt>
<totfact> 0.12065082E+00</totfact>
</mgrwt>
</event>
<event>
 4    1  0.2416490E+000  0.5165981E+02  0.7957747E-01  0.1436589E+00
         13   -1    0    0    0    0  0.00000000000E+00  0.00000000000E+00  0.99999944185E+02  0.10000000000E+03  0.10566000000E+00 0. -1.
         22   -1    0    0    0    0 -0.00000000000E+00 -0.00000000000E+00 -0.29037726944E+02  0.29037726944E+02  0.00000000000E+00 0.  1.
         13    1    1    2    0    0 -0.40307373328E+01 -0.12348635363E+02 -0.20339742127E+02  0.24134040536E+02  0.10566000000E+00 0.  1.
        996    1    1    2    0    0  0.40307373328E+01  0.12348635363E+02  0.91301959367E+02  0.10490368641E+03  0.50000000000E+02 0.  0.
<mgrwt>
<rscale>  0 0.51659807E+02</rscale>
<asrwt>0</asrwt>
<pdfrwt beam="1">  1       13 0.10000000E+01 0.51659807E+02</pdfrwt>
<pdfrwt beam="2">  1       22 0.29037747E+00 0.51659807E+02</pdfrwt>
<totfact> 0.22006900E-01</totfact>
</mgrwt>
</event>
<event>
 4    1  0.2416490E+000  0.5331122E+02  0.7957747E-01  0.1428258E+00
         13   -1    0    0    0    0  0.00000000000E+00  0.00000000000E+00  0.99999944180E+02  0.10000000000E+03  0.10566000000E+00 0.  1.
         22   -1    0    0    0    0 -0.00000000000E+00 -0.00000000000E+00 -0.26288576978E+02  0.26288576978E+02  0.00000000000E+00 0. -1.
         13    1    1    2    0    0  0.10321724823E+02 -0.15347575738E+02 -0.14307458166E+02  0.23383768036E+02  0.10566000000E+00 0. -1.
        996    1    1    2    0    0 -0.10321724823E+02  0.15347575738E+02  0.88018825368E+02  0.10290480894E+03  0.50000000000E+02 0.  0.
<mgrwt>
<rscale>  0 0.53311219E+02</rscale>
<asrwt>0</asrwt>
<pdfrwt beam="1">  1       13 0.10000000E+01 0.53311219E+02</pdfrwt>
<pdfrwt beam="2">  1       22 0.26288598E+00 0.53311219E+02</pdfrwt>
<totfact> 0.26756370E-01</totfact>
</mgrwt>
</event>
<event>
 4    1  0.2416490E+000  0.5209485E+02  0.7957747E-01  0.1434359E+00
         13   -1    0    0    0    0  0.00000000000E+00  0.00000000000E+00  0.99999944178E+02  0.99999999998E+02  0.10566000000E+00 0.  1.
         22   -1    0    0    0    0 -0.00000000000E+00 -0.00000000000E+00 -0.11661757688E+02  0.11661757688E+02  0.00000000000E+00 0.  1.
         13    1    1    2    0    0  0.14388545320E+02  0.26158835333E+01  0.10517903365E+02  0.18014176037E+02  0.10566000000E+00 0. -1.
        996    1    1    2    0    0 -0.14388545320E+02 -0.26158835333E+01  0.77820283125E+02  0.93647581649E+02  0.50000000000E+02 0.  0.
<mgrwt>
<rscale>  0 0.52094847E+02</rscale>
<asrwt>0</asrwt>
<pdfrwt beam="1">  1       13 0.10000000E+01 0.52094847E+02</pdfrwt>
<pdfrwt beam="2">  1       22 0.11661782E+00 0.52094847E+02</pdfrwt>
<totfact> 0.11230367E+00</totfact>
</mgrwt>
</event>
<event>
 4    1  0.2416490E+000  0.5149496E+02  0.7957747E-01  0.1437441E+00
         13   -1    0    0    0    0  0.00000000000E+00  0.00000000000E+00  0.99999944180E+02  0.10000000000E+03  0.10566000000E+00 0.  1.
         22   -1    0    0    0    0 -0.00000000000E+00 -0.00000000000E+00 -0.10311338260E+02  0.10311338260E+02  0.00000000000E+00 0.  1.
         13    1    1    2    0    0 -0.50231842500E-01  0.12317791060E+02  0.12736549544E+02  0.17718954771E+02  0.10566000000E+00 0. -1.
        996    1    1    2    0    0  0.50231842500E-01 -0.12317791060E+02  0.76952056376E+02  0.92592383489E+02  0.50000000000E+02 0.  0.
<mgrwt>
<rscale>  0 0.51494956E+02</rscale>
<asrwt>0</asrwt>
<pdfrwt beam="1">  1       13 0.10000000E+01 0.51494956E+02</pdfrwt>
<pdfrwt beam="2">  1       22 0.10311363E+00 0.51494956E+02</pdfrwt>
<totfact> 0.13466690E+00</totfact>
</mgrwt>
</event>
<event>
 4    1  0.2416490E+000  0.5508271E+02  0.7957747E-01  0.1419708E+00
         13   -1    0    0    0    0  0.00000000000E+00  0.00000000000E+00  0.99999944178E+02  0.99999999998E+02  0.10566000000E+00 0.  1.
         22   -1    0    0    0    0 -0.00000000000E+00 -0.00000000000E+00 -0.28897877724E+02  0.28897877724E+02  0.00000000000E+00 0. -1.
         13    1    1    2    0    0  0.10828875015E+02  0.20416676568E+02 -0.14369959467E+02  0.27214189595E+02  0.10566000000E+00 0. -1.
        996    1    1    2    0    0 -0.10828875015E+02 -0.20416676568E+02  0.85472025921E+02  0.10168368813E+03  0.50000000000E+02 0.  0.
<mgrwt>
<rscale>  0 0.55082712E+02</rscale>
<asrwt>0</asrwt>
<pdfrwt beam="1">  1       13 0.10000000E+01 0.55082712E+02</pdfrwt>
<pdfrwt beam="2">  1       22 0.28897898E+00 0.55082712E+02</pdfrwt>
<totfact> 0.22312462E-01</totfact>
</mgrwt>
</event>
<event>
 4    1  0.2416490E+000  0.5130108E+02  0.7957747E-01  0.1438448E+00
         13   -1    0    0    0    0  0.00000000000E+00  0.00000000000E+00  0.99999944185E+02  0.10000000000E+03  0.10566000000E+00 0. -1.
         22   -1    0    0    0    0 -0.00000000000E+00 -0.00000000000E+00 -0.11309018566E+02  0.11309018566E+02  0.00000000000E+00 0. -1.
         13    1    1    2    0    0  0.25493931397E+00 -0.11477609904E+02  0.35926262578E+02  0.37716150784E+02  0.10566000000E+00 0.  1.
        996    1    1    2    0    0 -0.25493931397E+00  0.11477609904E+02  0.52764663041E+02  0.73592867786E+02  0.50000000000E+02 0.  0.
<mgrwt>
<rscale>  0 0.51301077E+02</rscale>
<asrwt>0</asrwt>
<pdfrwt beam="1">  1       13 0.10000000E+01 0.51301077E+02</pdfrwt>
<pdfrwt beam="2">  1       22 0.11309043E+00 0.51301077E+02</pdfrwt>
<totfact> 0.11741274E+00</totfact>
</mgrwt>
</event>
<event>
 4    1  0.2416490E+000  0.5647192E+02  0.7957747E-01  0.1413264E+00
         13   -1    0    0    0    0  0.00000000000E+00  0.00000000000E+00  0.99999944177E+02  0.99999999998E+02  0.10566000000E+00 0.  1.
         22   -1    0    0    0    0 -0.00000000000E+00 -0.00000000000E+00 -0.17782677198E+02  0.17782677198E+02  0.00000000000E+00 0.  1.
         13    1    1    2    0    0 -0.26148905141E+02  0.23049264015E+01  0.37373833181E+02  0.45671572083E+02  0.10566000000E+00 0. -1.
        996    1    1    2    0    0  0.26148905141E+02 -0.23049264015E+01  0.44843433798E+02  0.72111105113E+02  0.50000000000E+02 0.  0.
<mgrwt>
<rscale>  0 0.56471922E+02</rscale>
<asrwt>0</asrwt>
<pdfrwt beam="1">  1       13 0.10000000E+01 0.56471922E+02</pdfrwt>
<pdfrwt beam="2">  1       22 0.17782700E+00 0.56471922E+02</pdfrwt>
<totfact> 0.56604716E-01</totfact>
</mgrwt>
</event>
<event>
 4    1  0.2416490E+000  0.5901109E+02  0.7957747E-01  0.1402029E+00
         13   -1    0    0    0    0  0.00000000000E+00  0.00000000000E+00  0.99999944172E+02  0.99999999992E+02  0.10566000000E+00 0. -1.
         22   -1    0    0    0    0 -0.00000000000E+00 -0.00000000000E+00 -0.46816710048E+02  0.46816710048E+02  0.00000000000E+00 0.  1.
         13    1    1    2    0    0 -0.31302955136E+02 -0.15598890562E+01 -0.30952266327E+02  0.44049542664E+02  0.10566000000E+00 0.  1.
        996    1    1    2    0    0  0.31302955136E+02  0.15598890562E+01  0.84135500451E+02  0.10276716738E+03  0.50000000000E+02 0.  0.
<mgrwt>
<rscale>  0 0.59011086E+02</rscale>
<asrwt>0</asrwt>
<pdfrwt beam="1">  1       13 0.10000000E+01 0.59011086E+02</pdfrwt>
<pdfrwt beam="2">  1       22 0.46816725E+00 0.59011086E+02</pdfrwt>
<totfact> 0.88056618E-02</totfact>
</mgrwt>
</event>
<event>
 4    1  0.2416490E+000  0.5273698E+02  0.7957747E-01  0.1431114E+00
         13   -1    0    0    0    0  0.00000000000E+00  0.00000000000E+00  0.99999944177E+02  0.99999999997E+02  0.10566000000E+00 0. -1.
         22   -1    0    0    0    0 -0.00000000000E+00 -0.00000000000E+00 -0.45792324875E+02  0.45792324875E+02  0.00000000000E+00 0.  1.
         13    1    1    2    0    0 -0.51473219551E+01 -0.15959143289E+02 -0.36894739881E+02  0.40526808075E+02  0.10566000000E+00 0.  1.
        996    1    1    2    0    0  0.51473219551E+01  0.15959143289E+02  0.91102359183E+02  0.10526551680E+03  0.50000000000E+02 0.  0.
<mgrwt>
<rscale>  0 0.52736981E+02</rscale>
<asrwt>0</asrwt>
<pdfrwt beam="1">  1       13 0.10000000E+01 0.52736981E+02</pdfrwt>
<pdfrwt beam="2">  1       22 0.45792340E+00 0.52736981E+02</pdfrwt>
<totfact> 0.92724486E-02</totfact>
</mgrwt>
</event>
<event>
 4    1  0.2416490E+000  0.5224649E+02  0.7957747E-01  0.1433588E+00
         13   -1    0    0    0    0  0.00000000000E+00  0.00000000000E+00  0.99999944182E+02  0.10000000000E+03  0.10566000000E+00 0. -1.
         22   -1    0    0    0    0 -0.00000000000E+00 -0.00000000000E+00 -0.57852314971E+02  0.57852314971E+02  0.00000000000E+00 0.  1.
         13    1    1    2    0    0  0.56755284996E+01  0.14052896467E+02 -0.49823197170E+02  0.52077419897E+02  0.10566000000E+00 0.  1.
        996    1    1    2    0    0 -0.56755284996E+01 -0.14052896467E+02  0.91970826382E+02  0.10577489508E+03  0.50000000000E+02 0.  0.
<mgrwt>
<rscale>  0 0.52246488E+02</rscale>
<asrwt>0</asrwt>
<pdfrwt beam="1">  1       13 0.10000000E+01 0.52246488E+02</pdfrwt>
<pdfrwt beam="2">  1       22 0.57852327E+00 0.52246488E+02</pdfrwt>
<totfact> 0.58101000E-02</totfact>
</mgrwt>
</event>
<event>
 4    1  0.2416490E+000  0.5111390E+02  0.7957747E-01  0.1439424E+00
         13   -1    0    0    0    0  0.00000000000E+00  0.00000000000E+00  0.99999944179E+02  0.99999999999E+02  0.10566000000E+00 0.  1.
         22   -1    0    0    0    0 -0.00000000000E+00 -0.00000000000E+00 -0.10209993761E+02  0.10209993761E+02  0.00000000000E+00 0.  1.
         13    1    1    2    0    0  0.54788582765E+01  0.90891356998E+01  0.63767577625E+01  0.12381618609E+02  0.10566000000E+00 0. -1.
        996    1    1    2    0    0 -0.54788582765E+01 -0.90891356998E+01  0.83413192656E+02  0.97828375151E+02  0.50000000000E+02 0.  0.
<mgrwt>
<rscale>  0 0.51113895E+02</rscale>
<asrwt>0</asrwt>
<pdfrwt beam="1">  1       13 0.10000000E+01 0.51113895E+02</pdfrwt>
<pdfrwt beam="2">  1       22 0.10210019E+00 0.51113895E+02</pdfrwt>
<totfact> 0.13649520E+00</totfact>
</mgrwt>
</event>
<event>
 4    1  0.2416490E+000  0.5452152E+02  0.7957747E-01  0.1422375E+00
         13   -1    0    0    0    0  0.00000000000E+00  0.00000000000E+00  0.99999944178E+02  0.99999999999E+02  0.10566000000E+00 0.  1.
         22   -1    0    0    0    0 -0.00000000000E+00 -0.00000000000E+00 -0.21825065324E+02  0.21825065324E+02  0.00000000000E+00 0. -1.
         13    1    1    2    0    0 -0.19645529507E+02  0.93085488743E+01 -0.50623204597E+01  0.22321159563E+02  0.10566000000E+00 0. -1.
        996    1    1    2    0    0  0.19645529507E+02 -0.93085488743E+01  0.83237199314E+02  0.99503905760E+02  0.50000000000E+02 0.  0.
<mgrwt>
<rscale>  0 0.54521518E+02</rscale>
<asrwt>0</asrwt>
<pdfrwt beam="1">  1       13 0.10000000E+01 0.54521518E+02</pdfrwt>
<pdfrwt beam="2">  1       22 0.21825087E+00 0.54521518E+02</pdfrwt>
<totfact> 0.38567489E-01</totfact>
</mgrwt>
</event>
<event>
 4    1  0.2416490E+000  0.5099534E+02  0.7957747E-01  0.1440046E+00
         13   -1    0    0    0    0  0.00000000000E+00  0.00000000000E+00  0.99999944184E+02  0.10000000000E+03  0.10566000000E+00 0.  1.
         22   -1    0    0    0    0 -0.00000000000E+00 -0.00000000000E+00 -0.38151654362E+02  0.38151654362E+02  0.00000000000E+00 0. -1.
         13    1    1    2    0    0 -0.59945890196E+01 -0.80367898617E+01 -0.30802813883E+02  0.32393665985E+02  0.10566000000E+00 0. -1.
        996    1    1    2    0    0  0.59945890196E+01  0.80367898617E+01  0.92651103705E+02  0.10575798838E+03  0.50000000000E+02 0.  0.
<mgrwt>
<rscale>  0 0.50995344E+02</rscale>
<asrwt>0</asrwt>
<pdfrwt beam="1">  1       13 0.10000000E+01 0.50995344E+02</pdfrwt>
<pdfrwt beam="2">  1       22 0.38151672E+00 0.50995344E+02</pdfrwt>
<totfact> 0.13485355E-01</totfact>
</mgrwt>
</event>
<event>
 4    1  0.2416490E+000  0.5290019E+02  0.7957747E-01  0.1430298E+00
         13   -1    0    0    0    0  0.00000000000E+00  0.00000000000E+00  0.99999944185E+02  0.10000000001E+03  0.10566000000E+00 0. -1.
         22   -1    0    0    0    0 -0.00000000000E+00 -0.00000000000E+00 -0.19924756369E+02  0.19924756369E+02  0.00000000000E+00 0.  1.
         13    1    1    2    0    0  0.85413608692E+01  0.15015821652E+02 -0.65075511286E+01  0.18460474834E+02  0.10566000000E+00 0.  1.
        996    1    1    2    0    0 -0.85413608692E+01 -0.15015821652E+02  0.86582738945E+02  0.10146428154E+03  0.50000000000E+02 0.  0.
<mgrwt>
<rscale>  0 0.52900187E+02</rscale>
<asrwt>0</asrwt>
<pdfrwt beam="1">  1       13 0.10000000E+01 0.52900187E+02</pdfrwt>
<pdfrwt beam="2">  1       22 0.19924779E+00 0.52900187E+02</pdfrwt>
<totfact> 0.45700653E-01</totfact>
</mgrwt>
</event>
<event>
 4    1  0.2416490E+000  0.5175940E+02  0.7957747E-01  0.1436076E+00
         13   -1    0    0    0    0  0.00000000000E+00  0.00000000000E+00  0.99999944181E+02  0.10000000000E+03  0.10566000000E+00 0. -1.
         22   -1    0    0    0    0 -0.00000000000E+00 -0.00000000000E+00 -0.28172412042E+02  0.28172412042E+02  0.00000000000E+00 0.  1.
         13    1    1    2    0    0  0.85596673679E+01 -0.10284334288E+02 -0.19232891772E+02  0.23429697547E+02  0.10566000000E+00 0.  1.
        996    1    1    2    0    0 -0.85596673679E+01  0.10284334288E+02  0.91060423910E+02  0.10474271450E+03  0.50000000000E+02 0.  0.
<mgrwt>
<rscale>  0 0.51759400E+02</rscale>
<asrwt>0</asrwt>
<pdfrwt beam="1">  1       13 0.10000000E+01 0.51759400E+02</pdfrwt>
<pdfrwt beam="2">  1       22 0.28172432E+00 0.51759400E+02</pdfrwt>
<totfact> 0.23324277E-01</totfact>
</mgrwt>
</event>
<event>
 4    1  0.2416490E+000  0.5115775E+02  0.7957747E-01  0.1439195E+00
         13   -1    0    0    0    0  0.00000000000E+00  0.00000000000E+00  0.99999944176E+02  0.99999999996E+02  0.10566000000E+00 0.  1.
         22   -1    0    0    0    0 -0.00000000000E+00 -0.00000000000E+00 -0.96399534468E+01  0.96399534468E+01  0.00000000000E+00 0.  1.
         13    1    1    2    0    0  0.10206811355E+02 -0.35967669414E+01  0.18438454237E+02  0.21379978699E+02  0.10566000000E+00 0. -1.
        996    1    1    2    0    0 -0.10206811355E+02  0.35967669414E+01  0.71921536492E+02  0.88259974744E+02  0.50000000000E+02 0.  0.
<mgrwt>
<rscale>  0 0.51157753E+02</rscale>
<asrwt>0</asrwt>
<pdfrwt beam="1">  1       13 0.10000000E+01 0.51157753E+02</pdfrwt>
<pdfrwt beam="2">  1       22 0.96399787E-01 0.51157753E+02</pdfrwt>
<totfact> 0.14832577E+00</totfact>
</mgrwt>
</event>
<event>
 4    1  0.2416490E+000  0.5766057E+02  0.7957747E-01  0.1407920E+00
         13   -1    0    0    0    0  0.00000000000E+00  0.00000000000E+00  0.99999944179E+02  0.99999999999E+02  0.10566000000E+00 0. -1.
         22   -1    0    0    0    0 -0.00000000000E+00 -0.00000000000E+00 -0.18735609011E+02  0.18735609011E+02  0.00000000000E+00 0. -1.
         13    1    1    2    0    0  0.82790156395E+01  0.27499075924E+02  0.30785469913E+02  0.42101040348E+02  0.10566000000E+00 0.  1.
        996    1    1    2    0    0 -0.82790156395E+01 -0.27499075924E+02  0.50478865255E+02  0.76634568662E+02  0.50000000000E+02 0.  0.
<mgrwt>
<rscale>  0 0.57660570E+02</rscale>
<asrwt>0</asrwt>
<pdfrwt beam="1">  1       13 0.10000000E+01 0.57660570E+02</pdfrwt>
<pdfrwt beam="2">  1       22 0.18735632E+00 0.57660570E+02</pdfrwt>
<totfact> 0.51613678E-01</totfact>
</mgrwt>
</event>
<event>
 4    1  0.2416490E+000  0.5330134E+02  0.7957747E-01  0.1428307E+00
         13   -1    0    0    0    0  0.00000000000E+00  0.00000000000E+00  0.99999944182E+02  0.10000000000E+03  0.10566000000E+00 0.  1.
         22   -1    0    0    0    0 -0.00000000000E+00 -0.00000000000E+00 -0.41766591535E+02  0.41766591535E+02  0.00000000000E+00 0. -1.
         13    1    1    2    0    0  0.10294236141E+02  0.15331720784E+02 -0.32011489988E+02  0.36956455663E+02  0.10566000000E+00 0. -1.
        996    1    1    2    0    0 -0.10294236141E+02 -0.15331720784E+02  0.90244842635E+02  0.10481013587E+03  0.50000000000E+02 0.  0.
<mgrwt>
<rscale>  0 0.53301341E+02</rscale>
<asrwt>0</asrwt>
<pdfrwt beam="1">  1       13 0.10000000E+01 0.53301341E+02</pdfrwt>
<pdfrwt beam="2">  1       22 0.41766608E+00 0.53301341E+02</pdfrwt>
<totfact> 0.11374082E-01</totfact>
</mgrwt>
</event>
<event>
 4    1  0.2416490E+000  0.5116582E+02  0.7957747E-01  0.1439153E+00
         13   -1    0    0    0    0  0.00000000000E+00  0.00000000000E+00  0.99999944183E+02  0.10000000000E+03  0.10566000000E+00 0. -1.
         22   -1    0    0    0    0 -0.00000000000E+00 -0.00000000000E+00 -0.12696073034E+02  0.12696073034E+02  0.00000000000E+00 0. -1.
         13    1    1    2    0    0 -0.13161831033E+01  0.10780039238E+02 -0.71717175328E+00  0.10884258509E+02  0.10566000000E+00 0.  1.
        996    1    1    2    0    0  0.13161831033E+01 -0.10780039238E+02  0.88021042902E+02  0.10181181453E+03  0.50000000000E+02 0.  0.
<mgrwt>
<rscale>  0 0.51165824E+02</rscale>
<asrwt>0</asrwt>
<pdfrwt beam="1">  1       13 0.10000000E+01 0.51165824E+02</pdfrwt>
<pdfrwt beam="2">  1       22 0.12696097E+00 0.51165824E+02</pdfrwt>
<totfact> 0.98334604E-01</totfact>
</mgrwt>
</event>
<event>
 4    1  0.2416490E+000  0.5109200E+02  0.7957747E-01  0.1439539E+00
         13   -1    0    0    0    0  0.00000000000E+00  0.00000000000E+00  0.99999944175E+02  0.99999999995E+02  0.10566000000E+00 0.  1.
         22   -1    0    0    0    0 -0.00000000000E+00 -0.00000000000E+00 -0.96095344253E+01  0.96095344253E+01  0.00000000000E+00 0.  1.
         13    1    1    2    0    0 -0.87314306582E+01  0.58441581595E+01  0.11106137340E+02  0.15288869042E+02  0.10566000000E+00 0. -1.
        996    1    1    2    0    0  0.87314306582E+01 -0.58441581595E+01  0.79284272409E+02  0.94320665378E+02  0.50000000000E+02 0.  0.
<mgrwt>
<rscale>  0 0.51091996E+02</rscale>
<asrwt>0</asrwt>
<pdfrwt beam="1">  1       13 0.10000000E+01 0.51091996E+02</pdfrwt>
<pdfrwt beam="2">  1       22 0.96095597E-01 0.51091996E+02</pdfrwt>
<totfact> 0.14897506E+00</totfact>
</mgrwt>
</event>
<event>
 4    1  0.2416490E+000  0.5122575E+02  0.7957747E-01  0.1438840E+00
         13   -1    0    0    0    0  0.00000000000E+00  0.00000000000E+00  0.99999944177E+02  0.99999999997E+02  0.10566000000E+00 0. -1.
         22   -1    0    0    0    0 -0.00000000000E+00 -0.00000000000E+00 -0.97785812702E+01  0.97785812702E+01  0.00000000000E+00 0. -1.
         13    1    1    2    0    0  0.96264248927E+01 -0.56044403287E+01  0.19439128218E+02  0.22404657497E+02  0.10566000000E+00 0.  1.
        996    1    1    2    0    0 -0.96264248927E+01  0.56044403287E+01  0.70782234688E+02  0.87373923770E+02  0.50000000000E+02 0.  0.
<mgrwt>
<rscale>  0 0.51225753E+02</rscale>
<asrwt>0</asrwt>
<pdfrwt beam="1">  1       13 0.10000000E+01 0.51225753E+02</pdfrwt>
<pdfrwt beam="2">  1       22 0.97786065E-01 0.51225753E+02</pdfrwt>
<totfact> 0.14533818E+00</totfact>
</mgrwt>
</event>
<event>
 4    1  0.2416490E+000  0.5620162E+02  0.7957747E-01  0.1414500E+00
         13   -1    0    0    0    0  0.00000000000E+00  0.00000000000E+00  0.99999944177E+02  0.99999999998E+02  0.10566000000E+00 0. -1.
         22   -1    0    0    0    0 -0.00000000000E+00 -0.00000000000E+00 -0.18893695483E+02  0.18893695483E+02  0.00000000000E+00 0. -1.
         13    1    1    2    0    0 -0.20589288077E+02  0.15320025763E+02  0.84116395608E+01  0.27007199356E+02  0.10566000000E+00 0.  1.
        996    1    1    2    0    0  0.20589288077E+02 -0.15320025763E+02  0.72694609134E+02  0.91886496124E+02  0.50000000000E+02 0.  0.
<mgrwt>
<rscale>  0 0.56201619E+02</rscale>
<asrwt>0</asrwt>
<pdfrwt beam="1">  1       13 0.10000000E+01 0.56201619E+02</pdfrwt>
<pdfrwt beam="2">  1       22 0.18893718E+00 0.56201619E+02</pdfrwt>
<totfact> 0.50702785E-01</totfact>
</mgrwt>
</event>
<event>
 4    1  0.2416490E+000  0.5104089E+02  0.7957747E-01  0.1439807E+00
         13   -1    0    0    0    0  0.00000000000E+00  0.00000000000E+00  0.99999944178E+02  0.99999999998E+02  0.10566000000E+00 0. -1.
         22   -1    0    0    0    0 -0.00000000000E+00 -0.00000000000E+00 -0.98870664205E+01  0.98870664205E+01  0.00000000000E+00 0. -1.
         13    1    1    2    0    0  0.33200805186E+01  0.97030806301E+01  0.72278538138E+01  0.12546941586E+02  0.10566000000E+00 0.  1.
        996    1    1    2    0    0 -0.33200805186E+01 -0.97030806301E+01  0.82885023944E+02  0.97340124833E+02  0.50000000000E+02 0.  0.
<mgrwt>
<rscale>  0 0.51040893E+02</rscale>
<asrwt>0</asrwt>
<pdfrwt beam="1">  1       13 0.10000000E+01 0.51040893E+02</pdfrwt>
<pdfrwt beam="2">  1       22 0.98870916E-01 0.51040893E+02</pdfrwt>
<totfact> 0.14298004E+00</totfact>
</mgrwt>
</event>
<event>
 4    1  0.2416490E+000  0.5337189E+02  0.7957747E-01  0.1427959E+00
         13   -1    0    0    0    0  0.00000000000E+00  0.00000000000E+00  0.99999944172E+02  0.99999999993E+02  0.10566000000E+00 0. -1.
         22   -1    0    0    0    0 -0.00000000000E+00 -0.00000000000E+00 -0.30313451175E+02  0.30313451175E+02  0.00000000000E+00 0.  1.
         13    1    1    2    0    0 -0.11607564926E+02 -0.14622693807E+02 -0.19106895919E+02  0.26714104390E+02  0.10566000000E+00 0.  1.
        996    1    1    2    0    0  0.11607564926E+02  0.14622693807E+02  0.88793388916E+02  0.10359934678E+03  0.50000000000E+02 0.  0.
<mgrwt>
<rscale>  0 0.53371891E+02</rscale>
<asrwt>0</asrwt>
<pdfrwt beam="1">  1       13 0.10000000E+01 0.53371891E+02</pdfrwt>
<pdfrwt beam="2">  1       22 0.30313471E+00 0.53371891E+02</pdfrwt>
<totfact> 0.20341927E-01</totfact>
</mgrwt>
</event>
<event>
 4    1  0.2416490E+000  0.5170589E+02  0.7957747E-01  0.1436352E+00
         13   -1    0    0    0    0  0.00000000000E+00  0.00000000000E+00  0.99999944172E+02  0.99999999992E+02  0.10566000000E+00 0.  1.
         22   -1    0    0    0    0 -0.00000000000E+00 -0.00000000000E+00 -0.13367154681E+02  0.13367154681E+02  0.00000000000E+00 0.  1.
         13    1    1    2    0    0 -0.33301746137E+01 -0.12743969101E+02  0.84162013535E+00  0.13199178001E+02  0.10566000000E+00 0. -1.
        996    1    1    2    0    0  0.33301746137E+01  0.12743969101E+02  0.85791169356E+02  0.10016797667E+03  0.50000000000E+02 0.  0.
<mgrwt>
<rscale>  0 0.51705888E+02</rscale>
<asrwt>0</asrwt>
<pdfrwt beam="1">  1       13 0.10000000E+01 0.51705888E+02</pdfrwt>
<pdfrwt beam="2">  1       22 0.13367179E+00 0.51705888E+02</pdfrwt>
<totfact> 0.90773465E-01</totfact>
</mgrwt>
</event>
<event>
 4    1  0.2416490E+000  0.5104164E+02  0.7957747E-01  0.1439803E+00
         13   -1    0    0    0    0  0.00000000000E+00  0.00000000000E+00  0.99999944182E+02  0.10000000000E+03  0.10566000000E+00 0. -1.
         22   -1    0    0    0    0 -0.00000000000E+00 -0.00000000000E+00 -0.16879755023E+02  0.16879755023E+02  0.00000000000E+00 0.  1.
         13    1    1    2    0    0 -0.75115701990E+01 -0.69875222448E+01 -0.76126627382E+01  0.12775482456E+02  0.10566000000E+00 0.  1.
        996    1    1    2    0    0  0.75115701990E+01  0.69875222448E+01  0.90732851897E+02  0.10410427257E+03  0.50000000000E+02 0.  0.
<mgrwt>
<rscale>  0 0.51041641E+02</rscale>
<asrwt>0</asrwt>
<pdfrwt beam="1">  1       13 0.10000000E+01 0.51041641E+02</pdfrwt>
<pdfrwt beam="2">  1       22 0.16879778E+00 0.51041641E+02</pdfrwt>
<totfact> 0.61442612E-01</totfact>
</mgrwt>
</event>
<event>
 4    1  0.2416490E+000  0.5223429E+02  0.7957747E-01  0.1433650E+00
         13   -1    0    0    0    0  0.00000000000E+00  0.00000000000E+00  0.99999944180E+02  0.10000000000E+03  0.10566000000E+00 0. -1.
         22   -1    0    0    0    0 -0.00000000000E+00 -0.00000000000E+00 -0.14236084425E+02  0.14236084425E+02  0.00000000000E+00 0. -1.
         13    1    1    2    0    0  0.13374468309E+02  0.70387976891E+01  0.16238913145E+01  0.15200962551E+02  0.10566000000E+00 0.  1.
        996    1    1    2    0    0 -0.13374468309E+02 -0.70387976891E+01  0.84139968440E+02  0.99035121874E+02  0.50000000000E+02 0.  0.
<mgrwt>
<rscale>  0 0.52234290E+02</rscale>
<asrwt>0</asrwt>
<pdfrwt beam="1">  1       13 0.10000000E+01 0.52234290E+02</pdfrwt>
<pdfrwt beam="2">  1       22 0.14236108E+00 0.52234290E+02</pdfrwt>
<totfact> 0.82105771E-01</totfact>
</mgrwt>
</event>
<event>
 4    1  0.2416490E+000  0.5752932E+02  0.7957747E-01  0.1408503E+00
         13   -1    0    0    0    0  0.00000000000E+00  0.00000000000E+00  0.99999944182E+02  0.10000000000E+03  0.10566000000E+00 0. -1.
         22   -1    0    0    0    0 -0.00000000000E+00 -0.00000000000E+00 -0.29470370638E+02  0.29470370638E+02  0.00000000000E+00 0.  1.
         13    1    1    2    0    0 -0.17403899345E+01  0.28400589008E+02 -0.10297695100E+02  0.30260140475E+02  0.10566000000E+00 0.  1.
        996    1    1    2    0    0  0.17403899345E+01 -0.28400589008E+02  0.80827268644E+02  0.99210230166E+02  0.50000000000E+02 0.  0.
<mgrwt>
<rscale>  0 0.57529318E+02</rscale>
<asrwt>0</asrwt>
<pdfrwt beam="1">  1       13 0.10000000E+01 0.57529318E+02</pdfrwt>
<pdfrwt beam="2">  1       22 0.29470390E+00 0.57529318E+02</pdfrwt>
<totfact> 0.21559724E-01</totfact>
</mgrwt>
</event>
<event>
 4    1  0.2416490E+000  0.5631775E+02  0.7957747E-01  0.1413968E+00
         13   -1    0    0    0    0  0.00000000000E+00  0.00000000000E+00  0.99999944177E+02  0.99999999997E+02  0.10566000000E+00 0. -1.
         22   -1    0    0    0    0 -0.00000000000E+00 -0.00000000000E+00 -0.85422222602E+02  0.85422222602E+02  0.00000000000E+00 0.  1.
         13    1    1    2    0    0  0.32646829161E+01 -0.25710530040E+02 -0.75145080542E+02  0.79488891068E+02  0.10566000000E+00 0.  1.
        996    1    1    2    0    0 -0.32646829161E+01  0.25710530040E+02  0.89722802117E+02  0.10593333153E+03  0.50000000000E+02 0.  0.
<mgrwt>
<rscale>  0 0.56317755E+02</rscale>
<asrwt>0</asrwt>
<pdfrwt beam="1">  1       13 0.10000000E+01 0.56317755E+02</pdfrwt>
<pdfrwt beam="2">  1       22 0.85422227E+00 0.56317755E+02</pdfrwt>
<totfact> 0.18159701E-02</totfact>
</mgrwt>
</event>
<event>
 4    1  0.2416490E+000  0.6588742E+02  0.7957747E-01  0.1374664E+00
         13   -1    0    0    0    0  0.00000000000E+00  0.00000000000E+00  0.99999944178E+02  0.99999999998E+02  0.10566000000E+00 0.  1.
         22   -1    0    0    0    0 -0.00000000000E+00 -0.00000000000E+00 -0.37249045084E+02  0.37249045084E+02  0.00000000000E+00 0. -1.
         13    1    1    2    0    0  0.34177953352E+02  0.25942625046E+02 -0.44474223268E+01  0.43138648785E+02  0.10566000000E+00 0. -1.
        996    1    1    2    0    0 -0.34177953352E+02 -0.25942625046E+02  0.67198321420E+02  0.94110396298E+02  0.50000000000E+02 0.  0.
<mgrwt>
<rscale>  0 0.65887421E+02</rscale>
<asrwt>0</asrwt>
<pdfrwt beam="1">  1       13 0.10000000E+01 0.65887421E+02</pdfrwt>
<pdfrwt beam="2">  1       22 0.37249063E+00 0.65887421E+02</pdfrwt>
<totfact> 0.14247607E-01</totfact>
</mgrwt>
</event>
<event>
 4    1  0.2416490E+000  0.5131632E+02  0.7957747E-01  0.1438368E+00
         13   -1    0    0    0    0  0.00000000000E+00  0.00000000000E+00  0.99999944176E+02  0.99999999997E+02  0.10566000000E+00 0.  1.
         22   -1    0    0    0    0 -0.00000000000E+00 -0.00000000000E+00 -0.42801881462E+02  0.42801881462E+02  0.00000000000E+00 0. -1.
         13    1    1    2    0    0  0.72372197075E+01  0.89993241211E+01 -0.35235020127E+02  0.37079414654E+02  0.10566000000E+00 0. -1.
        996    1    1    2    0    0 -0.72372197075E+01 -0.89993241211E+01  0.92433082841E+02  0.10572246680E+03  0.50000000000E+02 0.  0.
<mgrwt>
<rscale>  0 0.51316325E+02</rscale>
<asrwt>0</asrwt>
<pdfrwt beam="1">  1       13 0.10000000E+01 0.51316325E+02</pdfrwt>
<pdfrwt beam="2">  1       22 0.42801897E+00 0.51316325E+02</pdfrwt>
<totfact> 0.10796588E-01</totfact>
</mgrwt>
</event>
<event>
 4    1  0.2416490E+000  0.5319668E+02  0.7957747E-01  0.1428825E+00
         13   -1    0    0    0    0  0.00000000000E+00  0.00000000000E+00  0.99999944177E+02  0.99999999998E+02  0.10566000000E+00 0. -1.
         22   -1    0    0    0    0 -0.00000000000E+00 -0.00000000000E+00 -0.43094118026E+02  0.43094118026E+02  0.00000000000E+00 0. -1.
         13    1    1    2    0    0  0.73799527359E+01 -0.16595881138E+02 -0.33552488489E+02  0.38153212459E+02  0.10566000000E+00 0.  1.
        996    1    1    2    0    0 -0.73799527359E+01  0.16595881138E+02  0.90458314640E+02  0.10494090556E+03  0.50000000000E+02 0.  0.
<mgrwt>
<rscale>  0 0.53196682E+02</rscale>
<asrwt>0</asrwt>
<pdfrwt beam="1">  1       13 0.10000000E+01 0.53196682E+02</pdfrwt>
<pdfrwt beam="2">  1       22 0.43094134E+00 0.53196682E+02</pdfrwt>
<totfact> 0.10654372E-01</totfact>
</mgrwt>
</event>
<event>
 4    1  0.2416490E+000  0.5144798E+02  0.7957747E-01  0.1437684E+00
         13   -1    0    0    0    0  0.00000000000E+00  0.00000000000E+00  0.99999944185E+02  0.10000000001E+03  0.10566000000E+00 0. -1.
         22   -1    0    0    0    0 -0.00000000000E+00 -0.00000000000E+00 -0.10149923399E+02  0.10149923399E+02  0.00000000000E+00 0. -1.
         13    1    1    2    0    0  0.11199716144E+02  0.46325894927E+01  0.20228687920E+02  0.23581889366E+02  0.10566000000E+00 0.  1.
        996    1    1    2    0    0 -0.11199716144E+02 -0.46325894927E+01  0.69621332867E+02  0.86568034038E+02  0.50000000000E+02 0.  0.
<mgrwt>
<rscale>  0 0.51447979E+02</rscale>
<asrwt>0</asrwt>
<pdfrwt beam="1">  1       13 0.10000000E+01 0.51447979E+02</pdfrwt>
<pdfrwt beam="2">  1       22 0.10149948E+00 0.51447979E+02</pdfrwt>
<totfact> 0.13778325E+00</totfact>
</mgrwt>
</event>
<event>
 4    1  0.2416490E+000  0.5533495E+02  0.7957747E-01  0.1418522E+00
         13   -1    0    0    0    0  0.00000000000E+00  0.00000000000E+00  0.99999944177E+02  0.99999999997E+02  0.10566000000E+00 0. -1.
         22   -1    0    0    0    0 -0.00000000000E+00 -0.00000000000E+00 -0.29663122887E+02  0.29663122887E+02  0.00000000000E+00 0. -1.
         13    1    1    2    0    0 -0.23669772856E+02 -0.13031220556E+01 -0.14929416514E+02  0.28015262191E+02  0.10566000000E+00 0.  1.
        996    1    1    2    0    0  0.23669772856E+02  0.13031220556E+01  0.85266237804E+02  0.10164786069E+03  0.50000000000E+02 0.  0.
<mgrwt>
<rscale>  0 0.55334946E+02</rscale>
<asrwt>0</asrwt>
<pdfrwt beam="1">  1       13 0.10000000E+01 0.55334946E+02</pdfrwt>
<pdfrwt beam="2">  1       22 0.29663143E+00 0.55334946E+02</pdfrwt>
<totfact> 0.21237908E-01</totfact>
</mgrwt>
</event>
<event>
 4    1  0.2416490E+000  0.5649113E+02  0.7957747E-01  0.1413176E+00
         13   -1    0    0    0    0  0.00000000000E+00  0.00000000000E+00  0.99999944176E+02  0.99999999996E+02  0.10566000000E+00 0.  1.
         22   -1    0    0    0    0 -0.00000000000E+00 -0.00000000000E+00 -0.29793311569E+02  0.29793311569E+02  0.00000000000E+00 0. -1.
         13    1    1    2    0    0 -0.13952838841E+01  0.26254544039E+02 -0.12914763599E+02  0.29292493623E+02  0.10566000000E+00 0. -1.
        996    1    1    2    0    0  0.13952838841E+01 -0.26254544039E+02  0.83121396205E+02  0.10050081794E+03  0.50000000000E+02 0.  0.
<mgrwt>
<rscale>  0 0.56491131E+02</rscale>
<asrwt>0</asrwt>
<pdfrwt beam="1">  1       13 0.10000000E+01 0.56491131E+02</pdfrwt>
<pdfrwt beam="2">  1       22 0.29793331E+00 0.56491131E+02</pdfrwt>
<totfact> 0.21093267E-01</totfact>
</mgrwt>
</event>
<event>
 4    1  0.2416490E+000  0.5121006E+02  0.7957747E-01  0.1438922E+00
         13   -1    0    0    0    0  0.00000000000E+00  0.00000000000E+00  0.99999944180E+02  0.10000000000E+03  0.10566000000E+00 0.  1.
         22   -1    0    0    0    0 -0.00000000000E+00 -0.00000000000E+00 -0.10177689452E+02  0.10177689452E+02  0.00000000000E+00 0. -1.
         13    1    1    2    0    0  0.11066636778E+02  0.98232754794E-02  0.80174923863E+01  0.13666085550E+02  0.10566000000E+00 0. -1.
        996    1    1    2    0    0 -0.11066636778E+02 -0.98232754794E-02  0.81804762341E+02  0.96511603902E+02  0.50000000000E+02 0.  0.
<mgrwt>
<rscale>  0 0.51210063E+02</rscale>
<asrwt>0</asrwt>
<pdfrwt beam="1">  1       13 0.10000000E+01 0.51210063E+02</pdfrwt>
<pdfrwt beam="2">  1       22 0.10177715E+00 0.51210063E+02</pdfrwt>
<totfact> 0.13715812E+00</totfact>
</mgrwt>
</event>
<event>
 4    1  0.2416490E+000  0.5454853E+02  0.7957747E-01  0.1422246E+00
         13   -1    0    0    0    0  0.00000000000E+00  0.00000000000E+00  0.99999944179E+02  0.99999999999E+02  0.10566000000E+00 0. -1.
         22   -1    0    0    0    0 -0.00000000000E+00 -0.00000000000E+00 -0.21039126784E+02  0.21039126784E+02  0.00000000000E+00 0.  1.
         13    1    1    2    0    0  0.15919657939E+02 -0.14903254253E+02 -0.35830462794E+01  0.22099590062E+02  0.10566000000E+00 0.  1.
        996    1    1    2    0    0 -0.15919657939E+02  0.14903254253E+02  0.82543863674E+02  0.98939536721E+02  0.50000000000E+02 0.  0.
<mgrwt>
<rscale>  0 0.54548533E+02</rscale>
<asrwt>0</asrwt>
<pdfrwt beam="1">  1       13 0.10000000E+01 0.54548533E+02</pdfrwt>
<pdfrwt beam="2">  1       22 0.21039149E+00 0.54548533E+02</pdfrwt>
<totfact> 0.41368372E-01</totfact>
</mgrwt>
</event>
<event>
 4    1  0.2416490E+000  0.5738052E+02  0.7957747E-01  0.1409165E+00
         13   -1    0    0    0    0  0.00000000000E+00  0.00000000000E+00  0.99999944178E+02  0.99999999998E+02  0.10566000000E+00 0. -1.
         22   -1    0    0    0    0 -0.00000000000E+00 -0.00000000000E+00 -0.27102338182E+02  0.27102338182E+02  0.00000000000E+00 0. -1.
         13    1    1    2    0    0 -0.20017440757E+02 -0.19794597738E+02 -0.67384526988E+01  0.28947226860E+02  0.10566000000E+00 0.  1.
        996    1    1    2    0    0  0.20017440757E+02  0.19794597738E+02  0.79636058694E+02  0.98155111321E+02  0.50000000000E+02 0.  0.
<mgrwt>
<rscale>  0 0.57380520E+02</rscale>
<asrwt>0</asrwt>
<pdfrwt beam="1">  1       13 0.10000000E+01 0.57380520E+02</pdfrwt>
<pdfrwt beam="2">  1       22 0.27102359E+00 0.57380520E+02</pdfrwt>
<totfact> 0.25345092E-01</totfact>
</mgrwt>
</event>
<event>
 4    1  0.2416490E+000  0.5619158E+02  0.7957747E-01  0.1414546E+00
         13   -1    0    0    0    0  0.00000000000E+00  0.00000000000E+00  0.99999944181E+02  0.10000000000E+03  0.10566000000E+00 0.  1.
         22   -1    0    0    0    0 -0.00000000000E+00 -0.00000000000E+00 -0.16769551606E+02  0.16769551606E+02  0.00000000000E+00 0. -1.
         13    1    1    2    0    0 -0.20526757913E+02  0.15367039277E+02  0.23899878600E+02  0.35052946348E+02  0.10566000000E+00 0. -1.
        996    1    1    2    0    0  0.20526757913E+02 -0.15367039277E+02  0.59330513975E+02  0.81716605259E+02  0.50000000000E+02 0.  0.
<mgrwt>
<rscale>  0 0.56191580E+02</rscale>
<asrwt>0</asrwt>
<pdfrwt beam="1">  1       13 0.10000000E+01 0.56191580E+02</pdfrwt>
<pdfrwt beam="2">  1       22 0.16769575E+00 0.56191580E+02</pdfrwt>
<totfact> 0.62755349E-01</totfact>
</mgrwt>
</event>
<event>
 4    1  0.2416490E+000  0.5157513E+02  0.7957747E-01  0.1437026E+00
         13   -1    0    0    0    0  0.00000000000E+00  0.00000000000E+00  0.99999944183E+02  0.10000000000E+03  0.10566000000E+00 0.  1.
         22   -1    0    0    0    0 -0.00000000000E+00 -0.00000000000E+00 -0.11816024469E+02  0.11816024469E+02  0.00000000000E+00 0.  1.
         13    1    1    2    0    0  0.11436025247E+02  0.54047282311E+01  0.37211607198E+02  0.39302781517E+02  0.10566000000E+00 0. -1.
        996    1    1    2    0    0 -0.11436025247E+02 -0.54047282311E+01  0.50972312516E+02  0.72513242956E+02  0.50000000000E+02 0.  0.
<mgrwt>
<rscale>  0 0.51575127E+02</rscale>
<asrwt>0</asrwt>
<pdfrwt beam="1">  1       13 0.10000000E+01 0.51575127E+02</pdfrwt>
<pdfrwt beam="2">  1       22 0.11816049E+00 0.51575127E+02</pdfrwt>
<totfact> 0.10995561E+00</totfact>
</mgrwt>
</event>
<event>
 4    1  0.2416490E+000  0.5145629E+02  0.7957747E-01  0.1437641E+00
         13   -1    0    0    0    0  0.00000000000E+00  0.00000000000E+00  0.99999944178E+02  0.99999999998E+02  0.10566000000E+00 0.  1.
         22   -1    0    0    0    0 -0.00000000000E+00 -0.00000000000E+00 -0.11318548309E+02  0.11318548309E+02  0.00000000000E+00 0. -1.
         13    1    1    2    0    0  0.11504541864E+02 -0.39236433267E+01  0.51314060740E+01  0.13194390960E+02  0.10566000000E+00 0. -1.
        996    1    1    2    0    0 -0.11504541864E+02  0.39236433267E+01  0.83549989795E+02  0.98124157347E+02  0.50000000000E+02 0.  0.
<mgrwt>
<rscale>  0 0.51456287E+02</rscale>
<asrwt>0</asrwt>
<pdfrwt beam="1">  1       13 0.10000000E+01 0.51456287E+02</pdfrwt>
<pdfrwt beam="2">  1       22 0.11318573E+00 0.51456287E+02</pdfrwt>
<totfact> 0.11730661E+00</totfact>
</mgrwt>
</event>
<event>
 4    1  0.2416490E+000  0.5573589E+02  0.7957747E-01  0.1416651E+00
         13   -1    0    0    0    0  0.00000000000E+00  0.00000000000E+00  0.99999944183E+02  0.10000000000E+03  0.10566000000E+00 0.  1.
         22   -1    0    0    0    0 -0.00000000000E+00 -0.00000000000E+00 -0.18930338705E+02  0.18930338705E+02  0.00000000000E+00 0. -1.
         13    1    1    2    0    0  0.15758148721E+02  0.18925398253E+02  0.58517060286E+01  0.25312913259E+02  0.10566000000E+00 0. -1.
        996    1    1    2    0    0 -0.15758148721E+02 -0.18925398253E+02  0.75217899449E+02  0.93617425449E+02  0.50000000000E+02 0.  0.
<mgrwt>
<rscale>  0 0.55735895E+02</rscale>
<asrwt>0</asrwt>
<pdfrwt beam="1">  1       13 0.10000000E+01 0.55735895E+02</pdfrwt>
<pdfrwt beam="2">  1       22 0.18930361E+00 0.55735895E+02</pdfrwt>
<totfact> 0.50483163E-01</totfact>
</mgrwt>
</event>
<event>
 4    1  0.2416490E+000  0.7663379E+02  0.7957747E-01  0.1338885E+00
         13   -1    0    0    0    0  0.00000000000E+00  0.00000000000E+00  0.99999944175E+02  0.99999999996E+02  0.10566000000E+00 0. -1.
         22   -1    0    0    0    0 -0.00000000000E+00 -0.00000000000E+00 -0.54051102505E+02  0.54051102505E+02  0.00000000000E+00 0.  1.
         13    1    1    2    0    0  0.52879801848E+02  0.24009682151E+02 -0.10310452503E+02  0.58983513589E+02  0.10566000000E+00 0.  1.
        996    1    1    2    0    0 -0.52879801848E+02 -0.24009682151E+02  0.56259294173E+02  0.95067588911E+02  0.50000000000E+02 0.  0.
<mgrwt>
<rscale>  0 0.76633793E+02</rscale>
<asrwt>0</asrwt>
<pdfrwt beam="1">  1       13 0.10000000E+01 0.76633793E+02</pdfrwt>
<pdfrwt beam="2">  1       22 0.54051115E+00 0.76633793E+02</pdfrwt>
<totfact> 0.60912724E-02</totfact>
</mgrwt>
</event>
<event>
 4    1  0.2416490E+000  0.6442669E+02  0.7957747E-01  0.1380141E+00
         13   -1    0    0    0    0  0.00000000000E+00  0.00000000000E+00  0.99999944182E+02  0.10000000000E+03  0.10566000000E+00 0. -1.
         22   -1    0    0    0    0 -0.00000000000E+00 -0.00000000000E+00 -0.27773399986E+02  0.27773399986E+02  0.00000000000E+00 0.  1.
         13    1    1    2    0    0  0.25182765008E+02  0.31884575409E+02  0.22961230556E+02  0.46669337633E+02  0.10566000000E+00 0.  1.
        996    1    1    2    0    0 -0.25182765008E+02 -0.31884575409E+02  0.49265313640E+02  0.81104062355E+02  0.50000000000E+02 0.  0.
<mgrwt>
<rscale>  0 0.64426685E+02</rscale>
<asrwt>0</asrwt>
<pdfrwt beam="1">  1       13 0.10000000E+01 0.64426685E+02</pdfrwt>
<pdfrwt beam="2">  1       22 0.27773420E+00 0.64426685E+02</pdfrwt>
<totfact> 0.24369550E-01</totfact>
</mgrwt>
</event>
<event>
 4    1  0.2416490E+000  0.5695710E+02  0.7957747E-01  0.1411064E+00
         13   -1    0    0    0    0  0.00000000000E+00  0.00000000000E+00  0.99999944174E+02  0.99999999995E+02  0.10566000000E+00 0. -1.
         22   -1    0    0    0    0 -0.00000000000E+00 -0.00000000000E+00 -0.17817753344E+02  0.17817753344E+02  0.00000000000E+00 0. -1.
         13    1    1    2    0    0 -0.24627124907E+02 -0.11731000979E+02  0.30341185692E+02  0.40800862471E+02  0.10566000000E+00 0.  1.
        996    1    1    2    0    0  0.24627124907E+02  0.11731000979E+02  0.51841005138E+02  0.77016890867E+02  0.50000000000E+02 0.  0.
<mgrwt>
<rscale>  0 0.56957104E+02</rscale>
<asrwt>0</asrwt>
<pdfrwt beam="1">  1       13 0.10000000E+01 0.56957104E+02</pdfrwt>
<pdfrwt beam="2">  1       22 0.17817776E+00 0.56957104E+02</pdfrwt>
<totfact> 0.56452810E-01</totfact>
</mgrwt>
</event>
<event>
 4    1  0.2416490E+000  0.5099462E+02  0.7957747E-01  0.1440049E+00
         13   -1    0    0    0    0  0.00000000000E+00  0.00000000000E+00  0.99999944182E+02  0.10000000000E+03  0.10566000000E+00 0.  1.
         22   -1    0    0    0    0 -0.00000000000E+00 -0.00000000000E+00 -0.13381831042E+02  0.13381831042E+02  0.00000000000E+00 0. -1.
         13    1    1    2    0    0 -0.57972232328E+01  0.81757991605E+01 -0.28332292432E+01  0.10415845674E+02  0.10566000000E+00 0. -1.
        996    1    1    2    0    0  0.57972232328E+01 -0.81757991605E+01  0.89451342384E+02  0.10296598537E+03  0.50000000000E+02 0.  0.
<mgrwt>
<rscale>  0 0.50994622E+02</rscale>
<asrwt>0</asrwt>
<pdfrwt beam="1">  1       13 0.10000000E+01 0.50994622E+02</pdfrwt>
<pdfrwt beam="2">  1       22 0.13381855E+00 0.50994622E+02</pdfrwt>
<totfact> 0.90475372E-01</totfact>
</mgrwt>
</event>
<event>
 4    1  0.2416490E+000  0.9579105E+02  0.7957747E-01  0.1289404E+00
         13   -1    0    0    0    0  0.00000000000E+00  0.00000000000E+00  0.99999944173E+02  0.99999999994E+02  0.10566000000E+00 0.  1.
         22   -1    0    0    0    0 -0.00000000000E+00 -0.00000000000E+00 -0.81554552374E+02  0.81554552374E+02  0.00000000000E+00 0. -1.
         13    1    1    2    0    0 -0.76922211513E+01 -0.81343437785E+02 -0.82267116970E+01  0.82119517085E+02  0.10566000000E+00 0. -1.
        996    1    1    2    0    0  0.76922211513E+01  0.81343437785E+02  0.26672103496E+02  0.99435035283E+02  0.50000000000E+02 0.  0.
<mgrwt>
<rscale>  0 0.95791049E+02</rscale>
<asrwt>0</asrwt>
<pdfrwt beam="1">  1       13 0.10000000E+01 0.95791049E+02</pdfrwt>
<pdfrwt beam="2">  1       22 0.81554558E+00 0.95791049E+02</pdfrwt>
<totfact> 0.26678969E-02</totfact>
</mgrwt>
</event>
<event>
 4    1  0.2416490E+000  0.5117463E+02  0.7957747E-01  0.1439107E+00
         13   -1    0    0    0    0  0.00000000000E+00  0.00000000000E+00  0.99999944180E+02  0.10000000000E+03  0.10566000000E+00 0.  1.
         22   -1    0    0    0    0 -0.00000000000E+00 -0.00000000000E+00 -0.50577700502E+02  0.50577700502E+02  0.00000000000E+00 0. -1.
         13    1    1    2    0    0  0.10597406802E+02  0.25569410174E+01 -0.43310570058E+02  0.44661612387E+02  0.10566000000E+00 0. -1.
        996    1    1    2    0    0 -0.10597406802E+02 -0.25569410174E+01  0.92732813735E+02  0.10591608811E+03  0.50000000000E+02 0.  0.
<mgrwt>
<rscale>  0 0.51174632E+02</rscale>
<asrwt>0</asrwt>
<pdfrwt beam="1">  1       13 0.10000000E+01 0.51174632E+02</pdfrwt>
<pdfrwt beam="2">  1       22 0.50577714E+00 0.51174632E+02</pdfrwt>
<totfact> 0.71310484E-02</totfact>
</mgrwt>
</event>
<event>
 4    1  0.2416490E+000  0.5311908E+02  0.7957747E-01  0.1429209E+00
         13   -1    0    0    0    0  0.00000000000E+00  0.00000000000E+00  0.99999944174E+02  0.99999999994E+02  0.10566000000E+00 0. -1.
         22   -1    0    0    0    0 -0.00000000000E+00 -0.00000000000E+00 -0.19806068438E+02  0.19806068438E+02  0.00000000000E+00 0.  1.
         13    1    1    2    0    0 -0.57682003435E+01 -0.16981288790E+02 -0.56960788317E+01  0.18817353221E+02  0.10566000000E+00 0.  1.
        996    1    1    2    0    0  0.57682003435E+01  0.16981288790E+02  0.85889954568E+02  0.10098871521E+03  0.50000000000E+02 0.  0.
<mgrwt>
<rscale>  0 0.53119077E+02</rscale>
<asrwt>0</asrwt>
<pdfrwt beam="1">  1       13 0.10000000E+01 0.53119077E+02</pdfrwt>
<pdfrwt beam="2">  1       22 0.19806091E+00 0.53119077E+02</pdfrwt>
<totfact> 0.46229719E-01</totfact>
</mgrwt>
</event>
<event>
 4    1  0.2416490E+000  0.5126675E+02  0.7957747E-01  0.1438626E+00
         13   -1    0    0    0    0  0.00000000000E+00  0.00000000000E+00  0.99999944180E+02  0.10000000000E+03  0.10566000000E+00 0. -1.
         22   -1    0    0    0    0 -0.00000000000E+00 -0.00000000000E+00 -0.10971499380E+02  0.10971499380E+02  0.00000000000E+00 0. -1.
         13    1    1    2    0    0  0.33948177967E+01  0.10805326219E+02  0.46592477480E+01  0.12247433045E+02  0.10566000000E+00 0.  1.
        996    1    1    2    0    0 -0.33948177967E+01 -0.10805326219E+02  0.84369197052E+02  0.98724066335E+02  0.50000000000E+02 0.  0.
<mgrwt>
<rscale>  0 0.51266752E+02</rscale>
<asrwt>0</asrwt>
<pdfrwt beam="1">  1       13 0.10000000E+01 0.51266752E+02</pdfrwt>
<pdfrwt beam="2">  1       22 0.10971524E+00 0.51266752E+02</pdfrwt>
<totfact> 0.12283629E+00</totfact>
</mgrwt>
</event>
<event>
 4    1  0.2416490E+000  0.5936135E+02  0.7957747E-01  0.1400532E+00
         13   -1    0    0    0    0  0.00000000000E+00  0.00000000000E+00  0.99999944177E+02  0.99999999998E+02  0.10566000000E+00 0. -1.
         22   -1    0    0    0    0 -0.00000000000E+00 -0.00000000000E+00 -0.33517086832E+02  0.33517086832E+02  0.00000000000E+00 0.  1.
         13    1    1    2    0    0  0.23341841947E+02  0.21884422437E+02 -0.12810312433E+02  0.34465704686E+02  0.10566000000E+00 0.  1.
        996    1    1    2    0    0 -0.23341841947E+02 -0.21884422437E+02  0.79293169778E+02  0.99051382143E+02  0.50000000000E+02 0.  0.
<mgrwt>
<rscale>  0 0.59361347E+02</rscale>
<asrwt>0</asrwt>
<pdfrwt beam="1">  1       13 0.10000000E+01 0.59361347E+02</pdfrwt>
<pdfrwt beam="2">  1       22 0.33517105E+00 0.59361347E+02</pdfrwt>
<totfact> 0.17079716E-01</totfact>
</mgrwt>
</event>
<event>
 4    1  0.2416490E+000  0.5110480E+02  0.7957747E-01  0.1439472E+00
         13   -1    0    0    0    0  0.00000000000E+00  0.00000000000E+00  0.99999944177E+02  0.99999999997E+02  0.10566000000E+00 0.  1.
         22   -1    0    0    0    0 -0.00000000000E+00 -0.00000000000E+00 -0.28240511931E+02  0.28240511931E+02  0.00000000000E+00 0. -1.
         13    1    1    2    0    0 -0.10242207844E+02 -0.26073352037E+01 -0.20334443434E+02  0.22917281082E+02  0.10566000000E+00 0. -1.
        996    1    1    2    0    0  0.10242207844E+02  0.26073352037E+01  0.92093875679E+02  0.10532323085E+03  0.50000000000E+02 0.  0.
<mgrwt>
<rscale>  0 0.51104804E+02</rscale>
<asrwt>0</asrwt>
<pdfrwt beam="1">  1       13 0.10000000E+01 0.51104804E+02</pdfrwt>
<pdfrwt beam="2">  1       22 0.28240532E+00 0.51104804E+02</pdfrwt>
<totfact> 0.23194168E-01</totfact>
</mgrwt>
</event>
<event>
 4    1  0.2416490E+000  0.5214805E+02  0.7957747E-01  0.1434088E+00
         13   -1    0    0    0    0  0.00000000000E+00  0.00000000000E+00  0.99999944187E+02  0.10000000001E+03  0.10566000000E+00 0.  1.
         22   -1    0    0    0    0 -0.00000000000E+00 -0.00000000000E+00 -0.11253088577E+02  0.11253088577E+02  0.00000000000E+00 0. -1.
         13    1    1    2    0    0 -0.14423826284E+02  0.33723485397E+01  0.22605052472E+02  0.27026266125E+02  0.10566000000E+00 0. -1.
        996    1    1    2    0    0  0.14423826284E+02 -0.33723485397E+01  0.66141803137E+02  0.84226822459E+02  0.50000000000E+02 0.  0.
<mgrwt>
<rscale>  0 0.52148054E+02</rscale>
<asrwt>0</asrwt>
<pdfrwt beam="1">  1       13 0.10000000E+01 0.52148054E+02</pdfrwt>
<pdfrwt beam="2">  1       22 0.11253113E+00 0.52148054E+02</pdfrwt>
<totfact> 0.11851949E+00</totfact>
</mgrwt>
</event>
<event>
 4    1  0.2416490E+000  0.5216193E+02  0.7957747E-01  0.1434018E+00
         13   -1    0    0    0    0  0.00000000000E+00  0.00000000000E+00  0.99999944184E+02  0.10000000000E+03  0.10566000000E+00 0. -1.
         22   -1    0    0    0    0 -0.00000000000E+00 -0.00000000000E+00 -0.29663939827E+02  0.29663939827E+02  0.00000000000E+00 0.  1.
         13    1    1    2    0    0  0.43472283798E+01  0.14211568287E+02 -0.20258722476E+02  0.25125566027E+02  0.10566000000E+00 0.  1.
        996    1    1    2    0    0 -0.43472283798E+01 -0.14211568287E+02  0.90594726833E+02  0.10453837380E+03  0.50000000000E+02 0.  0.
<mgrwt>
<rscale>  0 0.52161931E+02</rscale>
<asrwt>0</asrwt>
<pdfrwt beam="1">  1       13 0.10000000E+01 0.52161931E+02</pdfrwt>
<pdfrwt beam="2">  1       22 0.29663959E+00 0.52161931E+02</pdfrwt>
<totfact> 0.21149974E-01</totfact>
</mgrwt>
</event>
<event>
 4    1  0.2416490E+000  0.5164523E+02  0.7957747E-01  0.1436664E+00
         13   -1    0    0    0    0  0.00000000000E+00  0.00000000000E+00  0.99999944177E+02  0.99999999997E+02  0.10566000000E+00 0. -1.
         22   -1    0    0    0    0 -0.00000000000E+00 -0.00000000000E+00 -0.14850122876E+02  0.14850122876E+02  0.00000000000E+00 0.  1.
         13    1    1    2    0    0 -0.98214411087E+01  0.84124401558E+01 -0.24475357767E+01  0.13161741915E+02  0.10566000000E+00 0.  1.
        996    1    1    2    0    0  0.98214411087E+01 -0.84124401558E+01  0.87597357078E+02  0.10168838096E+03  0.50000000000E+02 0.  0.
<mgrwt>
<rscale>  0 0.51645231E+02</rscale>
<asrwt>0</asrwt>
<pdfrwt beam="1">  1       13 0.10000000E+01 0.51645231E+02</pdfrwt>
<pdfrwt beam="2">  1       22 0.14850147E+00 0.51645231E+02</pdfrwt>
<totfact> 0.76503494E-01</totfact>
</mgrwt>
</event>
<event>
 4    1  0.2416490E+000  0.5187435E+02  0.7957747E-01  0.1435486E+00
         13   -1    0    0    0    0  0.00000000000E+00  0.00000000000E+00  0.99999944177E+02  0.99999999997E+02  0.10566000000E+00 0.  1.
         22   -1    0    0    0    0 -0.00000000000E+00 -0.00000000000E+00 -0.34480791542E+02  0.34480791542E+02  0.00000000000E+00 0. -1.
         13    1    1    2    0    0  0.12755371175E+02 -0.53149687191E+01 -0.25907684418E+02  0.29362691672E+02  0.10566000000E+00 0. -1.
        996    1    1    2    0    0 -0.12755371175E+02  0.53149687191E+01  0.91426837053E+02  0.10511809987E+03  0.50000000000E+02 0.  0.
<mgrwt>
<rscale>  0 0.51874352E+02</rscale>
<asrwt>0</asrwt>
<pdfrwt beam="1">  1       13 0.10000000E+01 0.51874352E+02</pdfrwt>
<pdfrwt beam="2">  1       22 0.34480810E+00 0.51874352E+02</pdfrwt>
<totfact> 0.16127012E-01</totfact>
</mgrwt>
</event>
<event>
 4    1  0.2416490E+000  0.5177467E+02  0.7957747E-01  0.1435998E+00
         13   -1    0    0    0    0  0.00000000000E+00  0.00000000000E+00  0.99999944180E+02  0.10000000000E+03  0.10566000000E+00 0.  1.
         22   -1    0    0    0    0 -0.00000000000E+00 -0.00000000000E+00 -0.10633554788E+02  0.10633554788E+02  0.00000000000E+00 0.  1.
         13    1    1    2    0    0 -0.92721006197E+01 -0.97285469725E+01  0.18909167369E+02  0.23198798476E+02  0.10566000000E+00 0. -1.
        996    1    1    2    0    0  0.92721006197E+01  0.97285469725E+01  0.70457222023E+02  0.87434756312E+02  0.50000000000E+02 0.  0.
<mgrwt>
<rscale>  0 0.51774670E+02</rscale>
<asrwt>0</asrwt>
<pdfrwt beam="1">  1       13 0.10000000E+01 0.51774670E+02</pdfrwt>
<pdfrwt beam="2">  1       22 0.10633580E+00 0.51774670E+02</pdfrwt>
<totfact> 0.12880985E+00</totfact>
</mgrwt>
</event>
<event>
 4    1  0.2416490E+000  0.5145416E+02  0.7957747E-01  0.1437652E+00
         13   -1    0    0    0    0  0.00000000000E+00  0.00000000000E+00  0.99999944169E+02  0.99999999989E+02  0.10566000000E+00 0. -1.
         22   -1    0    0    0    0 -0.00000000000E+00 -0.00000000000E+00 -0.10113902277E+02  0.10113902277E+02  0.00000000000E+00 0. -1.
         13    1    1    2    0    0 -0.11123444670E+02 -0.48785107841E+01  0.16687724088E+02  0.20640304941E+02  0.10566000000E+00 0.  1.
        996    1    1    2    0    0  0.11123444670E+02  0.48785107841E+01  0.73198317804E+02  0.89473597324E+02  0.50000000000E+02 0.  0.
<mgrwt>
<rscale>  0 0.51454163E+02</rscale>
<asrwt>0</asrwt>
<pdfrwt beam="1">  1       13 0.10000000E+01 0.51454163E+02</pdfrwt>
<pdfrwt beam="2">  1       22 0.10113927E+00 0.51454163E+02</pdfrwt>
<totfact> 0.13849905E+00</totfact>
</mgrwt>
</event>
<event>
 4    1  0.2416490E+000  0.5159671E+02  0.7957747E-01  0.1436915E+00
         13   -1    0    0    0    0  0.00000000000E+00  0.00000000000E+00  0.99999944181E+02  0.10000000000E+03  0.10566000000E+00 0.  1.
         22   -1    0    0    0    0 -0.00000000000E+00 -0.00000000000E+00 -0.21644031428E+02  0.21644031428E+02  0.00000000000E+00 0. -1.
         13    1    1    2    0    0 -0.19227799113E+01  0.12590618026E+02 -0.12060769892E+02  0.17541210884E+02  0.10566000000E+00 0. -1.
        996    1    1    2    0    0  0.19227799113E+01 -0.12590618026E+02  0.90416682646E+02  0.10410282055E+03  0.50000000000E+02 0.  0.
<mgrwt>
<rscale>  0 0.51596713E+02</rscale>
<asrwt>0</asrwt>
<pdfrwt beam="1">  1       13 0.10000000E+01 0.51596713E+02</pdfrwt>
<pdfrwt beam="2">  1       22 0.21644053E+00 0.51596713E+02</pdfrwt>
<totfact> 0.38995985E-01</totfact>
</mgrwt>
</event>
<event>
 4    1  0.2416490E+000  0.7164139E+02  0.7957747E-01  0.1354599E+00
         13   -1    0    0    0    0  0.00000000000E+00  0.00000000000E+00  0.99999944179E+02  0.10000000000E+03  0.10566000000E+00 0. -1.
         22   -1    0    0    0    0 -0.00000000000E+00 -0.00000000000E+00 -0.60271000364E+02  0.60271000364E+02  0.00000000000E+00 0.  1.
         13    1    1    2    0    0 -0.47318370484E+02 -0.19835826975E+02 -0.30714188348E+02  0.59798501210E+02  0.10566000000E+00 0.  1.
        996    1    1    2    0    0  0.47318370484E+02  0.19835826975E+02  0.70443132163E+02  0.10047249915E+03  0.50000000000E+02 0.  0.
<mgrwt>
<rscale>  0 0.71641386E+02</rscale>
<asrwt>0</asrwt>
<pdfrwt beam="1">  1       13 0.10000000E+01 0.71641386E+02</pdfrwt>
<pdfrwt beam="2">  1       22 0.60271011E+00 0.71641386E+02</pdfrwt>
<totfact> 0.64702774E-02</totfact>
</mgrwt>
</event>
<event>
 4    1  0.2416490E+000  0.5139857E+02  0.7957747E-01  0.1437941E+00
         13   -1    0    0    0    0  0.00000000000E+00  0.00000000000E+00  0.99999944184E+02  0.10000000000E+03  0.10566000000E+00 0.  1.
         22   -1    0    0    0    0 -0.00000000000E+00 -0.00000000000E+00 -0.10497298251E+02  0.10497298251E+02  0.00000000000E+00 0. -1.
         13    1    1    2    0    0  0.41865100673E+00 -0.11901154353E+02  0.87624731168E+01  0.14785291433E+02  0.10566000000E+00 0. -1.
        996    1    1    2    0    0 -0.41865100673E+00  0.11901154353E+02  0.80740172816E+02  0.95712006822E+02  0.50000000000E+02 0.  0.
<mgrwt>
<rscale>  0 0.51398568E+02</rscale>
<asrwt>0</asrwt>
<pdfrwt beam="1">  1       13 0.10000000E+01 0.51398568E+02</pdfrwt>
<pdfrwt beam="2">  1       22 0.10497323E+00 0.51398568E+02</pdfrwt>
<totfact> 0.13115891E+00</totfact>
</mgrwt>
</event>
<event>
 4    1  0.2416490E+000  0.5109081E+02  0.7957747E-01  0.1439545E+00
         13   -1    0    0    0    0  0.00000000000E+00  0.00000000000E+00  0.99999944177E+02  0.99999999997E+02  0.10566000000E+00 0. -1.
         22   -1    0    0    0    0 -0.00000000000E+00 -0.00000000000E+00 -0.96524414236E+01  0.96524414236E+01  0.00000000000E+00 0. -1.
         13    1    1    2    0    0 -0.96105067964E+01  0.42319238530E+01  0.21407302260E+02  0.23844386645E+02  0.10566000000E+00 0.  1.
        996    1    1    2    0    0  0.96105067964E+01 -0.42319238530E+01  0.68940200494E+02  0.85808054776E+02  0.50000000000E+02 0.  0.
<mgrwt>
<rscale>  0 0.51090812E+02</rscale>
<asrwt>0</asrwt>
<pdfrwt beam="1">  1       13 0.10000000E+01 0.51090812E+02</pdfrwt>
<pdfrwt beam="2">  1       22 0.96524666E-01 0.51090812E+02</pdfrwt>
<totfact> 0.14802610E+00</totfact>
</mgrwt>
</event>
<event>
 4    1  0.2416490E+000  0.5348699E+02  0.7957747E-01  0.1427393E+00
         13   -1    0    0    0    0  0.00000000000E+00  0.00000000000E+00  0.99999944176E+02  0.99999999996E+02  0.10566000000E+00 0.  1.
         22   -1    0    0    0    0 -0.00000000000E+00 -0.00000000000E+00 -0.16494286949E+02  0.16494286949E+02  0.00000000000E+00 0. -1.
         13    1    1    2    0    0  0.99117778685E+01  0.16205406952E+02  0.21317710955E+01  0.19115809348E+02  0.10566000000E+00 0. -1.
        996    1    1    2    0    0 -0.99117778685E+01 -0.16205406952E+02  0.81373886132E+02  0.97378477597E+02  0.50000000000E+02 0.  0.
<mgrwt>
<rscale>  0 0.53486994E+02</rscale>
<asrwt>0</asrwt>
<pdfrwt beam="1">  1       13 0.10000000E+01 0.53486994E+02</pdfrwt>
<pdfrwt beam="2">  1       22 0.16494310E+00 0.53486994E+02</pdfrwt>
<totfact> 0.64266104E-01</totfact>
</mgrwt>
</event>
<event>
 4    1  0.2416490E+000  0.5333849E+02  0.7957747E-01  0.1428124E+00
         13   -1    0    0    0    0  0.00000000000E+00  0.00000000000E+00  0.99999944177E+02  0.99999999997E+02  0.10566000000E+00 0.  1.
         22   -1    0    0    0    0 -0.00000000000E+00 -0.00000000000E+00 -0.26049540970E+02  0.26049540970E+02  0.00000000000E+00 0.  1.
         13    1    1    2    0    0  0.15267572541E+02  0.10578061741E+02 -0.13951650333E+02  0.23230451407E+02  0.10566000000E+00 0. -1.
        996    1    1    2    0    0 -0.15267572541E+02 -0.10578061741E+02  0.87902053540E+02  0.10281908956E+03  0.50000000000E+02 0.  0.
<mgrwt>
<rscale>  0 0.53338487E+02</rscale>
<asrwt>0</asrwt>
<pdfrwt beam="1">  1       13 0.10000000E+01 0.53338487E+02</pdfrwt>
<pdfrwt beam="2">  1       22 0.26049562E+00 0.53338487E+02</pdfrwt>
<totfact> 0.27242577E-01</totfact>
</mgrwt>
</event>
<event>
 4    1  0.2416490E+000  0.5115354E+02  0.7957747E-01  0.1439217E+00
         13   -1    0    0    0    0  0.00000000000E+00  0.00000000000E+00  0.99999944180E+02  0.10000000000E+03  0.10566000000E+00 0. -1.
         22   -1    0    0    0    0 -0.00000000000E+00 -0.00000000000E+00 -0.24303561355E+02  0.24303561355E+02  0.00000000000E+00 0.  1.
         13    1    1    2    0    0 -0.27781464130E+01  0.10438696866E+02 -0.15999211287E+02  0.19304673413E+02  0.10566000000E+00 0.  1.
        996    1    1    2    0    0  0.27781464130E+01 -0.10438696866E+02  0.91695594111E+02  0.10499888794E+03  0.50000000000E+02 0.  0.
<mgrwt>
<rscale>  0 0.51153538E+02</rscale>
<asrwt>0</asrwt>
<pdfrwt beam="1">  1       13 0.10000000E+01 0.51153538E+02</pdfrwt>
<pdfrwt beam="2">  1       22 0.24303582E+00 0.51153538E+02</pdfrwt>
<totfact> 0.31119547E-01</totfact>
</mgrwt>
</event>
<event>
 4    1  0.2416490E+000  0.5118349E+02  0.7957747E-01  0.1439061E+00
         13   -1    0    0    0    0  0.00000000000E+00  0.00000000000E+00  0.99999944171E+02  0.99999999992E+02  0.10566000000E+00 0.  1.
         22   -1    0    0    0    0 -0.00000000000E+00 -0.00000000000E+00 -0.23285772911E+02  0.23285772911E+02  0.00000000000E+00 0. -1.
         13    1    1    2    0    0 -0.51905164263E+01 -0.96337183081E+01 -0.14814379194E+02  0.18418115651E+02  0.10566000000E+00 0. -1.
        996    1    1    2    0    0  0.51905164263E+01  0.96337183081E+01  0.91528550454E+02  0.10486765725E+03  0.50000000000E+02 0.  0.
<mgrwt>
<rscale>  0 0.51183493E+02</rscale>
<asrwt>0</asrwt>
<pdfrwt beam="1">  1       13 0.10000000E+01 0.51183493E+02</pdfrwt>
<pdfrwt beam="2">  1       22 0.23285794E+00 0.51183493E+02</pdfrwt>
<totfact> 0.33835993E-01</totfact>
</mgrwt>
</event>
<event>
 4    1  0.2416490E+000  0.5106155E+02  0.7957747E-01  0.1439698E+00
         13   -1    0    0    0    0  0.00000000000E+00  0.00000000000E+00  0.99999944168E+02  0.99999999989E+02  0.10566000000E+00 0. -1.
         22   -1    0    0    0    0 -0.00000000000E+00 -0.00000000000E+00 -0.14804465123E+02  0.14804465123E+02  0.00000000000E+00 0.  1.
         13    1    1    2    0    0 -0.72922828017E+01 -0.73556076189E+01 -0.47347926528E+01  0.11389107841E+02  0.10566000000E+00 0.  1.
        996    1    1    2    0    0  0.72922828017E+01  0.73556076189E+01  0.89930271698E+02  0.10341535727E+03  0.50000000000E+02 0.  0.
<mgrwt>
<rscale>  0 0.51061555E+02</rscale>
<asrwt>0</asrwt>
<pdfrwt beam="1">  1       13 0.10000000E+01 0.51061555E+02</pdfrwt>
<pdfrwt beam="2">  1       22 0.14804489E+00 0.51061555E+02</pdfrwt>
<totfact> 0.76801511E-01</totfact>
</mgrwt>
</event>
<event>
 4    1  0.2416490E+000  0.5253363E+02  0.7957747E-01  0.1432136E+00
         13   -1    0    0    0    0  0.00000000000E+00  0.00000000000E+00  0.99999944176E+02  0.99999999996E+02  0.10566000000E+00 0.  1.
         22   -1    0    0    0    0 -0.00000000000E+00 -0.00000000000E+00 -0.11935286704E+02  0.11935286704E+02  0.00000000000E+00 0.  1.
         13    1    1    2    0    0  0.13174711344E+02 -0.92849151255E+01  0.26353749449E+02  0.30891972127E+02  0.10566000000E+00 0. -1.
        996    1    1    2    0    0 -0.13174711344E+02  0.92849151255E+01  0.61710908024E+02  0.81043314573E+02  0.50000000000E+02 0.  0.
<mgrwt>
<rscale>  0 0.52533634E+02</rscale>
<asrwt>0</asrwt>
<pdfrwt beam="1">  1       13 0.10000000E+01 0.52533634E+02</pdfrwt>
<pdfrwt beam="2">  1       22 0.11935311E+00 0.52533634E+02</pdfrwt>
<totfact> 0.10851614E+00</totfact>
</mgrwt>
</event>
<event>
 4    1  0.2416490E+000  0.5433393E+02  0.7957747E-01  0.1423275E+00
         13   -1    0    0    0    0  0.00000000000E+00  0.00000000000E+00  0.99999944177E+02  0.99999999998E+02  0.10566000000E+00 0. -1.
         22   -1    0    0    0    0 -0.00000000000E+00 -0.00000000000E+00 -0.15663467006E+02  0.15663467006E+02  0.00000000000E+00 0. -1.
         13    1    1    2    0    0  0.20034902406E+02  0.71259053375E+01  0.40913504408E+02  0.46109671960E+02  0.10566000000E+00 0.  1.
        996    1    1    2    0    0 -0.20034902406E+02 -0.71259053375E+01  0.43422972764E+02  0.69553795043E+02  0.50000000000E+02 0.  0.
<mgrwt>
<rscale>  0 0.54333929E+02</rscale>
<asrwt>0</asrwt>
<pdfrwt beam="1">  1       13 0.10000000E+01 0.54333929E+02</pdfrwt>
<pdfrwt beam="2">  1       22 0.15663491E+00 0.54333929E+02</pdfrwt>
<totfact> 0.70333840E-01</totfact>
</mgrwt>
</event>
<event>
 4    1  0.2416490E+000  0.5858841E+02  0.7957747E-01  0.1403853E+00
         13   -1    0    0    0    0  0.00000000000E+00  0.00000000000E+00  0.99999944177E+02  0.99999999997E+02  0.10566000000E+00 0. -1.
         22   -1    0    0    0    0 -0.00000000000E+00 -0.00000000000E+00 -0.20125083028E+02  0.20125083028E+02  0.00000000000E+00 0.  1.
         13    1    1    2    0    0 -0.27870895012E+02 -0.12482596206E+02  0.34093604591E+02  0.45771028335E+02  0.10566000000E+00 0.  1.
        996    1    1    2    0    0  0.27870895012E+02  0.12482596206E+02  0.45781256558E+02  0.74354054690E+02  0.50000000000E+02 0.  0.
<mgrwt>
<rscale>  0 0.58588412E+02</rscale>
<asrwt>0</asrwt>
<pdfrwt beam="1">  1       13 0.10000000E+01 0.58588412E+02</pdfrwt>
<pdfrwt beam="2">  1       22 0.20125105E+00 0.58588412E+02</pdfrwt>
<totfact> 0.45280931E-01</totfact>
</mgrwt>
</event>
<event>
 4    1  0.2416490E+000  0.5114473E+02  0.7957747E-01  0.1439263E+00
         13   -1    0    0    0    0  0.00000000000E+00  0.00000000000E+00  0.99999944178E+02  0.99999999999E+02  0.10566000000E+00 0.  1.
         22   -1    0    0    0    0 -0.00000000000E+00 -0.00000000000E+00 -0.28867592032E+02  0.28867592032E+02  0.00000000000E+00 0. -1.
         13    1    1    2    0    0 -0.54356356228E+01  0.92863815073E+01 -0.20940394559E+02  0.23543455661E+02  0.10566000000E+00 0. -1.
        996    1    1    2    0    0  0.54356356228E+01 -0.92863815073E+01  0.92072746706E+02  0.10532413637E+03  0.50000000000E+02 0.  0.
<mgrwt>
<rscale>  0 0.51144726E+02</rscale>
<asrwt>0</asrwt>
<pdfrwt beam="1">  1       13 0.10000000E+01 0.51144726E+02</pdfrwt>
<pdfrwt beam="2">  1       22 0.28867612E+00 0.51144726E+02</pdfrwt>
<totfact> 0.22238805E-01</totfact>
</mgrwt>
</event>
<event>
 4    1  0.2416490E+000  0.5149161E+02  0.7957747E-01  0.1437458E+00
         13   -1    0    0    0    0  0.00000000000E+00  0.00000000000E+00  0.99999944178E+02  0.99999999999E+02  0.10566000000E+00 0.  1.
         22   -1    0    0    0    0 -0.00000000000E+00 -0.00000000000E+00 -0.10222931627E+02  0.10222931627E+02  0.00000000000E+00 0.  1.
         13    1    1    2    0    0  0.54145834217E+01  0.11048432813E+02  0.14456324360E+02  0.18983731437E+02  0.10566000000E+00 0. -1.
        996    1    1    2    0    0 -0.54145834217E+01 -0.11048432813E+02  0.75320688192E+02  0.91239200188E+02  0.50000000000E+02 0.  0.
<mgrwt>
<rscale>  0 0.51491607E+02</rscale>
<asrwt>0</asrwt>
<pdfrwt beam="1">  1       13 0.10000000E+01 0.51491607E+02</pdfrwt>
<pdfrwt beam="2">  1       22 0.10222957E+00 0.51491607E+02</pdfrwt>
<totfact> 0.13636778E+00</totfact>
</mgrwt>
</event>
<event>
 4    1  0.2416490E+000  0.5235353E+02  0.7957747E-01  0.1433045E+00
         13   -1    0    0    0    0  0.00000000000E+00  0.00000000000E+00  0.99999944178E+02  0.99999999998E+02  0.10566000000E+00 0. -1.
         22   -1    0    0    0    0 -0.00000000000E+00 -0.00000000000E+00 -0.11609164558E+02  0.11609164558E+02  0.00000000000E+00 0. -1.
         13    1    1    2    0    0 -0.14250977092E+02 -0.61482799682E+01  0.16227221864E+02  0.22454968005E+02  0.10566000000E+00 0.  1.
        996    1    1    2    0    0  0.14250977092E+02  0.61482799682E+01  0.72163557756E+02  0.89154196551E+02  0.50000000000E+02 0.  0.
<mgrwt>
<rscale>  0 0.52353526E+02</rscale>
<asrwt>0</asrwt>
<pdfrwt beam="1">  1       13 0.10000000E+01 0.52353526E+02</pdfrwt>
<pdfrwt beam="2">  1       22 0.11609189E+00 0.52353526E+02</pdfrwt>
<totfact> 0.11314091E+00</totfact>
</mgrwt>
</event>
<event>
 4    1  0.2416490E+000  0.5150144E+02  0.7957747E-01  0.1437407E+00
         13   -1    0    0    0    0  0.00000000000E+00  0.00000000000E+00  0.99999944178E+02  0.99999999998E+02  0.10566000000E+00 0.  1.
         22   -1    0    0    0    0 -0.00000000000E+00 -0.00000000000E+00 -0.13397454990E+02  0.13397454990E+02  0.00000000000E+00 0.  1.
         13    1    1    2    0    0  0.95470274059E+01 -0.78264117808E+01 -0.33537944613E+00  0.12349983687E+02  0.10566000000E+00 0. -1.
        996    1    1    2    0    0 -0.95470274059E+01  0.78264117808E+01  0.86937868635E+02  0.10104747130E+03  0.50000000000E+02 0.  0.
<mgrwt>
<rscale>  0 0.51501441E+02</rscale>
<asrwt>0</asrwt>
<pdfrwt beam="1">  1       13 0.10000000E+01 0.51501441E+02</pdfrwt>
<pdfrwt beam="2">  1       22 0.13397479E+00 0.51501441E+02</pdfrwt>
<totfact> 0.90406969E-01</totfact>
</mgrwt>
</event>
<event>
 4    1  0.2416490E+000  0.5252643E+02  0.7957747E-01  0.1432172E+00
         13   -1    0    0    0    0  0.00000000000E+00  0.00000000000E+00  0.99999944181E+02  0.10000000000E+03  0.10566000000E+00 0.  1.
         22   -1    0    0    0    0 -0.00000000000E+00 -0.00000000000E+00 -0.11973156553E+02  0.11973156553E+02  0.00000000000E+00 0.  1.
         13    1    1    2    0    0  0.15996876472E+02 -0.17680517640E+01  0.14870219247E+02  0.21912568275E+02  0.10566000000E+00 0. -1.
        996    1    1    2    0    0 -0.15996876472E+02  0.17680517640E+01  0.73156568381E+02  0.90060588279E+02  0.50000000000E+02 0.  0.
<mgrwt>
<rscale>  0 0.52526432E+02</rscale>
<asrwt>0</asrwt>
<pdfrwt beam="1">  1       13 0.10000000E+01 0.52526432E+02</pdfrwt>
<pdfrwt beam="2">  1       22 0.11973181E+00 0.52526432E+02</pdfrwt>
<totfact> 0.10798962E+00</totfact>
</mgrwt>
</event>
<event>
 4    1  0.2416490E+000  0.5155481E+02  0.7957747E-01  0.1437131E+00
         13   -1    0    0    0    0  0.00000000000E+00  0.00000000000E+00  0.99999944178E+02  0.99999999998E+02  0.10566000000E+00 0.  1.
         22   -1    0    0    0    0 -0.00000000000E+00 -0.00000000000E+00 -0.12255814758E+02  0.12255814758E+02  0.00000000000E+00 0.  1.
         13    1    1    2    0    0  0.12564659093E+02  0.16598093091E+00  0.27742384746E+01  0.12868790578E+02  0.10566000000E+00 0. -1.
        996    1    1    2    0    0 -0.12564659093E+02 -0.16598093091E+00  0.84969890946E+02  0.99387024179E+02  0.50000000000E+02 0.  0.
<mgrwt>
<rscale>  0 0.51554808E+02</rscale>
<asrwt>0</asrwt>
<pdfrwt beam="1">  1       13 0.10000000E+01 0.51554808E+02</pdfrwt>
<pdfrwt beam="2">  1       22 0.12255839E+00 0.51554808E+02</pdfrwt>
<totfact> 0.10396084E+00</totfact>
</mgrwt>
</event>
<event>
 4    1  0.2416490E+000  0.5119555E+02  0.7957747E-01  0.1438998E+00
         13   -1    0    0    0    0  0.00000000000E+00  0.00000000000E+00  0.99999944181E+02  0.10000000000E+03  0.10566000000E+00 0.  1.
         22   -1    0    0    0    0 -0.00000000000E+00 -0.00000000000E+00 -0.10440853898E+02  0.10440853898E+02  0.00000000000E+00 0.  1.
         13    1    1    2    0    0  0.45898843775E+01  0.99958756965E+01  0.62302395513E+01  0.12641662013E+02  0.10566000000E+00 0. -1.
        996    1    1    2    0    0 -0.45898843775E+01 -0.99958756965E+01  0.83328850731E+02  0.97799191887E+02  0.50000000000E+02 0.  0.
<mgrwt>
<rscale>  0 0.51195552E+02</rscale>
<asrwt>0</asrwt>
<pdfrwt beam="1">  1       13 0.10000000E+01 0.51195552E+02</pdfrwt>
<pdfrwt beam="2">  1       22 0.10440879E+00 0.51195552E+02</pdfrwt>
<totfact> 0.13213579E+00</totfact>
</mgrwt>
</event>
<event>
 4    1  0.2416490E+000  0.5223250E+02  0.7957747E-01  0.1433659E+00
         13   -1    0    0    0    0  0.00000000000E+00  0.00000000000E+00  0.99999944179E+02  0.10000000000E+03  0.10566000000E+00 0.  1.
         22   -1    0    0    0    0 -0.00000000000E+00 -0.00000000000E+00 -0.15237236044E+02  0.15237236044E+02  0.00000000000E+00 0.  1.
         13    1    1    2    0    0  0.15093706131E+02  0.64350331546E+00  0.50642455906E+02  0.52847928678E+02  0.10566000000E+00 0. -1.
        996    1    1    2    0    0 -0.15093706131E+02 -0.64350331546E+00  0.34120252230E+02  0.62389307365E+02  0.50000000000E+02 0.  0.
<mgrwt>
<rscale>  0 0.52232500E+02</rscale>
<asrwt>0</asrwt>
<pdfrwt beam="1">  1       13 0.10000000E+01 0.52232500E+02</pdfrwt>
<pdfrwt beam="2">  1       22 0.15237260E+00 0.52232500E+02</pdfrwt>
<totfact> 0.73379195E-01</totfact>
</mgrwt>
</event>
<event>
 4    1  0.2416490E+000  0.5682502E+02  0.7957747E-01  0.1411660E+00
         13   -1    0    0    0    0  0.00000000000E+00  0.00000000000E+00  0.99999944176E+02  0.99999999996E+02  0.10566000000E+00 0.  1.
         22   -1    0    0    0    0 -0.00000000000E+00 -0.00000000000E+00 -0.62029814714E+02  0.62029814714E+02  0.00000000000E+00 0. -1.
         13    1    1    2    0    0  0.58871013775E+01 -0.26351953448E+02 -0.50277366183E+02  0.57069327379E+02  0.10566000000E+00 0. -1.
        996    1    1    2    0    0 -0.58871013775E+01  0.26351953448E+02  0.88247495645E+02  0.10496048733E+03  0.50000000000E+02 0.  0.
<mgrwt>
<rscale>  0 0.56825025E+02</rscale>
<asrwt>0</asrwt>
<pdfrwt beam="1">  1       13 0.10000000E+01 0.56825025E+02</pdfrwt>
<pdfrwt beam="2">  1       22 0.62029825E+00 0.56825025E+02</pdfrwt>
<totfact> 0.73110089E-02</totfact>
</mgrwt>
</event>
<event>
 4    1  0.2416490E+000  0.5159475E+02  0.7957747E-01  0.1436925E+00
         13   -1    0    0    0    0  0.00000000000E+00  0.00000000000E+00  0.99999944177E+02  0.99999999997E+02  0.10566000000E+00 0.  1.
         22   -1    0    0    0    0 -0.00000000000E+00 -0.00000000000E+00 -0.12441843101E+02  0.12441843101E+02  0.00000000000E+00 0. -1.
         13    1    1    2    0    0 -0.59285067622E+01  0.11263706007E+02  0.25205165573E+01  0.12976225691E+02  0.10566000000E+00 0. -1.
        996    1    1    2    0    0  0.59285067622E+01 -0.11263706007E+02  0.85037584518E+02  0.99465617407E+02  0.50000000000E+02 0.  0.
<mgrwt>
<rscale>  0 0.51594750E+02</rscale>
<asrwt>0</asrwt>
<pdfrwt beam="1">  1       13 0.10000000E+01 0.51594750E+02</pdfrwt>
<pdfrwt beam="2">  1       22 0.12441868E+00 0.51594750E+02</pdfrwt>
<totfact> 0.10157566E+00</totfact>
</mgrwt>
</event>
<event>
 4    1  0.2416490E+000  0.8082782E+02  0.7957747E-01  0.1326718E+00
         13   -1    0    0    0    0  0.00000000000E+00  0.00000000000E+00  0.99999944185E+02  0.10000000001E+03  0.10566000000E+00 0.  1.
         22   -1    0    0    0    0 -0.00000000000E+00 -0.00000000000E+00 -0.53325028592E+02  0.53325028592E+02  0.00000000000E+00 0. -1.
         13    1    1    2    0    0 -0.57832475859E+02  0.26240055489E+02  0.89772511285E+01  0.64138428246E+02  0.10566000000E+00 0. -1.
        996    1    1    2    0    0  0.57832475859E+02 -0.26240055489E+02  0.37697664465E+02  0.89186600351E+02  0.50000000000E+02 0.  0.
<mgrwt>
<rscale>  0 0.80827816E+02</rscale>
<asrwt>0</asrwt>
<pdfrwt beam="1">  1       13 0.10000000E+01 0.80827816E+02</pdfrwt>
<pdfrwt beam="2">  1       22 0.53325042E+00 0.80827816E+02</pdfrwt>
<totfact> 0.62750190E-02</totfact>
</mgrwt>
</event>
<event>
 4    1  0.2416490E+000  0.5152192E+02  0.7957747E-01  0.1437301E+00
         13   -1    0    0    0    0  0.00000000000E+00  0.00000000000E+00  0.99999944180E+02  0.10000000000E+03  0.10566000000E+00 0. -1.
         22   -1    0    0    0    0 -0.00000000000E+00 -0.00000000000E+00 -0.31227123973E+02  0.31227123973E+02  0.00000000000E+00 0.  1.
         13    1    1    2    0    0 -0.52951714657E+01  0.11245875033E+02 -0.22906767720E+02  0.26062227793E+02  0.10566000000E+00 0.  1.
        996    1    1    2    0    0  0.52951714657E+01 -0.11245875033E+02  0.91679587927E+02  0.10516489618E+03  0.50000000000E+02 0.  0.
<mgrwt>
<rscale>  0 0.51521923E+02</rscale>
<asrwt>0</asrwt>
<pdfrwt beam="1">  1       13 0.10000000E+01 0.51521923E+02</pdfrwt>
<pdfrwt beam="2">  1       22 0.31227143E+00 0.51521923E+02</pdfrwt>
<totfact> 0.19217019E-01</totfact>
</mgrwt>
</event>
<event>
 4    1  0.2416490E+000  0.5166459E+02  0.7957747E-01  0.1436565E+00
         13   -1    0    0    0    0  0.00000000000E+00  0.00000000000E+00  0.99999944176E+02  0.99999999996E+02  0.10566000000E+00 0. -1.
         22   -1    0    0    0    0 -0.00000000000E+00 -0.00000000000E+00 -0.19706350012E+02  0.19706350012E+02  0.00000000000E+00 0. -1.
         13    1    1    2    0    0  0.11770327921E+02 -0.55398135199E+01 -0.95011474969E+01  0.16109410945E+02  0.10566000000E+00 0.  1.
        996    1    1    2    0    0 -0.11770327921E+02  0.55398135199E+01  0.89794741661E+02  0.10359693906E+03  0.50000000000E+02 0.  0.
<mgrwt>
<rscale>  0 0.51664593E+02</rscale>
<asrwt>0</asrwt>
<pdfrwt beam="1">  1       13 0.10000000E+01 0.51664593E+02</pdfrwt>
<pdfrwt beam="2">  1       22 0.19706372E+00 0.51664593E+02</pdfrwt>
<totfact> 0.46543696E-01</totfact>
</mgrwt>
</event>
<event>
 4    1  0.2416490E+000  0.5177676E+02  0.7957747E-01  0.1435987E+00
         13   -1    0    0    0    0  0.00000000000E+00  0.00000000000E+00  0.99999944175E+02  0.99999999995E+02  0.10566000000E+00 0. -1.
         22   -1    0    0    0    0 -0.00000000000E+00 -0.00000000000E+00 -0.10672868499E+02  0.10672868499E+02  0.00000000000E+00 0. -1.
         13    1    1    2    0    0  0.13441770234E+02 -0.38944859657E+00  0.21157394878E+02  0.25069491006E+02  0.10566000000E+00 0.  1.
        996    1    1    2    0    0 -0.13441770234E+02  0.38944859657E+00  0.68169680798E+02  0.85603377488E+02  0.50000000000E+02 0.  0.
<mgrwt>
<rscale>  0 0.51776760E+02</rscale>
<asrwt>0</asrwt>
<pdfrwt beam="1">  1       13 0.10000000E+01 0.51776760E+02</pdfrwt>
<pdfrwt beam="2">  1       22 0.10672893E+00 0.51776760E+02</pdfrwt>
<totfact> 0.12811174E+00</totfact>
</mgrwt>
</event>
<event>
 4    1  0.2416490E+000  0.5177176E+02  0.7957747E-01  0.1436013E+00
         13   -1    0    0    0    0  0.00000000000E+00  0.00000000000E+00  0.99999944186E+02  0.10000000001E+03  0.10566000000E+00 0. -1.
         22   -1    0    0    0    0 -0.00000000000E+00 -0.00000000000E+00 -0.12355538507E+02  0.12355538507E+02  0.00000000000E+00 0.  1.
         13    1    1    2    0    0 -0.25400712428E+01  0.13185711188E+02  0.40467486683E+01  0.14025059012E+02  0.10566000000E+00 0.  1.
        996    1    1    2    0    0  0.25400712428E+01 -0.13185711188E+02  0.83597657011E+02  0.98330479502E+02  0.50000000000E+02 0.  0.
<mgrwt>
<rscale>  0 0.51771758E+02</rscale>
<asrwt>0</asrwt>
<pdfrwt beam="1">  1       13 0.10000000E+01 0.51771758E+02</pdfrwt>
<pdfrwt beam="2">  1       22 0.12355563E+00 0.51771758E+02</pdfrwt>
<totfact> 0.10271707E+00</totfact>
</mgrwt>
</event>
<event>
 4    1  0.2416490E+000  0.5109834E+02  0.7957747E-01  0.1439506E+00
         13   -1    0    0    0    0  0.00000000000E+00  0.00000000000E+00  0.99999944175E+02  0.99999999995E+02  0.10566000000E+00 0. -1.
         22   -1    0    0    0    0 -0.00000000000E+00 -0.00000000000E+00 -0.11873360226E+02  0.11873360226E+02  0.00000000000E+00 0. -1.
         13    1    1    2    0    0 -0.59339248409E+01 -0.87079642853E+01  0.64024314680E+00  0.10557517764E+02  0.10566000000E+00 0.  1.
        996    1    1    2    0    0  0.59339248409E+01  0.87079642853E+01  0.87486340802E+02  0.10131584246E+03  0.50000000000E+02 0.  0.
<mgrwt>
<rscale>  0 0.51098338E+02</rscale>
<asrwt>0</asrwt>
<pdfrwt beam="1">  1       13 0.10000000E+01 0.51098338E+02</pdfrwt>
<pdfrwt beam="2">  1       22 0.11873385E+00 0.51098338E+02</pdfrwt>
<totfact> 0.10902914E+00</totfact>
</mgrwt>
</event>
<event>
 4    1  0.2416490E+000  0.5163336E+02  0.7957747E-01  0.1436726E+00
         13   -1    0    0    0    0  0.00000000000E+00  0.00000000000E+00  0.99999944173E+02  0.99999999993E+02  0.10566000000E+00 0.  1.
         22   -1    0    0    0    0 -0.00000000000E+00 -0.00000000000E+00 -0.10587042182E+02  0.10587042182E+02  0.00000000000E+00 0.  1.
         13    1    1    2    0    0  0.75443419808E+01  0.10444456311E+02  0.12512058714E+02  0.17960137551E+02  0.10566000000E+00 0. -1.
        996    1    1    2    0    0 -0.75443419808E+01 -0.10444456311E+02  0.76900843277E+02  0.92626904624E+02  0.50000000000E+02 0.  0.
<mgrwt>
<rscale>  0 0.51633359E+02</rscale>
<asrwt>0</asrwt>
<pdfrwt beam="1">  1       13 0.10000000E+01 0.51633359E+02</pdfrwt>
<pdfrwt beam="2">  1       22 0.10587067E+00 0.51633359E+02</pdfrwt>
<totfact> 0.12960068E+00</totfact>
</mgrwt>
</event>
<event>
 4    1  0.2416490E+000  0.5685300E+02  0.7957747E-01  0.1411534E+00
         13   -1    0    0    0    0  0.00000000000E+00  0.00000000000E+00  0.99999944181E+02  0.10000000000E+03  0.10566000000E+00 0.  1.
         22   -1    0    0    0    0 -0.00000000000E+00 -0.00000000000E+00 -0.25739827144E+02  0.25739827144E+02  0.00000000000E+00 0. -1.
         13    1    1    2    0    0 -0.11791844353E+02 -0.24356027103E+02 -0.56743845227E+01  0.27649113064E+02  0.10566000000E+00 0. -1.
        996    1    1    2    0    0  0.11791844353E+02  0.24356027103E+02  0.79934501559E+02  0.98090714081E+02  0.50000000000E+02 0.  0.
<mgrwt>
<rscale>  0 0.56853000E+02</rscale>
<asrwt>0</asrwt>
<pdfrwt beam="1">  1       13 0.10000000E+01 0.56853000E+02</pdfrwt>
<pdfrwt beam="2">  1       22 0.25739848E+00 0.56853000E+02</pdfrwt>
<totfact> 0.28033517E-01</totfact>
</mgrwt>
</event>
<event>
 4    1  0.2416490E+000  0.5133626E+02  0.7957747E-01  0.1438265E+00
         13   -1    0    0    0    0  0.00000000000E+00  0.00000000000E+00  0.99999944190E+02  0.10000000001E+03  0.10566000000E+00 0. -1.
         22   -1    0    0    0    0 -0.00000000000E+00 -0.00000000000E+00 -0.26086702703E+02  0.26086702703E+02  0.00000000000E+00 0. -1.
         13    1    1    2    0    0 -0.29775677645E+01  0.11249265472E+02 -0.17634213519E+02  0.21127908886E+02  0.10566000000E+00 0.  1.
        996    1    1    2    0    0  0.29775677645E+01 -0.11249265472E+02  0.91547455006E+02  0.10495879383E+03  0.50000000000E+02 0.  0.
<mgrwt>
<rscale>  0 0.51336263E+02</rscale>
<asrwt>0</asrwt>
<pdfrwt beam="1">  1       13 0.10000000E+01 0.51336263E+02</pdfrwt>
<pdfrwt beam="2">  1       22 0.26086723E+00 0.51336263E+02</pdfrwt>
<totfact> 0.27084328E-01</totfact>
</mgrwt>
</event>
<event>
 4    1  0.2416490E+000  0.5192965E+02  0.7957747E-01  0.1435203E+00
         13   -1    0    0    0    0  0.00000000000E+00  0.00000000000E+00  0.99999944180E+02  0.10000000000E+03  0.10566000000E+00 0.  1.
         22   -1    0    0    0    0 -0.00000000000E+00 -0.00000000000E+00 -0.12628403380E+02  0.12628403380E+02  0.00000000000E+00 0.  1.
         13    1    1    2    0    0 -0.12754095064E+02 -0.58328421327E+01  0.43146936951E+01  0.14673674862E+02  0.10566000000E+00 0. -1.
        996    1    1    2    0    0  0.12754095064E+02  0.58328421327E+01  0.83056847105E+02  0.97954728519E+02  0.50000000000E+02 0.  0.
<mgrwt>
<rscale>  0 0.51929654E+02</rscale>
<asrwt>0</asrwt>
<pdfrwt beam="1">  1       13 0.10000000E+01 0.51929654E+02</pdfrwt>
<pdfrwt beam="2">  1       22 0.12628428E+00 0.51929654E+02</pdfrwt>
<totfact> 0.99325375E-01</totfact>
</mgrwt>
</event>
<event>
 4    1  0.2416490E+000  0.5341939E+02  0.7957747E-01  0.1427725E+00
         13   -1    0    0    0    0  0.00000000000E+00  0.00000000000E+00  0.99999944180E+02  0.10000000000E+03  0.10566000000E+00 0. -1.
         22   -1    0    0    0    0 -0.00000000000E+00 -0.00000000000E+00 -0.13466709966E+02  0.13466709966E+02  0.00000000000E+00 0. -1.
         13    1    1    2    0    0 -0.11861344348E+02 -0.14592453172E+02  0.14291798435E+02  0.23619861258E+02  0.10566000000E+00 0.  1.
        996    1    1    2    0    0  0.11861344348E+02  0.14592453172E+02  0.72241435780E+02  0.89846848708E+02  0.50000000000E+02 0.  0.
<mgrwt>
<rscale>  0 0.53419390E+02</rscale>
<asrwt>0</asrwt>
<pdfrwt beam="1">  1       13 0.10000000E+01 0.53419390E+02</pdfrwt>
<pdfrwt beam="2">  1       22 0.13466734E+00 0.53419390E+02</pdfrwt>
<totfact> 0.90031465E-01</totfact>
</mgrwt>
</event>
<event>
 4    1  0.2416490E+000  0.5102602E+02  0.7957747E-01  0.1439885E+00
         13   -1    0    0    0    0  0.00000000000E+00  0.00000000000E+00  0.99999944179E+02  0.99999999999E+02  0.10566000000E+00 0. -1.
         22   -1    0    0    0    0 -0.00000000000E+00 -0.00000000000E+00 -0.94381735051E+01  0.94381735051E+01  0.00000000000E+00 0. -1.
         13    1    1    2    0    0 -0.94617973542E+01 -0.37588806693E+01  0.11719230400E+02  0.15524378193E+02  0.10566000000E+00 0.  1.
        996    1    1    2    0    0  0.94617973542E+01  0.37588806693E+01  0.78842540274E+02  0.93913795312E+02  0.50000000000E+02 0.  0.
<mgrwt>
<rscale>  0 0.51026021E+02</rscale>
<asrwt>0</asrwt>
<pdfrwt beam="1">  1       13 0.10000000E+01 0.51026021E+02</pdfrwt>
<pdfrwt beam="2">  1       22 0.94381988E-01 0.51026021E+02</pdfrwt>
<totfact> 0.15283172E+00</totfact>
</mgrwt>
</event>
<event>
 4    1  0.2416490E+000  0.5272866E+02  0.7957747E-01  0.1431156E+00
         13   -1    0    0    0    0  0.00000000000E+00  0.00000000000E+00  0.99999944180E+02  0.10000000000E+03  0.10566000000E+00 0. -1.
         22   -1    0    0    0    0 -0.00000000000E+00 -0.00000000000E+00 -0.14464279556E+02  0.14464279556E+02  0.00000000000E+00 0. -1.
         13    1    1    2    0    0 -0.16666611065E+02 -0.15922700888E+01  0.37551717333E+01  0.17158779887E+02  0.10566000000E+00 0.  1.
        996    1    1    2    0    0  0.16666611065E+02  0.15922700888E+01  0.81780492891E+02  0.97305499670E+02  0.50000000000E+02 0.  0.
<mgrwt>
<rscale>  0 0.52728657E+02</rscale>
<asrwt>0</asrwt>
<pdfrwt beam="1">  1       13 0.10000000E+01 0.52728657E+02</pdfrwt>
<pdfrwt beam="2">  1       22 0.14464303E+00 0.52728657E+02</pdfrwt>
<totfact> 0.80078011E-01</totfact>
</mgrwt>
</event>
<event>
 4    1  0.2416490E+000  0.5133357E+02  0.7957747E-01  0.1438279E+00
         13   -1    0    0    0    0  0.00000000000E+00  0.00000000000E+00  0.99999944183E+02  0.10000000000E+03  0.10566000000E+00 0. -1.
         22   -1    0    0    0    0 -0.00000000000E+00 -0.00000000000E+00 -0.15849413226E+02  0.15849413226E+02  0.00000000000E+00 0.  1.
         13    1    1    2    0    0  0.90382092419E+01  0.73106702335E+01 -0.52527165656E+01  0.12756853880E+02  0.10566000000E+00 0.  1.
        996    1    1    2    0    0 -0.90382092419E+01 -0.73106702335E+01  0.89403247523E+02  0.10309255935E+03  0.50000000000E+02 0.  0.
<mgrwt>
<rscale>  0 0.51333567E+02</rscale>
<asrwt>0</asrwt>
<pdfrwt beam="1">  1       13 0.10000000E+01 0.51333567E+02</pdfrwt>
<pdfrwt beam="2">  1       22 0.15849437E+00 0.51333567E+02</pdfrwt>
<totfact> 0.68531235E-01</totfact>
</mgrwt>
</event>
<event>
 4    1  0.2416490E+000  0.7974112E+02  0.7957747E-01  0.1329788E+00
         13   -1    0    0    0    0  0.00000000000E+00  0.00000000000E+00  0.99999944184E+02  0.10000000000E+03  0.10566000000E+00 0.  1.
         22   -1    0    0    0    0 -0.00000000000E+00 -0.00000000000E+00 -0.77568115305E+02  0.77568115305E+02  0.00000000000E+00 0. -1.
         13    1    1    2    0    0 -0.62117720698E+02 -0.18680397543E+00 -0.42054602852E+02  0.75014977874E+02  0.10566000000E+00 0. -1.
        996    1    1    2    0    0  0.62117720698E+02  0.18680397543E+00  0.64486431731E+02  0.10255313744E+03  0.50000000000E+02 0.  0.
<mgrwt>
<rscale>  0 0.79741119E+02</rscale>
<asrwt>0</asrwt>
<pdfrwt beam="1">  1       13 0.10000000E+01 0.79741119E+02</pdfrwt>
<pdfrwt beam="2">  1       22 0.77568122E+00 0.79741119E+02</pdfrwt>
<totfact> 0.38596278E-02</totfact>
</mgrwt>
</event>
<event>
 4    1  0.2416490E+000  0.5907780E+02  0.7957747E-01  0.1401743E+00
         13   -1    0    0    0    0  0.00000000000E+00  0.00000000000E+00  0.99999944180E+02  0.10000000000E+03  0.10566000000E+00 0. -1.
         22   -1    0    0    0    0 -0.00000000000E+00 -0.00000000000E+00 -0.73104567123E+02  0.73104567123E+02  0.00000000000E+00 0.  1.
         13    1    1    2    0    0 -0.10842447000E+02  0.29540274956E+02 -0.60161954558E+02  0.67894465472E+02  0.10566000000E+00 0.  1.
        996    1    1    2    0    0  0.10842447000E+02 -0.29540274956E+02  0.87057331615E+02  0.10521010165E+03  0.50000000000E+02 0.  0.
<mgrwt>
<rscale>  0 0.59077800E+02</rscale>
<asrwt>0</asrwt>
<pdfrwt beam="1">  1       13 0.10000000E+01 0.59077800E+02</pdfrwt>
<pdfrwt beam="2">  1       22 0.73104575E+00 0.59077800E+02</pdfrwt>
<totfact> 0.58225926E-02</totfact>
</mgrwt>
</event>
<event>
 4    1  0.2416490E+000  0.5185401E+02  0.7957747E-01  0.1435591E+00
         13   -1    0    0    0    0  0.00000000000E+00  0.00000000000E+00  0.99999944175E+02  0.99999999995E+02  0.10566000000E+00 0. -1.
         22   -1    0    0    0    0 -0.00000000000E+00 -0.00000000000E+00 -0.18265721624E+02  0.18265721624E+02  0.00000000000E+00 0.  1.
         13    1    1    2    0    0 -0.97162866345E+00 -0.13707441303E+02 -0.70522115590E+01  0.15446127711E+02  0.10566000000E+00 0.  1.
        996    1    1    2    0    0  0.97162866345E+00  0.13707441303E+02  0.88786434110E+02  0.10281959391E+03  0.50000000000E+02 0.  0.
<mgrwt>
<rscale>  0 0.51854007E+02</rscale>
<asrwt>0</asrwt>
<pdfrwt beam="1">  1       13 0.10000000E+01 0.51854007E+02</pdfrwt>
<pdfrwt beam="2">  1       22 0.18265744E+00 0.51854007E+02</pdfrwt>
<totfact> 0.53496956E-01</totfact>
</mgrwt>
</event>
<event>
 4    1  0.2416490E+000  0.7262717E+02  0.7957747E-01  0.1351380E+00
         13   -1    0    0    0    0  0.00000000000E+00  0.00000000000E+00  0.99999944187E+02  0.10000000001E+03  0.10566000000E+00 0. -1.
         22   -1    0    0    0    0 -0.00000000000E+00 -0.00000000000E+00 -0.84507636778E+02  0.84507636778E+02  0.00000000000E+00 0.  1.
         13    1    1    2    0    0 -0.27676731197E+02  0.44818577477E+02 -0.59938801802E+02  0.79795848654E+02  0.10566000000E+00 0.  1.
        996    1    1    2    0    0  0.27676731197E+02 -0.44818577477E+02  0.75431109212E+02  0.10471178813E+03  0.50000000000E+02 0.  0.
<mgrwt>
<rscale>  0 0.72627174E+02</rscale>
<asrwt>0</asrwt>
<pdfrwt beam="1">  1       13 0.10000000E+01 0.72627174E+02</pdfrwt>
<pdfrwt beam="2">  1       22 0.84507641E+00 0.72627174E+02</pdfrwt>
<totfact> 0.19980241E-02</totfact>
</mgrwt>
</event>
<event>
 4    1  0.2416490E+000  0.5309815E+02  0.7957747E-01  0.1429313E+00
         13   -1    0    0    0    0  0.00000000000E+00  0.00000000000E+00  0.99999944181E+02  0.10000000000E+03  0.10566000000E+00 0. -1.
         22   -1    0    0    0    0 -0.00000000000E+00 -0.00000000000E+00 -0.15629633753E+02  0.15629633753E+02  0.00000000000E+00 0.  1.
         13    1    1    2    0    0  0.90192761702E+01  0.15429400230E+02  0.24977079523E+01  0.18046147599E+02  0.10566000000E+00 0.  1.
        996    1    1    2    0    0 -0.90192761702E+01 -0.15429400230E+02  0.81872602476E+02  0.97583486156E+02  0.50000000000E+02 0.  0.
<mgrwt>
<rscale>  0 0.53098152E+02</rscale>
<asrwt>0</asrwt>
<pdfrwt beam="1">  1       13 0.10000000E+01 0.53098152E+02</pdfrwt>
<pdfrwt beam="2">  1       22 0.15629657E+00 0.53098152E+02</pdfrwt>
<totfact> 0.70423299E-01</totfact>
</mgrwt>
</event>
<event>
 4    1  0.2416490E+000  0.5542240E+02  0.7957747E-01  0.1418112E+00
         13   -1    0    0    0    0  0.00000000000E+00  0.00000000000E+00  0.99999944179E+02  0.99999999999E+02  0.10566000000E+00 0. -1.
         22   -1    0    0    0    0 -0.00000000000E+00 -0.00000000000E+00 -0.15974749818E+02  0.15974749818E+02  0.00000000000E+00 0. -1.
         13    1    1    2    0    0 -0.19973587278E+00  0.23908213422E+02  0.32120921030E+02  0.40042568540E+02  0.10566000000E+00 0.  1.
        996    1    1    2    0    0  0.19973587278E+00 -0.23908213422E+02  0.51904273332E+02  0.75932181277E+02  0.50000000000E+02 0.  0.
<mgrwt>
<rscale>  0 0.55422401E+02</rscale>
<asrwt>0</asrwt>
<pdfrwt beam="1">  1       13 0.10000000E+01 0.55422401E+02</pdfrwt>
<pdfrwt beam="2">  1       22 0.15974773E+00 0.55422401E+02</pdfrwt>
<totfact> 0.68154139E-01</totfact>
</mgrwt>
</event>
<event>
 4    1  0.2416490E+000  0.7267154E+02  0.7957747E-01  0.1351237E+00
         13   -1    0    0    0    0  0.00000000000E+00  0.00000000000E+00  0.99999944174E+02  0.99999999994E+02  0.10566000000E+00 0.  1.
         22   -1    0    0    0    0 -0.00000000000E+00 -0.00000000000E+00 -0.48967868141E+02  0.48967868141E+02  0.00000000000E+00 0.  1.
         13    1    1    2    0    0 -0.33837656328E+02  0.40449540755E+02 -0.10468345185E+02  0.53765693039E+02  0.10566000000E+00 0. -1.
        996    1    1    2    0    0  0.33837656328E+02 -0.40449540755E+02  0.61500421218E+02  0.95202175096E+02  0.50000000000E+02 0.  0.
<mgrwt>
<rscale>  0 0.72671537E+02</rscale>
<asrwt>0</asrwt>
<pdfrwt beam="1">  1       13 0.10000000E+01 0.72671537E+02</pdfrwt>
<pdfrwt beam="2">  1       22 0.48967882E+00 0.72671537E+02</pdfrwt>
<totfact> 0.78604646E-02</totfact>
</mgrwt>
</event>
<event>
 4    1  0.2416490E+000  0.5178200E+02  0.7957747E-01  0.1435960E+00
         13   -1    0    0    0    0  0.00000000000E+00  0.00000000000E+00  0.99999944172E+02  0.99999999992E+02  0.10566000000E+00 0. -1.
         22   -1    0    0    0    0 -0.00000000000E+00 -0.00000000000E+00 -0.47208938168E+02  0.47208938168E+02  0.00000000000E+00 0.  1.
         13    1    1    2    0    0  0.62077230185E+01  0.11951542106E+02 -0.39307864460E+02  0.41551107761E+02  0.10566000000E+00 0.  1.
        996    1    1    2    0    0 -0.62077230185E+01 -0.11951542106E+02  0.92098870464E+02  0.10565783040E+03  0.50000000000E+02 0.  0.
<mgrwt>
<rscale>  0 0.51781997E+02</rscale>
<asrwt>0</asrwt>
<pdfrwt beam="1">  1       13 0.10000000E+01 0.51781997E+02</pdfrwt>
<pdfrwt beam="2">  1       22 0.47208953E+00 0.51781997E+02</pdfrwt>
<totfact> 0.85887916E-02</totfact>
</mgrwt>
</event>
<event>
 4    1  0.2416490E+000  0.5187721E+02  0.7957747E-01  0.1435472E+00
         13   -1    0    0    0    0  0.00000000000E+00  0.00000000000E+00  0.99999944182E+02  0.10000000000E+03  0.10566000000E+00 0.  1.
         22   -1    0    0    0    0 -0.00000000000E+00 -0.00000000000E+00 -0.11991256247E+02  0.11991256247E+02  0.00000000000E+00 0.  1.
         13    1    1    2    0    0 -0.63335258451E+01 -0.12293535692E+02  0.35856837210E+02  0.38431347988E+02  0.10566000000E+00 0. -1.
        996    1    1    2    0    0  0.63335258451E+01  0.12293535692E+02  0.52151850725E+02  0.73559908262E+02  0.50000000000E+02 0.  0.
<mgrwt>
<rscale>  0 0.51877207E+02</rscale>
<asrwt>0</asrwt>
<pdfrwt beam="1">  1       13 0.10000000E+01 0.51877207E+02</pdfrwt>
<pdfrwt beam="2">  1       22 0.11991281E+00 0.51877207E+02</pdfrwt>
<totfact> 0.10758443E+00</totfact>
</mgrwt>
</event>
<event>
 4    1  0.2416490E+000  0.5687628E+02  0.7957747E-01  0.1411429E+00
         13   -1    0    0    0    0  0.00000000000E+00  0.00000000000E+00  0.99999944177E+02  0.99999999997E+02  0.10566000000E+00 0.  1.
         22   -1    0    0    0    0 -0.00000000000E+00 -0.00000000000E+00 -0.56926342776E+02  0.56926342776E+02  0.00000000000E+00 0. -1.
         13    1    1    2    0    0 -0.24461524082E+02 -0.11685240235E+02 -0.44734168306E+02  0.52307437118E+02  0.10566000000E+00 0. -1.
        996    1    1    2    0    0  0.24461524082E+02  0.11685240235E+02  0.87807769707E+02  0.10461890566E+03  0.50000000000E+02 0.  0.
<mgrwt>
<rscale>  0 0.56876278E+02</rscale>
<asrwt>0</asrwt>
<pdfrwt beam="1">  1       13 0.10000000E+01 0.56876278E+02</pdfrwt>
<pdfrwt beam="2">  1       22 0.56926355E+00 0.56876278E+02</pdfrwt>
<totfact> 0.57905727E-02</totfact>
</mgrwt>
</event>
<event>
 4    1  0.2416490E+000  0.5256396E+02  0.7957747E-01  0.1431983E+00
         13   -1    0    0    0    0  0.00000000000E+00  0.00000000000E+00  0.99999944176E+02  0.99999999997E+02  0.10566000000E+00 0.  1.
         22   -1    0    0    0    0 -0.00000000000E+00 -0.00000000000E+00 -0.12060093882E+02  0.12060093882E+02  0.00000000000E+00 0. -1.
         13    1    1    2    0    0 -0.10265363621E+01  0.16183808042E+02  0.14544215886E+02  0.21783360609E+02  0.10566000000E+00 0. -1.
        996    1    1    2    0    0  0.10265363621E+01 -0.16183808042E+02  0.73395634408E+02  0.90276733269E+02  0.50000000000E+02 0.  0.
<mgrwt>
<rscale>  0 0.52563956E+02</rscale>
<asrwt>0</asrwt>
<pdfrwt beam="1">  1       13 0.10000000E+01 0.52563956E+02</pdfrwt>
<pdfrwt beam="2">  1       22 0.12060118E+00 0.52563956E+02</pdfrwt>
<totfact> 0.10680737E+00</totfact>
</mgrwt>
</event>
<event>
 4    1  0.2416490E+000  0.5456158E+02  0.7957747E-01  0.1422184E+00
         13   -1    0    0    0    0  0.00000000000E+00  0.00000000000E+00  0.99999944166E+02  0.99999999987E+02  0.10566000000E+00 0. -1.
         22   -1    0    0    0    0 -0.00000000000E+00 -0.00000000000E+00 -0.67594332913E+02  0.67594332913E+02  0.00000000000E+00 0.  1.
         13    1    1    2    0    0 -0.10422928533E+02  0.19191888891E+02 -0.58013665405E+02  0.61988406788E+02  0.10566000000E+00 0.  1.
        996    1    1    2    0    0  0.10422928533E+02 -0.19191888891E+02  0.90419276658E+02  0.10560592611E+03  0.50000000000E+02 0.  0.
<mgrwt>
<rscale>  0 0.54561580E+02</rscale>
<asrwt>0</asrwt>
<pdfrwt beam="1">  1       13 0.10000000E+01 0.54561580E+02</pdfrwt>
<pdfrwt beam="2">  1       22 0.67594342E+00 0.54561580E+02</pdfrwt>
<totfact> 0.84781029E-02</totfact>
</mgrwt>
</event>
<event>
 4    1  0.2416490E+000  0.5166537E+02  0.7957747E-01  0.1436561E+00
         13   -1    0    0    0    0  0.00000000000E+00  0.00000000000E+00  0.99999944180E+02  0.10000000000E+03  0.10566000000E+00 0.  1.
         22   -1    0    0    0    0 -0.00000000000E+00 -0.00000000000E+00 -0.11464959001E+02  0.11464959001E+02  0.00000000000E+00 0.  1.
         13    1    1    2    0    0 -0.12979246217E+02  0.92183273509E+00  0.65736280572E+01  0.14578558153E+02  0.10566000000E+00 0. -1.
        996    1    1    2    0    0  0.12979246217E+02 -0.92183273509E+00  0.81961357122E+02  0.96886400848E+02  0.50000000000E+02 0.  0.
<mgrwt>
<rscale>  0 0.51665371E+02</rscale>
<asrwt>0</asrwt>
<pdfrwt beam="1">  1       13 0.10000000E+01 0.51665371E+02</pdfrwt>
<pdfrwt beam="2">  1       22 0.11464984E+00 0.51665371E+02</pdfrwt>
<totfact> 0.11511678E+00</totfact>
</mgrwt>
</event>
<event>
 4    1  0.2416490E+000  0.5418210E+02  0.7957747E-01  0.1424007E+00
         13   -1    0    0    0    0  0.00000000000E+00  0.00000000000E+00  0.99999944174E+02  0.99999999994E+02  0.10566000000E+00 0. -1.
         22   -1    0    0    0    0 -0.00000000000E+00 -0.00000000000E+00 -0.14821917486E+02  0.14821917486E+02  0.00000000000E+00 0.  1.
         13    1    1    2    0    0 -0.20770081028E+02 -0.20745140135E+01  0.13076513870E+02  0.24631407863E+02  0.10566000000E+00 0.  1.
        996    1    1    2    0    0  0.20770081028E+02  0.20745140135E+01  0.72101512818E+02  0.90190509617E+02  0.50000000000E+02 0.  0.
<mgrwt>
<rscale>  0 0.54182099E+02</rscale>
<asrwt>0</asrwt>
<pdfrwt beam="1">  1       13 0.10000000E+01 0.54182099E+02</pdfrwt>
<pdfrwt beam="2">  1       22 0.14821941E+00 0.54182099E+02</pdfrwt>
<totfact> 0.77138402E-01</totfact>
</mgrwt>
</event>
<event>
 4    1  0.2416490E+000  0.5417855E+02  0.7957747E-01  0.1424024E+00
         13   -1    0    0    0    0  0.00000000000E+00  0.00000000000E+00  0.99999944171E+02  0.99999999991E+02  0.10566000000E+00 0.  1.
         22   -1    0    0    0    0 -0.00000000000E+00 -0.00000000000E+00 -0.20669933377E+02  0.20669933377E+02  0.00000000000E+00 0. -1.
         13    1    1    2    0    0 -0.94703401979E+01  0.18591063342E+02 -0.40304672153E+01  0.21250195520E+02  0.10566000000E+00 0. -1.
        996    1    1    2    0    0  0.94703401979E+01 -0.18591063342E+02  0.83360478009E+02  0.99419737847E+02  0.50000000000E+02 0.  0.
<mgrwt>
<rscale>  0 0.54178547E+02</rscale>
<asrwt>0</asrwt>
<pdfrwt beam="1">  1       13 0.10000000E+01 0.54178547E+02</pdfrwt>
<pdfrwt beam="2">  1       22 0.20669956E+00 0.54178547E+02</pdfrwt>
<totfact> 0.42752623E-01</totfact>
</mgrwt>
</event>
<event>
 4    1  0.2416490E+000  0.5305155E+02  0.7957747E-01  0.1429544E+00
         13   -1    0    0    0    0  0.00000000000E+00  0.00000000000E+00  0.99999944183E+02  0.10000000000E+03  0.10566000000E+00 0. -1.
         22   -1    0    0    0    0 -0.00000000000E+00 -0.00000000000E+00 -0.79062618152E+02  0.79062618152E+02  0.00000000000E+00 0.  1.
         13    1    1    2    0    0  0.15910198131E+02  0.78315248142E+01 -0.70856024644E+02  0.73041457939E+02  0.10566000000E+00 0.  1.
        996    1    1    2    0    0 -0.15910198131E+02 -0.78315248142E+01  0.91793350674E+02  0.10602116022E+03  0.50000000000E+02 0.  0.
<mgrwt>
<rscale>  0 0.53051552E+02</rscale>
<asrwt>0</asrwt>
<pdfrwt beam="1">  1       13 0.10000000E+01 0.53051552E+02</pdfrwt>
<pdfrwt beam="2">  1       22 0.79062624E+00 0.53051552E+02</pdfrwt>
<totfact> 0.33663624E-02</totfact>
</mgrwt>
</event>
<event>
 4    1  0.2416490E+000  0.5533657E+02  0.7957747E-01  0.1418514E+00
         13   -1    0    0    0    0  0.00000000000E+00  0.00000000000E+00  0.99999944188E+02  0.10000000001E+03  0.10566000000E+00 0.  1.
         22   -1    0    0    0    0 -0.00000000000E+00 -0.00000000000E+00 -0.17247813212E+02  0.17247813212E+02  0.00000000000E+00 0.  1.
         13    1    1    2    0    0  0.21099281661E+02 -0.10814627888E+02  0.97335130137E+01  0.25629832278E+02  0.10566000000E+00 0. -1.
        996    1    1    2    0    0 -0.21099281661E+02  0.10814627888E+02  0.73018617962E+02  0.91617980943E+02  0.50000000000E+02 0.  0.
<mgrwt>
<rscale>  0 0.55336569E+02</rscale>
<asrwt>0</asrwt>
<pdfrwt beam="1">  1       13 0.10000000E+01 0.55336569E+02</pdfrwt>
<pdfrwt beam="2">  1       22 0.17247836E+00 0.55336569E+02</pdfrwt>
<totfact> 0.59640932E-01</totfact>
</mgrwt>
</event>
<event>
 4    1  0.2416490E+000  0.5226820E+02  0.7957747E-01  0.1433478E+00
         13   -1    0    0    0    0  0.00000000000E+00  0.00000000000E+00  0.99999944180E+02  0.10000000000E+03  0.10566000000E+00 0. -1.
         22   -1    0    0    0    0 -0.00000000000E+00 -0.00000000000E+00 -0.50593113520E+02  0.50593113520E+02  0.00000000000E+00 0.  1.
         13    1    1    2    0    0  0.74192345607E+01  0.13301116106E+02 -0.42343343023E+02  0.44999273255E+02  0.10566000000E+00 0.  1.
        996    1    1    2    0    0 -0.74192345607E+01 -0.13301116106E+02  0.91750173683E+02  0.10559384027E+03  0.50000000000E+02 0.  0.
<mgrwt>
<rscale>  0 0.52268200E+02</rscale>
<asrwt>0</asrwt>
<pdfrwt beam="1">  1       13 0.10000000E+01 0.52268200E+02</pdfrwt>
<pdfrwt beam="2">  1       22 0.50593127E+00 0.52268200E+02</pdfrwt>
<totfact> 0.71285707E-02</totfact>
</mgrwt>
</event>
<event>
 4    1  0.2416490E+000  0.5235044E+02  0.7957747E-01  0.1433061E+00
         13   -1    0    0    0    0  0.00000000000E+00  0.00000000000E+00  0.99999944180E+02  0.10000000000E+03  0.10566000000E+00 0.  1.
         22   -1    0    0    0    0 -0.00000000000E+00 -0.00000000000E+00 -0.16866200808E+02  0.16866200808E+02  0.00000000000E+00 0.  1.
         13    1    1    2    0    0 -0.87078123941E+01  0.12835200870E+02 -0.32596427892E+01  0.15849442048E+02  0.10566000000E+00 0. -1.
        996    1    1    2    0    0  0.87078123941E+01 -0.12835200870E+02  0.86393386162E+02  0.10101675876E+03  0.50000000000E+02 0.  0.
<mgrwt>
<rscale>  0 0.52350438E+02</rscale>
<asrwt>0</asrwt>
<pdfrwt beam="1">  1       13 0.10000000E+01 0.52350438E+02</pdfrwt>
<pdfrwt beam="2">  1       22 0.16866224E+00 0.52350438E+02</pdfrwt>
<totfact> 0.61686599E-01</totfact>
</mgrwt>
</event>
<event>
 4    1  0.2416490E+000  0.5608084E+02  0.7957747E-01  0.1415056E+00
         13   -1    0    0    0    0  0.00000000000E+00  0.00000000000E+00  0.99999944188E+02  0.10000000001E+03  0.10566000000E+00 0.  1.
         22   -1    0    0    0    0 -0.00000000000E+00 -0.00000000000E+00 -0.69617265698E+02  0.69617265698E+02  0.00000000000E+00 0. -1.
         13    1    1    2    0    0 -0.62547939875E+01  0.24615805780E+02 -0.58922655720E+02  0.64163469850E+02  0.10566000000E+00 0. -1.
        996    1    1    2    0    0  0.62547939875E+01 -0.24615805780E+02  0.89305334211E+02  0.10545379586E+03  0.50000000000E+02 0.  0.
<mgrwt>
<rscale>  0 0.56080838E+02</rscale>
<asrwt>0</asrwt>
<pdfrwt beam="1">  1       13 0.10000000E+01 0.56080838E+02</pdfrwt>
<pdfrwt beam="2">  1       22 0.69617274E+00 0.56080838E+02</pdfrwt>
<totfact> 0.76557598E-02</totfact>
</mgrwt>
</event>
<event>
 4    1  0.2416490E+000  0.5123289E+02  0.7957747E-01  0.1438803E+00
         13   -1    0    0    0    0  0.00000000000E+00  0.00000000000E+00  0.99999944177E+02  0.99999999997E+02  0.10566000000E+00 0.  1.
         22   -1    0    0    0    0 -0.00000000000E+00 -0.00000000000E+00 -0.97361410347E+01  0.97361410347E+01  0.00000000000E+00 0.  1.
         13    1    1    2    0    0 -0.26419716419E+01 -0.10854891422E+02  0.16327571694E+02  0.19784070446E+02  0.10566000000E+00 0. -1.
        996    1    1    2    0    0  0.26419716419E+01  0.10854891422E+02  0.73936231448E+02  0.89952070586E+02  0.50000000000E+02 0.  0.
<mgrwt>
<rscale>  0 0.51232887E+02</rscale>
<asrwt>0</asrwt>
<pdfrwt beam="1">  1       13 0.10000000E+01 0.51232887E+02</pdfrwt>
<pdfrwt beam="2">  1       22 0.97361662E-01 0.51232887E+02</pdfrwt>
<totfact> 0.14625309E+00</totfact>
</mgrwt>
</event>
<event>
 4    1  0.2416490E+000  0.5155105E+02  0.7957747E-01  0.1437151E+00
         13   -1    0    0    0    0  0.00000000000E+00  0.00000000000E+00  0.99999944182E+02  0.10000000000E+03  0.10566000000E+00 0. -1.
         22   -1    0    0    0    0 -0.00000000000E+00 -0.00000000000E+00 -0.11074465345E+02  0.11074465345E+02  0.00000000000E+00 0. -1.
         13    1    1    2    0    0  0.12530783391E+02  0.70015136827E+00  0.72599600149E+01  0.14499273353E+02  0.10566000000E+00 0.  1.
        996    1    1    2    0    0 -0.12530783391E+02 -0.70015136827E+00  0.81665518822E+02  0.96575191995E+02  0.50000000000E+02 0.  0.
<mgrwt>
<rscale>  0 0.51551050E+02</rscale>
<asrwt>0</asrwt>
<pdfrwt beam="1">  1       13 0.10000000E+01 0.51551050E+02</pdfrwt>
<pdfrwt beam="2">  1       22 0.11074490E+00 0.51551050E+02</pdfrwt>
<totfact> 0.12122080E+00</totfact>
</mgrwt>
</event>
<event>
 4    1  0.2416490E+000  0.5193918E+02  0.7957747E-01  0.1435154E+00
         13   -1    0    0    0    0  0.00000000000E+00  0.00000000000E+00  0.99999944174E+02  0.99999999994E+02  0.10566000000E+00 0.  1.
         22   -1    0    0    0    0 -0.00000000000E+00 -0.00000000000E+00 -0.19323158980E+02  0.19323158980E+02  0.00000000000E+00 0. -1.
         13    1    1    2    0    0 -0.13384811306E+02  0.43041329834E+01 -0.82773671144E+01  0.16315780853E+02  0.10566000000E+00 0. -1.
        996    1    1    2    0    0  0.13384811306E+02 -0.43041329834E+01  0.88954152309E+02  0.10300737812E+03  0.50000000000E+02 0.  0.
<mgrwt>
<rscale>  0 0.51939183E+02</rscale>
<asrwt>0</asrwt>
<pdfrwt beam="1">  1       13 0.10000000E+01 0.51939183E+02</pdfrwt>
<pdfrwt beam="2">  1       22 0.19323182E+00 0.51939183E+02</pdfrwt>
<totfact> 0.48288671E-01</totfact>
</mgrwt>
</event>
<event>
 4    1  0.2416490E+000  0.5240436E+02  0.7957747E-01  0.1432788E+00
         13   -1    0    0    0    0  0.00000000000E+00  0.00000000000E+00  0.99999944174E+02  0.99999999994E+02  0.10566000000E+00 0. -1.
         22   -1    0    0    0    0 -0.00000000000E+00 -0.00000000000E+00 -0.24390493454E+02  0.24390493454E+02  0.00000000000E+00 0. -1.
         13    1    1    2    0    0 -0.12688058170E+02 -0.92320425055E+01 -0.13707091252E+02  0.20835377212E+02  0.10566000000E+00 0.  1.
        996    1    1    2    0    0  0.12688058170E+02  0.92320425055E+01  0.89316541972E+02  0.10355511624E+03  0.50000000000E+02 0.  0.
<mgrwt>
<rscale>  0 0.52404365E+02</rscale>
<asrwt>0</asrwt>
<pdfrwt beam="1">  1       13 0.10000000E+01 0.52404365E+02</pdfrwt>
<pdfrwt beam="2">  1       22 0.24390515E+00 0.52404365E+02</pdfrwt>
<totfact> 0.30964466E-01</totfact>
</mgrwt>
</event>
<event>
 4    1  0.2416490E+000  0.5171643E+02  0.7957747E-01  0.1436297E+00
         13   -1    0    0    0    0  0.00000000000E+00  0.00000000000E+00  0.99999944172E+02  0.99999999992E+02  0.10566000000E+00 0. -1.
         22   -1    0    0    0    0 -0.00000000000E+00 -0.00000000000E+00 -0.11672698037E+02  0.11672698037E+02  0.00000000000E+00 0. -1.
         13    1    1    2    0    0 -0.29618568277E+00  0.13209914587E+02  0.61460835705E+01  0.14573094271E+02  0.10566000000E+00 0.  1.
        996    1    1    2    0    0  0.29618568277E+00 -0.13209914587E+02  0.82181162565E+02  0.97099603758E+02  0.50000000000E+02 0.  0.
<mgrwt>
<rscale>  0 0.51716434E+02</rscale>
<asrwt>0</asrwt>
<pdfrwt beam="1">  1       13 0.10000000E+01 0.51716434E+02</pdfrwt>
<pdfrwt beam="2">  1       22 0.11672723E+00 0.51716434E+02</pdfrwt>
<totfact> 0.11204815E+00</totfact>
</mgrwt>
</event>
<event>
 4    1  0.2416490E+000  0.5106300E+02  0.7957747E-01  0.1439691E+00
         13   -1    0    0    0    0  0.00000000000E+00  0.00000000000E+00  0.99999944172E+02  0.99999999993E+02  0.10566000000E+00 0. -1.
         22   -1    0    0    0    0 -0.00000000000E+00 -0.00000000000E+00 -0.10351377931E+02  0.10351377931E+02  0.00000000000E+00 0. -1.
         13    1    1    2    0    0 -0.52313730415E+01  0.89477803824E+01  0.50343720602E+01  0.11523285284E+02  0.10566000000E+00 0.  1.
        996    1    1    2    0    0  0.52313730415E+01 -0.89477803824E+01  0.84614194181E+02  0.98828092639E+02  0.50000000000E+02 0.  0.
<mgrwt>
<rscale>  0 0.51063001E+02</rscale>
<asrwt>0</asrwt>
<pdfrwt beam="1">  1       13 0.10000000E+01 0.51063001E+02</pdfrwt>
<pdfrwt beam="2">  1       22 0.10351403E+00 0.51063001E+02</pdfrwt>
<totfact> 0.13376779E+00</totfact>
</mgrwt>
</event>
<event>
 4    1  0.2416490E+000  0.5398621E+02  0.7957747E-01  0.1424955E+00
         13   -1    0    0    0    0  0.00000000000E+00  0.00000000000E+00  0.99999944170E+02  0.99999999990E+02  0.10566000000E+00 0. -1.
         22   -1    0    0    0    0 -0.00000000000E+00 -0.00000000000E+00 -0.51272341320E+02  0.51272341320E+02  0.00000000000E+00 0.  1.
         13    1    1    2    0    0  0.19185821975E+02  0.68128621007E+01 -0.41444081933E+02  0.46175035963E+02  0.10566000000E+00 0.  1.
        996    1    1    2    0    0 -0.19185821975E+02 -0.68128621007E+01  0.90171684783E+02  0.10509730535E+03  0.50000000000E+02 0.  0.
<mgrwt>
<rscale>  0 0.53986210E+02</rscale>
<asrwt>0</asrwt>
<pdfrwt beam="1">  1       13 0.10000000E+01 0.53986210E+02</pdfrwt>
<pdfrwt beam="2">  1       22 0.51272355E+00 0.53986210E+02</pdfrwt>
<totfact> 0.68830742E-02</totfact>
</mgrwt>
</event>
<event>
 4    1  0.2416490E+000  0.5115708E+02  0.7957747E-01  0.1439199E+00
         13   -1    0    0    0    0  0.00000000000E+00  0.00000000000E+00  0.99999944179E+02  0.99999999999E+02  0.10566000000E+00 0. -1.
         22   -1    0    0    0    0 -0.00000000000E+00 -0.00000000000E+00 -0.12493414009E+02  0.12493414009E+02  0.00000000000E+00 0. -1.
         13    1    1    2    0    0 -0.10691485634E+02 -0.16550184344E+01 -0.35356318093E+00  0.10825115336E+02  0.10566000000E+00 0.  1.
        996    1    1    2    0    0  0.10691485634E+02  0.16550184344E+01  0.87860093351E+02  0.10166829867E+03  0.50000000000E+02 0.  0.
<mgrwt>
<rscale>  0 0.51157081E+02</rscale>
<asrwt>0</asrwt>
<pdfrwt beam="1">  1       13 0.10000000E+01 0.51157081E+02</pdfrwt>
<pdfrwt beam="2">  1       22 0.12493438E+00 0.51157081E+02</pdfrwt>
<totfact> 0.10082739E+00</totfact>
</mgrwt>
</event>
<event>
 4    1  0.2416490E+000  0.5295903E+02  0.7957747E-01  0.1430005E+00
         13   -1    0    0    0    0  0.00000000000E+00  0.00000000000E+00  0.99999944178E+02  0.99999999998E+02  0.10566000000E+00 0. -1.
         22   -1    0    0    0    0 -0.00000000000E+00 -0.00000000000E+00 -0.65143405024E+02  0.65143405024E+02  0.00000000000E+00 0.  1.
         13    1    1    2    0    0  0.12126415715E+02 -0.12554254462E+02 -0.56726178312E+02  0.59350903389E+02  0.10566000000E+00 0.  1.
        996    1    1    2    0    0 -0.12126415715E+02  0.12554254462E+02  0.91582717466E+02  0.10579250163E+03  0.50000000000E+02 0.  0.
<mgrwt>
<rscale>  0 0.52959034E+02</rscale>
<asrwt>0</asrwt>
<pdfrwt beam="1">  1       13 0.10000000E+01 0.52959034E+02</pdfrwt>
<pdfrwt beam="2">  1       22 0.65143415E+00 0.52959034E+02</pdfrwt>
<totfact> 0.86652635E-02</totfact>
</mgrwt>
</event>
<event>
 4    1  0.2416490E+000  0.5221893E+02  0.7957747E-01  0.1433728E+00
         13   -1    0    0    0    0  0.00000000000E+00  0.00000000000E+00  0.99999944178E+02  0.99999999998E+02  0.10566000000E+00 0.  1.
         22   -1    0    0    0    0 -0.00000000000E+00 -0.00000000000E+00 -0.11626252309E+02  0.11626252309E+02  0.00000000000E+00 0. -1.
         13    1    1    2    0    0 -0.12817505000E+02 -0.79074815342E+01  0.12792813968E+02  0.19760666788E+02  0.10566000000E+00 0. -1.
        996    1    1    2    0    0  0.12817505000E+02  0.79074815342E+01  0.75580877900E+02  0.91865585519E+02  0.50000000000E+02 0.  0.
<mgrwt>
<rscale>  0 0.52218930E+02</rscale>
<asrwt>0</asrwt>
<pdfrwt beam="1">  1       13 0.10000000E+01 0.52218930E+02</pdfrwt>
<pdfrwt beam="2">  1       22 0.11626277E+00 0.52218930E+02</pdfrwt>
<totfact> 0.11285512E+00</totfact>
</mgrwt>
</event>
<event>
 4    1  0.2416490E+000  0.5203040E+02  0.7957747E-01  0.1434688E+00
         13   -1    0    0    0    0  0.00000000000E+00  0.00000000000E+00  0.99999944175E+02  0.99999999995E+02  0.10566000000E+00 0. -1.
         22   -1    0    0    0    0 -0.00000000000E+00 -0.00000000000E+00 -0.14102738506E+02  0.14102738506E+02  0.00000000000E+00 0.  1.
         13    1    1    2    0    0 -0.28612041357E+01  0.14105902982E+02  0.87065413851E+00  0.14419854046E+02  0.10566000000E+00 0.  1.
        996    1    1    2    0    0  0.28612041357E+01 -0.14105902982E+02  0.85026551530E+02  0.99682884454E+02  0.50000000000E+02 0.  0.
<mgrwt>
<rscale>  0 0.52030404E+02</rscale>
<asrwt>0</asrwt>
<pdfrwt beam="1">  1       13 0.10000000E+01 0.52030404E+02</pdfrwt>
<pdfrwt beam="2">  1       22 0.14102762E+00 0.52030404E+02</pdfrwt>
<totfact> 0.83338148E-01</totfact>
</mgrwt>
</event>
<event>
 4    1  0.2416490E+000  0.5118574E+02  0.7957747E-01  0.1439049E+00
         13   -1    0    0    0    0  0.00000000000E+00  0.00000000000E+00  0.99999944181E+02  0.10000000000E+03  0.10566000000E+00 0.  1.
         22   -1    0    0    0    0 -0.00000000000E+00 -0.00000000000E+00 -0.14685358791E+02  0.14685358791E+02  0.00000000000E+00 0.  1.
         13    1    1    2    0    0 -0.41256775579E+01 -0.10146845851E+02 -0.40673826193E+01  0.11684796166E+02  0.10566000000E+00 0. -1.
        996    1    1    2    0    0  0.41256775579E+01  0.10146845851E+02  0.89381968009E+02  0.10300056263E+03  0.50000000000E+02 0.  0.
<mgrwt>
<rscale>  0 0.51185737E+02</rscale>
<asrwt>0</asrwt>
<pdfrwt beam="1">  1       13 0.10000000E+01 0.51185737E+02</pdfrwt>
<pdfrwt beam="2">  1       22 0.14685383E+00 0.51185737E+02</pdfrwt>
<totfact> 0.77854155E-01</totfact>
</mgrwt>
</event>
<event>
 4    1  0.2416490E+000  0.5353905E+02  0.7957747E-01  0.1427137E+00
         13   -1    0    0    0    0  0.00000000000E+00  0.00000000000E+00  0.99999944184E+02  0.10000000000E+03  0.10566000000E+00 0. -1.
         22   -1    0    0    0    0 -0.00000000000E+00 -0.00000000000E+00 -0.38404831278E+02  0.38404831278E+02  0.00000000000E+00 0.  1.
         13    1    1    2    0    0  0.16219549799E+02  0.10166445125E+02 -0.28067511685E+02  0.33973913204E+02  0.10566000000E+00 0.  1.
        996    1    1    2    0    0 -0.16219549799E+02 -0.10166445125E+02  0.89662624591E+02  0.10443091808E+03  0.50000000000E+02 0.  0.
<mgrwt>
<rscale>  0 0.53539055E+02</rscale>
<asrwt>0</asrwt>
<pdfrwt beam="1">  1       13 0.10000000E+01 0.53539055E+02</pdfrwt>
<pdfrwt beam="2">  1       22 0.38404848E+00 0.53539055E+02</pdfrwt>
<totfact> 0.13354112E-01</totfact>
</mgrwt>
</event>
<event>
 4    1  0.2416490E+000  0.5159315E+02  0.7957747E-01  0.1436933E+00
         13   -1    0    0    0    0  0.00000000000E+00  0.00000000000E+00  0.99999944168E+02  0.99999999988E+02  0.10566000000E+00 0.  1.
         22   -1    0    0    0    0 -0.00000000000E+00 -0.00000000000E+00 -0.25356540727E+02  0.25356540727E+02  0.00000000000E+00 0. -1.
         13    1    1    2    0    0  0.62550816042E+01 -0.11078235744E+02 -0.16372512332E+02  0.20734600965E+02  0.10566000000E+00 0. -1.
        996    1    1    2    0    0 -0.62550816042E+01  0.11078235744E+02  0.91015915773E+02  0.10462193975E+03  0.50000000000E+02 0.  0.
<mgrwt>
<rscale>  0 0.51593152E+02</rscale>
<asrwt>0</asrwt>
<pdfrwt beam="1">  1       13 0.10000000E+01 0.51593152E+02</pdfrwt>
<pdfrwt beam="2">  1       22 0.25356562E+00 0.51593152E+02</pdfrwt>
<totfact> 0.28651038E-01</totfact>
</mgrwt>
</event>
<event>
 4    1  0.2416490E+000  0.6489426E+02  0.7957747E-01  0.1378370E+00
         13   -1    0    0    0    0  0.00000000000E+00  0.00000000000E+00  0.99999944181E+02  0.10000000000E+03  0.10566000000E+00 0.  1.
         22   -1    0    0    0    0 -0.00000000000E+00 -0.00000000000E+00 -0.35748206561E+02  0.35748206561E+02  0.00000000000E+00 0. -1.
         13    1    1    2    0    0  0.69695137641E+01  0.40776108159E+02 -0.40113578037E+01  0.41561608176E+02  0.10566000000E+00 0. -1.
        996    1    1    2    0    0 -0.69695137641E+01 -0.40776108159E+02  0.68263095423E+02  0.94186598386E+02  0.50000000000E+02 0.  0.
<mgrwt>
<rscale>  0 0.64894261E+02</rscale>
<asrwt>0</asrwt>
<pdfrwt beam="1">  1       13 0.10000000E+01 0.64894261E+02</pdfrwt>
<pdfrwt beam="2">  1       22 0.35748225E+00 0.64894261E+02</pdfrwt>
<totfact> 0.15319375E-01</totfact>
</mgrwt>
</event>
<event>
 4    1  0.2416490E+000  0.5150352E+02  0.7957747E-01  0.1437397E+00
         13   -1    0    0    0    0  0.00000000000E+00  0.00000000000E+00  0.99999944182E+02  0.10000000000E+03  0.10566000000E+00 0. -1.
         22   -1    0    0    0    0 -0.00000000000E+00 -0.00000000000E+00 -0.14144375954E+02  0.14144375954E+02  0.00000000000E+00 0. -1.
         13    1    1    2    0    0 -0.63450302320E+01 -0.10599678316E+02 -0.17932094887E+01  0.12483563328E+02  0.10566000000E+00 0.  1.
        996    1    1    2    0    0  0.63450302320E+01  0.10599678316E+02  0.87648777717E+02  0.10166081263E+03  0.50000000000E+02 0.  0.
<mgrwt>
<rscale>  0 0.51503520E+02</rscale>
<asrwt>0</asrwt>
<pdfrwt beam="1">  1       13 0.10000000E+01 0.51503520E+02</pdfrwt>
<pdfrwt beam="2">  1       22 0.14144400E+00 0.51503520E+02</pdfrwt>
<totfact> 0.82847715E-01</totfact>
</mgrwt>
</event>
<event>
 4    1  0.2416490E+000  0.5107812E+02  0.7957747E-01  0.1439612E+00
         13   -1    0    0    0    0  0.00000000000E+00  0.00000000000E+00  0.99999944171E+02  0.99999999991E+02  0.10566000000E+00 0. -1.
         22   -1    0    0    0    0 -0.00000000000E+00 -0.00000000000E+00 -0.58018902880E+02  0.58018902880E+02  0.00000000000E+00 0.  1.
         13    1    1    2    0    0 -0.74526699695E+01 -0.73097270228E+01 -0.50932327074E+02  0.51991225260E+02  0.10566000000E+00 0.  1.
        996    1    1    2    0    0  0.74526699695E+01  0.73097270228E+01  0.92913368365E+02  0.10602767761E+03  0.50000000000E+02 0.  0.
<mgrwt>
<rscale>  0 0.51078121E+02</rscale>
<asrwt>0</asrwt>
<pdfrwt beam="1">  1       13 0.10000000E+01 0.51078121E+02</pdfrwt>
<pdfrwt beam="2">  1       22 0.58018915E+00 0.51078121E+02</pdfrwt>
<totfact> 0.58319516E-02</totfact>
</mgrwt>
</event>
<event>
 4    1  0.2416490E+000  0.5206669E+02  0.7957747E-01  0.1434503E+00
         13   -1    0    0    0    0  0.00000000000E+00  0.00000000000E+00  0.99999944182E+02  0.10000000000E+03  0.10566000000E+00 0. -1.
         22   -1    0    0    0    0 -0.00000000000E+00 -0.00000000000E+00 -0.14649204832E+02  0.14649204832E+02  0.00000000000E+00 0.  1.
         13    1    1    2    0    0  0.48706297382E+01 -0.13682718248E+02 -0.17052145127E+00  0.14525152471E+02  0.10566000000E+00 0.  1.
        996    1    1    2    0    0 -0.48706297382E+01  0.13682718248E+02  0.85521260801E+02  0.10012405236E+03  0.50000000000E+02 0.  0.
<mgrwt>
<rscale>  0 0.52066686E+02</rscale>
<asrwt>0</asrwt>
<pdfrwt beam="1">  1       13 0.10000000E+01 0.52066686E+02</pdfrwt>
<pdfrwt beam="2">  1       22 0.14649229E+00 0.52066686E+02</pdfrwt>
<totfact> 0.78314687E-01</totfact>
</mgrwt>
</event>
<event>
 4    1  0.2416490E+000  0.5149611E+02  0.7957747E-01  0.1437435E+00
         13   -1    0    0    0    0  0.00000000000E+00  0.00000000000E+00  0.99999944172E+02  0.99999999993E+02  0.10566000000E+00 0. -1.
         22   -1    0    0    0    0 -0.00000000000E+00 -0.00000000000E+00 -0.14545723252E+02  0.14545723252E+02  0.00000000000E+00 0.  1.
         13    1    1    2    0    0  0.35619247235E+00  0.12317567173E+02 -0.25479413374E+01  0.12583819104E+02  0.10566000000E+00 0.  1.
        996    1    1    2    0    0 -0.35619247235E+00 -0.12317567173E+02  0.88002162257E+02  0.10196190414E+03  0.50000000000E+02 0.  0.
<mgrwt>
<rscale>  0 0.51496110E+02</rscale>
<asrwt>0</asrwt>
<pdfrwt beam="1">  1       13 0.10000000E+01 0.51496110E+02</pdfrwt>
<pdfrwt beam="2">  1       22 0.14545747E+00 0.51496110E+02</pdfrwt>
<totfact> 0.79140650E-01</totfact>
</mgrwt>
</event>
<event>
 4    1  0.2416490E+000  0.5205001E+02  0.7957747E-01  0.1434588E+00
         13   -1    0    0    0    0  0.00000000000E+00  0.00000000000E+00  0.99999944178E+02  0.99999999998E+02  0.10566000000E+00 0. -1.
         22   -1    0    0    0    0 -0.00000000000E+00 -0.00000000000E+00 -0.14721308679E+02  0.14721308679E+02  0.00000000000E+00 0. -1.
         13    1    1    2    0    0  0.11108627138E+02  0.92629111406E+01 -0.40191634344E+00  0.14469824480E+02  0.10566000000E+00 0.  1.
        996    1    1    2    0    0 -0.11108627138E+02 -0.92629111406E+01  0.85680551843E+02  0.10025148420E+03  0.50000000000E+02 0.  0.
<mgrwt>
<rscale>  0 0.52050006E+02</rscale>
<asrwt>0</asrwt>
<pdfrwt beam="1">  1       13 0.10000000E+01 0.52050006E+02</pdfrwt>
<pdfrwt beam="2">  1       22 0.14721332E+00 0.52050006E+02</pdfrwt>
<totfact> 0.77679675E-01</totfact>
</mgrwt>
</event>
<event>
 4    1  0.2416490E+000  0.5256020E+02  0.7957747E-01  0.1432002E+00
         13   -1    0    0    0    0  0.00000000000E+00  0.00000000000E+00  0.99999944181E+02  0.10000000000E+03  0.10566000000E+00 0.  1.
         22   -1    0    0    0    0 -0.00000000000E+00 -0.00000000000E+00 -0.46036731302E+02  0.46036731302E+02  0.00000000000E+00 0. -1.
         13    1    1    2    0    0  0.16066622380E+02 -0.21066736445E+01 -0.37329398030E+02  0.40694834438E+02  0.10566000000E+00 0. -1.
        996    1    1    2    0    0 -0.16066622380E+02  0.21066736445E+01  0.91292610909E+02  0.10534189687E+03  0.50000000000E+02 0.  0.
<mgrwt>
<rscale>  0 0.52560198E+02</rscale>
<asrwt>0</asrwt>
<pdfrwt beam="1">  1       13 0.10000000E+01 0.52560198E+02</pdfrwt>
<pdfrwt beam="2">  1       22 0.46036746E+00 0.52560198E+02</pdfrwt>
<totfact> 0.91520732E-02</totfact>
</mgrwt>
</event>
<event>
 4    1  0.2416490E+000  0.5227845E+02  0.7957747E-01  0.1433426E+00
         13   -1    0    0    0    0  0.00000000000E+00  0.00000000000E+00  0.99999944176E+02  0.99999999996E+02  0.10566000000E+00 0. -1.
         22   -1    0    0    0    0 -0.00000000000E+00 -0.00000000000E+00 -0.11754365520E+02  0.11754365520E+02  0.00000000000E+00 0. -1.
         13    1    1    2    0    0  0.14724254586E+02  0.40290135514E+01  0.12559427518E+02  0.19768333438E+02  0.10566000000E+00 0.  1.
        996    1    1    2    0    0 -0.14724254586E+02 -0.40290135514E+01  0.75686151138E+02  0.91986032078E+02  0.50000000000E+02 0.  0.
<mgrwt>
<rscale>  0 0.52278453E+02</rscale>
<asrwt>0</asrwt>
<pdfrwt beam="1">  1       13 0.10000000E+01 0.52278453E+02</pdfrwt>
<pdfrwt beam="2">  1       22 0.11754390E+00 0.52278453E+02</pdfrwt>
<totfact> 0.11100964E+00</totfact>
</mgrwt>
</event>
<event>
 4    1  0.2416490E+000  0.5322603E+02  0.7957747E-01  0.1428679E+00
         13   -1    0    0    0    0  0.00000000000E+00  0.00000000000E+00  0.99999944179E+02  0.10000000000E+03  0.10566000000E+00 0.  1.
         22   -1    0    0    0    0 -0.00000000000E+00 -0.00000000000E+00 -0.22173697787E+02  0.22173697787E+02  0.00000000000E+00 0. -1.
         13    1    1    2    0    0 -0.85227578825E+01 -0.16136074803E+02 -0.89877255607E+01  0.20342091504E+02  0.10566000000E+00 0. -1.
        996    1    1    2    0    0  0.85227578825E+01  0.16136074803E+02  0.86813971953E+02  0.10183160628E+03  0.50000000000E+02 0.  0.
<mgrwt>
<rscale>  0 0.53226030E+02</rscale>
<asrwt>0</asrwt>
<pdfrwt beam="1">  1       13 0.10000000E+01 0.53226030E+02</pdfrwt>
<pdfrwt beam="2">  1       22 0.22173720E+00 0.53226030E+02</pdfrwt>
<totfact> 0.37329589E-01</totfact>
</mgrwt>
</event>
<event>
 4    1  0.2416490E+000  0.6973378E+02  0.7957747E-01  0.1361001E+00
         13   -1    0    0    0    0  0.00000000000E+00  0.00000000000E+00  0.99999944197E+02  0.10000000002E+03  0.10566000000E+00 0.  1.
         22   -1    0    0    0    0 -0.00000000000E+00 -0.00000000000E+00 -0.81961874207E+02  0.81961874207E+02  0.00000000000E+00 0. -1.
         13    1    1    2    0    0 -0.38111057121E+02  0.30171954782E+02 -0.60057321709E+02  0.77263785728E+02  0.10566000000E+00 0. -1.
        996    1    1    2    0    0  0.38111057121E+02 -0.30171954782E+02  0.78095391698E+02  0.10469808850E+03  0.50000000000E+02 0.  0.
<mgrwt>
<rscale>  0 0.69733776E+02</rscale>
<asrwt>0</asrwt>
<pdfrwt beam="1">  1       13 0.10000000E+01 0.69733776E+02</pdfrwt>
<pdfrwt beam="2">  1       22 0.81961879E+00 0.69733776E+02</pdfrwt>
<totfact> 0.25687629E-02</totfact>
</mgrwt>
</event>
<event>
 4    1  0.2416490E+000  0.8205154E+02  0.7957747E-01  0.1323328E+00
         13   -1    0    0    0    0  0.00000000000E+00  0.00000000000E+00  0.99999944185E+02  0.10000000001E+03  0.10566000000E+00 0.  1.
         22   -1    0    0    0    0 -0.00000000000E+00 -0.00000000000E+00 -0.69288027365E+02  0.69288027365E+02  0.00000000000E+00 0. -1.
         13    1    1    2    0    0 -0.21305738208E+02  0.61469676044E+02 -0.25448227687E+02  0.69857562297E+02  0.10566000000E+00 0. -1.
        996    1    1    2    0    0  0.21305738208E+02 -0.61469676044E+02  0.56160144507E+02  0.99430465073E+02  0.50000000000E+02 0.  0.
<mgrwt>
<rscale>  0 0.82051542E+02</rscale>
<asrwt>0</asrwt>
<pdfrwt beam="1">  1       13 0.10000000E+01 0.82051542E+02</pdfrwt>
<pdfrwt beam="2">  1       22 0.69288036E+00 0.82051542E+02</pdfrwt>
<totfact> 0.78113183E-02</totfact>
</mgrwt>
</event>
<event>
 4    1  0.2416490E+000  0.5125822E+02  0.7957747E-01  0.1438671E+00
         13   -1    0    0    0    0  0.00000000000E+00  0.00000000000E+00  0.99999944172E+02  0.99999999992E+02  0.10566000000E+00 0. -1.
         22   -1    0    0    0    0 -0.00000000000E+00 -0.00000000000E+00 -0.20861040999E+02  0.20861040999E+02  0.00000000000E+00 0.  1.
         13    1    1    2    0    0 -0.15656560278E+01 -0.11178298030E+02 -0.11888598067E+02  0.16393765696E+02  0.10566000000E+00 0.  1.
        996    1    1    2    0    0  0.15656560278E+01  0.11178298030E+02  0.91027501240E+02  0.10446727530E+03  0.50000000000E+02 0.  0.
<mgrwt>
<rscale>  0 0.51258225E+02</rscale>
<asrwt>0</asrwt>
<pdfrwt beam="1">  1       13 0.10000000E+01 0.51258225E+02</pdfrwt>
<pdfrwt beam="2">  1       22 0.20861063E+00 0.51258225E+02</pdfrwt>
<totfact> 0.41802937E-01</totfact>
</mgrwt>
</event>
<event>
 4    1  0.2416490E+000  0.5338250E+02  0.7957747E-01  0.1427907E+00
         13   -1    0    0    0    0  0.00000000000E+00  0.00000000000E+00  0.99999944176E+02  0.99999999996E+02  0.10566000000E+00 0.  1.
         22   -1    0    0    0    0 -0.00000000000E+00 -0.00000000000E+00 -0.20896941371E+02  0.20896941371E+02  0.00000000000E+00 0. -1.
         13    1    1    2    0    0  0.15168077004E+02  0.10937142495E+02 -0.66822063490E+01  0.19858365785E+02  0.10566000000E+00 0. -1.
        996    1    1    2    0    0 -0.15168077004E+02 -0.10937142495E+02  0.85785209154E+02  0.10103857558E+03  0.50000000000E+02 0.  0.
<mgrwt>
<rscale>  0 0.53382503E+02</rscale>
<asrwt>0</asrwt>
<pdfrwt beam="1">  1       13 0.10000000E+01 0.53382503E+02</pdfrwt>
<pdfrwt beam="2">  1       22 0.20896963E+00 0.53382503E+02</pdfrwt>
<totfact> 0.41821821E-01</totfact>
</mgrwt>
</event>
<event>
 4    1  0.2416490E+000  0.5184820E+02  0.7957747E-01  0.1435620E+00
         13   -1    0    0    0    0  0.00000000000E+00  0.00000000000E+00  0.99999944181E+02  0.10000000000E+03  0.10566000000E+00 0.  1.
         22   -1    0    0    0    0 -0.00000000000E+00 -0.00000000000E+00 -0.22163493139E+02  0.22163493139E+02  0.00000000000E+00 0. -1.
         13    1    1    2    0    0  0.15472629799E+01 -0.13632382157E+02 -0.12138266480E+02  0.18318966761E+02  0.10566000000E+00 0. -1.
        996    1    1    2    0    0 -0.15472629799E+01  0.13632382157E+02  0.89974717521E+02  0.10384452638E+03  0.50000000000E+02 0.  0.
<mgrwt>
<rscale>  0 0.51848200E+02</rscale>
<asrwt>0</asrwt>
<pdfrwt beam="1">  1       13 0.10000000E+01 0.51848200E+02</pdfrwt>
<pdfrwt beam="2">  1       22 0.22163515E+00 0.51848200E+02</pdfrwt>
<totfact> 0.37276309E-01</totfact>
</mgrwt>
</event>
<event>
 4    1  0.2416490E+000  0.5331361E+02  0.7957747E-01  0.1428246E+00
         13   -1    0    0    0    0  0.00000000000E+00  0.00000000000E+00  0.99999944177E+02  0.99999999997E+02  0.10566000000E+00 0. -1.
         22   -1    0    0    0    0 -0.00000000000E+00 -0.00000000000E+00 -0.16789721787E+02  0.16789721787E+02  0.00000000000E+00 0.  1.
         13    1    1    2    0    0  0.13015868535E+02  0.13150202477E+02  0.65281924371E+00  0.18514264660E+02  0.10566000000E+00 0.  1.
        996    1    1    2    0    0 -0.13015868535E+02 -0.13150202477E+02  0.82557403146E+02  0.98275457125E+02  0.50000000000E+02 0.  0.
<mgrwt>
<rscale>  0 0.53313607E+02</rscale>
<asrwt>0</asrwt>
<pdfrwt beam="1">  1       13 0.10000000E+01 0.53313607E+02</pdfrwt>
<pdfrwt beam="2">  1       22 0.16789745E+00 0.53313607E+02</pdfrwt>
<totfact> 0.62292651E-01</totfact>
</mgrwt>
</event>
<event>
 4    1  0.2416490E+000  0.6711472E+02  0.7957747E-01  0.1370189E+00
         13   -1    0    0    0    0  0.00000000000E+00  0.00000000000E+00  0.99999944183E+02  0.10000000000E+03  0.10566000000E+00 0.  1.
         22   -1    0    0    0    0 -0.00000000000E+00 -0.00000000000E+00 -0.65038083014E+02  0.65038083014E+02  0.00000000000E+00 0. -1.
         13    1    1    2    0    0  0.18090505491E+02  0.40952638624E+02 -0.43062980622E+02  0.62119372689E+02  0.10566000000E+00 0. -1.
        996    1    1    2    0    0 -0.18090505491E+02 -0.40952638624E+02  0.78024841791E+02  0.10291871033E+03  0.50000000000E+02 0.  0.
<mgrwt>
<rscale>  0 0.67114715E+02</rscale>
<asrwt>0</asrwt>
<pdfrwt beam="1">  1       13 0.10000000E+01 0.67114715E+02</pdfrwt>
<pdfrwt beam="2">  1       22 0.65038093E+00 0.67114715E+02</pdfrwt>
<totfact> 0.86475713E-02</totfact>
</mgrwt>
</event>
<event>
 4    1  0.2416490E+000  0.7249827E+02  0.7957747E-01  0.1351798E+00
         13   -1    0    0    0    0  0.00000000000E+00  0.00000000000E+00  0.99999944180E+02  0.10000000000E+03  0.10566000000E+00 0.  1.
         22   -1    0    0    0    0 -0.00000000000E+00 -0.00000000000E+00 -0.39071989555E+02  0.39071989555E+02  0.00000000000E+00 0. -1.
         13    1    1    2    0    0  0.77594993773E+01 -0.51920993695E+02  0.24387437393E+02  0.57885729533E+02  0.10566000000E+00 0. -1.
        996    1    1    2    0    0 -0.77594993773E+01  0.51920993695E+02  0.36540517231E+02  0.81186260022E+02  0.50000000000E+02 0.  0.
<mgrwt>
<rscale>  0 0.72498272E+02</rscale>
<asrwt>0</asrwt>
<pdfrwt beam="1">  1       13 0.10000000E+01 0.72498272E+02</pdfrwt>
<pdfrwt beam="2">  1       22 0.39072007E+00 0.72498272E+02</pdfrwt>
<totfact> 0.13108450E-01</totfact>
</mgrwt>
</event>
<event>
 4    1  0.2416490E+000  0.7165240E+02  0.7957747E-01  0.1354562E+00
         13   -1    0    0    0    0  0.00000000000E+00  0.00000000000E+00  0.99999944178E+02  0.99999999998E+02  0.10566000000E+00 0.  1.
         22   -1    0    0    0    0 -0.00000000000E+00 -0.00000000000E+00 -0.38144960580E+02  0.38144960580E+02  0.00000000000E+00 0. -1.
         13    1    1    2    0    0  0.38742822592E+02 -0.33660961484E+02  0.19452098220E+02  0.54885899096E+02  0.10566000000E+00 0. -1.
        996    1    1    2    0    0 -0.38742822592E+02  0.33660961484E+02  0.42402885378E+02  0.83259061482E+02  0.50000000000E+02 0.  0.
<mgrwt>
<rscale>  0 0.71652401E+02</rscale>
<asrwt>0</asrwt>
<pdfrwt beam="1">  1       13 0.10000000E+01 0.71652401E+02</pdfrwt>
<pdfrwt beam="2">  1       22 0.38144978E+00 0.71652401E+02</pdfrwt>
<totfact> 0.13698530E-01</totfact>
</mgrwt>
</event>
<event>
 4    1  0.2416490E+000  0.5204340E+02  0.7957747E-01  0.1434622E+00
         13   -1    0    0    0    0  0.00000000000E+00  0.00000000000E+00  0.99999944179E+02  0.10000000000E+03  0.10566000000E+00 0.  1.
         22   -1    0    0    0    0 -0.00000000000E+00 -0.00000000000E+00 -0.11670225937E+02  0.11670225937E+02  0.00000000000E+00 0.  1.
         13    1    1    2    0    0 -0.46766233409E+01 -0.13661809096E+02  0.97674958712E+01  0.17433616185E+02  0.10566000000E+00 0. -1.
        996    1    1    2    0    0  0.46766233409E+01  0.13661809096E+02  0.78562222371E+02  0.94236609752E+02  0.50000000000E+02 0.  0.
<mgrwt>
<rscale>  0 0.52043403E+02</rscale>
<asrwt>0</asrwt>
<pdfrwt beam="1">  1       13 0.10000000E+01 0.52043403E+02</pdfrwt>
<pdfrwt beam="2">  1       22 0.11670251E+00 0.52043403E+02</pdfrwt>
<totfact> 0.11216717E+00</totfact>
</mgrwt>
</event>
<event>
 4    1  0.2416490E+000  0.5431049E+02  0.7957747E-01  0.1423388E+00
         13   -1    0    0    0    0  0.00000000000E+00  0.00000000000E+00  0.99999944182E+02  0.10000000000E+03  0.10566000000E+00 0.  1.
         22   -1    0    0    0    0 -0.00000000000E+00 -0.00000000000E+00 -0.14275037106E+02  0.14275037106E+02  0.00000000000E+00 0. -1.
         13    1    1    2    0    0 -0.16502430902E+02  0.13315369792E+02  0.22237687999E+02  0.30727109040E+02  0.10566000000E+00 0. -1.
        996    1    1    2    0    0  0.16502430902E+02 -0.13315369792E+02  0.63487219077E+02  0.83547928068E+02  0.50000000000E+02 0.  0.
<mgrwt>
<rscale>  0 0.54310490E+02</rscale>
<asrwt>0</asrwt>
<pdfrwt beam="1">  1       13 0.10000000E+01 0.54310490E+02</pdfrwt>
<pdfrwt beam="2">  1       22 0.14275061E+00 0.54310490E+02</pdfrwt>
<totfact> 0.82085934E-01</totfact>
</mgrwt>
</event>
<event>
 4    1  0.2416490E+000  0.5136795E+02  0.7957747E-01  0.1438100E+00
         13   -1    0    0    0    0  0.00000000000E+00  0.00000000000E+00  0.99999944175E+02  0.99999999995E+02  0.10566000000E+00 0.  1.
         22   -1    0    0    0    0 -0.00000000000E+00 -0.00000000000E+00 -0.10018394248E+02  0.10018394248E+02  0.00000000000E+00 0.  1.
         13    1    1    2    0    0  0.11016498172E+02  0.41597466418E+01  0.19969957677E+02  0.23183552311E+02  0.10566000000E+00 0. -1.
        996    1    1    2    0    0 -0.11016498172E+02 -0.41597466418E+01  0.70011592249E+02  0.86834841932E+02  0.50000000000E+02 0.  0.
<mgrwt>
<rscale>  0 0.51367954E+02</rscale>
<asrwt>0</asrwt>
<pdfrwt beam="1">  1       13 0.10000000E+01 0.51367954E+02</pdfrwt>
<pdfrwt beam="2">  1       22 0.10018419E+00 0.51367954E+02</pdfrwt>
<totfact> 0.14038931E+00</totfact>
</mgrwt>
</event>
<event>
 4    1  0.2416490E+000  0.5240922E+02  0.7957747E-01  0.1432764E+00
         13   -1    0    0    0    0  0.00000000000E+00  0.00000000000E+00  0.99999944178E+02  0.99999999998E+02  0.10566000000E+00 0. -1.
         22   -1    0    0    0    0 -0.00000000000E+00 -0.00000000000E+00 -0.16058080463E+02  0.16058080463E+02  0.00000000000E+00 0. -1.
         13    1    1    2    0    0 -0.13877810273E+02  0.73574675377E+01 -0.15461973663E+01  0.15783783985E+02  0.10566000000E+00 0.  1.
        996    1    1    2    0    0  0.13877810273E+02 -0.73574675377E+01  0.85488061081E+02  0.10027429648E+03  0.50000000000E+02 0.  0.
<mgrwt>
<rscale>  0 0.52409216E+02</rscale>
<asrwt>0</asrwt>
<pdfrwt beam="1">  1       13 0.10000000E+01 0.52409216E+02</pdfrwt>
<pdfrwt beam="2">  1       22 0.16058104E+00 0.52409216E+02</pdfrwt>
<totfact> 0.67161804E-01</totfact>
</mgrwt>
</event>
<event>
 4    1  0.2416490E+000  0.5211588E+02  0.7957747E-01  0.1434252E+00
         13   -1    0    0    0    0  0.00000000000E+00  0.00000000000E+00  0.99999944172E+02  0.99999999993E+02  0.10566000000E+00 0.  1.
         22   -1    0    0    0    0 -0.00000000000E+00 -0.00000000000E+00 -0.12421246457E+02  0.12421246457E+02  0.00000000000E+00 0.  1.
         13    1    1    2    0    0 -0.20024100171E+01 -0.14562126690E+02  0.65805421878E+01  0.16105274885E+02  0.10566000000E+00 0. -1.
        996    1    1    2    0    0  0.20024100171E+01  0.14562126690E+02  0.80998155527E+02  0.96315971565E+02  0.50000000000E+02 0.  0.
<mgrwt>
<rscale>  0 0.52115882E+02</rscale>
<asrwt>0</asrwt>
<pdfrwt beam="1">  1       13 0.10000000E+01 0.52115882E+02</pdfrwt>
<pdfrwt beam="2">  1       22 0.12421271E+00 0.52115882E+02</pdfrwt>
<totfact> 0.10195432E+00</totfact>
</mgrwt>
</event>
<event>
 4    1  0.2416490E+000  0.5123025E+02  0.7957747E-01  0.1438817E+00
         13   -1    0    0    0    0  0.00000000000E+00  0.00000000000E+00  0.99999944176E+02  0.99999999997E+02  0.10566000000E+00 0. -1.
         22   -1    0    0    0    0 -0.00000000000E+00 -0.00000000000E+00 -0.12719149063E+02  0.12719149063E+02  0.00000000000E+00 0.  1.
         13    1    1    2    0    0  0.10025564557E+02 -0.49017252479E+01 -0.40166631543E+00  0.11167423829E+02  0.10566000000E+00 0.  1.
        996    1    1    2    0    0 -0.10025564557E+02  0.49017252479E+01  0.87682461429E+02  0.10155172523E+03  0.50000000000E+02 0.  0.
<mgrwt>
<rscale>  0 0.51230253E+02</rscale>
<asrwt>0</asrwt>
<pdfrwt beam="1">  1       13 0.10000000E+01 0.51230253E+02</pdfrwt>
<pdfrwt beam="2">  1       22 0.12719173E+00 0.51230253E+02</pdfrwt>
<totfact> 0.98070116E-01</totfact>
</mgrwt>
</event>
<event>
 4    1  0.2416490E+000  0.5159992E+02  0.7957747E-01  0.1436898E+00
         13   -1    0    0    0    0  0.00000000000E+00  0.00000000000E+00  0.99999944176E+02  0.99999999996E+02  0.10566000000E+00 0. -1.
         22   -1    0    0    0    0 -0.00000000000E+00 -0.00000000000E+00 -0.10997042696E+02  0.10997042696E+02  0.00000000000E+00 0. -1.
         13    1    1    2    0    0 -0.12713667869E+02 -0.95629042185E+00  0.83182809870E+01  0.15223560840E+02  0.10566000000E+00 0.  1.
        996    1    1    2    0    0  0.12713667869E+02  0.95629042185E+00  0.80684620492E+02  0.95773481852E+02  0.50000000000E+02 0.  0.
<mgrwt>
<rscale>  0 0.51599921E+02</rscale>
<asrwt>0</asrwt>
<pdfrwt beam="1">  1       13 0.10000000E+01 0.51599921E+02</pdfrwt>
<pdfrwt beam="2">  1       22 0.10997068E+00 0.51599921E+02</pdfrwt>
<totfact> 0.12250771E+00</totfact>
</mgrwt>
</event>
<event>
 4    1  0.2416490E+000  0.5373863E+02  0.7957747E-01  0.1426160E+00
         13   -1    0    0    0    0  0.00000000000E+00  0.00000000000E+00  0.99999944176E+02  0.99999999996E+02  0.10566000000E+00 0. -1.
         22   -1    0    0    0    0 -0.00000000000E+00 -0.00000000000E+00 -0.24279395347E+02  0.24279395347E+02  0.00000000000E+00 0.  1.
         13    1    1    2    0    0  0.19609594730E+02  0.18177722142E+01 -0.10775491372E+02  0.22449117569E+02  0.10566000000E+00 0.  1.
        996    1    1    2    0    0 -0.19609594730E+02 -0.18177722142E+01  0.86496040201E+02  0.10183027777E+03  0.50000000000E+02 0.  0.
<mgrwt>
<rscale>  0 0.53738631E+02</rscale>
<asrwt>0</asrwt>
<pdfrwt beam="1">  1       13 0.10000000E+01 0.53738631E+02</pdfrwt>
<pdfrwt beam="2">  1       22 0.24279416E+00 0.53738631E+02</pdfrwt>
<totfact> 0.31308662E-01</totfact>
</mgrwt>
</event>
<event>
 4    1  0.2416490E+000  0.5988322E+02  0.7957747E-01  0.1398322E+00
         13   -1    0    0    0    0  0.00000000000E+00  0.00000000000E+00  0.99999944184E+02  0.10000000000E+03  0.10566000000E+00 0. -1.
         22   -1    0    0    0    0 -0.00000000000E+00 -0.00000000000E+00 -0.22022093079E+02  0.22022093079E+02  0.00000000000E+00 0. -1.
         13    1    1    2    0    0 -0.66637708731E+01  0.32273746531E+02  0.19340801547E+02  0.38210971277E+02  0.10566000000E+00 0.  1.
        996    1    1    2    0    0  0.66637708731E+01 -0.32273746531E+02  0.58637049559E+02  0.83811121806E+02  0.50000000000E+02 0.  0.
<mgrwt>
<rscale>  0 0.59883224E+02</rscale>
<asrwt>0</asrwt>
<pdfrwt beam="1">  1       13 0.10000000E+01 0.59883224E+02</pdfrwt>
<pdfrwt beam="2">  1       22 0.22022115E+00 0.59883224E+02</pdfrwt>
<totfact> 0.38220726E-01</totfact>
</mgrwt>
</event>
<event>
 4    1  0.2416490E+000  0.5125130E+02  0.7957747E-01  0.1438707E+00
         13   -1    0    0    0    0  0.00000000000E+00  0.00000000000E+00  0.99999944188E+02  0.10000000001E+03  0.10566000000E+00 0.  1.
         22   -1    0    0    0    0 -0.00000000000E+00 -0.00000000000E+00 -0.27046204875E+02  0.27046204875E+02  0.00000000000E+00 0. -1.
         13    1    1    2    0    0 -0.11211743500E+02  0.99640339655E+00 -0.18821161281E+02  0.21930419240E+02  0.10566000000E+00 0. -1.
        996    1    1    2    0    0  0.11211743500E+02 -0.99640339655E+00  0.91774900595E+02  0.10511578564E+03  0.50000000000E+02 0.  0.
<mgrwt>
<rscale>  0 0.51251303E+02</rscale>
<asrwt>0</asrwt>
<pdfrwt beam="1">  1       13 0.10000000E+01 0.51251303E+02</pdfrwt>
<pdfrwt beam="2">  1       22 0.27046225E+00 0.51251303E+02</pdfrwt>
<totfact> 0.25229856E-01</totfact>
</mgrwt>
</event>
<event>
 4    1  0.2416490E+000  0.5448073E+02  0.7957747E-01  0.1422571E+00
         13   -1    0    0    0    0  0.00000000000E+00  0.00000000000E+00  0.99999944174E+02  0.99999999995E+02  0.10566000000E+00 0. -1.
         22   -1    0    0    0    0 -0.00000000000E+00 -0.00000000000E+00 -0.27351490606E+02  0.27351490606E+02  0.00000000000E+00 0.  1.
         13    1    1    2    0    0  0.59298801241E+01 -0.20808319050E+02 -0.13440617604E+02  0.25471768403E+02  0.10566000000E+00 0.  1.
        996    1    1    2    0    0 -0.59298801241E+01  0.20808319050E+02  0.86089071172E+02  0.10187972220E+03  0.50000000000E+02 0.  0.
<mgrwt>
<rscale>  0 0.54480727E+02</rscale>
<asrwt>0</asrwt>
<pdfrwt beam="1">  1       13 0.10000000E+01 0.54480727E+02</pdfrwt>
<pdfrwt beam="2">  1       22 0.27351511E+00 0.54480727E+02</pdfrwt>
<totfact> 0.24797813E-01</totfact>
</mgrwt>
</event>
<event>
 4    1  0.2416490E+000  0.5259184E+02  0.7957747E-01  0.1431843E+00
         13   -1    0    0    0    0  0.00000000000E+00  0.00000000000E+00  0.99999944178E+02  0.99999999999E+02  0.10566000000E+00 0.  1.
         22   -1    0    0    0    0 -0.00000000000E+00 -0.00000000000E+00 -0.11954516225E+02  0.11954516225E+02  0.00000000000E+00 0.  1.
         13    1    1    2    0    0  0.16103589700E+02  0.25644134922E+01  0.16942700086E+02  0.23515273080E+02  0.10566000000E+00 0. -1.
        996    1    1    2    0    0 -0.16103589700E+02 -0.25644134922E+01  0.71102727867E+02  0.88439243144E+02  0.50000000000E+02 0.  0.
<mgrwt>
<rscale>  0 0.52591842E+02</rscale>
<asrwt>0</asrwt>
<pdfrwt beam="1">  1       13 0.10000000E+01 0.52591842E+02</pdfrwt>
<pdfrwt beam="2">  1       22 0.11954541E+00 0.52591842E+02</pdfrwt>
<totfact> 0.10826315E+00</totfact>
</mgrwt>
</event>
<event>
 4    1  0.2416490E+000  0.5115617E+02  0.7957747E-01  0.1439203E+00
         13   -1    0    0    0    0  0.00000000000E+00  0.00000000000E+00  0.99999944178E+02  0.99999999999E+02  0.10566000000E+00 0.  1.
         22   -1    0    0    0    0 -0.00000000000E+00 -0.00000000000E+00 -0.14595034120E+02  0.14595034120E+02  0.00000000000E+00 0. -1.
         13    1    1    2    0    0 -0.91767423391E+01  0.57219694752E+01 -0.40478482744E+01  0.11547717278E+02  0.10566000000E+00 0. -1.
        996    1    1    2    0    0  0.91767423391E+01 -0.57219694752E+01  0.89452758333E+02  0.10304731684E+03  0.50000000000E+02 0.  0.
<mgrwt>
<rscale>  0 0.51156168E+02</rscale>
<asrwt>0</asrwt>
<pdfrwt beam="1">  1       13 0.10000000E+01 0.51156168E+02</pdfrwt>
<pdfrwt beam="2">  1       22 0.14595058E+00 0.51156168E+02</pdfrwt>
<totfact> 0.78645098E-01</totfact>
</mgrwt>
</event>
<event>
 4    1  0.2416490E+000  0.5606648E+02  0.7957747E-01  0.1415122E+00
         13   -1    0    0    0    0  0.00000000000E+00  0.00000000000E+00  0.99999944190E+02  0.10000000001E+03  0.10566000000E+00 0. -1.
         22   -1    0    0    0    0 -0.00000000000E+00 -0.00000000000E+00 -0.23066645400E+02  0.23066645400E+02  0.00000000000E+00 0.  1.
         13    1    1    2    0    0 -0.13498638067E+02 -0.21476426049E+02 -0.28793438426E+01  0.25529431849E+02  0.10566000000E+00 0.  1.
        996    1    1    2    0    0  0.13498638067E+02  0.21476426049E+02  0.79812642632E+02  0.97537213562E+02  0.50000000000E+02 0.  0.
<mgrwt>
<rscale>  0 0.56066479E+02</rscale>
<asrwt>0</asrwt>
<pdfrwt beam="1">  1       13 0.10000000E+01 0.56066479E+02</pdfrwt>
<pdfrwt beam="2">  1       22 0.23066667E+00 0.56066479E+02</pdfrwt>
<totfact> 0.34735580E-01</totfact>
</mgrwt>
</event>
<event>
 4    1  0.2416490E+000  0.5163454E+02  0.7957747E-01  0.1436720E+00
         13   -1    0    0    0    0  0.00000000000E+00  0.00000000000E+00  0.99999944181E+02  0.10000000000E+03  0.10566000000E+00 0. -1.
         22   -1    0    0    0    0 -0.00000000000E+00 -0.00000000000E+00 -0.11542357122E+02  0.11542357122E+02  0.00000000000E+00 0. -1.
         13    1    1    2    0    0  0.11561807990E+02 -0.56965417689E+01  0.59189712907E+01  0.14183489602E+02  0.10566000000E+00 0.  1.
        996    1    1    2    0    0 -0.11561807990E+02  0.56965417689E+01  0.82538615768E+02  0.97358867521E+02  0.50000000000E+02 0.  0.
<mgrwt>
<rscale>  0 0.51634543E+02</rscale>
<asrwt>0</asrwt>
<pdfrwt beam="1">  1       13 0.10000000E+01 0.51634543E+02</pdfrwt>
<pdfrwt beam="2">  1       22 0.11542382E+00 0.51634543E+02</pdfrwt>
<totfact> 0.11394643E+00</totfact>
</mgrwt>
</event>
<event>
 4    1  0.2416490E+000  0.5107683E+02  0.7957747E-01  0.1439618E+00
         13   -1    0    0    0    0  0.00000000000E+00  0.00000000000E+00  0.99999944180E+02  0.10000000000E+03  0.10566000000E+00 0. -1.
         22   -1    0    0    0    0 -0.00000000000E+00 -0.00000000000E+00 -0.10277241634E+02  0.10277241634E+02  0.00000000000E+00 0. -1.
         13    1    1    2    0    0 -0.14062278958E+01 -0.10337554542E+02  0.29614537505E+02  0.31398638609E+02  0.10566000000E+00 0.  1.
        996    1    1    2    0    0  0.14062278958E+01  0.10337554542E+02  0.60108165040E+02  0.78878603026E+02  0.50000000000E+02 0.  0.
<mgrwt>
<rscale>  0 0.51076829E+02</rscale>
<asrwt>0</asrwt>
<pdfrwt beam="1">  1       13 0.10000000E+01 0.51076829E+02</pdfrwt>
<pdfrwt beam="2">  1       22 0.10277267E+00 0.51076829E+02</pdfrwt>
<totfact> 0.13518347E+00</totfact>
</mgrwt>
</event>
<event>
 4    1  0.2416490E+000  0.5184252E+02  0.7957747E-01  0.1435650E+00
         13   -1    0    0    0    0  0.00000000000E+00  0.00000000000E+00  0.99999944182E+02  0.10000000000E+03  0.10566000000E+00 0.  1.
         22   -1    0    0    0    0 -0.00000000000E+00 -0.00000000000E+00 -0.44990149188E+02  0.44990149188E+02  0.00000000000E+00 0. -1.
         13    1    1    2    0    0 -0.12396789536E+02  0.58280387512E+01 -0.36958958125E+02  0.39416014210E+02  0.10566000000E+00 0. -1.
        996    1    1    2    0    0  0.12396789536E+02 -0.58280387512E+01  0.91968753119E+02  0.10557413498E+03  0.50000000000E+02 0.  0.
<mgrwt>
<rscale>  0 0.51842516E+02</rscale>
<asrwt>0</asrwt>
<pdfrwt beam="1">  1       13 0.10000000E+01 0.51842516E+02</pdfrwt>
<pdfrwt beam="2">  1       22 0.44990165E+00 0.51842516E+02</pdfrwt>
<totfact> 0.96660726E-02</totfact>
</mgrwt>
</event>
<event>
 4    1  0.2416490E+000  0.5130794E+02  0.7957747E-01  0.1438412E+00
         13   -1    0    0    0    0  0.00000000000E+00  0.00000000000E+00  0.99999944176E+02  0.99999999996E+02  0.10566000000E+00 0.  1.
         22   -1    0    0    0    0 -0.00000000000E+00 -0.00000000000E+00 -0.10328028938E+02  0.10328028938E+02  0.00000000000E+00 0.  1.
         13    1    1    2    0    0 -0.11435169472E+02 -0.13196260906E+01  0.85385292415E+01  0.14332555931E+02  0.10566000000E+00 0. -1.
        996    1    1    2    0    0  0.11435169472E+02  0.13196260906E+01  0.81133385996E+02  0.95995473003E+02  0.50000000000E+02 0.  0.
<mgrwt>
<rscale>  0 0.51307938E+02</rscale>
<asrwt>0</asrwt>
<pdfrwt beam="1">  1       13 0.10000000E+01 0.51307938E+02</pdfrwt>
<pdfrwt beam="2">  1       22 0.10328054E+00 0.51307938E+02</pdfrwt>
<totfact> 0.13428898E+00</totfact>
</mgrwt>
</event>
<event>
 4    1  0.2416490E+000  0.5225126E+02  0.7957747E-01  0.1433564E+00
         13   -1    0    0    0    0  0.00000000000E+00  0.00000000000E+00  0.99999944184E+02  0.10000000000E+03  0.10566000000E+00 0.  1.
         22   -1    0    0    0    0 -0.00000000000E+00 -0.00000000000E+00 -0.12696024189E+02  0.12696024189E+02  0.00000000000E+00 0.  1.
         13    1    1    2    0    0  0.88208361185E-01  0.15171894119E+02  0.65818619750E+01  0.16538628207E+02  0.10566000000E+00 0. -1.
        996    1    1    2    0    0 -0.88208361185E-01 -0.15171894119E+02  0.80722058020E+02  0.96157395986E+02  0.50000000000E+02 0.  0.
<mgrwt>
<rscale>  0 0.52251260E+02</rscale>
<asrwt>0</asrwt>
<pdfrwt beam="1">  1       13 0.10000000E+01 0.52251260E+02</pdfrwt>
<pdfrwt beam="2">  1       22 0.12696049E+00 0.52251260E+02</pdfrwt>
<totfact> 0.98570181E-01</totfact>
</mgrwt>
</event>
<event>
 4    1  0.2416490E+000  0.5674023E+02  0.7957747E-01  0.1412044E+00
         13   -1    0    0    0    0  0.00000000000E+00  0.00000000000E+00  0.99999944186E+02  0.10000000001E+03  0.10566000000E+00 0.  1.
         22   -1    0    0    0    0 -0.00000000000E+00 -0.00000000000E+00 -0.19132118883E+02  0.19132118883E+02  0.00000000000E+00 0.  1.
         13    1    1    2    0    0  0.24880120800E+02 -0.10021624995E+02  0.10662222914E+02  0.28864295246E+02  0.10566000000E+00 0. -1.
        996    1    1    2    0    0 -0.24880120800E+02  0.10021624995E+02  0.70205602388E+02  0.90267823643E+02  0.50000000000E+02 0.  0.
<mgrwt>
<rscale>  0 0.56740227E+02</rscale>
<asrwt>0</asrwt>
<pdfrwt beam="1">  1       13 0.10000000E+01 0.56740227E+02</pdfrwt>
<pdfrwt beam="2">  1       22 0.19132141E+00 0.56740227E+02</pdfrwt>
<totfact> 0.49594283E-01</totfact>
</mgrwt>
</event>
<event>
 4    1  0.2416490E+000  0.5995997E+02  0.7957747E-01  0.1398000E+00
         13   -1    0    0    0    0  0.00000000000E+00  0.00000000000E+00  0.99999944175E+02  0.99999999995E+02  0.10566000000E+00 0. -1.
         22   -1    0    0    0    0 -0.00000000000E+00 -0.00000000000E+00 -0.26816238968E+02  0.26816238968E+02  0.00000000000E+00 0.  1.
         13    1    1    2    0    0 -0.32676142855E+02  0.52409398202E+01  0.11785711546E+01  0.33114920445E+02  0.10566000000E+00 0.  1.
        996    1    1    2    0    0  0.32676142855E+02 -0.52409398202E+01  0.72005134052E+02  0.93701318518E+02  0.50000000000E+02 0.  0.
<mgrwt>
<rscale>  0 0.59959968E+02</rscale>
<asrwt>0</asrwt>
<pdfrwt beam="1">  1       13 0.10000000E+01 0.59959968E+02</pdfrwt>
<pdfrwt beam="2">  1       22 0.26816259E+00 0.59959968E+02</pdfrwt>
<totfact> 0.25965621E-01</totfact>
</mgrwt>
</event>
<event>
 4    1  0.2416490E+000  0.5155973E+02  0.7957747E-01  0.1437106E+00
         13   -1    0    0    0    0  0.00000000000E+00  0.00000000000E+00  0.99999944183E+02  0.10000000000E+03  0.10566000000E+00 0. -1.
         22   -1    0    0    0    0 -0.00000000000E+00 -0.00000000000E+00 -0.18691493353E+02  0.18691493353E+02  0.00000000000E+00 0.  1.
         13    1    1    2    0    0  0.78820900380E+01 -0.98121600605E+01 -0.84629710637E+01  0.15167032395E+02  0.10566000000E+00 0.  1.
        996    1    1    2    0    0 -0.78820900380E+01  0.98121600605E+01  0.89771421893E+02  0.10352446096E+03  0.50000000000E+02 0.  0.
<mgrwt>
<rscale>  0 0.51559731E+02</rscale>
<asrwt>0</asrwt>
<pdfrwt beam="1">  1       13 0.10000000E+01 0.51559731E+02</pdfrwt>
<pdfrwt beam="2">  1       22 0.18691516E+00 0.51559731E+02</pdfrwt>
<totfact> 0.51282042E-01</totfact>
</mgrwt>
</event>
<event>
 4    1  0.2416490E+000  0.5133329E+02  0.7957747E-01  0.1438280E+00
         13   -1    0    0    0    0  0.00000000000E+00  0.00000000000E+00  0.99999944181E+02  0.10000000000E+03  0.10566000000E+00 0. -1.
         22   -1    0    0    0    0 -0.00000000000E+00 -0.00000000000E+00 -0.10023654789E+02  0.10023654789E+02  0.00000000000E+00 0. -1.
         13    1    1    2    0    0  0.11042938105E+02 -0.36276494289E+01  0.12354792775E+02  0.16963442779E+02  0.10566000000E+00 0.  1.
        996    1    1    2    0    0 -0.11042938105E+02  0.36276494289E+01  0.77621496618E+02  0.93060212011E+02  0.50000000000E+02 0.  0.
<mgrwt>
<rscale>  0 0.51333287E+02</rscale>
<asrwt>0</asrwt>
<pdfrwt beam="1">  1       13 0.10000000E+01 0.51333287E+02</pdfrwt>
<pdfrwt beam="2">  1       22 0.10023680E+00 0.51333287E+02</pdfrwt>
<totfact> 0.14027078E+00</totfact>
</mgrwt>
</event>
<event>
 4    1  0.2416490E+000  0.5438414E+02  0.7957747E-01  0.1423034E+00
         13   -1    0    0    0    0  0.00000000000E+00  0.00000000000E+00  0.99999944186E+02  0.10000000001E+03  0.10566000000E+00 0.  1.
         22   -1    0    0    0    0 -0.00000000000E+00 -0.00000000000E+00 -0.19239764792E+02  0.19239764792E+02  0.00000000000E+00 0.  1.
         13    1    1    2    0    0 -0.28973535977E+01 -0.21195281983E+02  0.55097553741E+02  0.59104874829E+02  0.10566000000E+00 0. -1.
        996    1    1    2    0    0  0.28973535977E+01  0.21195281983E+02  0.25662625653E+02  0.60134889969E+02  0.50000000000E+02 0.  0.
<mgrwt>
<rscale>  0 0.54384140E+02</rscale>
<asrwt>0</asrwt>
<pdfrwt beam="1">  1       13 0.10000000E+01 0.54384140E+02</pdfrwt>
<pdfrwt beam="2">  1       22 0.19239787E+00 0.54384140E+02</pdfrwt>
<totfact> 0.48887907E-01</totfact>
</mgrwt>
</event>
<event>
 4    1  0.2416490E+000  0.6393942E+02  0.7957747E-01  0.1382006E+00
         13   -1    0    0    0    0  0.00000000000E+00  0.00000000000E+00  0.99999944175E+02  0.99999999995E+02  0.10566000000E+00 0. -1.
         22   -1    0    0    0    0 -0.00000000000E+00 -0.00000000000E+00 -0.28567433481E+02  0.28567433481E+02  0.00000000000E+00 0.  1.
         13    1    1    2    0    0  0.20580132860E+02  0.34127812295E+02  0.12917550977E+02  0.41894196828E+02  0.10566000000E+00 0.  1.
        996    1    1    2    0    0 -0.20580132860E+02 -0.34127812295E+02  0.58514959717E+02  0.86673236649E+02  0.50000000000E+02 0.  0.
<mgrwt>
<rscale>  0 0.63939420E+02</rscale>
<asrwt>0</asrwt>
<pdfrwt beam="1">  1       13 0.10000000E+01 0.63939420E+02</pdfrwt>
<pdfrwt beam="2">  1       22 0.28567453E+00 0.63939420E+02</pdfrwt>
<totfact> 0.23055925E-01</totfact>
</mgrwt>
</event>
<event>
 4    1  0.2416490E+000  0.5131914E+02  0.7957747E-01  0.1438354E+00
         13   -1    0    0    0    0  0.00000000000E+00  0.00000000000E+00  0.99999944182E+02  0.10000000000E+03  0.10566000000E+00 0. -1.
         22   -1    0    0    0    0 -0.00000000000E+00 -0.00000000000E+00 -0.12462372830E+02  0.12462372830E+02  0.00000000000E+00 0. -1.
         13    1    1    2    0    0 -0.51330869638E+01  0.10358843223E+02  0.68563680165E+00  0.11581687120E+02  0.10566000000E+00 0.  1.
        996    1    1    2    0    0  0.51330869638E+01 -0.10358843223E+02  0.86851934550E+02  0.10088068571E+03  0.50000000000E+02 0.  0.
<mgrwt>
<rscale>  0 0.51319141E+02</rscale>
<asrwt>0</asrwt>
<pdfrwt beam="1">  1       13 0.10000000E+01 0.51319141E+02</pdfrwt>
<pdfrwt beam="2">  1       22 0.12462397E+00 0.51319141E+02</pdfrwt>
<totfact> 0.10125409E+00</totfact>
</mgrwt>
</event>
<event>
 4    1  0.2416490E+000  0.5325391E+02  0.7957747E-01  0.1428541E+00
         13   -1    0    0    0    0  0.00000000000E+00  0.00000000000E+00  0.99999944185E+02  0.10000000001E+03  0.10566000000E+00 0.  1.
         22   -1    0    0    0    0 -0.00000000000E+00 -0.00000000000E+00 -0.16382608956E+02  0.16382608956E+02  0.00000000000E+00 0.  1.
         13    1    1    2    0    0 -0.17640736650E+02 -0.49782662856E+01  0.13454567934E+01  0.18379340107E+02  0.10566000000E+00 0. -1.
        996    1    1    2    0    0  0.17640736650E+02  0.49782662856E+01  0.82271878436E+02  0.98003268854E+02  0.50000000000E+02 0.  0.
<mgrwt>
<rscale>  0 0.53253908E+02</rscale>
<asrwt>0</asrwt>
<pdfrwt beam="1">  1       13 0.10000000E+01 0.53253908E+02</pdfrwt>
<pdfrwt beam="2">  1       22 0.16382632E+00 0.53253908E+02</pdfrwt>
<totfact> 0.64996754E-01</totfact>
</mgrwt>
</event>
<event>
 4    1  0.2416490E+000  0.5651257E+02  0.7957747E-01  0.1413078E+00
         13   -1    0    0    0    0  0.00000000000E+00  0.00000000000E+00  0.99999944181E+02  0.10000000000E+03  0.10566000000E+00 0.  1.
         22   -1    0    0    0    0 -0.00000000000E+00 -0.00000000000E+00 -0.25255289744E+02  0.25255289744E+02  0.00000000000E+00 0. -1.
         13    1    1    2    0    0 -0.25991371174E+02 -0.42566436366E+01 -0.56970110805E+01  0.26946938413E+02  0.10566000000E+00 0. -1.
        996    1    1    2    0    0  0.25991371174E+02  0.42566436366E+01  0.80441665517E+02  0.98308351333E+02  0.50000000000E+02 0.  0.
<mgrwt>
<rscale>  0 0.56512568E+02</rscale>
<asrwt>0</asrwt>
<pdfrwt beam="1">  1       13 0.10000000E+01 0.56512568E+02</pdfrwt>
<pdfrwt beam="2">  1       22 0.25255311E+00 0.56512568E+02</pdfrwt>
<totfact> 0.29090776E-01</totfact>
</mgrwt>
</event>
<event>
 4    1  0.2416490E+000  0.5148368E+02  0.7957747E-01  0.1437499E+00
         13   -1    0    0    0    0  0.00000000000E+00  0.00000000000E+00  0.99999944174E+02  0.99999999995E+02  0.10566000000E+00 0. -1.
         22   -1    0    0    0    0 -0.00000000000E+00 -0.00000000000E+00 -0.11408178538E+02  0.11408178538E+02  0.00000000000E+00 0. -1.
         13    1    1    2    0    0 -0.62643449632E+01 -0.10551197438E+02  0.35021732810E+02  0.37109334651E+02  0.10566000000E+00 0.  1.
        996    1    1    2    0    0  0.62643449632E+01  0.10551197438E+02  0.53570032826E+02  0.74298843882E+02  0.50000000000E+02 0.  0.
<mgrwt>
<rscale>  0 0.51483685E+02</rscale>
<asrwt>0</asrwt>
<pdfrwt beam="1">  1       13 0.10000000E+01 0.51483685E+02</pdfrwt>
<pdfrwt beam="2">  1       22 0.11408203E+00 0.51483685E+02</pdfrwt>
<totfact> 0.11593206E+00</totfact>
</mgrwt>
</event>
<event>
 4    1  0.2416490E+000  0.5124033E+02  0.7957747E-01  0.1438764E+00
         13   -1    0    0    0    0  0.00000000000E+00  0.00000000000E+00  0.99999944170E+02  0.99999999990E+02  0.10566000000E+00 0. -1.
         22   -1    0    0    0    0 -0.00000000000E+00 -0.00000000000E+00 -0.22090717543E+02  0.22090717543E+02  0.00000000000E+00 0.  1.
         13    1    1    2    0    0 -0.98160962953E+01  0.54051471061E+01 -0.13350137769E+02  0.17430109128E+02  0.10566000000E+00 0.  1.
        996    1    1    2    0    0  0.98160962953E+01 -0.54051471061E+01  0.91259364396E+02  0.10466060840E+03  0.50000000000E+02 0.  0.
<mgrwt>
<rscale>  0 0.51240329E+02</rscale>
<asrwt>0</asrwt>
<pdfrwt beam="1">  1       13 0.10000000E+01 0.51240329E+02</pdfrwt>
<pdfrwt beam="2">  1       22 0.22090739E+00 0.51240329E+02</pdfrwt>
<totfact> 0.37473979E-01</totfact>
</mgrwt>
</event>
<event>
 4    1  0.2416490E+000  0.6161822E+02  0.7957747E-01  0.1391164E+00
         13   -1    0    0    0    0  0.00000000000E+00  0.00000000000E+00  0.99999944174E+02  0.99999999994E+02  0.10566000000E+00 0. -1.
         22   -1    0    0    0    0 -0.00000000000E+00 -0.00000000000E+00 -0.23883679481E+02  0.23883679481E+02  0.00000000000E+00 0. -1.
         13    1    1    2    0    0  0.17613290800E+02 -0.31409826479E+02  0.25233599768E+02  0.43972160893E+02  0.10566000000E+00 0.  1.
        996    1    1    2    0    0 -0.17613290800E+02  0.31409826479E+02  0.50882664925E+02  0.79911518583E+02  0.50000000000E+02 0.  0.
<mgrwt>
<rscale>  0 0.61618221E+02</rscale>
<asrwt>0</asrwt>
<pdfrwt beam="1">  1       13 0.10000000E+01 0.61618221E+02</pdfrwt>
<pdfrwt beam="2">  1       22 0.23883701E+00 0.61618221E+02</pdfrwt>
<totfact> 0.32706462E-01</totfact>
</mgrwt>
</event>
<event>
 4    1  0.2416490E+000  0.6268086E+02  0.7957747E-01  0.1386914E+00
         13   -1    0    0    0    0  0.00000000000E+00  0.00000000000E+00  0.99999944187E+02  0.10000000001E+03  0.10566000000E+00 0.  1.
         22   -1    0    0    0    0 -0.00000000000E+00 -0.00000000000E+00 -0.27913231363E+02  0.27913231363E+02  0.00000000000E+00 0. -1.
         13    1    1    2    0    0  0.15736531457E+02  0.34369336449E+02  0.87420766094E+01  0.38798515148E+02  0.10566000000E+00 0. -1.
        996    1    1    2    0    0 -0.15736531457E+02 -0.34369336449E+02  0.63344636214E+02  0.89114716222E+02  0.50000000000E+02 0.  0.
<mgrwt>
<rscale>  0 0.62680856E+02</rscale>
<asrwt>0</asrwt>
<pdfrwt beam="1">  1       13 0.10000000E+01 0.62680856E+02</pdfrwt>
<pdfrwt beam="2">  1       22 0.27913251E+00 0.62680856E+02</pdfrwt>
<totfact> 0.24082934E-01</totfact>
</mgrwt>
</event>
<event>
 4    1  0.2416490E+000  0.5363413E+02  0.7957747E-01  0.1426671E+00
         13   -1    0    0    0    0  0.00000000000E+00  0.00000000000E+00  0.99999944177E+02  0.99999999998E+02  0.10566000000E+00 0.  1.
         22   -1    0    0    0    0 -0.00000000000E+00 -0.00000000000E+00 -0.13697635216E+02  0.13697635216E+02  0.00000000000E+00 0. -1.
         13    1    1    2    0    0 -0.14989974575E+02 -0.12325585418E+02  0.15288680546E+02  0.24705754603E+02  0.10566000000E+00 0. -1.
        996    1    1    2    0    0  0.14989974575E+02  0.12325585418E+02  0.71013628416E+02  0.88991880610E+02  0.50000000000E+02 0.  0.
<mgrwt>
<rscale>  0 0.53634125E+02</rscale>
<asrwt>0</asrwt>
<pdfrwt beam="1">  1       13 0.10000000E+01 0.53634125E+02</pdfrwt>
<pdfrwt beam="2">  1       22 0.13697659E+00 0.53634125E+02</pdfrwt>
<totfact> 0.87650223E-01</totfact>
</mgrwt>
</event>
<event>
 4    1  0.2416490E+000  0.5616553E+02  0.7957747E-01  0.1414666E+00
         13   -1    0    0    0    0  0.00000000000E+00  0.00000000000E+00  0.99999944182E+02  0.10000000000E+03  0.10566000000E+00 0. -1.
         22   -1    0    0    0    0 -0.00000000000E+00 -0.00000000000E+00 -0.21370760873E+02  0.21370760873E+02  0.00000000000E+00 0.  1.
         13    1    1    2    0    0  0.12403808394E+02 -0.22376612842E+02  0.10653413148E+01  0.25606901044E+02  0.10566000000E+00 0.  1.
        996    1    1    2    0    0 -0.12403808394E+02  0.22376612842E+02  0.77563841994E+02  0.95763859831E+02  0.50000000000E+02 0.  0.
<mgrwt>
<rscale>  0 0.56165534E+02</rscale>
<asrwt>0</asrwt>
<pdfrwt beam="1">  1       13 0.10000000E+01 0.56165534E+02</pdfrwt>
<pdfrwt beam="2">  1       22 0.21370783E+00 0.56165534E+02</pdfrwt>
<totfact> 0.40259836E-01</totfact>
</mgrwt>
</event>
<event>
 4    1  0.2416490E+000  0.5299025E+02  0.7957747E-01  0.1429849E+00
         13   -1    0    0    0    0  0.00000000000E+00  0.00000000000E+00  0.99999944185E+02  0.10000000001E+03  0.10566000000E+00 0.  1.
         22   -1    0    0    0    0 -0.00000000000E+00 -0.00000000000E+00 -0.12517486562E+02  0.12517486562E+02  0.00000000000E+00 0.  1.
         13    1    1    2    0    0 -0.78428140691E+01 -0.15698953511E+02  0.25743585741E+02  0.31156223210E+02  0.10566000000E+00 0. -1.
        996    1    1    2    0    0  0.78428140691E+01  0.15698953511E+02  0.61738871882E+02  0.81361263357E+02  0.50000000000E+02 0.  0.
<mgrwt>
<rscale>  0 0.52990253E+02</rscale>
<asrwt>0</asrwt>
<pdfrwt beam="1">  1       13 0.10000000E+01 0.52990253E+02</pdfrwt>
<pdfrwt beam="2">  1       22 0.12517511E+00 0.52990253E+02</pdfrwt>
<totfact> 0.10093170E+00</totfact>
</mgrwt>
</event>
<event>
 4    1  0.2416490E+000  0.7155712E+02  0.7957747E-01  0.1354877E+00
         13   -1    0    0    0    0  0.00000000000E+00  0.00000000000E+00  0.99999944175E+02  0.99999999995E+02  0.10566000000E+00 0. -1.
         22   -1    0    0    0    0 -0.00000000000E+00 -0.00000000000E+00 -0.39672080972E+02  0.39672080972E+02  0.00000000000E+00 0.  1.
         13    1    1    2    0    0 -0.42597737979E+02  0.28387565745E+02  0.99191654817E+01  0.52142326164E+02  0.10566000000E+00 0.  1.
        996    1    1    2    0    0  0.42597737979E+02 -0.28387565745E+02  0.50408697721E+02  0.87529754803E+02  0.50000000000E+02 0.  0.
<mgrwt>
<rscale>  0 0.71557118E+02</rscale>
<asrwt>0</asrwt>
<pdfrwt beam="1">  1       13 0.10000000E+01 0.71557118E+02</pdfrwt>
<pdfrwt beam="2">  1       22 0.39672098E+00 0.71557118E+02</pdfrwt>
<totfact> 0.12728856E-01</totfact>
</mgrwt>
</event>
<event>
 4    1  0.2416490E+000  0.5251444E+02  0.7957747E-01  0.1432233E+00
         13   -1    0    0    0    0  0.00000000000E+00  0.00000000000E+00  0.99999944183E+02  0.10000000000E+03  0.10566000000E+00 0.  1.
         22   -1    0    0    0    0 -0.00000000000E+00 -0.00000000000E+00 -0.50168931616E+02  0.50168931616E+02  0.00000000000E+00 0. -1.
         13    1    1    2    0    0  0.16004024356E+02 -0.12796581028E+01 -0.41677259691E+02  0.44662864438E+02  0.10566000000E+00 0. -1.
        996    1    1    2    0    0 -0.16004024356E+02  0.12796581028E+01  0.91508272258E+02  0.10550606718E+03  0.50000000000E+02 0.  0.
<mgrwt>
<rscale>  0 0.52514439E+02</rscale>
<asrwt>0</asrwt>
<pdfrwt beam="1">  1       13 0.10000000E+01 0.52514439E+02</pdfrwt>
<pdfrwt beam="2">  1       22 0.50168946E+00 0.52514439E+02</pdfrwt>
<totfact> 0.72950466E-02</totfact>
</mgrwt>
</event>
<event>
 4    1  0.2416490E+000  0.5123546E+02  0.7957747E-01  0.1438789E+00
         13   -1    0    0    0    0  0.00000000000E+00  0.00000000000E+00  0.99999944179E+02  0.99999999999E+02  0.10566000000E+00 0.  1.
         22   -1    0    0    0    0 -0.00000000000E+00 -0.00000000000E+00 -0.24982797377E+02  0.24982797377E+02  0.00000000000E+00 0. -1.
         13    1    1    2    0    0  0.87560543539E+01  0.69573045361E+01 -0.16597862306E+02  0.20014314163E+02  0.10566000000E+00 0. -1.
        996    1    1    2    0    0 -0.87560543539E+01 -0.69573045361E+01  0.91615009108E+02  0.10496848321E+03  0.50000000000E+02 0.  0.
<mgrwt>
<rscale>  0 0.51235462E+02</rscale>
<asrwt>0</asrwt>
<pdfrwt beam="1">  1       13 0.10000000E+01 0.51235462E+02</pdfrwt>
<pdfrwt beam="2">  1       22 0.24982818E+00 0.51235462E+02</pdfrwt>
<totfact> 0.29483559E-01</totfact>
</mgrwt>
</event>
<event>
 4    1  0.2416490E+000  0.5173606E+02  0.7957747E-01  0.1436196E+00
         13   -1    0    0    0    0  0.00000000000E+00  0.00000000000E+00  0.99999944195E+02  0.10000000001E+03  0.10566000000E+00 0. -1.
         22   -1    0    0    0    0 -0.00000000000E+00 -0.00000000000E+00 -0.67123088846E+02  0.67123088846E+02  0.00000000000E+00 0.  1.
         13    1    1    2    0    0  0.10723536708E+02 -0.78502234930E+01 -0.59650963117E+02  0.61113573069E+02  0.10566000000E+00 0.  1.
        996    1    1    2    0    0 -0.10723536708E+02  0.78502234930E+01  0.92527818466E+02  0.10600951579E+03  0.50000000000E+02 0.  0.
<mgrwt>
<rscale>  0 0.51736063E+02</rscale>
<asrwt>0</asrwt>
<pdfrwt beam="1">  1       13 0.10000000E+01 0.51736063E+02</pdfrwt>
<pdfrwt beam="2">  1       22 0.67123098E+00 0.51736063E+02</pdfrwt>
<totfact> 0.86010273E-02</totfact>
</mgrwt>
</event>
<event>
 4    1  0.2416490E+000  0.5336639E+02  0.7957747E-01  0.1427986E+00
         13   -1    0    0    0    0  0.00000000000E+00  0.00000000000E+00  0.99999944175E+02  0.99999999995E+02  0.10566000000E+00 0.  1.
         22   -1    0    0    0    0 -0.00000000000E+00 -0.00000000000E+00 -0.14262501105E+02  0.14262501105E+02  0.00000000000E+00 0. -1.
         13    1    1    2    0    0 -0.16798685550E+02  0.81102560390E+01  0.87933619356E+01  0.20622959714E+02  0.10566000000E+00 0. -1.
        996    1    1    2    0    0  0.16798685550E+02 -0.81102560390E+01  0.76944081134E+02  0.93639541385E+02  0.50000000000E+02 0.  0.
<mgrwt>
<rscale>  0 0.53366395E+02</rscale>
<asrwt>0</asrwt>
<pdfrwt beam="1">  1       13 0.10000000E+01 0.53366395E+02</pdfrwt>
<pdfrwt beam="2">  1       22 0.14262525E+00 0.53366395E+02</pdfrwt>
<totfact> 0.82048162E-01</totfact>
</mgrwt>
</event>
<event>
 4    1  0.2416490E+000  0.5230316E+02  0.7957747E-01  0.1433301E+00
         13   -1    0    0    0    0  0.00000000000E+00  0.00000000000E+00  0.99999944173E+02  0.99999999993E+02  0.10566000000E+00 0.  1.
         22   -1    0    0    0    0 -0.00000000000E+00 -0.00000000000E+00 -0.11442663777E+02  0.11442663777E+02  0.00000000000E+00 0.  1.
         13    1    1    2    0    0  0.14404354246E+02 -0.53042684992E+01  0.20293638042E+02  0.25445305944E+02  0.10566000000E+00 0. -1.
        996    1    1    2    0    0 -0.14404354246E+02  0.53042684992E+01  0.68263642354E+02  0.85997357826E+02  0.50000000000E+02 0.  0.
<mgrwt>
<rscale>  0 0.52303161E+02</rscale>
<asrwt>0</asrwt>
<pdfrwt beam="1">  1       13 0.10000000E+01 0.52303161E+02</pdfrwt>
<pdfrwt beam="2">  1       22 0.11442688E+00 0.52303161E+02</pdfrwt>
<totfact> 0.11562262E+00</totfact>
</mgrwt>
</event>
<event>
 4    1  0.2416490E+000  0.5243433E+02  0.7957747E-01  0.1432637E+00
         13   -1    0    0    0    0  0.00000000000E+00  0.00000000000E+00  0.99999944182E+02  0.10000000000E+03  0.10566000000E+00 0. -1.
         22   -1    0    0    0    0 -0.00000000000E+00 -0.00000000000E+00 -0.12045303500E+02  0.12045303500E+02  0.00000000000E+00 0. -1.
         13    1    1    2    0    0  0.83846653475E+01  0.13381195262E+02  0.12397241739E+02  0.20076398243E+02  0.10566000000E+00 0.  1.
        996    1    1    2    0    0 -0.83846653475E+01 -0.13381195262E+02  0.75557398943E+02  0.91968905260E+02  0.50000000000E+02 0.  0.
<mgrwt>
<rscale>  0 0.52434330E+02</rscale>
<asrwt>0</asrwt>
<pdfrwt beam="1">  1       13 0.10000000E+01 0.52434330E+02</pdfrwt>
<pdfrwt beam="2">  1       22 0.12045328E+00 0.52434330E+02</pdfrwt>
<totfact> 0.10697806E+00</totfact>
</mgrwt>
</event>
<event>
 4    1  0.2416490E+000  0.5210395E+02  0.7957747E-01  0.1434313E+00
         13   -1    0    0    0    0  0.00000000000E+00  0.00000000000E+00  0.99999944174E+02  0.99999999994E+02  0.10566000000E+00 0.  1.
         22   -1    0    0    0    0 -0.00000000000E+00 -0.00000000000E+00 -0.11328808395E+02  0.11328808395E+02  0.00000000000E+00 0.  1.
         13    1    1    2    0    0 -0.93807059057E+01  0.11261601014E+02  0.13945652045E+02  0.20231502062E+02  0.10566000000E+00 0. -1.
        996    1    1    2    0    0  0.93807059057E+01 -0.11261601014E+02  0.74725483735E+02  0.91097306327E+02  0.50000000000E+02 0.  0.
<mgrwt>
<rscale>  0 0.52103947E+02</rscale>
<asrwt>0</asrwt>
<pdfrwt beam="1">  1       13 0.10000000E+01 0.52103947E+02</pdfrwt>
<pdfrwt beam="2">  1       22 0.11328833E+00 0.52103947E+02</pdfrwt>
<totfact> 0.11732148E+00</totfact>
</mgrwt>
</event>
<event>
 4    1  0.2416490E+000  0.5120094E+02  0.7957747E-01  0.1438970E+00
         13   -1    0    0    0    0  0.00000000000E+00  0.00000000000E+00  0.99999944181E+02  0.10000000000E+03  0.10566000000E+00 0.  1.
         22   -1    0    0    0    0 -0.00000000000E+00 -0.00000000000E+00 -0.10354787007E+02  0.10354787007E+02  0.00000000000E+00 0.  1.
         13    1    1    2    0    0 -0.11024026716E+02 -0.85286622726E-01  0.67654928119E+01  0.12935203743E+02  0.10566000000E+00 0. -1.
        996    1    1    2    0    0  0.11024026716E+02  0.85286622726E-01  0.82879664362E+02  0.97419583266E+02  0.50000000000E+02 0.  0.
<mgrwt>
<rscale>  0 0.51200942E+02</rscale>
<asrwt>0</asrwt>
<pdfrwt beam="1">  1       13 0.10000000E+01 0.51200942E+02</pdfrwt>
<pdfrwt beam="2">  1       22 0.10354812E+00 0.51200942E+02</pdfrwt>
<totfact> 0.13374783E+00</totfact>
</mgrwt>
</event>
<event>
 4    1  0.2416490E+000  0.5162943E+02  0.7957747E-01  0.1436746E+00
         13   -1    0    0    0    0  0.00000000000E+00  0.00000000000E+00  0.99999944181E+02  0.10000000000E+03  0.10566000000E+00 0. -1.
         22   -1    0    0    0    0 -0.00000000000E+00 -0.00000000000E+00 -0.20021726625E+02  0.20021726625E+02  0.00000000000E+00 0.  1.
         13    1    1    2    0    0 -0.30535950983E+01 -0.12500954772E+02 -0.99903354958E+01  0.16291601536E+02  0.10566000000E+00 0.  1.
        996    1    1    2    0    0  0.30535950983E+01  0.12500954772E+02  0.89968553052E+02  0.10373012509E+03  0.50000000000E+02 0.  0.
<mgrwt>
<rscale>  0 0.51629433E+02</rscale>
<asrwt>0</asrwt>
<pdfrwt beam="1">  1       13 0.10000000E+01 0.51629433E+02</pdfrwt>
<pdfrwt beam="2">  1       22 0.20021749E+00 0.51629433E+02</pdfrwt>
<totfact> 0.45186008E-01</totfact>
</mgrwt>
</event>
<event>
 4    1  0.2416490E+000  0.5228342E+02  0.7957747E-01  0.1433401E+00
         13   -1    0    0    0    0  0.00000000000E+00  0.00000000000E+00  0.99999944182E+02  0.10000000000E+03  0.10566000000E+00 0.  1.
         22   -1    0    0    0    0 -0.00000000000E+00 -0.00000000000E+00 -0.12329181110E+02  0.12329181110E+02  0.00000000000E+00 0.  1.
         13    1    1    2    0    0  0.36087839019E+01 -0.14850338062E+02  0.34627119164E+02  0.37849760996E+02  0.10566000000E+00 0. -1.
        996    1    1    2    0    0 -0.36087839019E+01  0.14850338062E+02  0.53043643908E+02  0.74479420116E+02  0.50000000000E+02 0.  0.
<mgrwt>
<rscale>  0 0.52283419E+02</rscale>
<asrwt>0</asrwt>
<pdfrwt beam="1">  1       13 0.10000000E+01 0.52283419E+02</pdfrwt>
<pdfrwt beam="2">  1       22 0.12329206E+00 0.52283419E+02</pdfrwt>
<totfact> 0.10317351E+00</totfact>
</mgrwt>
</event>
<event>
 4    1  0.2416490E+000  0.5207659E+02  0.7957747E-01  0.1434452E+00
         13   -1    0    0    0    0  0.00000000000E+00  0.00000000000E+00  0.99999944182E+02  0.10000000000E+03  0.10566000000E+00 0. -1.
         22   -1    0    0    0    0 -0.00000000000E+00 -0.00000000000E+00 -0.31418405787E+02  0.31418405787E+02  0.00000000000E+00 0.  1.
         13    1    1    2    0    0  0.12257593864E+01 -0.14507547476E+02 -0.22324432745E+02  0.26652633665E+02  0.10566000000E+00 0.  1.
        996    1    1    2    0    0 -0.12257593864E+01  0.14507547476E+02  0.90905971140E+02  0.10476577212E+03  0.50000000000E+02 0.  0.
<mgrwt>
<rscale>  0 0.52076592E+02</rscale>
<asrwt>0</asrwt>
<pdfrwt beam="1">  1       13 0.10000000E+01 0.52076592E+02</pdfrwt>
<pdfrwt beam="2">  1       22 0.31418425E+00 0.52076592E+02</pdfrwt>
<totfact> 0.19018345E-01</totfact>
</mgrwt>
</event>
<event>
 4    1  0.2416490E+000  0.5451016E+02  0.7957747E-01  0.1422430E+00
         13   -1    0    0    0    0  0.00000000000E+00  0.00000000000E+00  0.99999944178E+02  0.99999999998E+02  0.10566000000E+00 0.  1.
         22   -1    0    0    0    0 -0.00000000000E+00 -0.00000000000E+00 -0.19362316339E+02  0.19362316339E+02  0.00000000000E+00 0. -1.
         13    1    1    2    0    0 -0.21654654130E+02 -0.15601180878E+01 -0.37944803637E+00  0.21714353750E+02  0.10566000000E+00 0. -1.
        996    1    1    2    0    0  0.21654654130E+02  0.15601180878E+01  0.81017075875E+02  0.97647962586E+02  0.50000000000E+02 0.  0.
<mgrwt>
<rscale>  0 0.54510164E+02</rscale>
<asrwt>0</asrwt>
<pdfrwt beam="1">  1       13 0.10000000E+01 0.54510164E+02</pdfrwt>
<pdfrwt beam="2">  1       22 0.19362339E+00 0.54510164E+02</pdfrwt>
<totfact> 0.48329537E-01</totfact>
</mgrwt>
</event>
<event>
 4    1  0.2416490E+000  0.5600993E+02  0.7957747E-01  0.1415382E+00
         13   -1    0    0    0    0  0.00000000000E+00  0.00000000000E+00  0.99999944181E+02  0.10000000000E+03  0.10566000000E+00 0. -1.
         22   -1    0    0    0    0 -0.00000000000E+00 -0.00000000000E+00 -0.17082670108E+02  0.17082670108E+02  0.00000000000E+00 0.  1.
         13    1    1    2    0    0  0.25151076690E+02 -0.21298161543E+01  0.16293358183E+02  0.30043259817E+02  0.10566000000E+00 0.  1.
        996    1    1    2    0    0 -0.25151076690E+02  0.21298161543E+01  0.66623915891E+02  0.87039410293E+02  0.50000000000E+02 0.  0.
<mgrwt>
<rscale>  0 0.56009935E+02</rscale>
<asrwt>0</asrwt>
<pdfrwt beam="1">  1       13 0.10000000E+01 0.56009935E+02</pdfrwt>
<pdfrwt beam="2">  1       22 0.17082693E+00 0.56009935E+02</pdfrwt>
<totfact> 0.60733798E-01</totfact>
</mgrwt>
</event>
<event>
 4    1  0.2416490E+000  0.5410808E+02  0.7957747E-01  0.1424365E+00
         13   -1    0    0    0    0  0.00000000000E+00  0.00000000000E+00  0.99999944180E+02  0.10000000000E+03  0.10566000000E+00 0.  1.
         22   -1    0    0    0    0 -0.00000000000E+00 -0.00000000000E+00 -0.13999217723E+02  0.13999217723E+02  0.00000000000E+00 0. -1.
         13    1    1    2    0    0  0.26098732707E+01 -0.20515186160E+02  0.22089552074E+02  0.30259606351E+02  0.10566000000E+00 0. -1.
        996    1    1    2    0    0 -0.26098732707E+01  0.20515186160E+02  0.63911174384E+02  0.83739611372E+02  0.50000000000E+02 0.  0.
<mgrwt>
<rscale>  0 0.54108080E+02</rscale>
<asrwt>0</asrwt>
<pdfrwt beam="1">  1       13 0.10000000E+01 0.54108080E+02</pdfrwt>
<pdfrwt beam="2">  1       22 0.13999242E+00 0.54108080E+02</pdfrwt>
<totfact> 0.84701756E-01</totfact>
</mgrwt>
</event>
<event>
 4    1  0.2416490E+000  0.5148083E+02  0.7957747E-01  0.1437514E+00
         13   -1    0    0    0    0  0.00000000000E+00  0.00000000000E+00  0.99999944184E+02  0.10000000000E+03  0.10566000000E+00 0. -1.
         22   -1    0    0    0    0 -0.00000000000E+00 -0.00000000000E+00 -0.10516051423E+02  0.10516051423E+02  0.00000000000E+00 0. -1.
         13    1    1    2    0    0 -0.97848722691E+01  0.73845777990E+01  0.26283228336E+02  0.29001637374E+02  0.10566000000E+00 0.  1.
        996    1    1    2    0    0  0.97848722691E+01 -0.73845777990E+01  0.63200664425E+02  0.81514414053E+02  0.50000000000E+02 0.  0.
<mgrwt>
<rscale>  0 0.51480829E+02</rscale>
<asrwt>0</asrwt>
<pdfrwt beam="1">  1       13 0.10000000E+01 0.51480829E+02</pdfrwt>
<pdfrwt beam="2">  1       22 0.10516076E+00 0.51480829E+02</pdfrwt>
<totfact> 0.13084132E+00</totfact>
</mgrwt>
</event>
<event>
 4    1  0.2416490E+000  0.5263322E+02  0.7957747E-01  0.1431635E+00
         13   -1    0    0    0    0  0.00000000000E+00  0.00000000000E+00  0.99999944179E+02  0.99999999999E+02  0.10566000000E+00 0.  1.
         22   -1    0    0    0    0 -0.00000000000E+00 -0.00000000000E+00 -0.11979938908E+02  0.11979938908E+02  0.00000000000E+00 0. -1.
         13    1    1    2    0    0 -0.16288215826E+02 -0.22247468381E+01  0.17897502669E+02  0.24302000722E+02  0.10566000000E+00 0. -1.
        996    1    1    2    0    0  0.16288215826E+02  0.22247468381E+01  0.70122502602E+02  0.87677938185E+02  0.50000000000E+02 0.  0.
<mgrwt>
<rscale>  0 0.52633216E+02</rscale>
<asrwt>0</asrwt>
<pdfrwt beam="1">  1       13 0.10000000E+01 0.52633216E+02</pdfrwt>
<pdfrwt beam="2">  1       22 0.11979963E+00 0.52633216E+02</pdfrwt>
<totfact> 0.10792148E+00</totfact>
</mgrwt>
</event>
<event>
 4    1  0.2416490E+000  0.5145748E+02  0.7957747E-01  0.1437635E+00
         13   -1    0    0    0    0  0.00000000000E+00  0.00000000000E+00  0.99999944180E+02  0.10000000000E+03  0.10566000000E+00 0.  1.
         22   -1    0    0    0    0 -0.00000000000E+00 -0.00000000000E+00 -0.12136392230E+02  0.12136392230E+02  0.00000000000E+00 0. -1.
         13    1    1    2    0    0 -0.10700792547E+02  0.57762985880E+01  0.24273208887E+01  0.12400630518E+02  0.10566000000E+00 0. -1.
        996    1    1    2    0    0  0.10700792547E+02 -0.57762985880E+01  0.85436231061E+02  0.99735761713E+02  0.50000000000E+02 0.  0.
<mgrwt>
<rscale>  0 0.51457483E+02</rscale>
<asrwt>0</asrwt>
<pdfrwt beam="1">  1       13 0.10000000E+01 0.51457483E+02</pdfrwt>
<pdfrwt beam="2">  1       22 0.12136417E+00 0.51457483E+02</pdfrwt>
<totfact> 0.10551729E+00</totfact>
</mgrwt>
</event>
<event>
 4    1  0.2416490E+000  0.5203653E+02  0.7957747E-01  0.1434657E+00
         13   -1    0    0    0    0  0.00000000000E+00  0.00000000000E+00  0.99999944170E+02  0.99999999990E+02  0.10566000000E+00 0.  1.
         22   -1    0    0    0    0 -0.00000000000E+00 -0.00000000000E+00 -0.54054477782E+02  0.54054477782E+02  0.00000000000E+00 0. -1.
         13    1    1    2    0    0  0.10898585735E+02  0.94351032690E+01 -0.46109206659E+02  0.48310148494E+02  0.10566000000E+00 0. -1.
        996    1    1    2    0    0 -0.10898585735E+02 -0.94351032690E+01  0.92054673047E+02  0.10574432928E+03  0.50000000000E+02 0.  0.
<mgrwt>
<rscale>  0 0.52036529E+02</rscale>
<asrwt>0</asrwt>
<pdfrwt beam="1">  1       13 0.10000000E+01 0.52036529E+02</pdfrwt>
<pdfrwt beam="2">  1       22 0.54054491E+00 0.52036529E+02</pdfrwt>
<totfact> 0.60493139E-02</totfact>
</mgrwt>
</event>
<event>
 4    1  0.2416490E+000  0.5332467E+02  0.7957747E-01  0.1428192E+00
         13   -1    0    0    0    0  0.00000000000E+00  0.00000000000E+00  0.99999944188E+02  0.10000000001E+03  0.10566000000E+00 0. -1.
         22   -1    0    0    0    0 -0.00000000000E+00 -0.00000000000E+00 -0.42221571812E+02  0.42221571812E+02  0.00000000000E+00 0.  1.
         13    1    1    2    0    0  0.10346035637E+02  0.15377893610E+02 -0.32475169118E+02  0.37392082565E+02  0.10566000000E+00 0.  1.
        996    1    1    2    0    0 -0.10346035637E+02 -0.15377893610E+02  0.90253541494E+02  0.10482948926E+03  0.50000000000E+02 0.  0.
<mgrwt>
<rscale>  0 0.53324667E+02</rscale>
<asrwt>0</asrwt>
<pdfrwt beam="1">  1       13 0.10000000E+01 0.53324667E+02</pdfrwt>
<pdfrwt beam="2">  1       22 0.42221588E+00 0.53324667E+02</pdfrwt>
<totfact> 0.11124525E-01</totfact>
</mgrwt>
</event>
<event>
 4    1  0.2416490E+000  0.6529855E+02  0.7957747E-01  0.1376852E+00
         13   -1    0    0    0    0  0.00000000000E+00  0.00000000000E+00  0.99999944172E+02  0.99999999992E+02  0.10566000000E+00 0. -1.
         22   -1    0    0    0    0 -0.00000000000E+00 -0.00000000000E+00 -0.31437391483E+02  0.31437391483E+02  0.00000000000E+00 0.  1.
         13    1    1    2    0    0 -0.42934984434E+01 -0.41778776056E+02  0.87824159123E+01  0.42907368259E+02  0.10566000000E+00 0.  1.
        996    1    1    2    0    0  0.42934984434E+01  0.41778776056E+02  0.59780136776E+02  0.88530023216E+02  0.50000000000E+02 0.  0.
<mgrwt>
<rscale>  0 0.65298547E+02</rscale>
<asrwt>0</asrwt>
<pdfrwt beam="1">  1       13 0.10000000E+01 0.65298547E+02</pdfrwt>
<pdfrwt beam="2">  1       22 0.31437411E+00 0.65298547E+02</pdfrwt>
<totfact> 0.19274536E-01</totfact>
</mgrwt>
</event>
<event>
 4    1  0.2416490E+000  0.5101716E+02  0.7957747E-01  0.1439931E+00
         13   -1    0    0    0    0  0.00000000000E+00  0.00000000000E+00  0.99999944178E+02  0.99999999998E+02  0.10566000000E+00 0.  1.
         22   -1    0    0    0    0 -0.00000000000E+00 -0.00000000000E+00 -0.11215789705E+02  0.11215789705E+02  0.00000000000E+00 0.  1.
         13    1    1    2    0    0  0.16589718477E+01  0.99999153644E+01  0.16865473813E+01  0.10276482910E+02  0.10566000000E+00 0. -1.
        996    1    1    2    0    0 -0.16589718477E+01 -0.99999153644E+01  0.87097607092E+02  0.10093930679E+03  0.50000000000E+02 0.  0.
<mgrwt>
<rscale>  0 0.51017159E+02</rscale>
<asrwt>0</asrwt>
<pdfrwt beam="1">  1       13 0.10000000E+01 0.51017159E+02</pdfrwt>
<pdfrwt beam="2">  1       22 0.11215814E+00 0.51017159E+02</pdfrwt>
<totfact> 0.11879904E+00</totfact>
</mgrwt>
</event>
<event>
 4    1  0.2416490E+000  0.5290553E+02  0.7957747E-01  0.1430272E+00
         13   -1    0    0    0    0  0.00000000000E+00  0.00000000000E+00  0.99999944180E+02  0.10000000000E+03  0.10566000000E+00 0. -1.
         22   -1    0    0    0    0 -0.00000000000E+00 -0.00000000000E+00 -0.15790922243E+02  0.15790922243E+02  0.00000000000E+00 0.  1.
         13    1    1    2    0    0  0.15303615662E+02  0.80494780819E+01  0.11711883602E+01  0.17331404904E+02  0.10566000000E+00 0.  1.
        996    1    1    2    0    0 -0.15303615662E+02 -0.80494780819E+01  0.83037833577E+02  0.98459517340E+02  0.50000000000E+02 0.  0.
<mgrwt>
<rscale>  0 0.52905527E+02</rscale>
<asrwt>0</asrwt>
<pdfrwt beam="1">  1       13 0.10000000E+01 0.52905527E+02</pdfrwt>
<pdfrwt beam="2">  1       22 0.15790946E+00 0.52905527E+02</pdfrwt>
<totfact> 0.69180284E-01</totfact>
</mgrwt>
</event>
<event>
 4    1  0.2416490E+000  0.5354726E+02  0.7957747E-01  0.1427097E+00
         13   -1    0    0    0    0  0.00000000000E+00  0.00000000000E+00  0.99999944176E+02  0.99999999996E+02  0.10566000000E+00 0. -1.
         22   -1    0    0    0    0 -0.00000000000E+00 -0.00000000000E+00 -0.13571296848E+02  0.13571296848E+02  0.00000000000E+00 0.  1.
         13    1    1    2    0    0 -0.24842815289E+01  0.19003615092E+02  0.15208076359E+02  0.24466421722E+02  0.10566000000E+00 0.  1.
        996    1    1    2    0    0  0.24842815289E+01 -0.19003615092E+02  0.71220570970E+02  0.89104875122E+02  0.50000000000E+02 0.  0.
<mgrwt>
<rscale>  0 0.53547260E+02</rscale>
<asrwt>0</asrwt>
<pdfrwt beam="1">  1       13 0.10000000E+01 0.53547260E+02</pdfrwt>
<pdfrwt beam="2">  1       22 0.13571321E+00 0.53547260E+02</pdfrwt>
<totfact> 0.88947656E-01</totfact>
</mgrwt>
</event>
<event>
 4    1  0.2416490E+000  0.5155356E+02  0.7957747E-01  0.1437138E+00
         13   -1    0    0    0    0  0.00000000000E+00  0.00000000000E+00  0.99999944169E+02  0.99999999989E+02  0.10566000000E+00 0.  1.
         22   -1    0    0    0    0 -0.00000000000E+00 -0.00000000000E+00 -0.16979012790E+02  0.16979012790E+02  0.00000000000E+00 0.  1.
         13    1    1    2    0    0  0.45690631186E+01  0.11700142539E+02 -0.61439444461E+01  0.13983164542E+02  0.10566000000E+00 0. -1.
        996    1    1    2    0    0 -0.45690631186E+01 -0.11700142539E+02  0.89164875825E+02  0.10299584824E+03  0.50000000000E+02 0.  0.
<mgrwt>
<rscale>  0 0.51553561E+02</rscale>
<asrwt>0</asrwt>
<pdfrwt beam="1">  1       13 0.10000000E+01 0.51553561E+02</pdfrwt>
<pdfrwt beam="2">  1       22 0.16979036E+00 0.51553561E+02</pdfrwt>
<totfact> 0.60877217E-01</totfact>
</mgrwt>
</event>
<event>
 4    1  0.2416490E+000  0.5247274E+02  0.7957747E-01  0.1432443E+00
         13   -1    0    0    0    0  0.00000000000E+00  0.00000000000E+00  0.99999944172E+02  0.99999999992E+02  0.10566000000E+00 0. -1.
         22   -1    0    0    0    0 -0.00000000000E+00 -0.00000000000E+00 -0.69344244454E+02  0.69344244454E+02  0.00000000000E+00 0.  1.
         13    1    1    2    0    0  0.36188657517E+01 -0.15501373566E+02 -0.61374804081E+02  0.63405571615E+02  0.10566000000E+00 0.  1.
        996    1    1    2    0    0 -0.36188657517E+01  0.15501373566E+02  0.92030503799E+02  0.10593867283E+03  0.50000000000E+02 0.  0.
<mgrwt>
<rscale>  0 0.52472743E+02</rscale>
<asrwt>0</asrwt>
<pdfrwt beam="1">  1       13 0.10000000E+01 0.52472743E+02</pdfrwt>
<pdfrwt beam="2">  1       22 0.69344253E+00 0.52472743E+02</pdfrwt>
<totfact> 0.77874828E-02</totfact>
</mgrwt>
</event>
<event>
 4    1  0.2416490E+000  0.8540227E+02  0.7957747E-01  0.1314384E+00
         13   -1    0    0    0    0  0.00000000000E+00  0.00000000000E+00  0.99999944188E+02  0.10000000001E+03  0.10566000000E+00 0.  1.
         22   -1    0    0    0    0 -0.00000000000E+00 -0.00000000000E+00 -0.79491066694E+02  0.79491066694E+02  0.00000000000E+00 0. -1.
         13    1    1    2    0    0  0.14843114934E+02 -0.67625662450E+02 -0.35055197046E+02  0.77604292966E+02  0.10566000000E+00 0. -1.
        996    1    1    2    0    0 -0.14843114934E+02  0.67625662450E+02  0.55564074540E+02  0.10188677374E+03  0.50000000000E+02 0.  0.
<mgrwt>
<rscale>  0 0.85402273E+02</rscale>
<asrwt>0</asrwt>
<pdfrwt beam="1">  1       13 0.10000000E+01 0.85402273E+02</pdfrwt>
<pdfrwt beam="2">  1       22 0.79491072E+00 0.85402273E+02</pdfrwt>
<totfact> 0.32335454E-02</totfact>
</mgrwt>
</event>
<event>
 4    1  0.2416490E+000  0.5179174E+02  0.7957747E-01  0.1435910E+00
         13   -1    0    0    0    0  0.00000000000E+00  0.00000000000E+00  0.99999944179E+02  0.10000000000E+03  0.10566000000E+00 0. -1.
         22   -1    0    0    0    0 -0.00000000000E+00 -0.00000000000E+00 -0.12491614561E+02  0.12491614561E+02  0.00000000000E+00 0. -1.
         13    1    1    2    0    0  0.87365360906E+01 -0.10298396184E+02  0.37540196675E+01  0.14017412547E+02  0.10566000000E+00 0.  1.
        996    1    1    2    0    0 -0.87365360906E+01  0.10298396184E+02  0.83754309951E+02  0.98474202013E+02  0.50000000000E+02 0.  0.
<mgrwt>
<rscale>  0 0.51791737E+02</rscale>
<asrwt>0</asrwt>
<pdfrwt beam="1">  1       13 0.10000000E+01 0.51791737E+02</pdfrwt>
<pdfrwt beam="2">  1       22 0.12491639E+00 0.51791737E+02</pdfrwt>
<totfact> 0.10099232E+00</totfact>
</mgrwt>
</event>
<event>
 4    1  0.2416490E+000  0.5133708E+02  0.7957747E-01  0.1438260E+00
         13   -1    0    0    0    0  0.00000000000E+00  0.00000000000E+00  0.99999944184E+02  0.10000000000E+03  0.10566000000E+00 0.  1.
         22   -1    0    0    0    0 -0.00000000000E+00 -0.00000000000E+00 -0.11664295530E+02  0.11664295530E+02  0.00000000000E+00 0. -1.
         13    1    1    2    0    0 -0.88635401644E+01  0.75454301524E+01  0.29088482975E+01  0.11998684215E+02  0.10566000000E+00 0. -1.
        996    1    1    2    0    0  0.88635401644E+01 -0.75454301524E+01  0.85426800356E+02  0.99665611319E+02  0.50000000000E+02 0.  0.
<mgrwt>
<rscale>  0 0.51337081E+02</rscale>
<asrwt>0</asrwt>
<pdfrwt beam="1">  1       13 0.10000000E+01 0.51337081E+02</pdfrwt>
<pdfrwt beam="2">  1       22 0.11664320E+00 0.51337081E+02</pdfrwt>
<totfact> 0.11207348E+00</totfact>
</mgrwt>
</event>
<event>
 4    1  0.2416490E+000  0.5263978E+02  0.7957747E-01  0.1431602E+00
         13   -1    0    0    0    0  0.00000000000E+00  0.00000000000E+00  0.99999944181E+02  0.10000000000E+03  0.10566000000E+00 0. -1.
         22   -1    0    0    0    0 -0.00000000000E+00 -0.00000000000E+00 -0.15206022627E+02  0.15206022627E+02  0.00000000000E+00 0.  1.
         13    1    1    2    0    0  0.25202074463E+01 -0.16266381335E+02  0.13111063185E+01  0.16512927394E+02  0.10566000000E+00 0.  1.
        996    1    1    2    0    0 -0.25202074463E+01  0.16266381335E+02  0.83482815236E+02  0.98693095235E+02  0.50000000000E+02 0.  0.
<mgrwt>
<rscale>  0 0.52639782E+02</rscale>
<asrwt>0</asrwt>
<pdfrwt beam="1">  1       13 0.10000000E+01 0.52639782E+02</pdfrwt>
<pdfrwt beam="2">  1       22 0.15206046E+00 0.52639782E+02</pdfrwt>
<totfact> 0.73692112E-01</totfact>
</mgrwt>
</event>
<event>
 4    1  0.2416490E+000  0.6229392E+02  0.7957747E-01  0.1388450E+00
         13   -1    0    0    0    0  0.00000000000E+00  0.00000000000E+00  0.99999944171E+02  0.99999999992E+02  0.10566000000E+00 0. -1.
         22   -1    0    0    0    0 -0.00000000000E+00 -0.00000000000E+00 -0.39738592719E+02  0.39738592719E+02  0.00000000000E+00 0.  1.
         13    1    1    2    0    0  0.16580552388E+02 -0.33250837381E+02 -0.16691069795E+02  0.40732491686E+02  0.10566000000E+00 0.  1.
        996    1    1    2    0    0 -0.16580552388E+02  0.33250837381E+02  0.76952421248E+02  0.99006101024E+02  0.50000000000E+02 0.  0.
<mgrwt>
<rscale>  0 0.62293923E+02</rscale>
<asrwt>0</asrwt>
<pdfrwt beam="1">  1       13 0.10000000E+01 0.62293923E+02</pdfrwt>
<pdfrwt beam="2">  1       22 0.39738610E+00 0.62293923E+02</pdfrwt>
<totfact> 0.12615942E-01</totfact>
</mgrwt>
</event>
<event>
 4    1  0.2416490E+000  0.5221483E+02  0.7957747E-01  0.1433749E+00
         13   -1    0    0    0    0  0.00000000000E+00  0.00000000000E+00  0.99999944176E+02  0.99999999996E+02  0.10566000000E+00 0. -1.
         22   -1    0    0    0    0 -0.00000000000E+00 -0.00000000000E+00 -0.18165211286E+02  0.18165211286E+02  0.00000000000E+00 0. -1.
         13    1    1    2    0    0 -0.14370874203E+02 -0.44571786787E+01 -0.58233820697E+01  0.16134169018E+02  0.10566000000E+00 0.  1.
        996    1    1    2    0    0  0.14370874203E+02  0.44571786787E+01  0.87658114960E+02  0.10203104226E+03  0.50000000000E+02 0.  0.
<mgrwt>
<rscale>  0 0.52214830E+02</rscale>
<asrwt>0</asrwt>
<pdfrwt beam="1">  1       13 0.10000000E+01 0.52214830E+02</pdfrwt>
<pdfrwt beam="2">  1       22 0.18165234E+00 0.52214830E+02</pdfrwt>
<totfact> 0.54067961E-01</totfact>
</mgrwt>
</event>
<event>
 4    1  0.2416490E+000  0.5344712E+02  0.7957747E-01  0.1427589E+00
         13   -1    0    0    0    0  0.00000000000E+00  0.00000000000E+00  0.99999944176E+02  0.99999999996E+02  0.10566000000E+00 0. -1.
         22   -1    0    0    0    0 -0.00000000000E+00 -0.00000000000E+00 -0.33230664882E+02  0.33230664882E+02  0.00000000000E+00 0.  1.
         13    1    1    2    0    0 -0.17533597509E+02 -0.70119798974E+01 -0.22383001182E+02  0.29284890467E+02  0.10566000000E+00 0.  1.
        996    1    1    2    0    0  0.17533597509E+02  0.70119798974E+01  0.89152280476E+02  0.10394577441E+03  0.50000000000E+02 0.  0.
<mgrwt>
<rscale>  0 0.53447123E+02</rscale>
<asrwt>0</asrwt>
<pdfrwt beam="1">  1       13 0.10000000E+01 0.53447123E+02</pdfrwt>
<pdfrwt beam="2">  1       22 0.33230684E+00 0.53447123E+02</pdfrwt>
<totfact> 0.17234264E-01</totfact>
</mgrwt>
</event>
<event>
 4    1  0.2416490E+000  0.5142829E+02  0.7957747E-01  0.1437787E+00
         13   -1    0    0    0    0  0.00000000000E+00  0.00000000000E+00  0.99999944181E+02  0.10000000000E+03  0.10566000000E+00 0. -1.
         22   -1    0    0    0    0 -0.00000000000E+00 -0.00000000000E+00 -0.12702966672E+02  0.12702966672E+02  0.00000000000E+00 0.  1.
         13    1    1    2    0    0 -0.10456009062E+02 -0.59615805870E+01  0.78888377353E+00  0.12062423896E+02  0.10566000000E+00 0.  1.
        996    1    1    2    0    0  0.10456009062E+02  0.59615805870E+01  0.86508093736E+02  0.10064054278E+03  0.50000000000E+02 0.  0.
<mgrwt>
<rscale>  0 0.51428286E+02</rscale>
<asrwt>0</asrwt>
<pdfrwt beam="1">  1       13 0.10000000E+01 0.51428286E+02</pdfrwt>
<pdfrwt beam="2">  1       22 0.12702991E+00 0.51428286E+02</pdfrwt>
<totfact> 0.98308463E-01</totfact>
</mgrwt>
</event>
<event>
 4    1  0.2416490E+000  0.5211974E+02  0.7957747E-01  0.1434232E+00
         13   -1    0    0    0    0  0.00000000000E+00  0.00000000000E+00  0.99999944175E+02  0.99999999995E+02  0.10566000000E+00 0. -1.
         22   -1    0    0    0    0 -0.00000000000E+00 -0.00000000000E+00 -0.30932651817E+02  0.30932651817E+02  0.00000000000E+00 0.  1.
         13    1    1    2    0    0 -0.77701891387E+01  0.12493669577E+02 -0.21728311095E+02  0.26241156336E+02  0.10566000000E+00 0.  1.
        996    1    1    2    0    0  0.77701891387E+01 -0.12493669577E+02  0.90795603453E+02  0.10469149548E+03  0.50000000000E+02 0.  0.
<mgrwt>
<rscale>  0 0.52119743E+02</rscale>
<asrwt>0</asrwt>
<pdfrwt beam="1">  1       13 0.10000000E+01 0.52119743E+02</pdfrwt>
<pdfrwt beam="2">  1       22 0.30932671E+00 0.52119743E+02</pdfrwt>
<totfact> 0.19566804E-01</totfact>
</mgrwt>
</event>
<event>
 4    1  0.2416490E+000  0.5292149E+02  0.7957747E-01  0.1430192E+00
         13   -1    0    0    0    0  0.00000000000E+00  0.00000000000E+00  0.99999944175E+02  0.99999999995E+02  0.10566000000E+00 0. -1.
         22   -1    0    0    0    0 -0.00000000000E+00 -0.00000000000E+00 -0.75527099877E+02  0.75527099877E+02  0.00000000000E+00 0.  1.
         13    1    1    2    0    0  0.13366243825E+02  0.11046594339E+02 -0.67349399529E+02  0.69545930876E+02  0.10566000000E+00 0.  1.
        996    1    1    2    0    0 -0.13366243825E+02 -0.11046594339E+02  0.91822243826E+02  0.10598116900E+03  0.50000000000E+02 0.  0.
<mgrwt>
<rscale>  0 0.52921486E+02</rscale>
<asrwt>0</asrwt>
<pdfrwt beam="1">  1       13 0.10000000E+01 0.52921486E+02</pdfrwt>
<pdfrwt beam="2">  1       22 0.75527107E+00 0.52921486E+02</pdfrwt>
<totfact> 0.46698879E-02</totfact>
</mgrwt>
</event>
<event>
 4    1  0.2416490E+000  0.5112627E+02  0.7957747E-01  0.1439360E+00
         13   -1    0    0    0    0  0.00000000000E+00  0.00000000000E+00  0.99999944182E+02  0.10000000000E+03  0.10566000000E+00 0.  1.
         22   -1    0    0    0    0 -0.00000000000E+00 -0.00000000000E+00 -0.15527214732E+02  0.15527214732E+02  0.00000000000E+00 0.  1.
         13    1    1    2    0    0  0.55009161110E+01  0.91452277332E+01 -0.55274465511E+01  0.12019113851E+02  0.10566000000E+00 0. -1.
        996    1    1    2    0    0 -0.55009161110E+01 -0.91452277332E+01  0.90000176001E+02  0.10350810088E+03  0.50000000000E+02 0.  0.
<mgrwt>
<rscale>  0 0.51126268E+02</rscale>
<asrwt>0</asrwt>
<pdfrwt beam="1">  1       13 0.10000000E+01 0.51126268E+02</pdfrwt>
<pdfrwt beam="2">  1       22 0.15527238E+00 0.51126268E+02</pdfrwt>
<totfact> 0.70929404E-01</totfact>
</mgrwt>
</event>
<event>
 4    1  0.2416490E+000  0.5206424E+02  0.7957747E-01  0.1434515E+00
         13   -1    0    0    0    0  0.00000000000E+00  0.00000000000E+00  0.99999944176E+02  0.99999999996E+02  0.10566000000E+00 0. -1.
         22   -1    0    0    0    0 -0.00000000000E+00 -0.00000000000E+00 -0.20344660453E+02  0.20344660453E+02  0.00000000000E+00 0.  1.
         13    1    1    2    0    0  0.13197175651E+02  0.60431488542E+01 -0.93243050493E+01  0.17252214986E+02  0.10566000000E+00 0.  1.
        996    1    1    2    0    0 -0.13197175651E+02 -0.60431488542E+01  0.88979588773E+02  0.10309244546E+03  0.50000000000E+02 0.  0.
<mgrwt>
<rscale>  0 0.52064240E+02</rscale>
<asrwt>0</asrwt>
<pdfrwt beam="1">  1       13 0.10000000E+01 0.52064240E+02</pdfrwt>
<pdfrwt beam="2">  1       22 0.20344683E+00 0.52064240E+02</pdfrwt>
<totfact> 0.43887387E-01</totfact>
</mgrwt>
</event>
<event>
 4    1  0.2416490E+000  0.5323601E+02  0.7957747E-01  0.1428630E+00
         13   -1    0    0    0    0  0.00000000000E+00  0.00000000000E+00  0.99999944174E+02  0.99999999994E+02  0.10566000000E+00 0.  1.
         22   -1    0    0    0    0 -0.00000000000E+00 -0.00000000000E+00 -0.18224716702E+02  0.18224716702E+02  0.00000000000E+00 0.  1.
         13    1    1    2    0    0 -0.18206074395E+02 -0.16160987452E+01 -0.25967233516E+01  0.18461502004E+02  0.10566000000E+00 0. -1.
        996    1    1    2    0    0  0.18206074395E+02  0.16160987452E+01  0.84371950823E+02  0.99763214692E+02  0.50000000000E+02 0.  0.
<mgrwt>
<rscale>  0 0.53236011E+02</rscale>
<asrwt>0</asrwt>
<pdfrwt beam="1">  1       13 0.10000000E+01 0.53236011E+02</pdfrwt>
<pdfrwt beam="2">  1       22 0.18224740E+00 0.53236011E+02</pdfrwt>
<totfact> 0.53852159E-01</totfact>
</mgrwt>
</event>
<event>
 4    1  0.2416490E+000  0.5210764E+02  0.7957747E-01  0.1434294E+00
         13   -1    0    0    0    0  0.00000000000E+00  0.00000000000E+00  0.99999944180E+02  0.10000000000E+03  0.10566000000E+00 0.  1.
         22   -1    0    0    0    0 -0.00000000000E+00 -0.00000000000E+00 -0.11357045540E+02  0.11357045540E+02  0.00000000000E+00 0.  1.
         13    1    1    2    0    0 -0.11779443651E+02  0.87436013909E+01  0.26209183835E+02  0.30035617846E+02  0.10566000000E+00 0. -1.
        996    1    1    2    0    0  0.11779443651E+02 -0.87436013909E+01  0.62433714804E+02  0.81321427695E+02  0.50000000000E+02 0.  0.
<mgrwt>
<rscale>  0 0.52107637E+02</rscale>
<asrwt>0</asrwt>
<pdfrwt beam="1">  1       13 0.10000000E+01 0.52107637E+02</pdfrwt>
<pdfrwt beam="2">  1       22 0.11357070E+00 0.52107637E+02</pdfrwt>
<totfact> 0.11688460E+00</totfact>
</mgrwt>
</event>
<event>
 4    1  0.2416490E+000  0.5194265E+02  0.7957747E-01  0.1435136E+00
         13   -1    0    0    0    0  0.00000000000E+00  0.00000000000E+00  0.99999944182E+02  0.10000000000E+03  0.10566000000E+00 0. -1.
         22   -1    0    0    0    0 -0.00000000000E+00 -0.00000000000E+00 -0.28089650509E+02  0.28089650509E+02  0.00000000000E+00 0.  1.
         13    1    1    2    0    0 -0.82599057074E+01 -0.11393540350E+02 -0.18845796831E+02  0.23520502253E+02  0.10566000000E+00 0.  1.
        996    1    1    2    0    0  0.82599057074E+01  0.11393540350E+02  0.90756090503E+02  0.10456914826E+03  0.50000000000E+02 0.  0.
<mgrwt>
<rscale>  0 0.51942649E+02</rscale>
<asrwt>0</asrwt>
<pdfrwt beam="1">  1       13 0.10000000E+01 0.51942649E+02</pdfrwt>
<pdfrwt beam="2">  1       22 0.28089671E+00 0.51942649E+02</pdfrwt>
<totfact> 0.23463344E-01</totfact>
</mgrwt>
</event>
<event>
 4    1  0.2416490E+000  0.8362063E+02  0.7957747E-01  0.1319080E+00
         13   -1    0    0    0    0  0.00000000000E+00  0.00000000000E+00  0.99999944191E+02  0.10000000001E+03  0.10566000000E+00 0.  1.
         22   -1    0    0    0    0 -0.00000000000E+00 -0.00000000000E+00 -0.69548045589E+02  0.69548045589E+02  0.00000000000E+00 0. -1.
         13    1    1    2    0    0  0.56621156340E+02  0.35867174110E+02 -0.22347886383E+02  0.70653016310E+02  0.10566000000E+00 0. -1.
        996    1    1    2    0    0 -0.56621156340E+02 -0.35867174110E+02  0.52799784985E+02  0.98895029290E+02  0.50000000000E+02 0.  0.
<mgrwt>
<rscale>  0 0.83620629E+02</rscale>
<asrwt>0</asrwt>
<pdfrwt beam="1">  1       13 0.10000000E+01 0.83620629E+02</pdfrwt>
<pdfrwt beam="2">  1       22 0.69548054E+00 0.83620629E+02</pdfrwt>
<totfact> 0.76870534E-02</totfact>
</mgrwt>
</event>
<event>
 4    1  0.2416490E+000  0.5924691E+02  0.7957747E-01  0.1401020E+00
         13   -1    0    0    0    0  0.00000000000E+00  0.00000000000E+00  0.99999944175E+02  0.99999999996E+02  0.10566000000E+00 0.  1.
         22   -1    0    0    0    0 -0.00000000000E+00 -0.00000000000E+00 -0.37859396132E+02  0.37859396132E+02  0.00000000000E+00 0. -1.
         13    1    1    2    0    0 -0.71047522712E+01  0.30979323681E+02 -0.19272498315E+02  0.37170369327E+02  0.10566000000E+00 0. -1.
        996    1    1    2    0    0  0.71047522712E+01 -0.30979323681E+02  0.81413046359E+02  0.10068902680E+03  0.50000000000E+02 0.  0.
<mgrwt>
<rscale>  0 0.59246907E+02</rscale>
<asrwt>0</asrwt>
<pdfrwt beam="1">  1       13 0.10000000E+01 0.59246907E+02</pdfrwt>
<pdfrwt beam="2">  1       22 0.37859413E+00 0.59246907E+02</pdfrwt>
<totfact> 0.13767948E-01</totfact>
</mgrwt>
</event>
<event>
 4    1  0.2416490E+000  0.5951526E+02  0.7957747E-01  0.1399877E+00
         13   -1    0    0    0    0  0.00000000000E+00  0.00000000000E+00  0.99999944179E+02  0.99999999999E+02  0.10566000000E+00 0.  1.
         22   -1    0    0    0    0 -0.00000000000E+00 -0.00000000000E+00 -0.43887421407E+02  0.43887421407E+02  0.00000000000E+00 0. -1.
         13    1    1    2    0    0 -0.14707422185E+02  0.28736001581E+02 -0.26710210827E+02  0.41898837462E+02  0.10566000000E+00 0. -1.
        996    1    1    2    0    0  0.14707422185E+02 -0.28736001581E+02  0.82822733599E+02  0.10198858394E+03  0.50000000000E+02 0.  0.
<mgrwt>
<rscale>  0 0.59515259E+02</rscale>
<asrwt>0</asrwt>
<pdfrwt beam="1">  1       13 0.10000000E+01 0.59515259E+02</pdfrwt>
<pdfrwt beam="2">  1       22 0.43887437E+00 0.59515259E+02</pdfrwt>
<totfact> 0.10275224E-01</totfact>
</mgrwt>
</event>
<event>
 4    1  0.2416490E+000  0.5108801E+02  0.7957747E-01  0.1439560E+00
         13   -1    0    0    0    0  0.00000000000E+00  0.00000000000E+00  0.99999944175E+02  0.99999999996E+02  0.10566000000E+00 0. -1.
         22   -1    0    0    0    0 -0.00000000000E+00 -0.00000000000E+00 -0.10149372774E+02  0.10149372774E+02  0.00000000000E+00 0. -1.
         13    1    1    2    0    0  0.48368811336E+01 -0.93053156887E+01  0.63512706160E+01  0.12261081585E+02  0.10566000000E+00 0.  1.
        996    1    1    2    0    0 -0.48368811336E+01  0.93053156887E+01  0.83499300786E+02  0.97888291184E+02  0.50000000000E+02 0.  0.
<mgrwt>
<rscale>  0 0.51088006E+02</rscale>
<asrwt>0</asrwt>
<pdfrwt beam="1">  1       13 0.10000000E+01 0.51088006E+02</pdfrwt>
<pdfrwt beam="2">  1       22 0.10149398E+00 0.51088006E+02</pdfrwt>
<totfact> 0.13767423E+00</totfact>
</mgrwt>
</event>
<event>
 4    1  0.2416490E+000  0.6306831E+02  0.7957747E-01  0.1385389E+00
         13   -1    0    0    0    0  0.00000000000E+00  0.00000000000E+00  0.99999944182E+02  0.10000000000E+03  0.10566000000E+00 0.  1.
         22   -1    0    0    0    0 -0.00000000000E+00 -0.00000000000E+00 -0.26291239942E+02  0.26291239942E+02  0.00000000000E+00 0. -1.
         13    1    1    2    0    0  0.38435953518E+02  0.53812228161E+00  0.19378006542E+02  0.43048001116E+02  0.10566000000E+00 0. -1.
        996    1    1    2    0    0 -0.38435953518E+02 -0.53812228161E+00  0.54330697697E+02  0.83243238829E+02  0.50000000000E+02 0.  0.
<mgrwt>
<rscale>  0 0.63068313E+02</rscale>
<asrwt>0</asrwt>
<pdfrwt beam="1">  1       13 0.10000000E+01 0.63068313E+02</pdfrwt>
<pdfrwt beam="2">  1       22 0.26291261E+00 0.63068313E+02</pdfrwt>
<totfact> 0.27103321E-01</totfact>
</mgrwt>
</event>
<event>
 4    1  0.2416490E+000  0.5198612E+02  0.7957747E-01  0.1434914E+00
         13   -1    0    0    0    0  0.00000000000E+00  0.00000000000E+00  0.99999944178E+02  0.99999999998E+02  0.10566000000E+00 0. -1.
         22   -1    0    0    0    0 -0.00000000000E+00 -0.00000000000E+00 -0.26427295372E+02  0.26427295372E+02  0.00000000000E+00 0.  1.
         13    1    1    2    0    0 -0.24138694086E+01  0.14026033294E+02 -0.16892439889E+02  0.22088957986E+02  0.10566000000E+00 0.  1.
        996    1    1    2    0    0  0.24138694086E+01 -0.14026033294E+02  0.90465088694E+02  0.10433833738E+03  0.50000000000E+02 0.  0.
<mgrwt>
<rscale>  0 0.51986117E+02</rscale>
<asrwt>0</asrwt>
<pdfrwt beam="1">  1       13 0.10000000E+01 0.51986117E+02</pdfrwt>
<pdfrwt beam="2">  1       22 0.26427316E+00 0.51986117E+02</pdfrwt>
<totfact> 0.26429015E-01</totfact>
</mgrwt>
</event>
<event>
 4    1  0.2416490E+000  0.5121134E+02  0.7957747E-01  0.1438915E+00
         13   -1    0    0    0    0  0.00000000000E+00  0.00000000000E+00  0.99999944177E+02  0.99999999997E+02  0.10566000000E+00 0. -1.
         22   -1    0    0    0    0 -0.00000000000E+00 -0.00000000000E+00 -0.70928992126E+02  0.70928992126E+02  0.00000000000E+00 0.  1.
         13    1    1    2    0    0  0.65760383720E+01  0.89082582241E+01 -0.63864713333E+02  0.64817544835E+02  0.10566000000E+00 0.  1.
        996    1    1    2    0    0 -0.65760383720E+01 -0.89082582241E+01  0.92935665384E+02  0.10611144729E+03  0.50000000000E+02 0.  0.
<mgrwt>
<rscale>  0 0.51211340E+02</rscale>
<asrwt>0</asrwt>
<pdfrwt beam="1">  1       13 0.10000000E+01 0.51211340E+02</pdfrwt>
<pdfrwt beam="2">  1       22 0.70929000E+00 0.51211340E+02</pdfrwt>
<totfact> 0.69790573E-02</totfact>
</mgrwt>
</event>
<event>
 4    1  0.2416490E+000  0.5202913E+02  0.7957747E-01  0.1434694E+00
         13   -1    0    0    0    0  0.00000000000E+00  0.00000000000E+00  0.99999944181E+02  0.10000000000E+03  0.10566000000E+00 0.  1.
         22   -1    0    0    0    0 -0.00000000000E+00 -0.00000000000E+00 -0.11129154332E+02  0.11129154332E+02  0.00000000000E+00 0. -1.
         13    1    1    2    0    0  0.13464150891E+02 -0.50741958834E+01  0.15115529135E+02  0.20869144883E+02  0.10566000000E+00 0. -1.
        996    1    1    2    0    0 -0.13464150891E+02  0.50741958834E+01  0.73755260714E+02  0.90260009450E+02  0.50000000000E+02 0.  0.
<mgrwt>
<rscale>  0 0.52029134E+02</rscale>
<asrwt>0</asrwt>
<pdfrwt beam="1">  1       13 0.10000000E+01 0.52029134E+02</pdfrwt>
<pdfrwt beam="2">  1       22 0.11129179E+00 0.52029134E+02</pdfrwt>
<totfact> 0.12046629E+00</totfact>
</mgrwt>
</event>
<event>
 4    1  0.2416490E+000  0.5132060E+02  0.7957747E-01  0.1438346E+00
         13   -1    0    0    0    0  0.00000000000E+00  0.00000000000E+00  0.99999944177E+02  0.99999999998E+02  0.10566000000E+00 0.  1.
         22   -1    0    0    0    0 -0.00000000000E+00 -0.00000000000E+00 -0.59057575343E+02  0.59057575343E+02  0.00000000000E+00 0. -1.
         13    1    1    2    0    0  0.41489060844E+01 -0.10797729833E+02 -0.51792749777E+02  0.53068865494E+02  0.10566000000E+00 0. -1.
        996    1    1    2    0    0 -0.41489060844E+01  0.10797729833E+02  0.92735118611E+02  0.10598870985E+03  0.50000000000E+02 0.  0.
<mgrwt>
<rscale>  0 0.51320604E+02</rscale>
<asrwt>0</asrwt>
<pdfrwt beam="1">  1       13 0.10000000E+01 0.51320604E+02</pdfrwt>
<pdfrwt beam="2">  1       22 0.59057587E+00 0.51320604E+02</pdfrwt>
<totfact> 0.60565691E-02</totfact>
</mgrwt>
</event>
<event>
 4    1  0.2416490E+000  0.5485633E+02  0.7957747E-01  0.1420780E+00
         13   -1    0    0    0    0  0.00000000000E+00  0.00000000000E+00  0.99999944174E+02  0.99999999994E+02  0.10566000000E+00 0.  1.
         22   -1    0    0    0    0 -0.00000000000E+00 -0.00000000000E+00 -0.20543743478E+02  0.20543743478E+02  0.00000000000E+00 0. -1.
         13    1    1    2    0    0 -0.35372612836E+01 -0.22286866421E+02 -0.16522076265E+01  0.22626479760E+02  0.10566000000E+00 0. -1.
        996    1    1    2    0    0  0.35372612836E+01  0.22286866421E+02  0.81108408323E+02  0.97917263712E+02  0.50000000000E+02 0.  0.
<mgrwt>
<rscale>  0 0.54856327E+02</rscale>
<asrwt>0</asrwt>
<pdfrwt beam="1">  1       13 0.10000000E+01 0.54856327E+02</pdfrwt>
<pdfrwt beam="2">  1       22 0.20543766E+00 0.54856327E+02</pdfrwt>
<totfact> 0.43298769E-01</totfact>
</mgrwt>
</event>
<event>
 4    1  0.2416490E+000  0.5467419E+02  0.7957747E-01  0.1421646E+00
         13   -1    0    0    0    0  0.00000000000E+00  0.00000000000E+00  0.99999944180E+02  0.10000000000E+03  0.10566000000E+00 0.  1.
         22   -1    0    0    0    0 -0.00000000000E+00 -0.00000000000E+00 -0.71666974991E+02  0.71666974991E+02  0.00000000000E+00 0. -1.
         13    1    1    2    0    0 -0.10732789983E+02 -0.19340992276E+02 -0.62138532899E+02  0.65958132159E+02  0.10566000000E+00 0. -1.
        996    1    1    2    0    0  0.10732789983E+02  0.19340992276E+02  0.90471502088E+02  0.10570884283E+03  0.50000000000E+02 0.  0.
<mgrwt>
<rscale>  0 0.54674187E+02</rscale>
<asrwt>0</asrwt>
<pdfrwt beam="1">  1       13 0.10000000E+01 0.54674187E+02</pdfrwt>
<pdfrwt beam="2">  1       22 0.71666983E+00 0.54674187E+02</pdfrwt>
<totfact> 0.65835747E-02</totfact>
</mgrwt>
</event>
<event>
 4    1  0.2416490E+000  0.5979232E+02  0.7957747E-01  0.1398705E+00
         13   -1    0    0    0    0  0.00000000000E+00  0.00000000000E+00  0.99999944185E+02  0.10000000001E+03  0.10566000000E+00 0.  1.
         22   -1    0    0    0    0 -0.00000000000E+00 -0.00000000000E+00 -0.44617387589E+02  0.44617387589E+02  0.00000000000E+00 0. -1.
         13    1    1    2    0    0 -0.31937676993E+02 -0.74234001516E+01 -0.27240729273E+02  0.42628518352E+02  0.10566000000E+00 0. -1.
        996    1    1    2    0    0  0.31937676993E+02  0.74234001516E+01  0.82623285869E+02  0.10198886924E+03  0.50000000000E+02 0.  0.
<mgrwt>
<rscale>  0 0.59792325E+02</rscale>
<asrwt>0</asrwt>
<pdfrwt beam="1">  1       13 0.10000000E+01 0.59792325E+02</pdfrwt>
<pdfrwt beam="2">  1       22 0.44617403E+00 0.59792325E+02</pdfrwt>
<totfact> 0.98986876E-02</totfact>
</mgrwt>
</event>
<event>
 4    1  0.2416490E+000  0.5101064E+02  0.7957747E-01  0.1439965E+00
         13   -1    0    0    0    0  0.00000000000E+00  0.00000000000E+00  0.99999944177E+02  0.99999999997E+02  0.10566000000E+00 0. -1.
         22   -1    0    0    0    0 -0.00000000000E+00 -0.00000000000E+00 -0.13694342782E+02  0.13694342782E+02  0.00000000000E+00 0.  1.
         13    1    1    2    0    0 -0.32632318748E+01 -0.95622807781E+01 -0.32633703736E+01  0.10618222364E+02  0.10566000000E+00 0.  1.
        996    1    1    2    0    0  0.32632318748E+01  0.95622807781E+01  0.89568971769E+02  0.10307612041E+03  0.50000000000E+02 0.  0.
<mgrwt>
<rscale>  0 0.51010645E+02</rscale>
<asrwt>0</asrwt>
<pdfrwt beam="1">  1       13 0.10000000E+01 0.51010645E+02</pdfrwt>
<pdfrwt beam="2">  1       22 0.13694367E+00 0.51010645E+02</pdfrwt>
<totfact> 0.87200728E-01</totfact>
</mgrwt>
</event>
<event>
 4    1  0.2416490E+000  0.5293264E+02  0.7957747E-01  0.1430136E+00
         13   -1    0    0    0    0  0.00000000000E+00  0.00000000000E+00  0.99999944188E+02  0.10000000001E+03  0.10566000000E+00 0.  1.
         22   -1    0    0    0    0 -0.00000000000E+00 -0.00000000000E+00 -0.14664730756E+02  0.14664730756E+02  0.00000000000E+00 0.  1.
         13    1    1    2    0    0  0.14524565501E+02  0.95342443799E+01  0.43426604267E+01  0.17909067048E+02  0.10566000000E+00 0. -1.
        996    1    1    2    0    0 -0.14524565501E+02 -0.95342443799E+01  0.80992553005E+02  0.96755663716E+02  0.50000000000E+02 0.  0.
<mgrwt>
<rscale>  0 0.52932644E+02</rscale>
<asrwt>0</asrwt>
<pdfrwt beam="1">  1       13 0.10000000E+01 0.52932644E+02</pdfrwt>
<pdfrwt beam="2">  1       22 0.14664755E+00 0.52932644E+02</pdfrwt>
<totfact> 0.78316300E-01</totfact>
</mgrwt>
</event>
<event>
 4    1  0.2416490E+000  0.5840207E+02  0.7957747E-01  0.1404663E+00
         13   -1    0    0    0    0  0.00000000000E+00  0.00000000000E+00  0.99999944182E+02  0.10000000000E+03  0.10566000000E+00 0. -1.
         22   -1    0    0    0    0 -0.00000000000E+00 -0.00000000000E+00 -0.55956355569E+02  0.55956355569E+02  0.00000000000E+00 0.  1.
         13    1    1    2    0    0 -0.94075900822E+01 -0.28675756170E+02 -0.42149938552E+02  0.51840430429E+02  0.10566000000E+00 0.  1.
        996    1    1    2    0    0  0.94075900822E+01  0.28675756170E+02  0.86193527166E+02  0.10411592514E+03  0.50000000000E+02 0.  0.
<mgrwt>
<rscale>  0 0.58402070E+02</rscale>
<asrwt>0</asrwt>
<pdfrwt beam="1">  1       13 0.10000000E+01 0.58402070E+02</pdfrwt>
<pdfrwt beam="2">  1       22 0.55956368E+00 0.58402070E+02</pdfrwt>
<totfact> 0.58605844E-02</totfact>
</mgrwt>
</event>
<event>
 4    1  0.2416490E+000  0.5137536E+02  0.7957747E-01  0.1438061E+00
         13   -1    0    0    0    0  0.00000000000E+00  0.00000000000E+00  0.99999944175E+02  0.99999999995E+02  0.10566000000E+00 0. -1.
         22   -1    0    0    0    0 -0.00000000000E+00 -0.00000000000E+00 -0.30846887993E+02  0.30846887993E+02  0.00000000000E+00 0.  1.
         13    1    1    2    0    0  0.96651871076E+00  0.11768344449E+02 -0.22708338784E+02  0.25595075774E+02  0.10566000000E+00 0.  1.
        996    1    1    2    0    0 -0.96651871076E+00 -0.11768344449E+02  0.91861394965E+02  0.10525181221E+03  0.50000000000E+02 0.  0.
<mgrwt>
<rscale>  0 0.51375365E+02</rscale>
<asrwt>0</asrwt>
<pdfrwt beam="1">  1       13 0.10000000E+01 0.51375365E+02</pdfrwt>
<pdfrwt beam="2">  1       22 0.30846907E+00 0.51375365E+02</pdfrwt>
<totfact> 0.19647865E-01</totfact>
</mgrwt>
</event>
<event>
 4    1  0.2416490E+000  0.5220268E+02  0.7957747E-01  0.1433810E+00
         13   -1    0    0    0    0  0.00000000000E+00  0.00000000000E+00  0.99999944183E+02  0.10000000000E+03  0.10566000000E+00 0. -1.
         22   -1    0    0    0    0 -0.00000000000E+00 -0.00000000000E+00 -0.29779224898E+02  0.29779224898E+02  0.00000000000E+00 0. -1.
         13    1    1    2    0    0 -0.98883121265E+01  0.11284554419E+02 -0.20324775759E+02  0.25263166049E+02  0.10566000000E+00 0.  1.
        996    1    1    2    0    0  0.98883121265E+01 -0.11284554419E+02  0.90545495044E+02  0.10451605885E+03  0.50000000000E+02 0.  0.
<mgrwt>
<rscale>  0 0.52202681E+02</rscale>
<asrwt>0</asrwt>
<pdfrwt beam="1">  1       13 0.10000000E+01 0.52202681E+02</pdfrwt>
<pdfrwt beam="2">  1       22 0.29779245E+00 0.52202681E+02</pdfrwt>
<totfact> 0.20997373E-01</totfact>
</mgrwt>
</event>
<event>
 4    1  0.2416490E+000  0.5146414E+02  0.7957747E-01  0.1437601E+00
         13   -1    0    0    0    0  0.00000000000E+00  0.00000000000E+00  0.99999944184E+02  0.10000000000E+03  0.10566000000E+00 0.  1.
         22   -1    0    0    0    0 -0.00000000000E+00 -0.00000000000E+00 -0.25767898820E+02  0.25767898820E+02  0.00000000000E+00 0. -1.
         13    1    1    2    0    0  0.54765172985E+01  0.10888787798E+02 -0.17061259643E+02  0.20967968096E+02  0.10566000000E+00 0. -1.
        996    1    1    2    0    0 -0.54765172985E+01 -0.10888787798E+02  0.91293305007E+02  0.10479993073E+03  0.50000000000E+02 0.  0.
<mgrwt>
<rscale>  0 0.51464142E+02</rscale>
<asrwt>0</asrwt>
<pdfrwt beam="1">  1       13 0.10000000E+01 0.51464142E+02</pdfrwt>
<pdfrwt beam="2">  1       22 0.25767920E+00 0.51464142E+02</pdfrwt>
<totfact> 0.27752577E-01</totfact>
</mgrwt>
</event>
<event>
 4    1  0.2416490E+000  0.5111964E+02  0.7957747E-01  0.1439394E+00
         13   -1    0    0    0    0  0.00000000000E+00  0.00000000000E+00  0.99999944178E+02  0.99999999998E+02  0.10566000000E+00 0.  1.
         22   -1    0    0    0    0 -0.00000000000E+00 -0.00000000000E+00 -0.11459091980E+02  0.11459091980E+02  0.00000000000E+00 0.  1.
         13    1    1    2    0    0  0.10501039794E+02 -0.17162044726E+01  0.18239109695E+01  0.10796064552E+02  0.10566000000E+00 0. -1.
        996    1    1    2    0    0 -0.10501039794E+02  0.17162044726E+01  0.86716941228E+02  0.10066302743E+03  0.50000000000E+02 0.  0.
<mgrwt>
<rscale>  0 0.51119636E+02</rscale>
<asrwt>0</asrwt>
<pdfrwt beam="1">  1       13 0.10000000E+01 0.51119636E+02</pdfrwt>
<pdfrwt beam="2">  1       22 0.11459117E+00 0.51119636E+02</pdfrwt>
<totfact> 0.11506089E+00</totfact>
</mgrwt>
</event>
<event>
 4    1  0.2416490E+000  0.5099045E+02  0.7957747E-01  0.1440071E+00
         13   -1    0    0    0    0  0.00000000000E+00  0.00000000000E+00  0.99999944178E+02  0.99999999998E+02  0.10566000000E+00 0.  1.
         22   -1    0    0    0    0 -0.00000000000E+00 -0.00000000000E+00 -0.93002323204E+01  0.93002323204E+01  0.00000000000E+00 0.  1.
         13    1    1    2    0    0 -0.89794515574E+00  0.99609065205E+01  0.15009221726E+02  0.18036459328E+02  0.10566000000E+00 0. -1.
        996    1    1    2    0    0  0.89794515574E+00 -0.99609065205E+01  0.75690490131E+02  0.91263772991E+02  0.50000000000E+02 0.  0.
<mgrwt>
<rscale>  0 0.50990450E+02</rscale>
<asrwt>0</asrwt>
<pdfrwt beam="1">  1       13 0.10000000E+01 0.50990450E+02</pdfrwt>
<pdfrwt beam="2">  1       22 0.93002576E-01 0.50990450E+02</pdfrwt>
<totfact> 0.15605494E+00</totfact>
</mgrwt>
</event>
<event>
 4    1  0.2416490E+000  0.5099827E+02  0.7957747E-01  0.1440030E+00
         13   -1    0    0    0    0  0.00000000000E+00  0.00000000000E+00  0.99999944182E+02  0.10000000000E+03  0.10566000000E+00 0. -1.
         22   -1    0    0    0    0 -0.00000000000E+00 -0.00000000000E+00 -0.94827444813E+01  0.94827444813E+01  0.00000000000E+00 0. -1.
         13    1    1    2    0    0 -0.98367964766E+01 -0.20152840916E+01  0.99862612759E+01  0.14161938893E+02  0.10566000000E+00 0.  1.
        996    1    1    2    0    0  0.98367964766E+01  0.20152840916E+01  0.80530938425E+02  0.95320805591E+02  0.50000000000E+02 0.  0.
<mgrwt>
<rscale>  0 0.50998274E+02</rscale>
<asrwt>0</asrwt>
<pdfrwt beam="1">  1       13 0.10000000E+01 0.50998274E+02</pdfrwt>
<pdfrwt beam="2">  1       22 0.94827697E-01 0.50998274E+02</pdfrwt>
<totfact> 0.15179709E+00</totfact>
</mgrwt>
</event>
<event>
 4    1  0.2416490E+000  0.6948439E+02  0.7957747E-01  0.1361855E+00
         13   -1    0    0    0    0  0.00000000000E+00  0.00000000000E+00  0.99999944172E+02  0.99999999993E+02  0.10566000000E+00 0.  1.
         22   -1    0    0    0    0 -0.00000000000E+00 -0.00000000000E+00 -0.45725197039E+02  0.45725197039E+02  0.00000000000E+00 0. -1.
         13    1    1    2    0    0 -0.39907065240E+02  0.27120234017E+02 -0.11980699415E+02  0.49715483219E+02  0.10566000000E+00 0. -1.
        996    1    1    2    0    0  0.39907065240E+02 -0.27120234017E+02  0.66255446548E+02  0.96009713813E+02  0.50000000000E+02 0.  0.
<mgrwt>
<rscale>  0 0.69484394E+02</rscale>
<asrwt>0</asrwt>
<pdfrwt beam="1">  1       13 0.10000000E+01 0.69484394E+02</pdfrwt>
<pdfrwt beam="2">  1       22 0.45725212E+00 0.69484394E+02</pdfrwt>
<totfact> 0.93816271E-02</totfact>
</mgrwt>
</event>
<event>
 4    1  0.2416490E+000  0.5354155E+02  0.7957747E-01  0.1427125E+00
         13   -1    0    0    0    0  0.00000000000E+00  0.00000000000E+00  0.99999944171E+02  0.99999999992E+02  0.10566000000E+00 0.  1.
         22   -1    0    0    0    0 -0.00000000000E+00 -0.00000000000E+00 -0.14016757958E+02  0.14016757958E+02  0.00000000000E+00 0. -1.
         13    1    1    2    0    0 -0.15665754867E+02  0.11012801607E+02  0.11673135686E+02  0.22427013523E+02  0.10566000000E+00 0. -1.
        996    1    1    2    0    0  0.15665754867E+02 -0.11012801607E+02  0.74310050527E+02  0.91589744427E+02  0.50000000000E+02 0.  0.
<mgrwt>
<rscale>  0 0.53541551E+02</rscale>
<asrwt>0</asrwt>
<pdfrwt beam="1">  1       13 0.10000000E+01 0.53541551E+02</pdfrwt>
<pdfrwt beam="2">  1       22 0.14016782E+00 0.53541551E+02</pdfrwt>
<totfact> 0.84432985E-01</totfact>
</mgrwt>
</event>
<event>
 4    1  0.2416490E+000  0.5255306E+02  0.7957747E-01  0.1432038E+00
         13   -1    0    0    0    0  0.00000000000E+00  0.00000000000E+00  0.99999944187E+02  0.10000000001E+03  0.10566000000E+00 0. -1.
         22   -1    0    0    0    0 -0.00000000000E+00 -0.00000000000E+00 -0.14556660068E+02  0.14556660068E+02  0.00000000000E+00 0. -1.
         13    1    1    2    0    0  0.16131881261E+02  0.12596714713E+01  0.25106308896E+01  0.16374944175E+02  0.10566000000E+00 0.  1.
        996    1    1    2    0    0 -0.16131881261E+02 -0.12596714713E+01  0.82932653229E+02  0.98181715899E+02  0.50000000000E+02 0.  0.
<mgrwt>
<rscale>  0 0.52553062E+02</rscale>
<asrwt>0</asrwt>
<pdfrwt beam="1">  1       13 0.10000000E+01 0.52553062E+02</pdfrwt>
<pdfrwt beam="2">  1       22 0.14556684E+00 0.52553062E+02</pdfrwt>
<totfact> 0.79215850E-01</totfact>
</mgrwt>
</event>
<event>
 4    1  0.2416490E+000  0.7681116E+02  0.7957747E-01  0.1338352E+00
         13   -1    0    0    0    0  0.00000000000E+00  0.00000000000E+00  0.99999944178E+02  0.99999999998E+02  0.10566000000E+00 0. -1.
         22   -1    0    0    0    0 -0.00000000000E+00 -0.00000000000E+00 -0.58725319391E+02  0.58725319391E+02  0.00000000000E+00 0.  1.
         13    1    1    2    0    0 -0.82786045460E+01 -0.57718442209E+02 -0.18742121194E+02  0.61247303085E+02  0.10566000000E+00 0.  1.
        996    1    1    2    0    0  0.82786045460E+01  0.57718442209E+02  0.60016745981E+02  0.97478016303E+02  0.50000000000E+02 0.  0.
<mgrwt>
<rscale>  0 0.76811157E+02</rscale>
<asrwt>0</asrwt>
<pdfrwt beam="1">  1       13 0.10000000E+01 0.76811157E+02</pdfrwt>
<pdfrwt beam="2">  1       22 0.58725331E+00 0.76811157E+02</pdfrwt>
<totfact> 0.59928769E-02</totfact>
</mgrwt>
</event>
<event>
 4    1  0.2416490E+000  0.5202722E+02  0.7957747E-01  0.1434704E+00
         13   -1    0    0    0    0  0.00000000000E+00  0.00000000000E+00  0.99999944174E+02  0.99999999995E+02  0.10566000000E+00 0. -1.
         22   -1    0    0    0    0 -0.00000000000E+00 -0.00000000000E+00 -0.11196630687E+02  0.11196630687E+02  0.00000000000E+00 0. -1.
         13    1    1    2    0    0  0.14174302368E+02  0.24331959825E+01  0.25300585104E+02  0.29102612614E+02  0.10566000000E+00 0.  1.
        996    1    1    2    0    0 -0.14174302368E+02 -0.24331959825E+01  0.63502728384E+02  0.82094018067E+02  0.50000000000E+02 0.  0.
<mgrwt>
<rscale>  0 0.52027217E+02</rscale>
<asrwt>0</asrwt>
<pdfrwt beam="1">  1       13 0.10000000E+01 0.52027217E+02</pdfrwt>
<pdfrwt beam="2">  1       22 0.11196655E+00 0.52027217E+02</pdfrwt>
<totfact> 0.11938233E+00</totfact>
</mgrwt>
</event>
<event>
 4    1  0.2416490E+000  0.5139119E+02  0.7957747E-01  0.1437979E+00
         13   -1    0    0    0    0  0.00000000000E+00  0.00000000000E+00  0.99999944181E+02  0.10000000000E+03  0.10566000000E+00 0.  1.
         22   -1    0    0    0    0 -0.00000000000E+00 -0.00000000000E+00 -0.12103545117E+02  0.12103545117E+02  0.00000000000E+00 0.  1.
         13    1    1    2    0    0  0.20573282896E+01  0.11697089200E+02  0.20535745541E+01  0.12053332648E+02  0.10566000000E+00 0. -1.
        996    1    1    2    0    0 -0.20573282896E+01 -0.11697089200E+02  0.85842824510E+02  0.10005021247E+03  0.50000000000E+02 0.  0.
<mgrwt>
<rscale>  0 0.51391191E+02</rscale>
<asrwt>0</asrwt>
<pdfrwt beam="1">  1       13 0.10000000E+01 0.51391191E+02</pdfrwt>
<pdfrwt beam="2">  1       22 0.12103570E+00 0.51391191E+02</pdfrwt>
<totfact> 0.10594179E+00</totfact>
</mgrwt>
</event>
<event>
 4    1  0.2416490E+000  0.5797889E+02  0.7957747E-01  0.1406515E+00
         13   -1    0    0    0    0  0.00000000000E+00  0.00000000000E+00  0.99999944173E+02  0.99999999993E+02  0.10566000000E+00 0.  1.
         22   -1    0    0    0    0 -0.00000000000E+00 -0.00000000000E+00 -0.19359170501E+02  0.19359170501E+02  0.00000000000E+00 0. -1.
         13    1    1    2    0    0 -0.63614968440E+01 -0.28654541982E+02  0.20368694797E+02  0.35727388794E+02  0.10566000000E+00 0. -1.
        996    1    1    2    0    0  0.63614968440E+01  0.28654541982E+02  0.60272078875E+02  0.83631781700E+02  0.50000000000E+02 0.  0.
<mgrwt>
<rscale>  0 0.57978888E+02</rscale>
<asrwt>0</asrwt>
<pdfrwt beam="1">  1       13 0.10000000E+01 0.57978888E+02</pdfrwt>
<pdfrwt beam="2">  1       22 0.19359193E+00 0.57978888E+02</pdfrwt>
<totfact> 0.48625940E-01</totfact>
</mgrwt>
</event>
<event>
 4    1  0.2416490E+000  0.5956194E+02  0.7957747E-01  0.1399679E+00
         13   -1    0    0    0    0  0.00000000000E+00  0.00000000000E+00  0.99999944176E+02  0.99999999996E+02  0.10566000000E+00 0.  1.
         22   -1    0    0    0    0 -0.00000000000E+00 -0.00000000000E+00 -0.57724741418E+02  0.57724741418E+02  0.00000000000E+00 0. -1.
         13    1    1    2    0    0 -0.14780317094E+02  0.28795257909E+02 -0.42930540991E+02  0.53764925046E+02  0.10566000000E+00 0. -1.
        996    1    1    2    0    0  0.14780317094E+02 -0.28795257909E+02  0.85205743749E+02  0.10395981637E+03  0.50000000000E+02 0.  0.
<mgrwt>
<rscale>  0 0.59561940E+02</rscale>
<asrwt>0</asrwt>
<pdfrwt beam="1">  1       13 0.10000000E+01 0.59561940E+02</pdfrwt>
<pdfrwt beam="2">  1       22 0.57724753E+00 0.59561940E+02</pdfrwt>
<totfact> 0.58046842E-02</totfact>
</mgrwt>
</event>
<event>
 4    1  0.2416490E+000  0.5169743E+02  0.7957747E-01  0.1436395E+00
         13   -1    0    0    0    0  0.00000000000E+00  0.00000000000E+00  0.99999944185E+02  0.10000000000E+03  0.10566000000E+00 0. -1.
         22   -1    0    0    0    0 -0.00000000000E+00 -0.00000000000E+00 -0.27486470717E+02  0.27486470717E+02  0.00000000000E+00 0.  1.
         13    1    1    2    0    0 -0.12881968312E+02  0.25844643243E+01 -0.18573628622E+02  0.22751162776E+02  0.10566000000E+00 0.  1.
        996    1    1    2    0    0  0.12881968312E+02 -0.25844643243E+01  0.91087102090E+02  0.10473530795E+03  0.50000000000E+02 0.  0.
<mgrwt>
<rscale>  0 0.51697433E+02</rscale>
<asrwt>0</asrwt>
<pdfrwt beam="1">  1       13 0.10000000E+01 0.51697433E+02</pdfrwt>
<pdfrwt beam="2">  1       22 0.27486491E+00 0.51697433E+02</pdfrwt>
<totfact> 0.24463925E-01</totfact>
</mgrwt>
</event>
<event>
 4    1  0.2416490E+000  0.5217648E+02  0.7957747E-01  0.1433944E+00
         13   -1    0    0    0    0  0.00000000000E+00  0.00000000000E+00  0.99999944176E+02  0.99999999996E+02  0.10566000000E+00 0.  1.
         22   -1    0    0    0    0 -0.00000000000E+00 -0.00000000000E+00 -0.14716032238E+02  0.14716032238E+02  0.00000000000E+00 0.  1.
         13    1    1    2    0    0 -0.93075604509E+01  0.11651384208E+02  0.20760578040E+00  0.14914412483E+02  0.10566000000E+00 0. -1.
        996    1    1    2    0    0  0.93075604509E+01 -0.11651384208E+02  0.85076306158E+02  0.99801619752E+02  0.50000000000E+02 0.  0.
<mgrwt>
<rscale>  0 0.52176484E+02</rscale>
<asrwt>0</asrwt>
<pdfrwt beam="1">  1       13 0.10000000E+01 0.52176484E+02</pdfrwt>
<pdfrwt beam="2">  1       22 0.14716056E+00 0.52176484E+02</pdfrwt>
<totfact> 0.77745922E-01</totfact>
</mgrwt>
</event>
<event>
 4    1  0.2416490E+000  0.6323126E+02  0.7957747E-01  0.1384751E+00
         13   -1    0    0    0    0  0.00000000000E+00  0.00000000000E+00  0.99999944182E+02  0.10000000000E+03  0.10566000000E+00 0.  1.
         22   -1    0    0    0    0 -0.00000000000E+00 -0.00000000000E+00 -0.33184846100E+02  0.33184846100E+02  0.00000000000E+00 0. -1.
         13    1    1    2    0    0 -0.16762646404E+02 -0.34888481400E+02 -0.32057283878E+01  0.38839159458E+02  0.10566000000E+00 0. -1.
        996    1    1    2    0    0  0.16762646404E+02  0.34888481400E+02  0.70020826469E+02  0.94345686644E+02  0.50000000000E+02 0.  0.
<mgrwt>
<rscale>  0 0.63231262E+02</rscale>
<asrwt>0</asrwt>
<pdfrwt beam="1">  1       13 0.10000000E+01 0.63231262E+02</pdfrwt>
<pdfrwt beam="2">  1       22 0.33184865E+00 0.63231262E+02</pdfrwt>
<totfact> 0.17448148E-01</totfact>
</mgrwt>
</event>
<event>
 4    1  0.2416490E+000  0.5149368E+02  0.7957747E-01  0.1437448E+00
         13   -1    0    0    0    0  0.00000000000E+00  0.00000000000E+00  0.99999944172E+02  0.99999999992E+02  0.10566000000E+00 0. -1.
         22   -1    0    0    0    0 -0.00000000000E+00 -0.00000000000E+00 -0.10179697376E+02  0.10179697376E+02  0.00000000000E+00 0. -1.
         13    1    1    2    0    0  0.11702382806E+02  0.38279843483E+01  0.17862239020E+02  0.21694929692E+02  0.10566000000E+00 0.  1.
        996    1    1    2    0    0 -0.11702382806E+02 -0.38279843483E+01  0.71958007776E+02  0.88484767675E+02  0.50000000000E+02 0.  0.
<mgrwt>
<rscale>  0 0.51493681E+02</rscale>
<asrwt>0</asrwt>
<pdfrwt beam="1">  1       13 0.10000000E+01 0.51493681E+02</pdfrwt>
<pdfrwt beam="2">  1       22 0.10179722E+00 0.51493681E+02</pdfrwt>
<totfact> 0.13721255E+00</totfact>
</mgrwt>
</event>
<event>
 4    1  0.2416490E+000  0.5977341E+02  0.7957747E-01  0.1398785E+00
         13   -1    0    0    0    0  0.00000000000E+00  0.00000000000E+00  0.99999944183E+02  0.10000000000E+03  0.10566000000E+00 0.  1.
         22   -1    0    0    0    0 -0.00000000000E+00 -0.00000000000E+00 -0.64517839308E+02  0.64517839308E+02  0.00000000000E+00 0. -1.
         13    1    1    2    0    0  0.21376237411E+02  0.24817670310E+02 -0.50263629958E+02  0.59994199270E+02  0.10566000000E+00 0. -1.
        996    1    1    2    0    0 -0.21376237411E+02 -0.24817670310E+02  0.85745734833E+02  0.10452364004E+03  0.50000000000E+02 0.  0.
<mgrwt>
<rscale>  0 0.59773408E+02</rscale>
<asrwt>0</asrwt>
<pdfrwt beam="1">  1       13 0.10000000E+01 0.59773408E+02</pdfrwt>
<pdfrwt beam="2">  1       22 0.64517849E+00 0.59773408E+02</pdfrwt>
<totfact> 0.85151867E-02</totfact>
</mgrwt>
</event>
<event>
 4    1  0.2416490E+000  0.5278390E+02  0.7957747E-01  0.1430879E+00
         13   -1    0    0    0    0  0.00000000000E+00  0.00000000000E+00  0.99999944187E+02  0.10000000001E+03  0.10566000000E+00 0. -1.
         22   -1    0    0    0    0 -0.00000000000E+00 -0.00000000000E+00 -0.63397336384E+02  0.63397336384E+02  0.00000000000E+00 0.  1.
         13    1    1    2    0    0 -0.16673056363E+02  0.28546266551E+01 -0.55072741900E+02  0.57612132110E+02  0.10566000000E+00 0.  1.
        996    1    1    2    0    0  0.16673056363E+02 -0.28546266551E+01  0.91675349703E+02  0.10578520428E+03  0.50000000000E+02 0.  0.
<mgrwt>
<rscale>  0 0.52783896E+02</rscale>
<asrwt>0</asrwt>
<pdfrwt beam="1">  1       13 0.10000000E+01 0.52783896E+02</pdfrwt>
<pdfrwt beam="2">  1       22 0.63397347E+00 0.52783896E+02</pdfrwt>
<totfact> 0.80772558E-02</totfact>
</mgrwt>
</event>
<event>
 4    1  0.2416490E+000  0.5100820E+02  0.7957747E-01  0.1439978E+00
         13   -1    0    0    0    0  0.00000000000E+00  0.00000000000E+00  0.99999944180E+02  0.10000000000E+03  0.10566000000E+00 0. -1.
         22   -1    0    0    0    0 -0.00000000000E+00 -0.00000000000E+00 -0.95825377585E+01  0.95825377585E+01  0.00000000000E+00 0. -1.
         13    1    1    2    0    0 -0.67012937490E+01  0.75451519254E+01  0.90875755766E+01  0.13580568817E+02  0.10566000000E+00 0.  1.
        996    1    1    2    0    0  0.67012937490E+01 -0.75451519254E+01  0.81329830845E+02  0.96001968942E+02  0.50000000000E+02 0.  0.
<mgrwt>
<rscale>  0 0.51008202E+02</rscale>
<asrwt>0</asrwt>
<pdfrwt beam="1">  1       13 0.10000000E+01 0.51008202E+02</pdfrwt>
<pdfrwt beam="2">  1       22 0.95825630E-01 0.51008202E+02</pdfrwt>
<totfact> 0.14954550E+00</totfact>
</mgrwt>
</event>
<event>
 4    1  0.2416490E+000  0.5131407E+02  0.7957747E-01  0.1438380E+00
         13   -1    0    0    0    0  0.00000000000E+00  0.00000000000E+00  0.99999944182E+02  0.10000000000E+03  0.10566000000E+00 0.  1.
         22   -1    0    0    0    0 -0.00000000000E+00 -0.00000000000E+00 -0.14615922502E+02  0.14615922502E+02  0.00000000000E+00 0.  1.
         13    1    1    2    0    0  0.80953288443E+01  0.82218644754E+01 -0.34350828608E+01  0.12039284150E+02  0.10566000000E+00 0. -1.
        996    1    1    2    0    0 -0.80953288443E+01 -0.82218644754E+01  0.88819104541E+02  0.10257663835E+03  0.50000000000E+02 0.  0.
<mgrwt>
<rscale>  0 0.51314066E+02</rscale>
<asrwt>0</asrwt>
<pdfrwt beam="1">  1       13 0.10000000E+01 0.51314066E+02</pdfrwt>
<pdfrwt beam="2">  1       22 0.14615946E+00 0.51314066E+02</pdfrwt>
<totfact> 0.78486077E-01</totfact>
</mgrwt>
</event>
<event>
 4    1  0.2416490E+000  0.5132187E+02  0.7957747E-01  0.1438339E+00
         13   -1    0    0    0    0  0.00000000000E+00  0.00000000000E+00  0.99999944184E+02  0.10000000000E+03  0.10566000000E+00 0. -1.
         22   -1    0    0    0    0 -0.00000000000E+00 -0.00000000000E+00 -0.22753683382E+02  0.22753683382E+02  0.00000000000E+00 0.  1.
         13    1    1    2    0    0 -0.11478418961E+02  0.14765517283E+01 -0.13939174380E+02  0.18117562013E+02  0.10566000000E+00 0.  1.
        996    1    1    2    0    0  0.11478418961E+02 -0.14765517283E+01  0.91185435182E+02  0.10463612137E+03  0.50000000000E+02 0.  0.
<mgrwt>
<rscale>  0 0.51321870E+02</rscale>
<asrwt>0</asrwt>
<pdfrwt beam="1">  1       13 0.10000000E+01 0.51321870E+02</pdfrwt>
<pdfrwt beam="2">  1       22 0.22753705E+00 0.51321870E+02</pdfrwt>
<totfact> 0.35398828E-01</totfact>
</mgrwt>
</event>
<event>
 4    1  0.2416490E+000  0.5155782E+02  0.7957747E-01  0.1437116E+00
         13   -1    0    0    0    0  0.00000000000E+00  0.00000000000E+00  0.99999944183E+02  0.10000000000E+03  0.10566000000E+00 0.  1.
         22   -1    0    0    0    0 -0.00000000000E+00 -0.00000000000E+00 -0.15691649843E+02  0.15691649843E+02  0.00000000000E+00 0.  1.
         13    1    1    2    0    0  0.12431888496E+02  0.19124331088E+01 -0.42002562446E+01  0.13261318506E+02  0.10566000000E+00 0. -1.
        996    1    1    2    0    0 -0.12431888496E+02 -0.19124331088E+01  0.88508550584E+02  0.10243033134E+03  0.50000000000E+02 0.  0.
<mgrwt>
<rscale>  0 0.51557824E+02</rscale>
<asrwt>0</asrwt>
<pdfrwt beam="1">  1       13 0.10000000E+01 0.51557824E+02</pdfrwt>
<pdfrwt beam="2">  1       22 0.15691673E+00 0.51557824E+02</pdfrwt>
<totfact> 0.69737664E-01</totfact>
</mgrwt>
</event>
<event>
 4    1  0.2416490E+000  0.5115364E+02  0.7957747E-01  0.1439217E+00
         13   -1    0    0    0    0  0.00000000000E+00  0.00000000000E+00  0.99999944182E+02  0.10000000000E+03  0.10566000000E+00 0.  1.
         22   -1    0    0    0    0 -0.00000000000E+00 -0.00000000000E+00 -0.18756171433E+02  0.18756171433E+02  0.00000000000E+00 0. -1.
         13    1    1    2    0    0 -0.23274393780E+00 -0.10800049182E+02 -0.96313043458E+01  0.14473023855E+02  0.10566000000E+00 0. -1.
        996    1    1    2    0    0  0.23274393780E+00  0.10800049182E+02  0.90875077095E+02  0.10428314758E+03  0.50000000000E+02 0.  0.
<mgrwt>
<rscale>  0 0.51153643E+02</rscale>
<asrwt>0</asrwt>
<pdfrwt beam="1">  1       13 0.10000000E+01 0.51153643E+02</pdfrwt>
<pdfrwt beam="2">  1       22 0.18756194E+00 0.51153643E+02</pdfrwt>
<totfact> 0.50921783E-01</totfact>
</mgrwt>
</event>
<event>
 4    1  0.2416490E+000  0.5164626E+02  0.7957747E-01  0.1436659E+00
         13   -1    0    0    0    0  0.00000000000E+00  0.00000000000E+00  0.99999944183E+02  0.10000000000E+03  0.10566000000E+00 0.  1.
         22   -1    0    0    0    0 -0.00000000000E+00 -0.00000000000E+00 -0.45683250687E+02  0.45683250687E+02  0.00000000000E+00 0. -1.
         13    1    1    2    0    0 -0.10762176621E+02 -0.71771750626E+01 -0.37868194922E+02  0.40016841931E+02  0.10566000000E+00 0. -1.
        996    1    1    2    0    0  0.10762176621E+02  0.71771750626E+01  0.92184888417E+02  0.10566640876E+03  0.50000000000E+02 0.  0.
<mgrwt>
<rscale>  0 0.51646261E+02</rscale>
<asrwt>0</asrwt>
<pdfrwt beam="1">  1       13 0.10000000E+01 0.51646261E+02</pdfrwt>
<pdfrwt beam="2">  1       22 0.45683266E+00 0.51646261E+02</pdfrwt>
<totfact> 0.93202797E-02</totfact>
</mgrwt>
</event>
<event>
 4    1  0.2416490E+000  0.7467421E+02  0.7957747E-01  0.1344883E+00
         13   -1    0    0    0    0  0.00000000000E+00  0.00000000000E+00  0.99999944177E+02  0.99999999997E+02  0.10566000000E+00 0.  1.
         22   -1    0    0    0    0 -0.00000000000E+00 -0.00000000000E+00 -0.77121170570E+02  0.77121170570E+02  0.00000000000E+00 0. -1.
         13    1    1    2    0    0  0.18010861733E+02 -0.52458049658E+02 -0.48604805159E+02  0.73747382075E+02  0.10566000000E+00 0. -1.
        996    1    1    2    0    0 -0.18010861733E+02  0.52458049658E+02  0.71483578766E+02  0.10337378849E+03  0.50000000000E+02 0.  0.
<mgrwt>
<rscale>  0 0.74674213E+02</rscale>
<asrwt>0</asrwt>
<pdfrwt beam="1">  1       13 0.10000000E+01 0.74674213E+02</pdfrwt>
<pdfrwt beam="2">  1       22 0.77121177E+00 0.74674213E+02</pdfrwt>
<totfact> 0.40239989E-02</totfact>
</mgrwt>
</event>
<event>
 4    1  0.2416490E+000  0.5702294E+02  0.7957747E-01  0.1410767E+00
         13   -1    0    0    0    0  0.00000000000E+00  0.00000000000E+00  0.99999944185E+02  0.10000000001E+03  0.10566000000E+00 0.  1.
         22   -1    0    0    0    0 -0.00000000000E+00 -0.00000000000E+00 -0.18850056708E+02  0.18850056708E+02  0.00000000000E+00 0.  1.
         13    1    1    2    0    0  0.25967470962E+02  0.87923812544E+01  0.40150683784E+02  0.48617939988E+02  0.10566000000E+00 0. -1.
        996    1    1    2    0    0 -0.25967470962E+02 -0.87923812544E+01  0.40999203694E+02  0.70232116726E+02  0.50000000000E+02 0.  0.
<mgrwt>
<rscale>  0 0.57022939E+02</rscale>
<asrwt>0</asrwt>
<pdfrwt beam="1">  1       13 0.10000000E+01 0.57022939E+02</pdfrwt>
<pdfrwt beam="2">  1       22 0.18850079E+00 0.57022939E+02</pdfrwt>
<totfact> 0.50988269E-01</totfact>
</mgrwt>
</event>
<event>
 4    1  0.2416490E+000  0.5321863E+02  0.7957747E-01  0.1428716E+00
         13   -1    0    0    0    0  0.00000000000E+00  0.00000000000E+00  0.99999944176E+02  0.99999999996E+02  0.10566000000E+00 0. -1.
         22   -1    0    0    0    0 -0.00000000000E+00 -0.00000000000E+00 -0.26935619634E+02  0.26935619634E+02  0.00000000000E+00 0.  1.
         13    1    1    2    0    0 -0.16823870931E+01  0.18149156151E+02 -0.15290252557E+02  0.23791285855E+02  0.10566000000E+00 0.  1.
        996    1    1    2    0    0  0.16823870931E+01 -0.18149156151E+02  0.88354577099E+02  0.10314433377E+03  0.50000000000E+02 0.  0.
<mgrwt>
<rscale>  0 0.53218627E+02</rscale>
<asrwt>0</asrwt>
<pdfrwt beam="1">  1       13 0.10000000E+01 0.53218627E+02</pdfrwt>
<pdfrwt beam="2">  1       22 0.26935640E+00 0.53218627E+02</pdfrwt>
<totfact> 0.25506368E-01</totfact>
</mgrwt>
</event>
<event>
 4    1  0.2416490E+000  0.5677665E+02  0.7957747E-01  0.1411879E+00
         13   -1    0    0    0    0  0.00000000000E+00  0.00000000000E+00  0.99999944177E+02  0.99999999997E+02  0.10566000000E+00 0.  1.
         22   -1    0    0    0    0 -0.00000000000E+00 -0.00000000000E+00 -0.18387702737E+02  0.18387702737E+02  0.00000000000E+00 0. -1.
         13    1    1    2    0    0 -0.24112460600E+02 -0.11923804583E+02  0.14774694858E+02  0.30690236950E+02  0.10566000000E+00 0. -1.
        996    1    1    2    0    0  0.24112460600E+02  0.11923804583E+02  0.66837546582E+02  0.87697465784E+02  0.50000000000E+02 0.  0.
<mgrwt>
<rscale>  0 0.56776649E+02</rscale>
<asrwt>0</asrwt>
<pdfrwt beam="1">  1       13 0.10000000E+01 0.56776649E+02</pdfrwt>
<pdfrwt beam="2">  1       22 0.18387726E+00 0.56776649E+02</pdfrwt>
<totfact> 0.53324477E-01</totfact>
</mgrwt>
</event>
<event>
 4    1  0.2416490E+000  0.5419729E+02  0.7957747E-01  0.1423934E+00
         13   -1    0    0    0    0  0.00000000000E+00  0.00000000000E+00  0.99999944177E+02  0.99999999997E+02  0.10566000000E+00 0. -1.
         22   -1    0    0    0    0 -0.00000000000E+00 -0.00000000000E+00 -0.15874852120E+02  0.15874852120E+02  0.00000000000E+00 0. -1.
         13    1    1    2    0    0 -0.16577557282E+02 -0.12748754766E+02  0.79201378094E+01  0.22362600486E+02  0.10566000000E+00 0.  1.
        996    1    1    2    0    0  0.16577557282E+02  0.12748754766E+02  0.76204954247E+02  0.93512251632E+02  0.50000000000E+02 0.  0.
<mgrwt>
<rscale>  0 0.54197289E+02</rscale>
<asrwt>0</asrwt>
<pdfrwt beam="1">  1       13 0.10000000E+01 0.54197289E+02</pdfrwt>
<pdfrwt beam="2">  1       22 0.15874876E+00 0.54197289E+02</pdfrwt>
<totfact> 0.68729947E-01</totfact>
</mgrwt>
</event>
<event>
 4    1  0.2416490E+000  0.5107072E+02  0.7957747E-01  0.1439650E+00
         13   -1    0    0    0    0  0.00000000000E+00  0.00000000000E+00  0.99999944182E+02  0.10000000000E+03  0.10566000000E+00 0. -1.
         22   -1    0    0    0    0 -0.00000000000E+00 -0.00000000000E+00 -0.11374182783E+02  0.11374182783E+02  0.00000000000E+00 0. -1.
         13    1    1    2    0    0  0.10395206678E+02 -0.39769319295E+00  0.16791043665E+01  0.10537980701E+02  0.10566000000E+00 0.  1.
        996    1    1    2    0    0 -0.10395206678E+02  0.39769319295E+00  0.86946657032E+02  0.10083620208E+03  0.50000000000E+02 0.  0.
<mgrwt>
<rscale>  0 0.51070720E+02</rscale>
<asrwt>0</asrwt>
<pdfrwt beam="1">  1       13 0.10000000E+01 0.51070720E+02</pdfrwt>
<pdfrwt beam="2">  1       22 0.11374208E+00 0.51070720E+02</pdfrwt>
<totfact> 0.11634213E+00</totfact>
</mgrwt>
</event>
<event>
 4    1  0.2416490E+000  0.5232859E+02  0.7957747E-01  0.1433172E+00
         13   -1    0    0    0    0  0.00000000000E+00  0.00000000000E+00  0.99999944179E+02  0.10000000000E+03  0.10566000000E+00 0. -1.
         22   -1    0    0    0    0 -0.00000000000E+00 -0.00000000000E+00 -0.58527159154E+02  0.58527159154E+02  0.00000000000E+00 0.  1.
         13    1    1    2    0    0  0.14831632630E+02  0.42783085976E+01 -0.50447043041E+02  0.52756009767E+02  0.10566000000E+00 0.  1.
        996    1    1    2    0    0 -0.14831632630E+02 -0.42783085976E+01  0.91919828066E+02  0.10577114939E+03  0.50000000000E+02 0.  0.
<mgrwt>
<rscale>  0 0.52328589E+02</rscale>
<asrwt>0</asrwt>
<pdfrwt beam="1">  1       13 0.10000000E+01 0.52328589E+02</pdfrwt>
<pdfrwt beam="2">  1       22 0.58527171E+00 0.52328589E+02</pdfrwt>
<totfact> 0.59268337E-02</totfact>
</mgrwt>
</event>
<event>
 4    1  0.2416490E+000  0.5516180E+02  0.7957747E-01  0.1419335E+00
         13   -1    0    0    0    0  0.00000000000E+00  0.00000000000E+00  0.99999944179E+02  0.99999999999E+02  0.10566000000E+00 0. -1.
         22   -1    0    0    0    0 -0.00000000000E+00 -0.00000000000E+00 -0.15748276498E+02  0.15748276498E+02  0.00000000000E+00 0. -1.
         13    1    1    2    0    0 -0.10776457399E+02  0.20656528743E+02  0.17414274205E+02  0.29087666182E+02  0.10566000000E+00 0.  1.
        996    1    1    2    0    0  0.10776457399E+02 -0.20656528743E+02  0.66837393476E+02  0.86660610316E+02  0.50000000000E+02 0.  0.
<mgrwt>
<rscale>  0 0.55161800E+02</rscale>
<asrwt>0</asrwt>
<pdfrwt beam="1">  1       13 0.10000000E+01 0.55161800E+02</pdfrwt>
<pdfrwt beam="2">  1       22 0.15748300E+00 0.55161800E+02</pdfrwt>
<totfact> 0.69800941E-01</totfact>
</mgrwt>
</event>
<event>
 4    1  0.2416490E+000  0.5219817E+02  0.7957747E-01  0.1433833E+00
         13   -1    0    0    0    0  0.00000000000E+00  0.00000000000E+00  0.99999944173E+02  0.99999999993E+02  0.10566000000E+00 0.  1.
         22   -1    0    0    0    0 -0.00000000000E+00 -0.00000000000E+00 -0.11876577770E+02  0.11876577770E+02  0.00000000000E+00 0.  1.
         13    1    1    2    0    0 -0.10376436493E+02 -0.10815668551E+02  0.10367065170E+02  0.18224607672E+02  0.10566000000E+00 0. -1.
        996    1    1    2    0    0  0.10376436493E+02  0.10815668551E+02  0.77756301233E+02  0.93651970091E+02  0.50000000000E+02 0.  0.
<mgrwt>
<rscale>  0 0.52198172E+02</rscale>
<asrwt>0</asrwt>
<pdfrwt beam="1">  1       13 0.10000000E+01 0.52198172E+02</pdfrwt>
<pdfrwt beam="2">  1       22 0.11876602E+00 0.52198172E+02</pdfrwt>
<totfact> 0.10925532E+00</totfact>
</mgrwt>
</event>
<event>
 4    1  0.2416490E+000  0.5324886E+02  0.7957747E-01  0.1428566E+00
         13   -1    0    0    0    0  0.00000000000E+00  0.00000000000E+00  0.99999944177E+02  0.99999999997E+02  0.10566000000E+00 0.  1.
         22   -1    0    0    0    0 -0.00000000000E+00 -0.00000000000E+00 -0.14176014479E+02  0.14176014479E+02  0.00000000000E+00 0.  1.
         13    1    1    2    0    0  0.75136375088E+01 -0.16702873075E+02  0.82569153748E+01  0.20090508533E+02  0.10566000000E+00 0. -1.
        996    1    1    2    0    0 -0.75136375088E+01  0.16702873075E+02  0.77567014323E+02  0.94085505943E+02  0.50000000000E+02 0.  0.
<mgrwt>
<rscale>  0 0.53248856E+02</rscale>
<asrwt>0</asrwt>
<pdfrwt beam="1">  1       13 0.10000000E+01 0.53248856E+02</pdfrwt>
<pdfrwt beam="2">  1       22 0.14176038E+00 0.53248856E+02</pdfrwt>
<totfact> 0.82846608E-01</totfact>
</mgrwt>
</event>
<event>
 4    1  0.2416490E+000  0.5128637E+02  0.7957747E-01  0.1438524E+00
         13   -1    0    0    0    0  0.00000000000E+00  0.00000000000E+00  0.99999944178E+02  0.99999999999E+02  0.10566000000E+00 0.  1.
         22   -1    0    0    0    0 -0.00000000000E+00 -0.00000000000E+00 -0.98337225075E+01  0.98337225075E+01  0.00000000000E+00 0.  1.
         13    1    1    2    0    0 -0.55598169275E+01  0.99689849132E+01  0.15466842044E+02  0.19223074450E+02  0.10566000000E+00 0. -1.
        996    1    1    2    0    0  0.55598169275E+01 -0.99689849132E+01  0.74699379627E+02  0.90610648056E+02  0.50000000000E+02 0.  0.
<mgrwt>
<rscale>  0 0.51286375E+02</rscale>
<asrwt>0</asrwt>
<pdfrwt beam="1">  1       13 0.10000000E+01 0.51286375E+02</pdfrwt>
<pdfrwt beam="2">  1       22 0.98337477E-01 0.51286375E+02</pdfrwt>
<totfact> 0.14418699E+00</totfact>
</mgrwt>
</event>
<event>
 4    1  0.2416490E+000  0.5176447E+02  0.7957747E-01  0.1436050E+00
         13   -1    0    0    0    0  0.00000000000E+00  0.00000000000E+00  0.99999944182E+02  0.10000000000E+03  0.10566000000E+00 0.  1.
         22   -1    0    0    0    0 -0.00000000000E+00 -0.00000000000E+00 -0.31903068613E+02  0.31903068613E+02  0.00000000000E+00 0. -1.
         13    1    1    2    0    0  0.74194025047E+01 -0.11158518223E+02 -0.23292276425E+02  0.26871943873E+02  0.10566000000E+00 0. -1.
        996    1    1    2    0    0 -0.74194025047E+01  0.11158518223E+02  0.91389151994E+02  0.10503112474E+03  0.50000000000E+02 0.  0.
<mgrwt>
<rscale>  0 0.51764467E+02</rscale>
<asrwt>0</asrwt>
<pdfrwt beam="1">  1       13 0.10000000E+01 0.51764467E+02</pdfrwt>
<pdfrwt beam="2">  1       22 0.31903088E+00 0.51764467E+02</pdfrwt>
<totfact> 0.18493276E-01</totfact>
</mgrwt>
</event>
<event>
 4    1  0.2416490E+000  0.5565550E+02  0.7957747E-01  0.1417024E+00
         13   -1    0    0    0    0  0.00000000000E+00  0.00000000000E+00  0.99999944177E+02  0.99999999997E+02  0.10566000000E+00 0. -1.
         22   -1    0    0    0    0 -0.00000000000E+00 -0.00000000000E+00 -0.17014158080E+02  0.17014158080E+02  0.00000000000E+00 0. -1.
         13    1    1    2    0    0  0.86738947958E+01 -0.22853839137E+02  0.13292505217E+02  0.27825101495E+02  0.10566000000E+00 0.  1.
        996    1    1    2    0    0 -0.86738947958E+01  0.22853839137E+02  0.69693280880E+02  0.89189056582E+02  0.50000000000E+02 0.  0.
<mgrwt>
<rscale>  0 0.55655498E+02</rscale>
<asrwt>0</asrwt>
<pdfrwt beam="1">  1       13 0.10000000E+01 0.55655498E+02</pdfrwt>
<pdfrwt beam="2">  1       22 0.17014181E+00 0.55655498E+02</pdfrwt>
<totfact> 0.61125427E-01</totfact>
</mgrwt>
</event>
<event>
 4    1  0.2416490E+000  0.5220859E+02  0.7957747E-01  0.1433780E+00
         13   -1    0    0    0    0  0.00000000000E+00  0.00000000000E+00  0.99999944166E+02  0.99999999986E+02  0.10566000000E+00 0.  1.
         22   -1    0    0    0    0 -0.00000000000E+00 -0.00000000000E+00 -0.30007724764E+02  0.30007724764E+02  0.00000000000E+00 0. -1.
         13    1    1    2    0    0  0.98971995823E+01  0.11304102631E+02 -0.20570735281E+02  0.25473586514E+02  0.10566000000E+00 0. -1.
        996    1    1    2    0    0 -0.98971995823E+01 -0.11304102631E+02  0.90562954682E+02  0.10453413824E+03  0.50000000000E+02 0.  0.
<mgrwt>
<rscale>  0 0.52208594E+02</rscale>
<asrwt>0</asrwt>
<pdfrwt beam="1">  1       13 0.10000000E+01 0.52208594E+02</pdfrwt>
<pdfrwt beam="2">  1       22 0.30007744E+00 0.52208594E+02</pdfrwt>
<totfact> 0.20698814E-01</totfact>
</mgrwt>
</event>
<event>
 4    1  0.2416490E+000  0.5230247E+02  0.7957747E-01  0.1433304E+00
         13   -1    0    0    0    0  0.00000000000E+00  0.00000000000E+00  0.99999944181E+02  0.10000000000E+03  0.10566000000E+00 0.  1.
         22   -1    0    0    0    0 -0.00000000000E+00 -0.00000000000E+00 -0.22552222986E+02  0.22552222986E+02  0.00000000000E+00 0. -1.
         13    1    1    2    0    0  0.56987371469E+01 -0.14250373163E+02 -0.11628665366E+02  0.19255798155E+02  0.10566000000E+00 0. -1.
        996    1    1    2    0    0 -0.56987371469E+01  0.14250373163E+02  0.89076386561E+02  0.10329642483E+03  0.50000000000E+02 0.  0.
<mgrwt>
<rscale>  0 0.52302474E+02</rscale>
<asrwt>0</asrwt>
<pdfrwt beam="1">  1       13 0.10000000E+01 0.52302474E+02</pdfrwt>
<pdfrwt beam="2">  1       22 0.22552245E+00 0.52302474E+02</pdfrwt>
<totfact> 0.36073334E-01</totfact>
</mgrwt>
</event>
<event>
 4    1  0.2416490E+000  0.5480286E+02  0.7957747E-01  0.1421033E+00
         13   -1    0    0    0    0  0.00000000000E+00  0.00000000000E+00  0.99999944181E+02  0.10000000000E+03  0.10566000000E+00 0.  1.
         22   -1    0    0    0    0 -0.00000000000E+00 -0.00000000000E+00 -0.15658166043E+02  0.15658166043E+02  0.00000000000E+00 0.  1.
         13    1    1    2    0    0  0.98477231208E+01  0.20158770258E+02  0.36838885409E+02  0.43133146317E+02  0.10566000000E+00 0. -1.
        996    1    1    2    0    0 -0.98477231208E+01 -0.20158770258E+02  0.47502892728E+02  0.72525019728E+02  0.50000000000E+02 0.  0.
<mgrwt>
<rscale>  0 0.54802862E+02</rscale>
<asrwt>0</asrwt>
<pdfrwt beam="1">  1       13 0.10000000E+01 0.54802862E+02</pdfrwt>
<pdfrwt beam="2">  1       22 0.15658190E+00 0.54802862E+02</pdfrwt>
<totfact> 0.70437111E-01</totfact>
</mgrwt>
</event>
<event>
 4    1  0.2416490E+000  0.5461309E+02  0.7957747E-01  0.1421938E+00
         13   -1    0    0    0    0  0.00000000000E+00  0.00000000000E+00  0.99999944173E+02  0.99999999993E+02  0.10566000000E+00 0.  1.
         22   -1    0    0    0    0 -0.00000000000E+00 -0.00000000000E+00 -0.28378653346E+02  0.28378653346E+02  0.00000000000E+00 0. -1.
         13    1    1    2    0    0  0.15807718735E+02 -0.15254691238E+02 -0.14556454243E+02  0.26353199057E+02  0.10566000000E+00 0. -1.
        996    1    1    2    0    0 -0.15807718735E+02  0.15254691238E+02  0.86177745070E+02  0.10202545428E+03  0.50000000000E+02 0.  0.
<mgrwt>
<rscale>  0 0.54613090E+02</rscale>
<asrwt>0</asrwt>
<pdfrwt beam="1">  1       13 0.10000000E+01 0.54613090E+02</pdfrwt>
<pdfrwt beam="2">  1       22 0.28378673E+00 0.54613090E+02</pdfrwt>
<totfact> 0.23088793E-01</totfact>
</mgrwt>
</event>
<event>
 4    1  0.2416490E+000  0.5638257E+02  0.7957747E-01  0.1413671E+00
         13   -1    0    0    0    0  0.00000000000E+00  0.00000000000E+00  0.99999944174E+02  0.99999999994E+02  0.10566000000E+00 0. -1.
         22   -1    0    0    0    0 -0.00000000000E+00 -0.00000000000E+00 -0.31361161693E+02  0.31361161693E+02  0.00000000000E+00 0.  1.
         13    1    1    2    0    0  0.19648506134E+02  0.17115210876E+02 -0.15319726033E+02  0.30227461130E+02  0.10566000000E+00 0.  1.
        996    1    1    2    0    0 -0.19648506134E+02 -0.17115210876E+02  0.83958508514E+02  0.10113370056E+03  0.50000000000E+02 0.  0.
<mgrwt>
<rscale>  0 0.56382570E+02</rscale>
<asrwt>0</asrwt>
<pdfrwt beam="1">  1       13 0.10000000E+01 0.56382570E+02</pdfrwt>
<pdfrwt beam="2">  1       22 0.31361181E+00 0.56382570E+02</pdfrwt>
<totfact> 0.19179348E-01</totfact>
</mgrwt>
</event>
<event>
 4    1  0.2416490E+000  0.6681281E+02  0.7957747E-01  0.1371279E+00
         13   -1    0    0    0    0  0.00000000000E+00  0.00000000000E+00  0.99999944173E+02  0.99999999994E+02  0.10566000000E+00 0. -1.
         22   -1    0    0    0    0 -0.00000000000E+00 -0.00000000000E+00 -0.37337029474E+02  0.37337029474E+02  0.00000000000E+00 0.  1.
         13    1    1    2    0    0  0.23462994215E+02 -0.37595728759E+02 -0.19939354113E+01  0.44361445659E+02  0.10566000000E+00 0.  1.
        996    1    1    2    0    0 -0.23462994215E+02  0.37595728759E+02  0.64656850110E+02  0.92975583809E+02  0.50000000000E+02 0.  0.
<mgrwt>
<rscale>  0 0.66812805E+02</rscale>
<asrwt>0</asrwt>
<pdfrwt beam="1">  1       13 0.10000000E+01 0.66812805E+02</pdfrwt>
<pdfrwt beam="2">  1       22 0.37337047E+00 0.66812805E+02</pdfrwt>
<totfact> 0.14196582E-01</totfact>
</mgrwt>
</event>
<event>
 4    1  0.2416490E+000  0.5107851E+02  0.7957747E-01  0.1439610E+00
         13   -1    0    0    0    0  0.00000000000E+00  0.00000000000E+00  0.99999944182E+02  0.10000000000E+03  0.10566000000E+00 0. -1.
         22   -1    0    0    0    0 -0.00000000000E+00 -0.00000000000E+00 -0.12091965334E+02  0.12091965334E+02  0.00000000000E+00 0.  1.
         13    1    1    2    0    0  0.10435771594E+02 -0.32920222032E+00  0.22832983187E-01  0.10441522314E+02  0.10566000000E+00 0.  1.
        996    1    1    2    0    0 -0.10435771594E+02  0.32920222032E+00  0.87885145864E+02  0.10165044302E+03  0.50000000000E+02 0.  0.
<mgrwt>
<rscale>  0 0.51078505E+02</rscale>
<asrwt>0</asrwt>
<pdfrwt beam="1">  1       13 0.10000000E+01 0.51078505E+02</pdfrwt>
<pdfrwt beam="2">  1       22 0.12091990E+00 0.51078505E+02</pdfrwt>
<totfact> 0.10602257E+00</totfact>
</mgrwt>
</event>
<event>
 4    1  0.2416490E+000  0.6693254E+02  0.7957747E-01  0.1370846E+00
         13   -1    0    0    0    0  0.00000000000E+00  0.00000000000E+00  0.99999944180E+02  0.10000000000E+03  0.10566000000E+00 0. -1.
         22   -1    0    0    0    0 -0.00000000000E+00 -0.00000000000E+00 -0.39386203750E+02  0.39386203750E+02  0.00000000000E+00 0.  1.
         13    1    1    2    0    0 -0.89638896878E+01 -0.43584562794E+02 -0.60652709811E+01  0.44908396858E+02  0.10566000000E+00 0.  1.
        996    1    1    2    0    0  0.89638896878E+01  0.43584562794E+02  0.66679011411E+02  0.94477806891E+02  0.50000000000E+02 0.  0.
<mgrwt>
<rscale>  0 0.66932544E+02</rscale>
<asrwt>0</asrwt>
<pdfrwt beam="1">  1       13 0.10000000E+01 0.66932544E+02</pdfrwt>
<pdfrwt beam="2">  1       22 0.39386221E+00 0.66932544E+02</pdfrwt>
<totfact> 0.12868925E-01</totfact>
</mgrwt>
</event>
<event>
 4    1  0.2416490E+000  0.5260246E+02  0.7957747E-01  0.1431790E+00
         13   -1    0    0    0    0  0.00000000000E+00  0.00000000000E+00  0.99999944171E+02  0.99999999991E+02  0.10566000000E+00 0. -1.
         22   -1    0    0    0    0 -0.00000000000E+00 -0.00000000000E+00 -0.20698868832E+02  0.20698868832E+02  0.00000000000E+00 0.  1.
         13    1    1    2    0    0  0.73469464446E-01 -0.16340553722E+02 -0.84444174218E+01  0.18393978453E+02  0.10566000000E+00 0.  1.
        996    1    1    2    0    0 -0.73469464446E-01  0.16340553722E+02  0.87745492761E+02  0.10230489037E+03  0.50000000000E+02 0.  0.
<mgrwt>
<rscale>  0 0.52602463E+02</rscale>
<asrwt>0</asrwt>
<pdfrwt beam="1">  1       13 0.10000000E+01 0.52602463E+02</pdfrwt>
<pdfrwt beam="2">  1       22 0.20698891E+00 0.52602463E+02</pdfrwt>
<totfact> 0.42524696E-01</totfact>
</mgrwt>
</event>
<event>
 4    1  0.2416490E+000  0.7522059E+02  0.7957747E-01  0.1343189E+00
         13   -1    0    0    0    0  0.00000000000E+00  0.00000000000E+00  0.99999944172E+02  0.99999999992E+02  0.10566000000E+00 0. -1.
         22   -1    0    0    0    0 -0.00000000000E+00 -0.00000000000E+00 -0.45503070893E+02  0.45503070893E+02  0.00000000000E+00 0.  1.
         13    1    1    2    0    0  0.27566181643E+02 -0.48971855891E+02  0.72203431339E+01  0.56659346615E+02  0.10566000000E+00 0.  1.
        996    1    1    2    0    0 -0.27566181643E+02  0.48971855891E+02  0.47276530145E+02  0.88843724271E+02  0.50000000000E+02 0.  0.
<mgrwt>
<rscale>  0 0.75220589E+02</rscale>
<asrwt>0</asrwt>
<pdfrwt beam="1">  1       13 0.10000000E+01 0.75220589E+02</pdfrwt>
<pdfrwt beam="2">  1       22 0.45503086E+00 0.75220589E+02</pdfrwt>
<totfact> 0.95155877E-02</totfact>
</mgrwt>
</event>
<event>
 4    1  0.2416490E+000  0.5450715E+02  0.7957747E-01  0.1422444E+00
         13   -1    0    0    0    0  0.00000000000E+00  0.00000000000E+00  0.99999944178E+02  0.99999999998E+02  0.10566000000E+00 0.  1.
         22   -1    0    0    0    0 -0.00000000000E+00 -0.00000000000E+00 -0.15464993546E+02  0.15464993546E+02  0.00000000000E+00 0.  1.
         13    1    1    2    0    0  0.47976419871E+00  0.21697917973E+02  0.38155433137E+02  0.43896219199E+02  0.10566000000E+00 0. -1.
        996    1    1    2    0    0 -0.47976419871E+00 -0.21697917973E+02  0.46379517495E+02  0.71568774344E+02  0.50000000000E+02 0.  0.
<mgrwt>
<rscale>  0 0.54507154E+02</rscale>
<asrwt>0</asrwt>
<pdfrwt beam="1">  1       13 0.10000000E+01 0.54507154E+02</pdfrwt>
<pdfrwt beam="2">  1       22 0.15465017E+00 0.54507154E+02</pdfrwt>
<totfact> 0.71892064E-01</totfact>
</mgrwt>
</event>
<event>
 4    1  0.2416490E+000  0.5591407E+02  0.7957747E-01  0.1415825E+00
         13   -1    0    0    0    0  0.00000000000E+00  0.00000000000E+00  0.99999944178E+02  0.99999999998E+02  0.10566000000E+00 0.  1.
         22   -1    0    0    0    0 -0.00000000000E+00 -0.00000000000E+00 -0.39791784101E+02  0.39791784101E+02  0.00000000000E+00 0. -1.
         13    1    1    2    0    0  0.25027113078E+02 -0.16396547975E+00 -0.26607194594E+02  0.36528581164E+02  0.10566000000E+00 0. -1.
        996    1    1    2    0    0 -0.25027113078E+02  0.16396547975E+00  0.86815354671E+02  0.10326320293E+03  0.50000000000E+02 0.  0.
<mgrwt>
<rscale>  0 0.55914070E+02</rscale>
<asrwt>0</asrwt>
<pdfrwt beam="1">  1       13 0.10000000E+01 0.55914070E+02</pdfrwt>
<pdfrwt beam="2">  1       22 0.39791801E+00 0.55914070E+02</pdfrwt>
<totfact> 0.12527968E-01</totfact>
</mgrwt>
</event>
<event>
 4    1  0.2416490E+000  0.7705502E+02  0.7957747E-01  0.1337623E+00
         13   -1    0    0    0    0  0.00000000000E+00  0.00000000000E+00  0.99999944180E+02  0.10000000000E+03  0.10566000000E+00 0.  1.
         22   -1    0    0    0    0 -0.00000000000E+00 -0.00000000000E+00 -0.69148319929E+02  0.69148319929E+02  0.00000000000E+00 0. -1.
         13    1    1    2    0    0  0.54757867402E+02 -0.20953568803E+02 -0.34573325533E+02  0.68064690482E+02  0.10566000000E+00 0. -1.
        996    1    1    2    0    0 -0.54757867402E+02  0.20953568803E+02  0.65424949785E+02  0.10108362945E+03  0.50000000000E+02 0.  0.
<mgrwt>
<rscale>  0 0.77055020E+02</rscale>
<asrwt>0</asrwt>
<pdfrwt beam="1">  1       13 0.10000000E+01 0.77055020E+02</pdfrwt>
<pdfrwt beam="2">  1       22 0.69148329E+00 0.77055020E+02</pdfrwt>
<totfact> 0.78764658E-02</totfact>
</mgrwt>
</event>
<event>
 4    1  0.2416490E+000  0.5172752E+02  0.7957747E-01  0.1436240E+00
         13   -1    0    0    0    0  0.00000000000E+00  0.00000000000E+00  0.99999944176E+02  0.99999999997E+02  0.10566000000E+00 0. -1.
         22   -1    0    0    0    0 -0.00000000000E+00 -0.00000000000E+00 -0.10929503126E+02  0.10929503126E+02  0.00000000000E+00 0. -1.
         13    1    1    2    0    0  0.64238512895E+00 -0.13240970836E+02  0.10744983183E+02  0.17064635800E+02  0.10566000000E+00 0.  1.
        996    1    1    2    0    0 -0.64238512895E+00  0.13240970836E+02  0.78325457868E+02  0.93864867323E+02  0.50000000000E+02 0.  0.
<mgrwt>
<rscale>  0 0.51727517E+02</rscale>
<asrwt>0</asrwt>
<pdfrwt beam="1">  1       13 0.10000000E+01 0.51727517E+02</pdfrwt>
<pdfrwt beam="2">  1       22 0.10929528E+00 0.51727517E+02</pdfrwt>
<totfact> 0.12367126E+00</totfact>
</mgrwt>
</event>
<event>
 4    1  0.2416490E+000  0.6124801E+02  0.7957747E-01  0.1392668E+00
         13   -1    0    0    0    0  0.00000000000E+00  0.00000000000E+00  0.99999944175E+02  0.99999999995E+02  0.10566000000E+00 0.  1.
         22   -1    0    0    0    0 -0.00000000000E+00 -0.00000000000E+00 -0.25217673142E+02  0.25217673142E+02  0.00000000000E+00 0. -1.
         13    1    1    2    0    0  0.59934675703E+01 -0.34862554041E+02  0.11614785840E+02  0.37232160049E+02  0.10566000000E+00 0. -1.
        996    1    1    2    0    0 -0.59934675703E+01  0.34862554041E+02  0.63167485193E+02  0.87985513088E+02  0.50000000000E+02 0.  0.
<mgrwt>
<rscale>  0 0.61248015E+02</rscale>
<asrwt>0</asrwt>
<pdfrwt beam="1">  1       13 0.10000000E+01 0.61248015E+02</pdfrwt>
<pdfrwt beam="2">  1       22 0.25217694E+00 0.61248015E+02</pdfrwt>
<totfact> 0.29365694E-01</totfact>
</mgrwt>
</event>
<event>
 4    1  0.2416490E+000  0.5258632E+02  0.7957747E-01  0.1431871E+00
         13   -1    0    0    0    0  0.00000000000E+00  0.00000000000E+00  0.99999944180E+02  0.10000000000E+03  0.10566000000E+00 0.  1.
         22   -1    0    0    0    0 -0.00000000000E+00 -0.00000000000E+00 -0.28773783741E+02  0.28773783741E+02  0.00000000000E+00 0. -1.
         13    1    1    2    0    0  0.65996148711E+01 -0.14891802624E+02 -0.18576890412E+02  0.24706936743E+02  0.10566000000E+00 0. -1.
        996    1    1    2    0    0 -0.65996148711E+01  0.14891802624E+02  0.89803050851E+02  0.10406684700E+03  0.50000000000E+02 0.  0.
<mgrwt>
<rscale>  0 0.52586317E+02</rscale>
<asrwt>0</asrwt>
<pdfrwt beam="1">  1       13 0.10000000E+01 0.52586317E+02</pdfrwt>
<pdfrwt beam="2">  1       22 0.28773804E+00 0.52586317E+02</pdfrwt>
<totfact> 0.22422271E-01</totfact>
</mgrwt>
</event>
<event>
 4    1  0.2416490E+000  0.5137283E+02  0.7957747E-01  0.1438074E+00
         13   -1    0    0    0    0  0.00000000000E+00  0.00000000000E+00  0.99999944178E+02  0.99999999998E+02  0.10566000000E+00 0.  1.
         22   -1    0    0    0    0 -0.00000000000E+00 -0.00000000000E+00 -0.45533996128E+02  0.45533996128E+02  0.00000000000E+00 0. -1.
         13    1    1    2    0    0 -0.61069025912E+01  0.10093229398E+02 -0.37981513393E+02  0.39771523263E+02  0.10566000000E+00 0. -1.
        996    1    1    2    0    0  0.61069025912E+01 -0.10093229398E+02  0.92447461443E+02  0.10576247286E+03  0.50000000000E+02 0.  0.
<mgrwt>
<rscale>  0 0.51372829E+02</rscale>
<asrwt>0</asrwt>
<pdfrwt beam="1">  1       13 0.10000000E+01 0.51372829E+02</pdfrwt>
<pdfrwt beam="2">  1       22 0.45534011E+00 0.51372829E+02</pdfrwt>
<totfact> 0.93923780E-02</totfact>
</mgrwt>
</event>
<event>
 4    1  0.2416490E+000  0.5666190E+02  0.7957747E-01  0.1412399E+00
         13   -1    0    0    0    0  0.00000000000E+00  0.00000000000E+00  0.99999944182E+02  0.10000000000E+03  0.10566000000E+00 0.  1.
         22   -1    0    0    0    0 -0.00000000000E+00 -0.00000000000E+00 -0.26330451180E+02  0.26330451180E+02  0.00000000000E+00 0. -1.
         13    1    1    2    0    0 -0.71808671750E+01  0.25671121638E+02 -0.71760064743E+01  0.27605752525E+02  0.10566000000E+00 0. -1.
        996    1    1    2    0    0  0.71808671750E+01 -0.25671121638E+02  0.80845499476E+02  0.98724698658E+02  0.50000000000E+02 0.  0.
<mgrwt>
<rscale>  0 0.56661904E+02</rscale>
<asrwt>0</asrwt>
<pdfrwt beam="1">  1       13 0.10000000E+01 0.56661904E+02</pdfrwt>
<pdfrwt beam="2">  1       22 0.26330472E+00 0.56661904E+02</pdfrwt>
<totfact> 0.26799997E-01</totfact>
</mgrwt>
</event>
<event>
 4    1  0.2416490E+000  0.5668009E+02  0.7957747E-01  0.1412317E+00
         13   -1    0    0    0    0  0.00000000000E+00  0.00000000000E+00  0.99999944181E+02  0.10000000000E+03  0.10566000000E+00 0. -1.
         22   -1    0    0    0    0 -0.00000000000E+00 -0.00000000000E+00 -0.71334052642E+02  0.71334052642E+02  0.00000000000E+00 0.  1.
         13    1    1    2    0    0  0.26481918604E+02  0.33675278455E+01 -0.60244166434E+02  0.65893876879E+02  0.10566000000E+00 0.  1.
        996    1    1    2    0    0 -0.26481918604E+02 -0.33675278455E+01  0.88910057973E+02  0.10544017577E+03  0.50000000000E+02 0.  0.
<mgrwt>
<rscale>  0 0.56680087E+02</rscale>
<asrwt>0</asrwt>
<pdfrwt beam="1">  1       13 0.10000000E+01 0.56680087E+02</pdfrwt>
<pdfrwt beam="2">  1       22 0.71334061E+00 0.56680087E+02</pdfrwt>
<totfact> 0.67620987E-02</totfact>
</mgrwt>
</event>
<event>
 4    1  0.2416490E+000  0.5477177E+02  0.7957747E-01  0.1421181E+00
         13   -1    0    0    0    0  0.00000000000E+00  0.00000000000E+00  0.99999944173E+02  0.99999999993E+02  0.10566000000E+00 0.  1.
         22   -1    0    0    0    0 -0.00000000000E+00 -0.00000000000E+00 -0.20757390725E+02  0.20757390725E+02  0.00000000000E+00 0. -1.
         13    1    1    2    0    0 -0.68606508255E+01  0.21280931911E+02 -0.23531918819E+01  0.22483221941E+02  0.10566000000E+00 0. -1.
        996    1    1    2    0    0  0.68606508255E+01 -0.21280931911E+02  0.81595745330E+02  0.98274168777E+02  0.50000000000E+02 0.  0.
<mgrwt>
<rscale>  0 0.54771768E+02</rscale>
<asrwt>0</asrwt>
<pdfrwt beam="1">  1       13 0.10000000E+01 0.54771768E+02</pdfrwt>
<pdfrwt beam="2">  1       22 0.20757413E+00 0.54771768E+02</pdfrwt>
<totfact> 0.42455014E-01</totfact>
</mgrwt>
</event>
<event>
 4    1  0.2416490E+000  0.5396549E+02  0.7957747E-01  0.1425055E+00
         13   -1    0    0    0    0  0.00000000000E+00  0.00000000000E+00  0.99999944193E+02  0.10000000001E+03  0.10566000000E+00 0. -1.
         22   -1    0    0    0    0 -0.00000000000E+00 -0.00000000000E+00 -0.16797259559E+02  0.16797259559E+02  0.00000000000E+00 0. -1.
         13    1    1    2    0    0 -0.19369466423E+02  0.60908108300E+01  0.35926846953E+01  0.20620202556E+02  0.10566000000E+00 0.  1.
        996    1    1    2    0    0  0.19369466423E+02 -0.60908108300E+01  0.79609999939E+02  0.96177057016E+02  0.50000000000E+02 0.  0.
<mgrwt>
<rscale>  0 0.53965491E+02</rscale>
<asrwt>0</asrwt>
<pdfrwt beam="1">  1       13 0.10000000E+01 0.53965491E+02</pdfrwt>
<pdfrwt beam="2">  1       22 0.16797283E+00 0.53965491E+02</pdfrwt>
<totfact> 0.62320351E-01</totfact>
</mgrwt>
</event>
<event>
 4    1  0.2416490E+000  0.6786458E+02  0.7957747E-01  0.1367509E+00
         13   -1    0    0    0    0  0.00000000000E+00  0.00000000000E+00  0.99999944177E+02  0.99999999997E+02  0.10566000000E+00 0. -1.
         22   -1    0    0    0    0 -0.00000000000E+00 -0.00000000000E+00 -0.51166970950E+02  0.51166970950E+02  0.00000000000E+00 0.  1.
         13    1    1    2    0    0  0.16840344732E+02  0.42684933852E+02 -0.23859666714E+02  0.51719393349E+02  0.10566000000E+00 0.  1.
        996    1    1    2    0    0 -0.16840344732E+02 -0.42684933852E+02  0.72692639941E+02  0.99447577599E+02  0.50000000000E+02 0.  0.
<mgrwt>
<rscale>  0 0.67864577E+02</rscale>
<asrwt>0</asrwt>
<pdfrwt beam="1">  1       13 0.10000000E+01 0.67864577E+02</pdfrwt>
<pdfrwt beam="2">  1       22 0.51166985E+00 0.67864577E+02</pdfrwt>
<totfact> 0.69552521E-02</totfact>
</mgrwt>
</event>
<event>
 4    1  0.2416490E+000  0.5575944E+02  0.7957747E-01  0.1416541E+00
         13   -1    0    0    0    0  0.00000000000E+00  0.00000000000E+00  0.99999944170E+02  0.99999999990E+02  0.10566000000E+00 0.  1.
         22   -1    0    0    0    0 -0.00000000000E+00 -0.00000000000E+00 -0.20463000258E+02  0.20463000258E+02  0.00000000000E+00 0. -1.
         13    1    1    2    0    0 -0.18433408074E+02  0.16411114023E+02  0.17324105606E+01  0.24741212725E+02  0.10566000000E+00 0. -1.
        996    1    1    2    0    0  0.18433408074E+02 -0.16411114023E+02  0.77804533351E+02  0.95721787523E+02  0.50000000000E+02 0.  0.
<mgrwt>
<rscale>  0 0.55759440E+02</rscale>
<asrwt>0</asrwt>
<pdfrwt beam="1">  1       13 0.10000000E+01 0.55759440E+02</pdfrwt>
<pdfrwt beam="2">  1       22 0.20463022E+00 0.55759440E+02</pdfrwt>
<totfact> 0.43686659E-01</totfact>
</mgrwt>
</event>
<event>
 4    1  0.2416490E+000  0.5263529E+02  0.7957747E-01  0.1431625E+00
         13   -1    0    0    0    0  0.00000000000E+00  0.00000000000E+00  0.99999944180E+02  0.10000000000E+03  0.10566000000E+00 0. -1.
         22   -1    0    0    0    0 -0.00000000000E+00 -0.00000000000E+00 -0.25382553883E+02  0.25382553883E+02  0.00000000000E+00 0.  1.
         13    1    1    2    0    0  0.15579409241E+02  0.52683499646E+01 -0.14471254191E+02  0.21906662584E+02  0.10566000000E+00 0.  1.
        996    1    1    2    0    0 -0.15579409241E+02 -0.52683499646E+01  0.89088644488E+02  0.10347589130E+03  0.50000000000E+02 0.  0.
<mgrwt>
<rscale>  0 0.52635288E+02</rscale>
<asrwt>0</asrwt>
<pdfrwt beam="1">  1       13 0.10000000E+01 0.52635288E+02</pdfrwt>
<pdfrwt beam="2">  1       22 0.25382575E+00 0.52635288E+02</pdfrwt>
<totfact> 0.28639483E-01</totfact>
</mgrwt>
</event>
<event>
 4    1  0.2416490E+000  0.5977300E+02  0.7957747E-01  0.1398787E+00
         13   -1    0    0    0    0  0.00000000000E+00  0.00000000000E+00  0.99999944187E+02  0.10000000001E+03  0.10566000000E+00 0. -1.
         22   -1    0    0    0    0 -0.00000000000E+00 -0.00000000000E+00 -0.24189429623E+02  0.24189429623E+02  0.00000000000E+00 0.  1.
         13    1    1    2    0    0 -0.31847555126E+02  0.76514687705E+01  0.78474742425E+01  0.33680940572E+02  0.10566000000E+00 0.  1.
        996    1    1    2    0    0  0.31847555126E+02 -0.76514687705E+01  0.67963040322E+02  0.90508489058E+02  0.50000000000E+02 0.  0.
<mgrwt>
<rscale>  0 0.59773002E+02</rscale>
<asrwt>0</asrwt>
<pdfrwt beam="1">  1       13 0.10000000E+01 0.59773002E+02</pdfrwt>
<pdfrwt beam="2">  1       22 0.24189451E+00 0.59773002E+02</pdfrwt>
<totfact> 0.31817571E-01</totfact>
</mgrwt>
</event>
<event>
 4    1  0.2416490E+000  0.6659222E+02  0.7957747E-01  0.1372080E+00
         13   -1    0    0    0    0  0.00000000000E+00  0.00000000000E+00  0.99999944174E+02  0.99999999994E+02  0.10566000000E+00 0.  1.
         22   -1    0    0    0    0 -0.00000000000E+00 -0.00000000000E+00 -0.68834281455E+02  0.68834281455E+02  0.00000000000E+00 0. -1.
         13    1    1    2    0    0 -0.41360530014E+02 -0.14960960179E+02 -0.48186957069E+02  0.65241993901E+02  0.10566000000E+00 0. -1.
        996    1    1    2    0    0  0.41360530014E+02  0.14960960179E+02  0.79352619787E+02  0.10359228755E+03  0.50000000000E+02 0.  0.
<mgrwt>
<rscale>  0 0.66592220E+02</rscale>
<asrwt>0</asrwt>
<pdfrwt beam="1">  1       13 0.10000000E+01 0.66592220E+02</pdfrwt>
<pdfrwt beam="2">  1       22 0.68834290E+00 0.66592220E+02</pdfrwt>
<totfact> 0.80173432E-02</totfact>
</mgrwt>
</event>
<event>
 4    1  0.2416490E+000  0.5262599E+02  0.7957747E-01  0.1431671E+00
         13   -1    0    0    0    0  0.00000000000E+00  0.00000000000E+00  0.99999944182E+02  0.10000000000E+03  0.10566000000E+00 0. -1.
         22   -1    0    0    0    0 -0.00000000000E+00 -0.00000000000E+00 -0.12092156741E+02  0.12092156741E+02  0.00000000000E+00 0. -1.
         13    1    1    2    0    0  0.48383142609E+01  0.15687117529E+02  0.26991804369E+02  0.31592144726E+02  0.10566000000E+00 0.  1.
        996    1    1    2    0    0 -0.48383142609E+01 -0.15687117529E+02  0.60915983071E+02  0.80500012017E+02  0.50000000000E+02 0.  0.
<mgrwt>
<rscale>  0 0.52625991E+02</rscale>
<asrwt>0</asrwt>
<pdfrwt beam="1">  1       13 0.10000000E+01 0.52625991E+02</pdfrwt>
<pdfrwt beam="2">  1       22 0.12092181E+00 0.52625991E+02</pdfrwt>
<totfact> 0.10638731E+00</totfact>
</mgrwt>
</event>
<event>
 4    1  0.2416490E+000  0.5650642E+02  0.7957747E-01  0.1413106E+00
         13   -1    0    0    0    0  0.00000000000E+00  0.00000000000E+00  0.99999944176E+02  0.99999999996E+02  0.10566000000E+00 0.  1.
         22   -1    0    0    0    0 -0.00000000000E+00 -0.00000000000E+00 -0.67931887576E+02  0.67931887576E+02  0.00000000000E+00 0. -1.
         13    1    1    2    0    0  0.16412261772E+02 -0.20581861316E+02 -0.56809528543E+02  0.62612371373E+02  0.10566000000E+00 0. -1.
        996    1    1    2    0    0 -0.16412261772E+02  0.20581861316E+02  0.88877585143E+02  0.10531951620E+03  0.50000000000E+02 0.  0.
<mgrwt>
<rscale>  0 0.56506419E+02</rscale>
<asrwt>0</asrwt>
<pdfrwt beam="1">  1       13 0.10000000E+01 0.56506419E+02</pdfrwt>
<pdfrwt beam="2">  1       22 0.67931897E+00 0.56506419E+02</pdfrwt>
<totfact> 0.83705886E-02</totfact>
</mgrwt>
</event>
<event>
 4    1  0.2416490E+000  0.5122499E+02  0.7957747E-01  0.1438844E+00
         13   -1    0    0    0    0  0.00000000000E+00  0.00000000000E+00  0.99999944163E+02  0.99999999983E+02  0.10566000000E+00 0.  1.
         22   -1    0    0    0    0 -0.00000000000E+00 -0.00000000000E+00 -0.73587010084E+02  0.73587010084E+02  0.00000000000E+00 0. -1.
         13    1    1    2    0    0 -0.68898764930E+01  0.87481218638E+01 -0.66533786122E+02  0.67459290643E+02  0.10566000000E+00 0. -1.
        996    1    1    2    0    0  0.68898764930E+01 -0.87481218638E+01  0.92946720201E+02  0.10612771943E+03  0.50000000000E+02 0.  0.
<mgrwt>
<rscale>  0 0.51224994E+02</rscale>
<asrwt>0</asrwt>
<pdfrwt beam="1">  1       13 0.10000000E+01 0.51224994E+02</pdfrwt>
<pdfrwt beam="2">  1       22 0.73587017E+00 0.51224994E+02</pdfrwt>
<totfact> 0.55784343E-02</totfact>
</mgrwt>
</event>
<event>
 4    1  0.2416490E+000  0.5128231E+02  0.7957747E-01  0.1438545E+00
         13   -1    0    0    0    0  0.00000000000E+00  0.00000000000E+00  0.99999944174E+02  0.99999999994E+02  0.10566000000E+00 0.  1.
         22   -1    0    0    0    0 -0.00000000000E+00 -0.00000000000E+00 -0.99054144751E+01  0.99054144751E+01  0.00000000000E+00 0.  1.
         13    1    1    2    0    0 -0.11388599978E+02  0.41873175106E+00  0.12714628591E+02  0.17074791067E+02  0.10566000000E+00 0. -1.
        996    1    1    2    0    0  0.11388599978E+02 -0.41873175106E+00  0.77379901107E+02  0.92830623402E+02  0.50000000000E+02 0.  0.
<mgrwt>
<rscale>  0 0.51282312E+02</rscale>
<asrwt>0</asrwt>
<pdfrwt beam="1">  1       13 0.10000000E+01 0.51282312E+02</pdfrwt>
<pdfrwt beam="2">  1       22 0.99054396E-01 0.51282312E+02</pdfrwt>
<totfact> 0.14268201E+00</totfact>
</mgrwt>
</event>
<event>
 4    1  0.2416490E+000  0.5188311E+02  0.7957747E-01  0.1435441E+00
         13   -1    0    0    0    0  0.00000000000E+00  0.00000000000E+00  0.99999944176E+02  0.99999999996E+02  0.10566000000E+00 0.  1.
         22   -1    0    0    0    0 -0.00000000000E+00 -0.00000000000E+00 -0.16277813479E+02  0.16277813479E+02  0.00000000000E+00 0. -1.
         13    1    1    2    0    0  0.11774693518E+02 -0.72948049588E+01 -0.39501809026E+01  0.14403911970E+02  0.10566000000E+00 0. -1.
        996    1    1    2    0    0 -0.11774693518E+02  0.72948049588E+01  0.87672311600E+02  0.10187390151E+03  0.50000000000E+02 0.  0.
<mgrwt>
<rscale>  0 0.51883115E+02</rscale>
<asrwt>0</asrwt>
<pdfrwt beam="1">  1       13 0.10000000E+01 0.51883115E+02</pdfrwt>
<pdfrwt beam="2">  1       22 0.16277837E+00 0.51883115E+02</pdfrwt>
<totfact> 0.65544591E-01</totfact>
</mgrwt>
</event>
<event>
 4    1  0.2416490E+000  0.5339207E+02  0.7957747E-01  0.1427860E+00
         13   -1    0    0    0    0  0.00000000000E+00  0.00000000000E+00  0.99999944176E+02  0.99999999996E+02  0.10566000000E+00 0. -1.
         22   -1    0    0    0    0 -0.00000000000E+00 -0.00000000000E+00 -0.13062246128E+02  0.13062246128E+02  0.00000000000E+00 0.  1.
         13    1    1    2    0    0 -0.18658327535E+02  0.16063535811E+01  0.19332338722E+02  0.26915869719E+02  0.10566000000E+00 0.  1.
        996    1    1    2    0    0  0.18658327535E+02 -0.16063535811E+01  0.67605359326E+02  0.86146376405E+02  0.50000000000E+02 0.  0.
<mgrwt>
<rscale>  0 0.53392074E+02</rscale>
<asrwt>0</asrwt>
<pdfrwt beam="1">  1       13 0.10000000E+01 0.53392074E+02</pdfrwt>
<pdfrwt beam="2">  1       22 0.13062270E+00 0.53392074E+02</pdfrwt>
<totfact> 0.94494022E-01</totfact>
</mgrwt>
</event>
<event>
 4    1  0.2416490E+000  0.5413513E+02  0.7957747E-01  0.1424234E+00
         13   -1    0    0    0    0  0.00000000000E+00  0.00000000000E+00  0.99999944180E+02  0.10000000000E+03  0.10566000000E+00 0. -1.
         22   -1    0    0    0    0 -0.00000000000E+00 -0.00000000000E+00 -0.29542277019E+02  0.29542277019E+02  0.00000000000E+00 0.  1.
         13    1    1    2    0    0  0.10423978057E+02 -0.17943062806E+02 -0.16905575084E+02  0.26766069086E+02  0.10566000000E+00 0.  1.
        996    1    1    2    0    0 -0.10423978057E+02  0.17943062806E+02  0.87363242245E+02  0.10277620793E+03  0.50000000000E+02 0.  0.
<mgrwt>
<rscale>  0 0.54135135E+02</rscale>
<asrwt>0</asrwt>
<pdfrwt beam="1">  1       13 0.10000000E+01 0.54135135E+02</pdfrwt>
<pdfrwt beam="2">  1       22 0.29542297E+00 0.54135135E+02</pdfrwt>
<totfact> 0.21369756E-01</totfact>
</mgrwt>
</event>
<event>
 4    1  0.2416490E+000  0.5328933E+02  0.7957747E-01  0.1428366E+00
         13   -1    0    0    0    0  0.00000000000E+00  0.00000000000E+00  0.99999944188E+02  0.10000000001E+03  0.10566000000E+00 0. -1.
         22   -1    0    0    0    0 -0.00000000000E+00 -0.00000000000E+00 -0.45134331635E+02  0.45134331635E+02  0.00000000000E+00 0.  1.
         13    1    1    2    0    0 -0.63888597046E+00 -0.18421293415E+02 -0.35629261819E+02  0.40114930988E+02  0.10566000000E+00 0.  1.
        996    1    1    2    0    0  0.63888597046E+00  0.18421293415E+02  0.90494874373E+02  0.10501940066E+03  0.50000000000E+02 0.  0.
<mgrwt>
<rscale>  0 0.53289326E+02</rscale>
<asrwt>0</asrwt>
<pdfrwt beam="1">  1       13 0.10000000E+01 0.53289326E+02</pdfrwt>
<pdfrwt beam="2">  1       22 0.45134347E+00 0.53289326E+02</pdfrwt>
<totfact> 0.96018540E-02</totfact>
</mgrwt>
</event>
<event>
 4    1  0.2416490E+000  0.5991503E+02  0.7957747E-01  0.1398189E+00
         13   -1    0    0    0    0  0.00000000000E+00  0.00000000000E+00  0.99999944187E+02  0.10000000001E+03  0.10566000000E+00 0. -1.
         22   -1    0    0    0    0 -0.00000000000E+00 -0.00000000000E+00 -0.35777544975E+02  0.35777544975E+02  0.00000000000E+00 0.  1.
         13    1    1    2    0    0  0.32518883522E+02  0.56861686335E+01 -0.15156053398E+02  0.36325299969E+02  0.10566000000E+00 0.  1.
        996    1    1    2    0    0 -0.32518883522E+02 -0.56861686335E+01  0.79378452610E+02  0.99452245012E+02  0.50000000000E+02 0.  0.
<mgrwt>
<rscale>  0 0.59915026E+02</rscale>
<asrwt>0</asrwt>
<pdfrwt beam="1">  1       13 0.10000000E+01 0.59915026E+02</pdfrwt>
<pdfrwt beam="2">  1       22 0.35777563E+00 0.59915026E+02</pdfrwt>
<totfact> 0.15234552E-01</totfact>
</mgrwt>
</event>
<event>
 4    1  0.2416490E+000  0.5389175E+02  0.7957747E-01  0.1425414E+00
         13   -1    0    0    0    0  0.00000000000E+00  0.00000000000E+00  0.99999944180E+02  0.10000000000E+03  0.10566000000E+00 0.  1.
         22   -1    0    0    0    0 -0.00000000000E+00 -0.00000000000E+00 -0.23068806974E+02  0.23068806974E+02  0.00000000000E+00 0. -1.
         13    1    1    2    0    0 -0.59038242553E+01  0.19221494526E+02 -0.86849376013E+01  0.21903431188E+02  0.10566000000E+00 0. -1.
        996    1    1    2    0    0  0.59038242553E+01 -0.19221494526E+02  0.85616074807E+02  0.10116537579E+03  0.50000000000E+02 0.  0.
<mgrwt>
<rscale>  0 0.53891753E+02</rscale>
<asrwt>0</asrwt>
<pdfrwt beam="1">  1       13 0.10000000E+01 0.53891753E+02</pdfrwt>
<pdfrwt beam="2">  1       22 0.23068828E+00 0.53891753E+02</pdfrwt>
<totfact> 0.34611485E-01</totfact>
</mgrwt>
</event>
<event>
 4    1  0.2416490E+000  0.5113106E+02  0.7957747E-01  0.1439335E+00
         13   -1    0    0    0    0  0.00000000000E+00  0.00000000000E+00  0.99999944176E+02  0.99999999997E+02  0.10566000000E+00 0. -1.
         22   -1    0    0    0    0 -0.00000000000E+00 -0.00000000000E+00 -0.11041094444E+02  0.11041094444E+02  0.00000000000E+00 0. -1.
         13    1    1    2    0    0 -0.29788073987E+01  0.10271918944E+02  0.31437923713E+01  0.11148103283E+02  0.10566000000E+00 0.  1.
        996    1    1    2    0    0  0.29788073987E+01 -0.10271918944E+02  0.85815057362E+02  0.99892991157E+02  0.50000000000E+02 0.  0.
<mgrwt>
<rscale>  0 0.51131063E+02</rscale>
<asrwt>0</asrwt>
<pdfrwt beam="1">  1       13 0.10000000E+01 0.51131063E+02</pdfrwt>
<pdfrwt beam="2">  1       22 0.11041119E+00 0.51131063E+02</pdfrwt>
<totfact> 0.12164755E+00</totfact>
</mgrwt>
</event>
<event>
 4    1  0.2416490E+000  0.5665403E+02  0.7957747E-01  0.1412435E+00
         13   -1    0    0    0    0  0.00000000000E+00  0.00000000000E+00  0.99999944183E+02  0.10000000000E+03  0.10566000000E+00 0. -1.
         22   -1    0    0    0    0 -0.00000000000E+00 -0.00000000000E+00 -0.31237664755E+02  0.31237664755E+02  0.00000000000E+00 0.  1.
         13    1    1    2    0    0  0.26626558856E+02  0.83970399855E+00 -0.14651674324E+02  0.30403313370E+02  0.10566000000E+00 0.  1.
        996    1    1    2    0    0 -0.26626558856E+02 -0.83970399855E+00  0.83413953752E+02  0.10083435139E+03  0.50000000000E+02 0.  0.
<mgrwt>
<rscale>  0 0.56654027E+02</rscale>
<asrwt>0</asrwt>
<pdfrwt beam="1">  1       13 0.10000000E+01 0.56654027E+02</pdfrwt>
<pdfrwt beam="2">  1       22 0.31237684E+00 0.56654027E+02</pdfrwt>
<totfact> 0.19323866E-01</totfact>
</mgrwt>
</event>
<event>
 4    1  0.2416490E+000  0.5230912E+02  0.7957747E-01  0.1433270E+00
         13   -1    0    0    0    0  0.00000000000E+00  0.00000000000E+00  0.99999944178E+02  0.99999999998E+02  0.10566000000E+00 0. -1.
         22   -1    0    0    0    0 -0.00000000000E+00 -0.00000000000E+00 -0.21441796642E+02  0.21441796642E+02  0.00000000000E+00 0.  1.
         13    1    1    2    0    0 -0.18447162496E+01  0.15259133531E+02 -0.10178222078E+02  0.18435061781E+02  0.10566000000E+00 0.  1.
        996    1    1    2    0    0  0.18447162496E+01 -0.15259133531E+02  0.88736369614E+02  0.10300673486E+03  0.50000000000E+02 0.  0.
<mgrwt>
<rscale>  0 0.52309121E+02</rscale>
<asrwt>0</asrwt>
<pdfrwt beam="1">  1       13 0.10000000E+01 0.52309121E+02</pdfrwt>
<pdfrwt beam="2">  1       22 0.21441819E+00 0.52309121E+02</pdfrwt>
<totfact> 0.39750804E-01</totfact>
</mgrwt>
</event>
<event>
 4    1  0.2416490E+000  0.5176013E+02  0.7957747E-01  0.1436073E+00
         13   -1    0    0    0    0  0.00000000000E+00  0.00000000000E+00  0.99999944175E+02  0.99999999996E+02  0.10566000000E+00 0.  1.
         22   -1    0    0    0    0 -0.00000000000E+00 -0.00000000000E+00 -0.13856868322E+02  0.13856868322E+02  0.00000000000E+00 0.  1.
         13    1    1    2    0    0 -0.57355847479E+01 -0.12091885841E+02  0.28308785827E-01  0.13383669191E+02  0.10566000000E+00 0. -1.
        996    1    1    2    0    0  0.57355847479E+01  0.12091885841E+02  0.86114767068E+02  0.10047319913E+03  0.50000000000E+02 0.  0.
<mgrwt>
<rscale>  0 0.51760126E+02</rscale>
<asrwt>0</asrwt>
<pdfrwt beam="1">  1       13 0.10000000E+01 0.51760126E+02</pdfrwt>
<pdfrwt beam="2">  1       22 0.13856892E+00 0.51760126E+02</pdfrwt>
<totfact> 0.85697379E-01</totfact>
</mgrwt>
</event>
<event>
 4    1  0.2416490E+000  0.5147507E+02  0.7957747E-01  0.1437544E+00
         13   -1    0    0    0    0  0.00000000000E+00  0.00000000000E+00  0.99999944178E+02  0.99999999998E+02  0.10566000000E+00 0. -1.
         22   -1    0    0    0    0 -0.00000000000E+00 -0.00000000000E+00 -0.13237764198E+02  0.13237764198E+02  0.00000000000E+00 0. -1.
         13    1    1    2    0    0  0.63967609767E+01  0.10429012678E+02 -0.13849393813E+00  0.12235734593E+02  0.10566000000E+00 0.  1.
        996    1    1    2    0    0 -0.63967609767E+01 -0.10429012678E+02  0.86900673918E+02  0.10100202960E+03  0.50000000000E+02 0.  0.
<mgrwt>
<rscale>  0 0.51475070E+02</rscale>
<asrwt>0</asrwt>
<pdfrwt beam="1">  1       13 0.10000000E+01 0.51475070E+02</pdfrwt>
<pdfrwt beam="2">  1       22 0.13237788E+00 0.51475070E+02</pdfrwt>
<totfact> 0.92140878E-01</totfact>
</mgrwt>
</event>
<event>
 4    1  0.2416490E+000  0.5222460E+02  0.7957747E-01  0.1433699E+00
         13   -1    0    0    0    0  0.00000000000E+00  0.00000000000E+00  0.99999944182E+02  0.10000000000E+03  0.10566000000E+00 0.  1.
         22   -1    0    0    0    0 -0.00000000000E+00 -0.00000000000E+00 -0.13356331834E+02  0.13356331834E+02  0.00000000000E+00 0. -1.
         13    1    1    2    0    0 -0.11777622457E+02 -0.94179050689E+01  0.40126402770E+01  0.15605184159E+02  0.10566000000E+00 0. -1.
        996    1    1    2    0    0  0.11777622457E+02  0.94179050689E+01  0.82630972071E+02  0.97751147676E+02  0.50000000000E+02 0.  0.
<mgrwt>
<rscale>  0 0.52224605E+02</rscale>
<asrwt>0</asrwt>
<pdfrwt beam="1">  1       13 0.10000000E+01 0.52224605E+02</pdfrwt>
<pdfrwt beam="2">  1       22 0.13356356E+00 0.52224605E+02</pdfrwt>
<totfact> 0.90991695E-01</totfact>
</mgrwt>
</event>
<event>
 4    1  0.2416490E+000  0.5242902E+02  0.7957747E-01  0.1432664E+00
         13   -1    0    0    0    0  0.00000000000E+00  0.00000000000E+00  0.99999944181E+02  0.10000000000E+03  0.10566000000E+00 0.  1.
         22   -1    0    0    0    0 -0.00000000000E+00 -0.00000000000E+00 -0.13063164833E+02  0.13063164833E+02  0.00000000000E+00 0.  1.
         13    1    1    2    0    0 -0.81529907823E+01  0.13503010247E+02  0.65272194903E+01  0.17070978377E+02  0.10566000000E+00 0. -1.
        996    1    1    2    0    0  0.81529907823E+01 -0.13503010247E+02  0.80409559857E+02  0.95992186457E+02  0.50000000000E+02 0.  0.
<mgrwt>
<rscale>  0 0.52429024E+02</rscale>
<asrwt>0</asrwt>
<pdfrwt beam="1">  1       13 0.10000000E+01 0.52429024E+02</pdfrwt>
<pdfrwt beam="2">  1       22 0.13063189E+00 0.52429024E+02</pdfrwt>
<totfact> 0.94290716E-01</totfact>
</mgrwt>
</event>
<event>
 4    1  0.2416490E+000  0.5715137E+02  0.7957747E-01  0.1410190E+00
         13   -1    0    0    0    0  0.00000000000E+00  0.00000000000E+00  0.99999944169E+02  0.99999999989E+02  0.10566000000E+00 0.  1.
         22   -1    0    0    0    0 -0.00000000000E+00 -0.00000000000E+00 -0.30130599750E+02  0.30130599750E+02  0.00000000000E+00 0. -1.
         13    1    1    2    0    0 -0.11233256834E+02  0.25300058889E+02 -0.12094622977E+02  0.30208775345E+02  0.10566000000E+00 0. -1.
        996    1    1    2    0    0  0.11233256834E+02 -0.25300058889E+02  0.81963967396E+02  0.99921824393E+02  0.50000000000E+02 0.  0.
<mgrwt>
<rscale>  0 0.57151370E+02</rscale>
<asrwt>0</asrwt>
<pdfrwt beam="1">  1       13 0.10000000E+01 0.57151370E+02</pdfrwt>
<pdfrwt beam="2">  1       22 0.30130619E+00 0.57151370E+02</pdfrwt>
<totfact> 0.20668143E-01</totfact>
</mgrwt>
</event>
<event>
 4    1  0.2416490E+000  0.5491882E+02  0.7957747E-01  0.1420483E+00
         13   -1    0    0    0    0  0.00000000000E+00  0.00000000000E+00  0.99999944182E+02  0.10000000000E+03  0.10566000000E+00 0. -1.
         22   -1    0    0    0    0 -0.00000000000E+00 -0.00000000000E+00 -0.15160659128E+02  0.15160659128E+02  0.00000000000E+00 0. -1.
         13    1    1    2    0    0  0.14776746466E+02 -0.17254699598E+02  0.20844636691E+02  0.30831589923E+02  0.10566000000E+00 0.  1.
        996    1    1    2    0    0 -0.14776746466E+02  0.17254699598E+02  0.63994648362E+02  0.84329069207E+02  0.50000000000E+02 0.  0.
<mgrwt>
<rscale>  0 0.54918821E+02</rscale>
<asrwt>0</asrwt>
<pdfrwt beam="1">  1       13 0.10000000E+01 0.54918821E+02</pdfrwt>
<pdfrwt beam="2">  1       22 0.15160683E+00 0.54918821E+02</pdfrwt>
<totfact> 0.74393374E-01</totfact>
</mgrwt>
</event>
<event>
 4    1  0.2416490E+000  0.6952128E+02  0.7957747E-01  0.1361729E+00
         13   -1    0    0    0    0  0.00000000000E+00  0.00000000000E+00  0.99999944191E+02  0.10000000001E+03  0.10566000000E+00 0. -1.
         22   -1    0    0    0    0 -0.00000000000E+00 -0.00000000000E+00 -0.69458945314E+02  0.69458945314E+02  0.00000000000E+00 0.  1.
         13    1    1    2    0    0  0.24847544177E+02  0.41422306514E+02 -0.45548483637E+02  0.66391892986E+02  0.10566000000E+00 0.  1.
        996    1    1    2    0    0 -0.24847544177E+02 -0.41422306514E+02  0.76089482515E+02  0.10306705234E+03  0.50000000000E+02 0.  0.
<mgrwt>
<rscale>  0 0.69521277E+02</rscale>
<asrwt>0</asrwt>
<pdfrwt beam="1">  1       13 0.10000000E+01 0.69521277E+02</pdfrwt>
<pdfrwt beam="2">  1       22 0.69458954E+00 0.69521277E+02</pdfrwt>
<totfact> 0.77312044E-02</totfact>
</mgrwt>
</event>
<event>
 4    1  0.2416490E+000  0.5334854E+02  0.7957747E-01  0.1428074E+00
         13   -1    0    0    0    0  0.00000000000E+00  0.00000000000E+00  0.99999944178E+02  0.99999999999E+02  0.10566000000E+00 0.  1.
         22   -1    0    0    0    0 -0.00000000000E+00 -0.00000000000E+00 -0.37162813329E+02  0.37162813329E+02  0.00000000000E+00 0. -1.
         13    1    1    2    0    0  0.16150379951E+02 -0.92320959869E+01 -0.26935265687E+02  0.32735089286E+02  0.10566000000E+00 0. -1.
        996    1    1    2    0    0 -0.16150379951E+02  0.92320959869E+01  0.89772396536E+02  0.10442772404E+03  0.50000000000E+02 0.  0.
<mgrwt>
<rscale>  0 0.53348537E+02</rscale>
<asrwt>0</asrwt>
<pdfrwt beam="1">  1       13 0.10000000E+01 0.53348537E+02</pdfrwt>
<pdfrwt beam="2">  1       22 0.37162831E+00 0.53348537E+02</pdfrwt>
<totfact> 0.14163575E-01</totfact>
</mgrwt>
</event>
<event>
 4    1  0.2416490E+000  0.5671793E+02  0.7957747E-01  0.1412145E+00
         13   -1    0    0    0    0  0.00000000000E+00  0.00000000000E+00  0.99999944173E+02  0.99999999993E+02  0.10566000000E+00 0.  1.
         22   -1    0    0    0    0 -0.00000000000E+00 -0.00000000000E+00 -0.21225634790E+02  0.21225634790E+02  0.00000000000E+00 0. -1.
         13    1    1    2    0    0  0.21442028914E+02  0.16036295724E+02  0.35422335319E+01  0.27008923838E+02  0.10566000000E+00 0. -1.
        996    1    1    2    0    0 -0.21442028914E+02 -0.16036295724E+02  0.75232075851E+02  0.94216710945E+02  0.50000000000E+02 0.  0.
<mgrwt>
<rscale>  0 0.56717928E+02</rscale>
<asrwt>0</asrwt>
<pdfrwt beam="1">  1       13 0.10000000E+01 0.56717928E+02</pdfrwt>
<pdfrwt beam="2">  1       22 0.21225657E+00 0.56717928E+02</pdfrwt>
<totfact> 0.40822672E-01</totfact>
</mgrwt>
</event>
<event>
 4    1  0.2416490E+000  0.5285830E+02  0.7957747E-01  0.1430507E+00
         13   -1    0    0    0    0  0.00000000000E+00  0.00000000000E+00  0.99999944176E+02  0.99999999996E+02  0.10566000000E+00 0. -1.
         22   -1    0    0    0    0 -0.00000000000E+00 -0.00000000000E+00 -0.13387725514E+02  0.13387725514E+02  0.00000000000E+00 0.  1.
         13    1    1    2    0    0  0.14132297811E+01 -0.17088088150E+02  0.86743716412E+01  0.19216031391E+02  0.10566000000E+00 0.  1.
        996    1    1    2    0    0 -0.14132297811E+01  0.17088088150E+02  0.77937847020E+02  0.94171694119E+02  0.50000000000E+02 0.  0.
<mgrwt>
<rscale>  0 0.52858301E+02</rscale>
<asrwt>0</asrwt>
<pdfrwt beam="1">  1       13 0.10000000E+01 0.52858301E+02</pdfrwt>
<pdfrwt beam="2">  1       22 0.13387750E+00 0.52858301E+02</pdfrwt>
<totfact> 0.90773913E-01</totfact>
</mgrwt>
</event>
<event>
 4    1  0.2416490E+000  0.5526315E+02  0.7957747E-01  0.1418859E+00
         13   -1    0    0    0    0  0.00000000000E+00  0.00000000000E+00  0.99999944176E+02  0.99999999996E+02  0.10566000000E+00 0.  1.
         22   -1    0    0    0    0 -0.00000000000E+00 -0.00000000000E+00 -0.45176373662E+02  0.45176373662E+02  0.00000000000E+00 0. -1.
         13    1    1    2    0    0  0.13963366369E+02  0.18948363245E+02 -0.33527816676E+02  0.40965128160E+02  0.10566000000E+00 0. -1.
        996    1    1    2    0    0 -0.13963366369E+02 -0.18948363245E+02  0.88351387190E+02  0.10421124550E+03  0.50000000000E+02 0.  0.
<mgrwt>
<rscale>  0 0.55263153E+02</rscale>
<asrwt>0</asrwt>
<pdfrwt beam="1">  1       13 0.10000000E+01 0.55263153E+02</pdfrwt>
<pdfrwt beam="2">  1       22 0.45176389E+00 0.55263153E+02</pdfrwt>
<totfact> 0.95914464E-02</totfact>
</mgrwt>
</event>
<event>
 4    1  0.2416490E+000  0.5119672E+02  0.7957747E-01  0.1438992E+00
         13   -1    0    0    0    0  0.00000000000E+00  0.00000000000E+00  0.99999944182E+02  0.10000000000E+03  0.10566000000E+00 0.  1.
         22   -1    0    0    0    0 -0.00000000000E+00 -0.00000000000E+00 -0.16665470200E+02  0.16665470200E+02  0.00000000000E+00 0.  1.
         13    1    1    2    0    0 -0.36095268506E+01  0.10395918946E+02 -0.68495664478E+01  0.12962697997E+02  0.10566000000E+00 0. -1.
        996    1    1    2    0    0  0.36095268506E+01 -0.10395918946E+02  0.90184040429E+02  0.10370277220E+03  0.50000000000E+02 0.  0.
<mgrwt>
<rscale>  0 0.51196717E+02</rscale>
<asrwt>0</asrwt>
<pdfrwt beam="1">  1       13 0.10000000E+01 0.51196717E+02</pdfrwt>
<pdfrwt beam="2">  1       22 0.16665493E+00 0.51196717E+02</pdfrwt>
<totfact> 0.62844649E-01</totfact>
</mgrwt>
</event>
<event>
 4    1  0.2416490E+000  0.5231057E+02  0.7957747E-01  0.1433263E+00
         13   -1    0    0    0    0  0.00000000000E+00  0.00000000000E+00  0.99999944188E+02  0.10000000001E+03  0.10566000000E+00 0. -1.
         22   -1    0    0    0    0 -0.00000000000E+00 -0.00000000000E+00 -0.18036550387E+02  0.18036550387E+02  0.00000000000E+00 0.  1.
         13    1    1    2    0    0 -0.13780793691E+02  0.68180613535E+01 -0.53268961662E+01  0.16272160956E+02  0.10566000000E+00 0.  1.
        996    1    1    2    0    0  0.13780793691E+02 -0.68180613535E+01  0.87290289967E+02  0.10176438944E+03  0.50000000000E+02 0.  0.
<mgrwt>
<rscale>  0 0.52310575E+02</rscale>
<asrwt>0</asrwt>
<pdfrwt beam="1">  1       13 0.10000000E+01 0.52310575E+02</pdfrwt>
<pdfrwt beam="2">  1       22 0.18036573E+00 0.52310575E+02</pdfrwt>
<totfact> 0.54772856E-01</totfact>
</mgrwt>
</event>
<event>
 4    1  0.2416490E+000  0.5819539E+02  0.7957747E-01  0.1405565E+00
         13   -1    0    0    0    0  0.00000000000E+00  0.00000000000E+00  0.99999944169E+02  0.99999999989E+02  0.10566000000E+00 0.  1.
         22   -1    0    0    0    0 -0.00000000000E+00 -0.00000000000E+00 -0.36801287665E+02  0.36801287665E+02  0.00000000000E+00 0. -1.
         13    1    1    2    0    0 -0.28051244816E+02 -0.99915296198E+01 -0.19561692964E+02  0.35628275225E+02  0.10566000000E+00 0. -1.
        996    1    1    2    0    0  0.28051244816E+02  0.99915296198E+01  0.82760349468E+02  0.10117301243E+03  0.50000000000E+02 0.  0.
<mgrwt>
<rscale>  0 0.58195386E+02</rscale>
<asrwt>0</asrwt>
<pdfrwt beam="1">  1       13 0.10000000E+01 0.58195386E+02</pdfrwt>
<pdfrwt beam="2">  1       22 0.36801305E+00 0.58195386E+02</pdfrwt>
<totfact> 0.14472209E-01</totfact>
</mgrwt>
</event>
<event>
 4    1  0.2416490E+000  0.5293108E+02  0.7957747E-01  0.1430144E+00
         13   -1    0    0    0    0  0.00000000000E+00  0.00000000000E+00  0.99999944181E+02  0.10000000000E+03  0.10566000000E+00 0.  1.
         22   -1    0    0    0    0 -0.00000000000E+00 -0.00000000000E+00 -0.28486449845E+02  0.28486449845E+02  0.00000000000E+00 0. -1.
         13    1    1    2    0    0  0.13422020512E+02 -0.11024915739E+02 -0.17670271544E+02  0.24777995523E+02  0.10566000000E+00 0. -1.
        996    1    1    2    0    0 -0.13422020512E+02  0.11024915739E+02  0.89183765879E+02  0.10370845432E+03  0.50000000000E+02 0.  0.
<mgrwt>
<rscale>  0 0.52931082E+02</rscale>
<asrwt>0</asrwt>
<pdfrwt beam="1">  1       13 0.10000000E+01 0.52931082E+02</pdfrwt>
<pdfrwt beam="2">  1       22 0.28486470E+00 0.52931082E+02</pdfrwt>
<totfact> 0.22868802E-01</totfact>
</mgrwt>
</event>
<event>
 4    1  0.2416490E+000  0.5351186E+02  0.7957747E-01  0.1427270E+00
         13   -1    0    0    0    0  0.00000000000E+00  0.00000000000E+00  0.99999944180E+02  0.10000000000E+03  0.10566000000E+00 0.  1.
         22   -1    0    0    0    0 -0.00000000000E+00 -0.00000000000E+00 -0.13456415899E+02  0.13456415899E+02  0.00000000000E+00 0.  1.
         13    1    1    2    0    0  0.17654480627E+02 -0.71998975789E+01  0.15853836198E+02  0.24796663034E+02  0.10566000000E+00 0. -1.
        996    1    1    2    0    0 -0.17654480627E+02  0.71998975789E+01  0.70689692083E+02  0.88659752865E+02  0.50000000000E+02 0.  0.
<mgrwt>
<rscale>  0 0.53511860E+02</rscale>
<asrwt>0</asrwt>
<pdfrwt beam="1">  1       13 0.10000000E+01 0.53511860E+02</pdfrwt>
<pdfrwt beam="2">  1       22 0.13456440E+00 0.53511860E+02</pdfrwt>
<totfact> 0.90158759E-01</totfact>
</mgrwt>
</event>
<event>
 4    1  0.2416490E+000  0.5950439E+02  0.7957747E-01  0.1399923E+00
         13   -1    0    0    0    0  0.00000000000E+00  0.00000000000E+00  0.99999944185E+02  0.10000000001E+03  0.10566000000E+00 0.  1.
         22   -1    0    0    0    0 -0.00000000000E+00 -0.00000000000E+00 -0.29343771552E+02  0.29343771552E+02  0.00000000000E+00 0. -1.
         13    1    1    2    0    0  0.41988749324E+01  0.31986589108E+02 -0.54693136745E+01  0.32721506530E+02  0.10566000000E+00 0. -1.
        996    1    1    2    0    0 -0.41988749324E+01 -0.31986589108E+02  0.76125486308E+02  0.96622265028E+02  0.50000000000E+02 0.  0.
<mgrwt>
<rscale>  0 0.59504390E+02</rscale>
<asrwt>0</asrwt>
<pdfrwt beam="1">  1       13 0.10000000E+01 0.59504390E+02</pdfrwt>
<pdfrwt beam="2">  1       22 0.29343791E+00 0.59504390E+02</pdfrwt>
<totfact> 0.21788102E-01</totfact>
</mgrwt>
</event>
<event>
 4    1  0.2416490E+000  0.5328966E+02  0.7957747E-01  0.1428365E+00
         13   -1    0    0    0    0  0.00000000000E+00  0.00000000000E+00  0.99999944182E+02  0.10000000000E+03  0.10566000000E+00 0.  1.
         22   -1    0    0    0    0 -0.00000000000E+00 -0.00000000000E+00 -0.19121501333E+02  0.19121501333E+02  0.00000000000E+00 0. -1.
         13    1    1    2    0    0 -0.78456893228E+01 -0.16680318419E+02 -0.40362461633E+01  0.18870355339E+02  0.10566000000E+00 0. -1.
        996    1    1    2    0    0  0.78456893228E+01  0.16680318419E+02  0.84914689012E+02  0.10025114600E+03  0.50000000000E+02 0.  0.
<mgrwt>
<rscale>  0 0.53289660E+02</rscale>
<asrwt>0</asrwt>
<pdfrwt beam="1">  1       13 0.10000000E+01 0.53289660E+02</pdfrwt>
<pdfrwt beam="2">  1       22 0.19121524E+00 0.53289660E+02</pdfrwt>
<totfact> 0.49349898E-01</totfact>
</mgrwt>
</event>
<event>
 4    1  0.2416490E+000  0.5131994E+02  0.7957747E-01  0.1438349E+00
         13   -1    0    0    0    0  0.00000000000E+00  0.00000000000E+00  0.99999944176E+02  0.99999999996E+02  0.10566000000E+00 0. -1.
         22   -1    0    0    0    0 -0.00000000000E+00 -0.00000000000E+00 -0.11477220090E+02  0.11477220090E+02  0.00000000000E+00 0. -1.
         13    1    1    2    0    0  0.91146910514E+01  0.71175012994E+01  0.33538150641E+01  0.12041414254E+02  0.10566000000E+00 0.  1.
        996    1    1    2    0    0 -0.91146910514E+01 -0.71175012994E+01  0.85168909021E+02  0.99435805832E+02  0.50000000000E+02 0.  0.
<mgrwt>
<rscale>  0 0.51319942E+02</rscale>
<asrwt>0</asrwt>
<pdfrwt beam="1">  1       13 0.10000000E+01 0.51319942E+02</pdfrwt>
<pdfrwt beam="2">  1       22 0.11477245E+00 0.51319942E+02</pdfrwt>
<totfact> 0.11484037E+00</totfact>
</mgrwt>
</event>
<event>
 4    1  0.2416490E+000  0.5196448E+02  0.7957747E-01  0.1435025E+00
         13   -1    0    0    0    0  0.00000000000E+00  0.00000000000E+00  0.99999944177E+02  0.99999999997E+02  0.10566000000E+00 0. -1.
         22   -1    0    0    0    0 -0.00000000000E+00 -0.00000000000E+00 -0.11141589674E+02  0.11141589674E+02  0.00000000000E+00 0. -1.
         13    1    1    2    0    0  0.13496091414E+02 -0.42617797465E+01  0.25833890660E+02  0.29456889190E+02  0.10566000000E+00 0.  1.
        996    1    1    2    0    0 -0.13496091414E+02  0.42617797465E+01  0.63024463843E+02  0.81684700482E+02  0.50000000000E+02 0.  0.
<mgrwt>
<rscale>  0 0.51964481E+02</rscale>
<asrwt>0</asrwt>
<pdfrwt beam="1">  1       13 0.10000000E+01 0.51964481E+02</pdfrwt>
<pdfrwt beam="2">  1       22 0.11141614E+00 0.51964481E+02</pdfrwt>
<totfact> 0.12024765E+00</totfact>
</mgrwt>
</event>
<event>
 4    1  0.2416490E+000  0.5101310E+02  0.7957747E-01  0.1439953E+00
         13   -1    0    0    0    0  0.00000000000E+00  0.00000000000E+00  0.99999944175E+02  0.99999999995E+02  0.10566000000E+00 0.  1.
         22   -1    0    0    0    0 -0.00000000000E+00 -0.00000000000E+00 -0.20908477771E+02  0.20908477771E+02  0.00000000000E+00 0. -1.
         13    1    1    2    0    0 -0.51846703000E+01  0.86864917833E+01 -0.12492710513E+02  0.16075289286E+02  0.10566000000E+00 0. -1.
        996    1    1    2    0    0  0.51846703000E+01 -0.86864917833E+01  0.91584176917E+02  0.10483318848E+03  0.50000000000E+02 0.  0.
<mgrwt>
<rscale>  0 0.51013096E+02</rscale>
<asrwt>0</asrwt>
<pdfrwt beam="1">  1       13 0.10000000E+01 0.51013096E+02</pdfrwt>
<pdfrwt beam="2">  1       22 0.20908500E+00 0.51013096E+02</pdfrwt>
<totfact> 0.41605441E-01</totfact>
</mgrwt>
</event>
<event>
 4    1  0.2416490E+000  0.5893991E+02  0.7957747E-01  0.1402335E+00
         13   -1    0    0    0    0  0.00000000000E+00  0.00000000000E+00  0.99999944184E+02  0.10000000000E+03  0.10566000000E+00 0.  1.
         22   -1    0    0    0    0 -0.00000000000E+00 -0.00000000000E+00 -0.38564642839E+02  0.38564642839E+02  0.00000000000E+00 0. -1.
         13    1    1    2    0    0  0.74006444253E+01 -0.30317371782E+02 -0.20715539486E+02  0.37457406610E+02  0.10566000000E+00 0. -1.
        996    1    1    2    0    0 -0.74006444253E+01  0.30317371782E+02  0.82150840831E+02  0.10110723623E+03  0.50000000000E+02 0.  0.
<mgrwt>
<rscale>  0 0.58939906E+02</rscale>
<asrwt>0</asrwt>
<pdfrwt beam="1">  1       13 0.10000000E+01 0.58939906E+02</pdfrwt>
<pdfrwt beam="2">  1       22 0.38564660E+00 0.58939906E+02</pdfrwt>
<totfact> 0.13309998E-01</totfact>
</mgrwt>
</event>
<event>
 4    1  0.2416490E+000  0.5196006E+02  0.7957747E-01  0.1435047E+00
         13   -1    0    0    0    0  0.00000000000E+00  0.00000000000E+00  0.99999944176E+02  0.99999999996E+02  0.10566000000E+00 0. -1.
         22   -1    0    0    0    0 -0.00000000000E+00 -0.00000000000E+00 -0.22447858840E+02  0.22447858840E+02  0.00000000000E+00 0.  1.
         13    1    1    2    0    0  0.10755819592E+02 -0.91738704247E+01 -0.12243893195E+02  0.18702182714E+02  0.10566000000E+00 0.  1.
        996    1    1    2    0    0 -0.10755819592E+02  0.91738704247E+01  0.89795978531E+02  0.10374567612E+03  0.50000000000E+02 0.  0.
<mgrwt>
<rscale>  0 0.51960057E+02</rscale>
<asrwt>0</asrwt>
<pdfrwt beam="1">  1       13 0.10000000E+01 0.51960057E+02</pdfrwt>
<pdfrwt beam="2">  1       22 0.22447880E+00 0.51960057E+02</pdfrwt>
<totfact> 0.36377455E-01</totfact>
</mgrwt>
</event>
<event>
 4    1  0.2416490E+000  0.5196695E+02  0.7957747E-01  0.1435012E+00
         13   -1    0    0    0    0  0.00000000000E+00  0.00000000000E+00  0.99999944179E+02  0.10000000000E+03  0.10566000000E+00 0.  1.
         22   -1    0    0    0    0 -0.00000000000E+00 -0.00000000000E+00 -0.10933320799E+02  0.10933320799E+02  0.00000000000E+00 0. -1.
         13    1    1    2    0    0 -0.10366549231E+02  0.96487496626E+01  0.19414319232E+02  0.24031035523E+02  0.10566000000E+00 0. -1.
        996    1    1    2    0    0  0.10366549231E+02 -0.96487496626E+01  0.69652304148E+02  0.86902285276E+02  0.50000000000E+02 0.  0.
<mgrwt>
<rscale>  0 0.51966948E+02</rscale>
<asrwt>0</asrwt>
<pdfrwt beam="1">  1       13 0.10000000E+01 0.51966948E+02</pdfrwt>
<pdfrwt beam="2">  1       22 0.10933346E+00 0.51966948E+02</pdfrwt>
<totfact> 0.12367594E+00</totfact>
</mgrwt>
</event>
<event>
 4    1  0.2416490E+000  0.5369314E+02  0.7957747E-01  0.1426382E+00
         13   -1    0    0    0    0  0.00000000000E+00  0.00000000000E+00  0.99999944177E+02  0.99999999997E+02  0.10566000000E+00 0.  1.
         22   -1    0    0    0    0 -0.00000000000E+00 -0.00000000000E+00 -0.27322239379E+02  0.27322239379E+02  0.00000000000E+00 0.  1.
         13    1    1    2    0    0 -0.18007836204E+02  0.76596880971E+01 -0.14899423337E+02  0.24595872952E+02  0.10566000000E+00 0. -1.
        996    1    1    2    0    0  0.18007836204E+02 -0.76596880971E+01  0.87577128134E+02  0.10272636642E+03  0.50000000000E+02 0.  0.
<mgrwt>
<rscale>  0 0.53693137E+02</rscale>
<asrwt>0</asrwt>
<pdfrwt beam="1">  1       13 0.10000000E+01 0.53693137E+02</pdfrwt>
<pdfrwt beam="2">  1       22 0.27322260E+00 0.53693137E+02</pdfrwt>
<totfact> 0.24822327E-01</totfact>
</mgrwt>
</event>
<event>
 4    1  0.2416490E+000  0.5197691E+02  0.7957747E-01  0.1434961E+00
         13   -1    0    0    0    0  0.00000000000E+00  0.00000000000E+00  0.99999944180E+02  0.10000000000E+03  0.10566000000E+00 0.  1.
         22   -1    0    0    0    0 -0.00000000000E+00 -0.00000000000E+00 -0.29985897044E+02  0.29985897044E+02  0.00000000000E+00 0. -1.
         13    1    1    2    0    0 -0.14173048008E+02 -0.85075937032E+00 -0.20897433350E+02  0.25264856343E+02  0.10566000000E+00 0. -1.
        996    1    1    2    0    0  0.14173048008E+02  0.85075937032E+00  0.90911480486E+02  0.10472104070E+03  0.50000000000E+02 0.  0.
<mgrwt>
<rscale>  0 0.51976909E+02</rscale>
<asrwt>0</asrwt>
<pdfrwt beam="1">  1       13 0.10000000E+01 0.51976909E+02</pdfrwt>
<pdfrwt beam="2">  1       22 0.29985917E+00 0.51976909E+02</pdfrwt>
<totfact> 0.20720684E-01</totfact>
</mgrwt>
</event>
<event>
 4    1  0.2416490E+000  0.5761236E+02  0.7957747E-01  0.1408134E+00
         13   -1    0    0    0    0  0.00000000000E+00  0.00000000000E+00  0.99999944176E+02  0.99999999996E+02  0.10566000000E+00 0. -1.
         22   -1    0    0    0    0 -0.00000000000E+00 -0.00000000000E+00 -0.36688280307E+02  0.36688280307E+02  0.00000000000E+00 0.  1.
         13    1    1    2    0    0  0.28163636440E+02 -0.50983689591E+01 -0.20342765953E+02  0.35114428291E+02  0.10566000000E+00 0.  1.
        996    1    1    2    0    0 -0.28163636440E+02  0.50983689591E+01  0.83654429823E+02  0.10157385201E+03  0.50000000000E+02 0.  0.
<mgrwt>
<rscale>  0 0.57612358E+02</rscale>
<asrwt>0</asrwt>
<pdfrwt beam="1">  1       13 0.10000000E+01 0.57612358E+02</pdfrwt>
<pdfrwt beam="2">  1       22 0.36688298E+00 0.57612358E+02</pdfrwt>
<totfact> 0.14544202E-01</totfact>
</mgrwt>
</event>
<event>
 4    1  0.2416490E+000  0.5161268E+02  0.7957747E-01  0.1436832E+00
         13   -1    0    0    0    0  0.00000000000E+00  0.00000000000E+00  0.99999944180E+02  0.10000000000E+03  0.10566000000E+00 0.  1.
         22   -1    0    0    0    0 -0.00000000000E+00 -0.00000000000E+00 -0.30350927615E+02  0.30350927615E+02  0.00000000000E+00 0. -1.
         13    1    1    2    0    0  0.58307657792E+01  0.11396081617E+02 -0.21835526854E+02  0.25311457936E+02  0.10566000000E+00 0. -1.
        996    1    1    2    0    0 -0.58307657792E+01 -0.11396081617E+02  0.91484543419E+02  0.10503946968E+03  0.50000000000E+02 0.  0.
<mgrwt>
<rscale>  0 0.51612678E+02</rscale>
<asrwt>0</asrwt>
<pdfrwt beam="1">  1       13 0.10000000E+01 0.51612678E+02</pdfrwt>
<pdfrwt beam="2">  1       22 0.30350947E+00 0.51612678E+02</pdfrwt>
<totfact> 0.20249465E-01</totfact>
</mgrwt>
</event>
<event>
 4    1  0.2416490E+000  0.5126823E+02  0.7957747E-01  0.1438619E+00
         13   -1    0    0    0    0  0.00000000000E+00  0.00000000000E+00  0.99999944180E+02  0.10000000000E+03  0.10566000000E+00 0. -1.
         22   -1    0    0    0    0 -0.00000000000E+00 -0.00000000000E+00 -0.15593133688E+02  0.15593133688E+02  0.00000000000E+00 0.  1.
         13    1    1    2    0    0  0.10460195528E+02  0.43607394365E+01 -0.51119907147E+01  0.12432833628E+02  0.10566000000E+00 0.  1.
        996    1    1    2    0    0 -0.10460195528E+02 -0.43607394365E+01  0.89518801207E+02  0.10316030006E+03  0.50000000000E+02 0.  0.
<mgrwt>
<rscale>  0 0.51268233E+02</rscale>
<asrwt>0</asrwt>
<pdfrwt beam="1">  1       13 0.10000000E+01 0.51268233E+02</pdfrwt>
<pdfrwt beam="2">  1       22 0.15593157E+00 0.51268233E+02</pdfrwt>
<totfact> 0.70443963E-01</totfact>
</mgrwt>
</event>
<event>
 4    1  0.2416490E+000  0.5144489E+02  0.7957747E-01  0.1437700E+00
         13   -1    0    0    0    0  0.00000000000E+00  0.00000000000E+00  0.99999944187E+02  0.10000000001E+03  0.10566000000E+00 0. -1.
         22   -1    0    0    0    0 -0.00000000000E+00 -0.00000000000E+00 -0.24849274841E+02  0.24849274841E+02  0.00000000000E+00 0. -1.
         13    1    1    2    0    0  0.11328097928E+02 -0.42721007816E+01 -0.16070967963E+02  0.20121228170E+02  0.10566000000E+00 0.  1.
        996    1    1    2    0    0 -0.11328097928E+02  0.42721007816E+01  0.91221637309E+02  0.10472804668E+03  0.50000000000E+02 0.  0.
<mgrwt>
<rscale>  0 0.51444889E+02</rscale>
<asrwt>0</asrwt>
<pdfrwt beam="1">  1       13 0.10000000E+01 0.51444889E+02</pdfrwt>
<pdfrwt beam="2">  1       22 0.24849296E+00 0.51444889E+02</pdfrwt>
<totfact> 0.29805790E-01</totfact>
</mgrwt>
</event>
<event>
 4    1  0.2416490E+000  0.5268044E+02  0.7957747E-01  0.1431398E+00
         13   -1    0    0    0    0  0.00000000000E+00  0.00000000000E+00  0.99999944181E+02  0.10000000000E+03  0.10566000000E+00 0.  1.
         22   -1    0    0    0    0 -0.00000000000E+00 -0.00000000000E+00 -0.33163656160E+02  0.33163656160E+02  0.00000000000E+00 0. -1.
         13    1    1    2    0    0 -0.14220708641E+02 -0.85440454811E+01 -0.23394521714E+02  0.28680029249E+02  0.10566000000E+00 0. -1.
        996    1    1    2    0    0  0.14220708641E+02  0.85440454811E+01  0.90230809735E+02  0.10448362691E+03  0.50000000000E+02 0.  0.
<mgrwt>
<rscale>  0 0.52680445E+02</rscale>
<asrwt>0</asrwt>
<pdfrwt beam="1">  1       13 0.10000000E+01 0.52680445E+02</pdfrwt>
<pdfrwt beam="2">  1       22 0.33163675E+00 0.52680445E+02</pdfrwt>
<totfact> 0.17280890E-01</totfact>
</mgrwt>
</event>
<event>
 4    1  0.2416490E+000  0.6310093E+02  0.7957747E-01  0.1385261E+00
         13   -1    0    0    0    0  0.00000000000E+00  0.00000000000E+00  0.99999944183E+02  0.10000000000E+03  0.10566000000E+00 0. -1.
         22   -1    0    0    0    0 -0.00000000000E+00 -0.00000000000E+00 -0.42525962978E+02  0.42525962978E+02  0.00000000000E+00 0.  1.
         13    1    1    2    0    0  0.99489060463E+01  0.37185301265E+02 -0.19371454898E+02  0.43092827601E+02  0.10566000000E+00 0.  1.
        996    1    1    2    0    0 -0.99489060463E+01 -0.37185301265E+02  0.76845436103E+02  0.99433135381E+02  0.50000000000E+02 0.  0.
<mgrwt>
<rscale>  0 0.63100930E+02</rscale>
<asrwt>0</asrwt>
<pdfrwt beam="1">  1       13 0.10000000E+01 0.63100930E+02</pdfrwt>
<pdfrwt beam="2">  1       22 0.42525979E+00 0.63100930E+02</pdfrwt>
<totfact> 0.11024860E-01</totfact>
</mgrwt>
</event>
<event>
 4    1  0.2416490E+000  0.5199471E+02  0.7957747E-01  0.1434870E+00
         13   -1    0    0    0    0  0.00000000000E+00  0.00000000000E+00  0.99999944185E+02  0.10000000001E+03  0.10566000000E+00 0. -1.
         22   -1    0    0    0    0 -0.00000000000E+00 -0.00000000000E+00 -0.17690070951E+02  0.17690070951E+02  0.00000000000E+00 0.  1.
         13    1    1    2    0    0 -0.64696654718E+01 -0.12711938260E+02 -0.57875595750E+01  0.15393406235E+02  0.10566000000E+00 0.  1.
        996    1    1    2    0    0  0.64696654718E+01  0.12711938260E+02  0.88097432809E+02  0.10229666472E+03  0.50000000000E+02 0.  0.
<mgrwt>
<rscale>  0 0.51994711E+02</rscale>
<asrwt>0</asrwt>
<pdfrwt beam="1">  1       13 0.10000000E+01 0.51994711E+02</pdfrwt>
<pdfrwt beam="2">  1       22 0.17690094E+00 0.51994711E+02</pdfrwt>
<totfact> 0.56671452E-01</totfact>
</mgrwt>
</event>
<event>
 4    1  0.2416490E+000  0.6165309E+02  0.7957747E-01  0.1391023E+00
         13   -1    0    0    0    0  0.00000000000E+00  0.00000000000E+00  0.99999944176E+02  0.99999999996E+02  0.10566000000E+00 0.  1.
         22   -1    0    0    0    0 -0.00000000000E+00 -0.00000000000E+00 -0.39153609457E+02  0.39153609457E+02  0.00000000000E+00 0. -1.
         13    1    1    2    0    0  0.35953106668E+02 -0.29116689662E+01 -0.16978523747E+02  0.39867093297E+02  0.10566000000E+00 0. -1.
        996    1    1    2    0    0 -0.35953106668E+02  0.29116689662E+01  0.77824858466E+02  0.99286516156E+02  0.50000000000E+02 0.  0.
<mgrwt>
<rscale>  0 0.61653092E+02</rscale>
<asrwt>0</asrwt>
<pdfrwt beam="1">  1       13 0.10000000E+01 0.61653092E+02</pdfrwt>
<pdfrwt beam="2">  1       22 0.39153626E+00 0.61653092E+02</pdfrwt>
<totfact> 0.12967446E-01</totfact>
</mgrwt>
</event>
<event>
 4    1  0.2416490E+000  0.5126792E+02  0.7957747E-01  0.1438620E+00
         13   -1    0    0    0    0  0.00000000000E+00  0.00000000000E+00  0.99999944179E+02  0.10000000000E+03  0.10566000000E+00 0. -1.
         22   -1    0    0    0    0 -0.00000000000E+00 -0.00000000000E+00 -0.15272036604E+02  0.15272036604E+02  0.00000000000E+00 0.  1.
         13    1    1    2    0    0 -0.81123032391E+01  0.79113955059E+01 -0.46382263043E+01  0.12244343591E+02  0.10566000000E+00 0.  1.
        996    1    1    2    0    0  0.81123032391E+01 -0.79113955059E+01  0.89366133880E+02  0.10302769301E+03  0.50000000000E+02 0.  0.
<mgrwt>
<rscale>  0 0.51267920E+02</rscale>
<asrwt>0</asrwt>
<pdfrwt beam="1">  1       13 0.10000000E+01 0.51267920E+02</pdfrwt>
<pdfrwt beam="2">  1       22 0.15272060E+00 0.51267920E+02</pdfrwt>
<totfact> 0.72955472E-01</totfact>
</mgrwt>
</event>
<event>
 4    1  0.2416490E+000  0.5133251E+02  0.7957747E-01  0.1438284E+00
         13   -1    0    0    0    0  0.00000000000E+00  0.00000000000E+00  0.99999944172E+02  0.99999999992E+02  0.10566000000E+00 0. -1.
         22   -1    0    0    0    0 -0.00000000000E+00 -0.00000000000E+00 -0.25496803802E+02  0.25496803802E+02  0.00000000000E+00 0. -1.
         13    1    1    2    0    0 -0.71603202836E+00  0.11598012186E+02 -0.16991941162E+02  0.20585524453E+02  0.10566000000E+00 0.  1.
        996    1    1    2    0    0  0.71603202836E+00 -0.11598012186E+02  0.91495081532E+02  0.10491127934E+03  0.50000000000E+02 0.  0.
<mgrwt>
<rscale>  0 0.51332510E+02</rscale>
<asrwt>0</asrwt>
<pdfrwt beam="1">  1       13 0.10000000E+01 0.51332510E+02</pdfrwt>
<pdfrwt beam="2">  1       22 0.25496825E+00 0.51332510E+02</pdfrwt>
<totfact> 0.28330203E-01</totfact>
</mgrwt>
</event>
<event>
 4    1  0.2416490E+000  0.5216108E+02  0.7957747E-01  0.1434022E+00
         13   -1    0    0    0    0  0.00000000000E+00  0.00000000000E+00  0.99999944177E+02  0.99999999998E+02  0.10566000000E+00 0. -1.
         22   -1    0    0    0    0 -0.00000000000E+00 -0.00000000000E+00 -0.27867750758E+02  0.27867750758E+02  0.00000000000E+00 0.  1.
         13    1    1    2    0    0  0.73372305694E+01  0.12920649135E+02 -0.18237741633E+02  0.23524551227E+02  0.10566000000E+00 0.  1.
        996    1    1    2    0    0 -0.73372305694E+01 -0.12920649135E+02  0.90369935053E+02  0.10434319953E+03  0.50000000000E+02 0.  0.
<mgrwt>
<rscale>  0 0.52161079E+02</rscale>
<asrwt>0</asrwt>
<pdfrwt beam="1">  1       13 0.10000000E+01 0.52161079E+02</pdfrwt>
<pdfrwt beam="2">  1       22 0.27867771E+00 0.52161079E+02</pdfrwt>
<totfact> 0.23833821E-01</totfact>
</mgrwt>
</event>
<event>
 4    1  0.2416490E+000  0.6063056E+02  0.7957747E-01  0.1395204E+00
         13   -1    0    0    0    0  0.00000000000E+00  0.00000000000E+00  0.99999944177E+02  0.99999999997E+02  0.10566000000E+00 0. -1.
         22   -1    0    0    0    0 -0.00000000000E+00 -0.00000000000E+00 -0.28319801294E+02  0.28319801294E+02  0.00000000000E+00 0.  1.
         13    1    1    2    0    0 -0.14358263385E+02  0.31143304587E+02 -0.18568661921E+00  0.34294471735E+02  0.10566000000E+00 0.  1.
        996    1    1    2    0    0  0.14358263385E+02 -0.31143304587E+02  0.71865829502E+02  0.94025329556E+02  0.50000000000E+02 0.  0.
<mgrwt>
<rscale>  0 0.60630563E+02</rscale>
<asrwt>0</asrwt>
<pdfrwt beam="1">  1       13 0.10000000E+01 0.60630563E+02</pdfrwt>
<pdfrwt beam="2">  1       22 0.28319821E+00 0.60630563E+02</pdfrwt>
<totfact> 0.23358296E-01</totfact>
</mgrwt>
</event>
<event>
 4    1  0.2416490E+000  0.5275423E+02  0.7957747E-01  0.1431028E+00
         13   -1    0    0    0    0  0.00000000000E+00  0.00000000000E+00  0.99999944185E+02  0.10000000001E+03  0.10566000000E+00 0.  1.
         22   -1    0    0    0    0 -0.00000000000E+00 -0.00000000000E+00 -0.13276798957E+02  0.13276798957E+02  0.00000000000E+00 0.  1.
         13    1    1    2    0    0  0.15843340577E+02 -0.56566237727E+01  0.37603823548E+02  0.41195479638E+02  0.10566000000E+00 0. -1.
        996    1    1    2    0    0 -0.15843340577E+02  0.56566237727E+01  0.49119321681E+02  0.72081319324E+02  0.50000000000E+02 0.  0.
<mgrwt>
<rscale>  0 0.52754230E+02</rscale>
<asrwt>0</asrwt>
<pdfrwt beam="1">  1       13 0.10000000E+01 0.52754230E+02</pdfrwt>
<pdfrwt beam="2">  1       22 0.13276823E+00 0.52754230E+02</pdfrwt>
<totfact> 0.91963199E-01</totfact>
</mgrwt>
</event>
<event>
 4    1  0.2416490E+000  0.5371601E+02  0.7957747E-01  0.1426270E+00
         13   -1    0    0    0    0  0.00000000000E+00  0.00000000000E+00  0.99999944180E+02  0.10000000000E+03  0.10566000000E+00 0. -1.
         22   -1    0    0    0    0 -0.00000000000E+00 -0.00000000000E+00 -0.51418389013E+02  0.51418389013E+02  0.00000000000E+00 0.  1.
         13    1    1    2    0    0 -0.23878711796E+01 -0.19486089918E+02 -0.41855823346E+02  0.46231274492E+02  0.10566000000E+00 0.  1.
        996    1    1    2    0    0  0.23878711796E+01  0.19486089918E+02  0.90437378513E+02  0.10518711452E+03  0.50000000000E+02 0.  0.
<mgrwt>
<rscale>  0 0.53716009E+02</rscale>
<asrwt>0</asrwt>
<pdfrwt beam="1">  1       13 0.10000000E+01 0.53716009E+02</pdfrwt>
<pdfrwt beam="2">  1       22 0.51418403E+00 0.53716009E+02</pdfrwt>
<totfact> 0.68307675E-02</totfact>
</mgrwt>
</event>
<event>
 4    1  0.2416490E+000  0.5199778E+02  0.7957747E-01  0.1434855E+00
         13   -1    0    0    0    0  0.00000000000E+00  0.00000000000E+00  0.99999944180E+02  0.10000000000E+03  0.10566000000E+00 0. -1.
         22   -1    0    0    0    0 -0.00000000000E+00 -0.00000000000E+00 -0.28607718735E+02  0.28607718735E+02  0.00000000000E+00 0.  1.
         13    1    1    2    0    0 -0.12068528203E+02  0.76236502348E+01 -0.19336455001E+02  0.24034955210E+02  0.10566000000E+00 0.  1.
        996    1    1    2    0    0  0.12068528203E+02 -0.76236502348E+01  0.90728680446E+02  0.10457276353E+03  0.50000000000E+02 0.  0.
<mgrwt>
<rscale>  0 0.51997783E+02</rscale>
<asrwt>0</asrwt>
<pdfrwt beam="1">  1       13 0.10000000E+01 0.51997783E+02</pdfrwt>
<pdfrwt beam="2">  1       22 0.28607739E+00 0.51997783E+02</pdfrwt>
<totfact> 0.22653799E-01</totfact>
</mgrwt>
</event>
<event>
 4    1  0.2416490E+000  0.5117046E+02  0.7957747E-01  0.1439129E+00
         13   -1    0    0    0    0  0.00000000000E+00  0.00000000000E+00  0.99999944179E+02  0.99999999999E+02  0.10566000000E+00 0.  1.
         22   -1    0    0    0    0 -0.00000000000E+00 -0.00000000000E+00 -0.13388229874E+02  0.13388229874E+02  0.00000000000E+00 0. -1.
         13    1    1    2    0    0  0.74425538366E+00  0.10856415523E+02 -0.19984131405E+01  0.11064379476E+02  0.10566000000E+00 0. -1.
        996    1    1    2    0    0 -0.74425538366E+00 -0.10856415523E+02  0.88610127445E+02  0.10232385040E+03  0.50000000000E+02 0.  0.
<mgrwt>
<rscale>  0 0.51170457E+02</rscale>
<asrwt>0</asrwt>
<pdfrwt beam="1">  1       13 0.10000000E+01 0.51170457E+02</pdfrwt>
<pdfrwt beam="2">  1       22 0.13388254E+00 0.51170457E+02</pdfrwt>
<totfact> 0.90441234E-01</totfact>
</mgrwt>
</event>
<event>
 4    1  0.2416490E+000  0.5221025E+02  0.7957747E-01  0.1433772E+00
         13   -1    0    0    0    0  0.00000000000E+00  0.00000000000E+00  0.99999944183E+02  0.10000000000E+03  0.10566000000E+00 0. -1.
         22   -1    0    0    0    0 -0.00000000000E+00 -0.00000000000E+00 -0.38404017942E+02  0.38404017942E+02  0.00000000000E+00 0.  1.
         13    1    1    2    0    0 -0.14465846251E+02  0.40803434629E+01 -0.29669669837E+02  0.33259741172E+02  0.10566000000E+00 0.  1.
        996    1    1    2    0    0  0.14465846251E+02 -0.40803434629E+01  0.91265596079E+02  0.10514427677E+03  0.50000000000E+02 0.  0.
<mgrwt>
<rscale>  0 0.52210247E+02</rscale>
<asrwt>0</asrwt>
<pdfrwt beam="1">  1       13 0.10000000E+01 0.52210247E+02</pdfrwt>
<pdfrwt beam="2">  1       22 0.38404035E+00 0.52210247E+02</pdfrwt>
<totfact> 0.13339602E-01</totfact>
</mgrwt>
</event>
<event>
 4    1  0.2416490E+000  0.5124163E+02  0.7957747E-01  0.1438757E+00
         13   -1    0    0    0    0  0.00000000000E+00  0.00000000000E+00  0.99999944179E+02  0.99999999999E+02  0.10566000000E+00 0. -1.
         22   -1    0    0    0    0 -0.00000000000E+00 -0.00000000000E+00 -0.12906860912E+02  0.12906860912E+02  0.00000000000E+00 0.  1.
         13    1    1    2    0    0  0.24312937574E+01  0.10945039664E+02 -0.72126870446E+00  0.11235500663E+02  0.10566000000E+00 0.  1.
        996    1    1    2    0    0 -0.24312937574E+01 -0.10945039664E+02  0.87814351971E+02  0.10167136025E+03  0.50000000000E+02 0.  0.
<mgrwt>
<rscale>  0 0.51241634E+02</rscale>
<asrwt>0</asrwt>
<pdfrwt beam="1">  1       13 0.10000000E+01 0.51241634E+02</pdfrwt>
<pdfrwt beam="2">  1       22 0.12906885E+00 0.51241634E+02</pdfrwt>
<totfact> 0.95847321E-01</totfact>
</mgrwt>
</event>
<event>
 4    1  0.2416490E+000  0.6071403E+02  0.7957747E-01  0.1394859E+00
         13   -1    0    0    0    0  0.00000000000E+00  0.00000000000E+00  0.99999944178E+02  0.99999999999E+02  0.10566000000E+00 0. -1.
         22   -1    0    0    0    0 -0.00000000000E+00 -0.00000000000E+00 -0.28295560157E+02  0.28295560157E+02  0.00000000000E+00 0.  1.
         13    1    1    2    0    0 -0.27207262424E+02  0.21117730320E+02  0.13361304561E+00  0.34441583573E+02  0.10566000000E+00 0.  1.
        996    1    1    2    0    0  0.27207262424E+02 -0.21117730320E+02  0.71570770976E+02  0.93853976583E+02  0.50000000000E+02 0.  0.
<mgrwt>
<rscale>  0 0.60714032E+02</rscale>
<asrwt>0</asrwt>
<pdfrwt beam="1">  1       13 0.10000000E+01 0.60714032E+02</pdfrwt>
<pdfrwt beam="2">  1       22 0.28295580E+00 0.60714032E+02</pdfrwt>
<totfact> 0.23399449E-01</totfact>
</mgrwt>
</event>
<event>
 4    1  0.2416490E+000  0.8725086E+02  0.7957747E-01  0.1309649E+00
         13   -1    0    0    0    0  0.00000000000E+00  0.00000000000E+00  0.99999944177E+02  0.99999999997E+02  0.10566000000E+00 0.  1.
         22   -1    0    0    0    0 -0.00000000000E+00 -0.00000000000E+00 -0.63013996857E+02  0.63013996857E+02  0.00000000000E+00 0. -1.
         13    1    1    2    0    0  0.22505377089E+02  0.67869137078E+02  0.17501103731E+02  0.73613935919E+02  0.10566000000E+00 0. -1.
        996    1    1    2    0    0 -0.22505377089E+02 -0.67869137078E+02  0.19484843589E+02  0.89400060936E+02  0.50000000000E+02 0.  0.
<mgrwt>
<rscale>  0 0.87250855E+02</rscale>
<asrwt>0</asrwt>
<pdfrwt beam="1">  1       13 0.10000000E+01 0.87250855E+02</pdfrwt>
<pdfrwt beam="2">  1       22 0.63014007E+00 0.87250855E+02</pdfrwt>
<totfact> 0.78884969E-02</totfact>
</mgrwt>
</event>
<event>
 4    1  0.2416490E+000  0.5254719E+02  0.7957747E-01  0.1432068E+00
         13   -1    0    0    0    0  0.00000000000E+00  0.00000000000E+00  0.99999944180E+02  0.10000000000E+03  0.10566000000E+00 0.  1.
         22   -1    0    0    0    0 -0.00000000000E+00 -0.00000000000E+00 -0.15388775792E+02  0.15388775792E+02  0.00000000000E+00 0. -1.
         13    1    1    2    0    0  0.11848947132E+01 -0.16118405539E+02  0.44783562933E+00  0.16168447464E+02  0.10566000000E+00 0. -1.
        996    1    1    2    0    0 -0.11848947132E+01  0.16118405539E+02  0.84163332758E+02  0.99220328328E+02  0.50000000000E+02 0.  0.
<mgrwt>
<rscale>  0 0.52547188E+02</rscale>
<asrwt>0</asrwt>
<pdfrwt beam="1">  1       13 0.10000000E+01 0.52547188E+02</pdfrwt>
<pdfrwt beam="2">  1       22 0.15388799E+00 0.52547188E+02</pdfrwt>
<totfact> 0.72215526E-01</totfact>
</mgrwt>
</event>
<event>
 4    1  0.2416490E+000  0.5184302E+02  0.7957747E-01  0.1435647E+00
         13   -1    0    0    0    0  0.00000000000E+00  0.00000000000E+00  0.99999944180E+02  0.10000000000E+03  0.10566000000E+00 0.  1.
         22   -1    0    0    0    0 -0.00000000000E+00 -0.00000000000E+00 -0.13478645186E+02  0.13478645186E+02  0.00000000000E+00 0.  1.
         13    1    1    2    0    0  0.13670675988E+02  0.90046973379E+00  0.13463387600E+01  0.13766699670E+02  0.10566000000E+00 0. -1.
        996    1    1    2    0    0 -0.13670675988E+02 -0.90046973379E+00  0.85174960234E+02  0.99711945516E+02  0.50000000000E+02 0.  0.
<mgrwt>
<rscale>  0 0.51843015E+02</rscale>
<asrwt>0</asrwt>
<pdfrwt beam="1">  1       13 0.10000000E+01 0.51843015E+02</pdfrwt>
<pdfrwt beam="2">  1       22 0.13478669E+00 0.51843015E+02</pdfrwt>
<totfact> 0.89605971E-01</totfact>
</mgrwt>
</event>
<event>
 4    1  0.2416490E+000  0.5274945E+02  0.7957747E-01  0.1431052E+00
         13   -1    0    0    0    0  0.00000000000E+00  0.00000000000E+00  0.99999944182E+02  0.10000000000E+03  0.10566000000E+00 0.  1.
         22   -1    0    0    0    0 -0.00000000000E+00 -0.00000000000E+00 -0.25650600636E+02  0.25650600636E+02  0.00000000000E+00 0. -1.
         13    1    1    2    0    0 -0.16744465604E+02  0.14584754313E+01 -0.14581963887E+02  0.22251946292E+02  0.10566000000E+00 0. -1.
        996    1    1    2    0    0  0.16744465604E+02 -0.14584754313E+01  0.88931307432E+02  0.10339865435E+03  0.50000000000E+02 0.  0.
<mgrwt>
<rscale>  0 0.52749448E+02</rscale>
<asrwt>0</asrwt>
<pdfrwt beam="1">  1       13 0.10000000E+01 0.52749448E+02</pdfrwt>
<pdfrwt beam="2">  1       22 0.25650621E+00 0.52749448E+02</pdfrwt>
<totfact> 0.28058118E-01</totfact>
</mgrwt>
</event>
<event>
 4    1  0.2416490E+000  0.5161336E+02  0.7957747E-01  0.1436829E+00
         13   -1    0    0    0    0  0.00000000000E+00  0.00000000000E+00  0.99999944182E+02  0.10000000000E+03  0.10566000000E+00 0. -1.
         22   -1    0    0    0    0 -0.00000000000E+00 -0.00000000000E+00 -0.23873346561E+02  0.23873346561E+02  0.00000000000E+00 0. -1.
         13    1    1    2    0    0  0.10548118379E+02 -0.72578390658E+01 -0.14645440386E+02  0.19453511698E+02  0.10566000000E+00 0.  1.
        996    1    1    2    0    0 -0.10548118379E+02  0.72578390658E+01  0.90772038008E+02  0.10441983487E+03  0.50000000000E+02 0.  0.
<mgrwt>
<rscale>  0 0.51613361E+02</rscale>
<asrwt>0</asrwt>
<pdfrwt beam="1">  1       13 0.10000000E+01 0.51613361E+02</pdfrwt>
<pdfrwt beam="2">  1       22 0.23873368E+00 0.51613361E+02</pdfrwt>
<totfact> 0.32251906E-01</totfact>
</mgrwt>
</event>
<event>
 4    1  0.2416490E+000  0.5226400E+02  0.7957747E-01  0.1433499E+00
         13   -1    0    0    0    0  0.00000000000E+00  0.00000000000E+00  0.99999944191E+02  0.10000000001E+03  0.10566000000E+00 0. -1.
         22   -1    0    0    0    0 -0.00000000000E+00 -0.00000000000E+00 -0.18544261921E+02  0.18544261921E+02  0.00000000000E+00 0. -1.
         13    1    1    2    0    0  0.37414826719E+01  0.14748786795E+02  0.60250525604E+02  0.62142275499E+02  0.10566000000E+00 0.  1.
        996    1    1    2    0    0 -0.37414826719E+01 -0.14748786795E+02  0.21205156665E+02  0.56401986434E+02  0.50000000000E+02 0.  0.
<mgrwt>
<rscale>  0 0.52263997E+02</rscale>
<asrwt>0</asrwt>
<pdfrwt beam="1">  1       13 0.10000000E+01 0.52263997E+02</pdfrwt>
<pdfrwt beam="2">  1       22 0.18544285E+00 0.52263997E+02</pdfrwt>
<totfact> 0.52092366E-01</totfact>
</mgrwt>
</event>
<event>
 4    1  0.2416490E+000  0.5577345E+02  0.7957747E-01  0.1416476E+00
         13   -1    0    0    0    0  0.00000000000E+00  0.00000000000E+00  0.99999944189E+02  0.10000000001E+03  0.10566000000E+00 0.  1.
         22   -1    0    0    0    0 -0.00000000000E+00 -0.00000000000E+00 -0.22168740317E+02  0.22168740317E+02  0.00000000000E+00 0. -1.
         13    1    1    2    0    0  0.24693567868E+02  0.95142754204E+00 -0.19906037546E+01  0.24792159562E+02  0.10566000000E+00 0. -1.
        996    1    1    2    0    0 -0.24693567868E+02 -0.95142754204E+00  0.79821807627E+02  0.97376580764E+02  0.50000000000E+02 0.  0.
<mgrwt>
<rscale>  0 0.55773448E+02</rscale>
<asrwt>0</asrwt>
<pdfrwt beam="1">  1       13 0.10000000E+01 0.55773448E+02</pdfrwt>
<pdfrwt beam="2">  1       22 0.22168762E+00 0.55773448E+02</pdfrwt>
<totfact> 0.37499637E-01</totfact>
</mgrwt>
</event>
<event>
 4    1  0.2416490E+000  0.5100813E+02  0.7957747E-01  0.1439979E+00
         13   -1    0    0    0    0  0.00000000000E+00  0.00000000000E+00  0.99999944179E+02  0.99999999999E+02  0.10566000000E+00 0. -1.
         22   -1    0    0    0    0 -0.00000000000E+00 -0.00000000000E+00 -0.10699185476E+02  0.10699185476E+02  0.00000000000E+00 0. -1.
         13    1    1    2    0    0  0.99117008600E+01 -0.18940634425E+01  0.31348302244E+01  0.10567289853E+02  0.10566000000E+00 0.  1.
        996    1    1    2    0    0 -0.99117008600E+01  0.18940634425E+01  0.86165928479E+02  0.10013189562E+03  0.50000000000E+02 0.  0.
<mgrwt>
<rscale>  0 0.51008130E+02</rscale>
<asrwt>0</asrwt>
<pdfrwt beam="1">  1       13 0.10000000E+01 0.51008130E+02</pdfrwt>
<pdfrwt beam="2">  1       22 0.10699210E+00 0.51008130E+02</pdfrwt>
<totfact> 0.12741540E+00</totfact>
</mgrwt>
</event>
<event>
 4    1  0.2416490E+000  0.5134207E+02  0.7957747E-01  0.1438234E+00
         13   -1    0    0    0    0  0.00000000000E+00  0.00000000000E+00  0.99999944184E+02  0.10000000000E+03  0.10566000000E+00 0.  1.
         22   -1    0    0    0    0 -0.00000000000E+00 -0.00000000000E+00 -0.21898625048E+02  0.21898625048E+02  0.00000000000E+00 0. -1.
         13    1    1    2    0    0  0.62498871388E+01  0.98461668542E+01 -0.12913947069E+02  0.17400841471E+02  0.10566000000E+00 0. -1.
        996    1    1    2    0    0 -0.62498871388E+01 -0.98461668542E+01  0.91015266205E+02  0.10449778358E+03  0.50000000000E+02 0.  0.
<mgrwt>
<rscale>  0 0.51342069E+02</rscale>
<asrwt>0</asrwt>
<pdfrwt beam="1">  1       13 0.10000000E+01 0.51342069E+02</pdfrwt>
<pdfrwt beam="2">  1       22 0.21898647E+00 0.51342069E+02</pdfrwt>
<totfact> 0.38114942E-01</totfact>
</mgrwt>
</event>
<event>
 4    1  0.2416490E+000  0.5830089E+02  0.7957747E-01  0.1405104E+00
         13   -1    0    0    0    0  0.00000000000E+00  0.00000000000E+00  0.99999944177E+02  0.99999999997E+02  0.10566000000E+00 0. -1.
         22   -1    0    0    0    0 -0.00000000000E+00 -0.00000000000E+00 -0.30941646802E+02  0.30941646802E+02  0.00000000000E+00 0.  1.
         13    1    1    2    0    0  0.96321053043E+01 -0.28393944629E+02 -0.10971491756E+02  0.31927704890E+02  0.10566000000E+00 0.  1.
        996    1    1    2    0    0 -0.96321053043E+01  0.28393944629E+02  0.80029789131E+02  0.99013941910E+02  0.50000000000E+02 0.  0.
<mgrwt>
<rscale>  0 0.58300888E+02</rscale>
<asrwt>0</asrwt>
<pdfrwt beam="1">  1       13 0.10000000E+01 0.58300888E+02</pdfrwt>
<pdfrwt beam="2">  1       22 0.30941666E+00 0.58300888E+02</pdfrwt>
<totfact> 0.19700771E-01</totfact>
</mgrwt>
</event>
<event>
 4    1  0.2416490E+000  0.5446412E+02  0.7957747E-01  0.1422650E+00
         13   -1    0    0    0    0  0.00000000000E+00  0.00000000000E+00  0.99999944183E+02  0.10000000000E+03  0.10566000000E+00 0.  1.
         22   -1    0    0    0    0 -0.00000000000E+00 -0.00000000000E+00 -0.14733652036E+02  0.14733652036E+02  0.00000000000E+00 0.  1.
         13    1    1    2    0    0  0.52150004474E+01  0.20955777356E+02  0.31580998775E+02  0.38258482483E+02  0.10566000000E+00 0. -1.
        996    1    1    2    0    0 -0.52150004474E+01 -0.20955777356E+02  0.53685293371E+02  0.76475169556E+02  0.50000000000E+02 0.  0.
<mgrwt>
<rscale>  0 0.54464124E+02</rscale>
<asrwt>0</asrwt>
<pdfrwt beam="1">  1       13 0.10000000E+01 0.54464124E+02</pdfrwt>
<pdfrwt beam="2">  1       22 0.14733676E+00 0.54464124E+02</pdfrwt>
<totfact> 0.77948777E-01</totfact>
</mgrwt>
</event>
<event>
 4    1  0.2416490E+000  0.5166663E+02  0.7957747E-01  0.1436554E+00
         13   -1    0    0    0    0  0.00000000000E+00  0.00000000000E+00  0.99999944184E+02  0.10000000000E+03  0.10566000000E+00 0. -1.
         22   -1    0    0    0    0 -0.00000000000E+00 -0.00000000000E+00 -0.24507487985E+02  0.24507487985E+02  0.00000000000E+00 0.  1.
         13    1    1    2    0    0 -0.13008486074E+02  0.46862258617E+00 -0.15272539282E+02  0.20067434744E+02  0.10566000000E+00 0.  1.
        996    1    1    2    0    0  0.13008486074E+02 -0.46862258617E+00  0.90764995482E+02  0.10444005325E+03  0.50000000000E+02 0.  0.
<mgrwt>
<rscale>  0 0.51666627E+02</rscale>
<asrwt>0</asrwt>
<pdfrwt beam="1">  1       13 0.10000000E+01 0.51666627E+02</pdfrwt>
<pdfrwt beam="2">  1       22 0.24507509E+00 0.51666627E+02</pdfrwt>
<totfact> 0.30638836E-01</totfact>
</mgrwt>
</event>
<event>
 4    1  0.2416490E+000  0.5145593E+02  0.7957747E-01  0.1437643E+00
         13   -1    0    0    0    0  0.00000000000E+00  0.00000000000E+00  0.99999944172E+02  0.99999999992E+02  0.10566000000E+00 0. -1.
         22   -1    0    0    0    0 -0.00000000000E+00 -0.00000000000E+00 -0.11731021466E+02  0.11731021466E+02  0.00000000000E+00 0.  1.
         13    1    1    2    0    0 -0.93521603142E+01  0.77620785435E+01  0.36413788142E+01  0.12687930074E+02  0.10566000000E+00 0.  1.
        996    1    1    2    0    0  0.93521603142E+01 -0.77620785435E+01  0.84627543891E+02  0.99043091384E+02  0.50000000000E+02 0.  0.
<mgrwt>
<rscale>  0 0.51455930E+02</rscale>
<asrwt>0</asrwt>
<pdfrwt beam="1">  1       13 0.10000000E+01 0.51455930E+02</pdfrwt>
<pdfrwt beam="2">  1       22 0.11731046E+00 0.51455930E+02</pdfrwt>
<totfact> 0.11113849E+00</totfact>
</mgrwt>
</event>
<event>
 4    1  0.2416490E+000  0.5120777E+02  0.7957747E-01  0.1438934E+00
         13   -1    0    0    0    0  0.00000000000E+00  0.00000000000E+00  0.99999944173E+02  0.99999999993E+02  0.10566000000E+00 0.  1.
         22   -1    0    0    0    0 -0.00000000000E+00 -0.00000000000E+00 -0.13666752068E+02  0.13666752068E+02  0.00000000000E+00 0.  1.
         13    1    1    2    0    0 -0.32365617403E+01 -0.10571657340E+02 -0.23103417787E+01  0.11295313806E+02  0.10566000000E+00 0. -1.
        996    1    1    2    0    0  0.32365617403E+01  0.10571657340E+02  0.88643533884E+02  0.10237143825E+03  0.50000000000E+02 0.  0.
<mgrwt>
<rscale>  0 0.51207766E+02</rscale>
<asrwt>0</asrwt>
<pdfrwt beam="1">  1       13 0.10000000E+01 0.51207766E+02</pdfrwt>
<pdfrwt beam="2">  1       22 0.13666776E+00 0.51207766E+02</pdfrwt>
<totfact> 0.87520795E-01</totfact>
</mgrwt>
</event>
<event>
 4    1  0.2416490E+000  0.5792400E+02  0.7957747E-01  0.1406756E+00
         13   -1    0    0    0    0  0.00000000000E+00  0.00000000000E+00  0.99999944173E+02  0.99999999994E+02  0.10566000000E+00 0. -1.
         22   -1    0    0    0    0 -0.00000000000E+00 -0.00000000000E+00 -0.26366951386E+02  0.26366951386E+02  0.00000000000E+00 0.  1.
         13    1    1    2    0    0  0.22415147327E+02  0.18781660204E+02 -0.39890577316E+01  0.29514629175E+02  0.10566000000E+00 0.  1.
        996    1    1    2    0    0 -0.22415147327E+02 -0.18781660204E+02  0.77622050519E+02  0.96852322205E+02  0.50000000000E+02 0.  0.
<mgrwt>
<rscale>  0 0.57923998E+02</rscale>
<asrwt>0</asrwt>
<pdfrwt beam="1">  1       13 0.10000000E+01 0.57923998E+02</pdfrwt>
<pdfrwt beam="2">  1       22 0.26366972E+00 0.57923998E+02</pdfrwt>
<totfact> 0.26772772E-01</totfact>
</mgrwt>
</event>
<event>
 4    1  0.2416490E+000  0.5824994E+02  0.7957747E-01  0.1405326E+00
         13   -1    0    0    0    0  0.00000000000E+00  0.00000000000E+00  0.99999944180E+02  0.10000000000E+03  0.10566000000E+00 0.  1.
         22   -1    0    0    0    0 -0.00000000000E+00 -0.00000000000E+00 -0.22172384450E+02  0.22172384450E+02  0.00000000000E+00 0. -1.
         13    1    1    2    0    0  0.25830351352E+02 -0.15028252502E+02  0.74182763747E+01  0.30791190504E+02  0.10566000000E+00 0. -1.
        996    1    1    2    0    0 -0.25830351352E+02  0.15028252502E+02  0.70409283356E+02  0.91381193946E+02  0.50000000000E+02 0.  0.
<mgrwt>
<rscale>  0 0.58249939E+02</rscale>
<asrwt>0</asrwt>
<pdfrwt beam="1">  1       13 0.10000000E+01 0.58249939E+02</pdfrwt>
<pdfrwt beam="2">  1       22 0.22172406E+00 0.58249939E+02</pdfrwt>
<totfact> 0.37630752E-01</totfact>
</mgrwt>
</event>
<event>
 4    1  0.2416490E+000  0.5490207E+02  0.7957747E-01  0.1420563E+00
         13   -1    0    0    0    0  0.00000000000E+00  0.00000000000E+00  0.99999944182E+02  0.10000000000E+03  0.10566000000E+00 0. -1.
         22   -1    0    0    0    0 -0.00000000000E+00 -0.00000000000E+00 -0.16451136823E+02  0.16451136823E+02  0.00000000000E+00 0. -1.
         13    1    1    2    0    0 -0.54973028672E+01 -0.22000395120E+02  0.10289041746E+02  0.24902073575E+02  0.10566000000E+00 0.  1.
        996    1    1    2    0    0  0.54973028672E+01  0.22000395120E+02  0.73259765614E+02  0.91549063250E+02  0.50000000000E+02 0.  0.
<mgrwt>
<rscale>  0 0.54902074E+02</rscale>
<asrwt>0</asrwt>
<pdfrwt beam="1">  1       13 0.10000000E+01 0.54902074E+02</pdfrwt>
<pdfrwt beam="2">  1       22 0.16451160E+00 0.54902074E+02</pdfrwt>
<totfact> 0.64730079E-01</totfact>
</mgrwt>
</event>
<event>
 4    1  0.2416490E+000  0.5251868E+02  0.7957747E-01  0.1432211E+00
         13   -1    0    0    0    0  0.00000000000E+00  0.00000000000E+00  0.99999944181E+02  0.10000000000E+03  0.10566000000E+00 0.  1.
         22   -1    0    0    0    0 -0.00000000000E+00 -0.00000000000E+00 -0.25745353141E+02  0.25745353141E+02  0.00000000000E+00 0. -1.
         13    1    1    2    0    0  0.15345579669E+02  0.47670684466E+01 -0.15131570491E+02  0.22072320823E+02  0.10566000000E+00 0. -1.
        996    1    1    2    0    0 -0.15345579669E+02 -0.47670684466E+01  0.89386161532E+02  0.10367303232E+03  0.50000000000E+02 0.  0.
<mgrwt>
<rscale>  0 0.52518680E+02</rscale>
<asrwt>0</asrwt>
<pdfrwt beam="1">  1       13 0.10000000E+01 0.52518680E+02</pdfrwt>
<pdfrwt beam="2">  1       22 0.25745374E+00 0.52518680E+02</pdfrwt>
<totfact> 0.27845449E-01</totfact>
</mgrwt>
</event>
<event>
 4    1  0.2416490E+000  0.5144839E+02  0.7957747E-01  0.1437682E+00
         13   -1    0    0    0    0  0.00000000000E+00  0.00000000000E+00  0.99999944184E+02  0.10000000000E+03  0.10566000000E+00 0.  1.
         22   -1    0    0    0    0 -0.00000000000E+00 -0.00000000000E+00 -0.44163304217E+02  0.44163304217E+02  0.00000000000E+00 0. -1.
         13    1    1    2    0    0  0.10180122652E+02  0.65804494100E+01 -0.36500318298E+02  0.38460650171E+02  0.10566000000E+00 0. -1.
        996    1    1    2    0    0 -0.10180122652E+02 -0.65804494100E+01  0.92336958265E+02  0.10570265405E+03  0.50000000000E+02 0.  0.
<mgrwt>
<rscale>  0 0.51448394E+02</rscale>
<asrwt>0</asrwt>
<pdfrwt beam="1">  1       13 0.10000000E+01 0.51448394E+02</pdfrwt>
<pdfrwt beam="2">  1       22 0.44163320E+00 0.51448394E+02</pdfrwt>
<totfact> 0.10083818E-01</totfact>
</mgrwt>
</event>
<event>
 4    1  0.2416490E+000  0.5263172E+02  0.7957747E-01  0.1431642E+00
         13   -1    0    0    0    0  0.00000000000E+00  0.00000000000E+00  0.99999944184E+02  0.10000000000E+03  0.10566000000E+00 0.  1.
         22   -1    0    0    0    0 -0.00000000000E+00 -0.00000000000E+00 -0.11926098442E+02  0.11926098442E+02  0.00000000000E+00 0.  1.
         13    1    1    2    0    0  0.95408222209E+01  0.13381716035E+02  0.21296922753E+02  0.26901072385E+02  0.10566000000E+00 0. -1.
        996    1    1    2    0    0 -0.95408222209E+01 -0.13381716035E+02  0.66776922989E+02  0.85025026061E+02  0.50000000000E+02 0.  0.
<mgrwt>
<rscale>  0 0.52631717E+02</rscale>
<asrwt>0</asrwt>
<pdfrwt beam="1">  1       13 0.10000000E+01 0.52631717E+02</pdfrwt>
<pdfrwt beam="2">  1       22 0.11926123E+00 0.52631717E+02</pdfrwt>
<totfact> 0.10866762E+00</totfact>
</mgrwt>
</event>
<event>
 4    1  0.2416490E+000  0.5116485E+02  0.7957747E-01  0.1439158E+00
         13   -1    0    0    0    0  0.00000000000E+00  0.00000000000E+00  0.99999944177E+02  0.99999999997E+02  0.10566000000E+00 0.  1.
         22   -1    0    0    0    0 -0.00000000000E+00 -0.00000000000E+00 -0.96367353162E+01  0.96367353162E+01  0.00000000000E+00 0.  1.
         13    1    1    2    0    0 -0.45199971414E+01 -0.98697242906E+01  0.17792096993E+02  0.20842545698E+02  0.10566000000E+00 0. -1.
        996    1    1    2    0    0  0.45199971414E+01  0.98697242906E+01  0.72571111868E+02  0.88794189616E+02  0.50000000000E+02 0.  0.
<mgrwt>
<rscale>  0 0.51164850E+02</rscale>
<asrwt>0</asrwt>
<pdfrwt beam="1">  1       13 0.10000000E+01 0.51164850E+02</pdfrwt>
<pdfrwt beam="2">  1       22 0.96367605E-01 0.51164850E+02</pdfrwt>
<totfact> 0.14839940E+00</totfact>
</mgrwt>
</event>
<event>
 4    1  0.2416490E+000  0.5287007E+02  0.7957747E-01  0.1430449E+00
         13   -1    0    0    0    0  0.00000000000E+00  0.00000000000E+00  0.99999944173E+02  0.99999999993E+02  0.10566000000E+00 0. -1.
         22   -1    0    0    0    0 -0.00000000000E+00 -0.00000000000E+00 -0.17619743337E+02  0.17619743337E+02  0.00000000000E+00 0.  1.
         13    1    1    2    0    0 -0.77276701742E+01  0.15346889517E+02 -0.27562897980E+01  0.17402649272E+02  0.10566000000E+00 0.  1.
        996    1    1    2    0    0  0.77276701742E+01 -0.15346889517E+02  0.85136490634E+02  0.10021709406E+03  0.50000000000E+02 0.  0.
<mgrwt>
<rscale>  0 0.52870066E+02</rscale>
<asrwt>0</asrwt>
<pdfrwt beam="1">  1       13 0.10000000E+01 0.52870066E+02</pdfrwt>
<pdfrwt beam="2">  1       22 0.17619766E+00 0.52870066E+02</pdfrwt>
<totfact> 0.57169050E-01</totfact>
</mgrwt>
</event>
<event>
 4    1  0.2416490E+000  0.5309974E+02  0.7957747E-01  0.1429305E+00
         13   -1    0    0    0    0  0.00000000000E+00  0.00000000000E+00  0.99999944180E+02  0.10000000000E+03  0.10566000000E+00 0. -1.
         22   -1    0    0    0    0 -0.00000000000E+00 -0.00000000000E+00 -0.12809670478E+02  0.12809670478E+02  0.00000000000E+00 0. -1.
         13    1    1    2    0    0 -0.17623153996E+02 -0.30010574498E+01  0.15957265249E+02  0.23963041978E+02  0.10566000000E+00 0.  1.
        996    1    1    2    0    0  0.17623153996E+02  0.30010574498E+01  0.71233008453E+02  0.88846628500E+02  0.50000000000E+02 0.  0.
<mgrwt>
<rscale>  0 0.53099735E+02</rscale>
<asrwt>0</asrwt>
<pdfrwt beam="1">  1       13 0.10000000E+01 0.53099735E+02</pdfrwt>
<pdfrwt beam="2">  1       22 0.12809695E+00 0.53099735E+02</pdfrwt>
<totfact> 0.97382479E-01</totfact>
</mgrwt>
</event>
<event>
 4    1  0.2416490E+000  0.6001930E+02  0.7957747E-01  0.1397751E+00
         13   -1    0    0    0    0  0.00000000000E+00  0.00000000000E+00  0.99999944178E+02  0.99999999998E+02  0.10566000000E+00 0.  1.
         22   -1    0    0    0    0 -0.00000000000E+00 -0.00000000000E+00 -0.33884308650E+02  0.33884308650E+02  0.00000000000E+00 0. -1.
         13    1    1    2    0    0  0.33042192699E+02 -0.32450663843E+01 -0.12061897941E+02  0.35324460366E+02  0.10566000000E+00 0. -1.
        996    1    1    2    0    0 -0.33042192699E+02  0.32450663843E+01  0.78177533468E+02  0.98559848282E+02  0.50000000000E+02 0.  0.
<mgrwt>
<rscale>  0 0.60019305E+02</rscale>
<asrwt>0</asrwt>
<pdfrwt beam="1">  1       13 0.10000000E+01 0.60019305E+02</pdfrwt>
<pdfrwt beam="2">  1       22 0.33884327E+00 0.60019305E+02</pdfrwt>
<totfact> 0.16765011E-01</totfact>
</mgrwt>
</event>
<event>
 4    1  0.2416490E+000  0.5213183E+02  0.7957747E-01  0.1434171E+00
         13   -1    0    0    0    0  0.00000000000E+00  0.00000000000E+00  0.99999944175E+02  0.99999999995E+02  0.10566000000E+00 0. -1.
         22   -1    0    0    0    0 -0.00000000000E+00 -0.00000000000E+00 -0.35778284887E+02  0.35778284887E+02  0.00000000000E+00 0.  1.
         13    1    1    2    0    0 -0.84201773659E+00  0.14731539309E+02 -0.26966750851E+02  0.30739942417E+02  0.10566000000E+00 0.  1.
        996    1    1    2    0    0  0.84201773659E+00 -0.14731539309E+02  0.91188410139E+02  0.10503834247E+03  0.50000000000E+02 0.  0.
<mgrwt>
<rscale>  0 0.52131826E+02</rscale>
<asrwt>0</asrwt>
<pdfrwt beam="1">  1       13 0.10000000E+01 0.52131826E+02</pdfrwt>
<pdfrwt beam="2">  1       22 0.35778303E+00 0.52131826E+02</pdfrwt>
<totfact> 0.15124967E-01</totfact>
</mgrwt>
</event>
<event>
 4    1  0.2416490E+000  0.5269975E+02  0.7957747E-01  0.1431301E+00
         13   -1    0    0    0    0  0.00000000000E+00  0.00000000000E+00  0.99999944181E+02  0.10000000000E+03  0.10566000000E+00 0.  1.
         22   -1    0    0    0    0 -0.00000000000E+00 -0.00000000000E+00 -0.15229057650E+02  0.15229057650E+02  0.00000000000E+00 0. -1.
         13    1    1    2    0    0 -0.88161915879E-01 -0.16651003759E+02  0.15476114365E+01  0.16723335908E+02  0.10566000000E+00 0. -1.
        996    1    1    2    0    0  0.88161915879E-01  0.16651003759E+02  0.83223275094E+02  0.98505721743E+02  0.50000000000E+02 0.  0.
<mgrwt>
<rscale>  0 0.52699750E+02</rscale>
<asrwt>0</asrwt>
<pdfrwt beam="1">  1       13 0.10000000E+01 0.52699750E+02</pdfrwt>
<pdfrwt beam="2">  1       22 0.15229081E+00 0.52699750E+02</pdfrwt>
<totfact> 0.73514309E-01</totfact>
</mgrwt>
</event>
<event>
 4    1  0.2416490E+000  0.5235569E+02  0.7957747E-01  0.1433034E+00
         13   -1    0    0    0    0  0.00000000000E+00  0.00000000000E+00  0.99999944173E+02  0.99999999993E+02  0.10566000000E+00 0. -1.
         22   -1    0    0    0    0 -0.00000000000E+00 -0.00000000000E+00 -0.11717891685E+02  0.11717891685E+02  0.00000000000E+00 0. -1.
         13    1    1    2    0    0  0.10207239249E+02  0.11701750128E+02  0.14487258973E+02  0.21237008399E+02  0.10566000000E+00 0.  1.
        996    1    1    2    0    0 -0.10207239249E+02 -0.11701750128E+02  0.73794793515E+02  0.90480883280E+02  0.50000000000E+02 0.  0.
<mgrwt>
<rscale>  0 0.52355694E+02</rscale>
<asrwt>0</asrwt>
<pdfrwt beam="1">  1       13 0.10000000E+01 0.52355694E+02</pdfrwt>
<pdfrwt beam="2">  1       22 0.11717916E+00 0.52355694E+02</pdfrwt>
<totfact> 0.11155413E+00</totfact>
</mgrwt>
</event>
<event>
 4    1  0.2416490E+000  0.6110083E+02  0.7957747E-01  0.1393269E+00
         13   -1    0    0    0    0  0.00000000000E+00  0.00000000000E+00  0.99999944174E+02  0.99999999994E+02  0.10566000000E+00 0.  1.
         22   -1    0    0    0    0 -0.00000000000E+00 -0.00000000000E+00 -0.32565385823E+02  0.32565385823E+02  0.00000000000E+00 0. -1.
         13    1    1    2    0    0 -0.20928571919E+02 -0.28201175945E+02 -0.74665708898E+01  0.35903652908E+02  0.10566000000E+00 0. -1.
        996    1    1    2    0    0  0.20928571919E+02  0.28201175945E+02  0.74901129241E+02  0.96661732909E+02  0.50000000000E+02 0.  0.
<mgrwt>
<rscale>  0 0.61100830E+02</rscale>
<asrwt>0</asrwt>
<pdfrwt beam="1">  1       13 0.10000000E+01 0.61100830E+02</pdfrwt>
<pdfrwt beam="2">  1       22 0.32565405E+00 0.61100830E+02</pdfrwt>
<totfact> 0.18008088E-01</totfact>
</mgrwt>
</event>
<event>
 4    1  0.2416490E+000  0.5600904E+02  0.7957747E-01  0.1415386E+00
         13   -1    0    0    0    0  0.00000000000E+00  0.00000000000E+00  0.99999944183E+02  0.10000000000E+03  0.10566000000E+00 0.  1.
         22   -1    0    0    0    0 -0.00000000000E+00 -0.00000000000E+00 -0.62441247580E+02  0.62441247580E+02  0.00000000000E+00 0. -1.
         13    1    1    2    0    0 -0.80578108355E+01 -0.23918272805E+02 -0.51432519404E+02  0.57291598911E+02  0.10566000000E+00 0. -1.
        996    1    1    2    0    0  0.80578108355E+01  0.23918272805E+02  0.88991216008E+02  0.10514964867E+03  0.50000000000E+02 0.  0.
<mgrwt>
<rscale>  0 0.56009036E+02</rscale>
<asrwt>0</asrwt>
<pdfrwt beam="1">  1       13 0.10000000E+01 0.56009036E+02</pdfrwt>
<pdfrwt beam="2">  1       22 0.62441258E+00 0.56009036E+02</pdfrwt>
<totfact> 0.75530187E-02</totfact>
</mgrwt>
</event>
<event>
 4    1  0.2416490E+000  0.5099826E+02  0.7957747E-01  0.1440030E+00
         13   -1    0    0    0    0  0.00000000000E+00  0.00000000000E+00  0.99999944180E+02  0.10000000000E+03  0.10566000000E+00 0. -1.
         22   -1    0    0    0    0 -0.00000000000E+00 -0.00000000000E+00 -0.93175661888E+01  0.93175661888E+01  0.00000000000E+00 0. -1.
         13    1    1    2    0    0  0.89839376471E+01 -0.44845258338E+01  0.14207814496E+02  0.17398139682E+02  0.10566000000E+00 0.  1.
        996    1    1    2    0    0 -0.89839376471E+01  0.44845258338E+01  0.76474563495E+02  0.91919426507E+02  0.50000000000E+02 0.  0.
<mgrwt>
<rscale>  0 0.50998256E+02</rscale>
<asrwt>0</asrwt>
<pdfrwt beam="1">  1       13 0.10000000E+01 0.50998256E+02</pdfrwt>
<pdfrwt beam="2">  1       22 0.93175915E-01 0.50998256E+02</pdfrwt>
<totfact> 0.15564553E+00</totfact>
</mgrwt>
</event>
<event>
 4    1  0.2416490E+000  0.5178170E+02  0.7957747E-01  0.1435962E+00
         13   -1    0    0    0    0  0.00000000000E+00  0.00000000000E+00  0.99999944183E+02  0.10000000000E+03  0.10566000000E+00 0. -1.
         22   -1    0    0    0    0 -0.00000000000E+00 -0.00000000000E+00 -0.17911402971E+02  0.17911402971E+02  0.00000000000E+00 0. -1.
         13    1    1    2    0    0  0.12391362919E+02 -0.52724177538E+01 -0.67648171188E+01  0.15070440559E+02  0.10566000000E+00 0.  1.
        996    1    1    2    0    0 -0.12391362919E+02  0.52724177538E+01  0.88853358330E+02  0.10284096242E+03  0.50000000000E+02 0.  0.
<mgrwt>
<rscale>  0 0.51781698E+02</rscale>
<asrwt>0</asrwt>
<pdfrwt beam="1">  1       13 0.10000000E+01 0.51781698E+02</pdfrwt>
<pdfrwt beam="2">  1       22 0.17911426E+00 0.51781698E+02</pdfrwt>
<totfact> 0.55405126E-01</totfact>
</mgrwt>
</event>
<event>
 4    1  0.2416490E+000  0.5831059E+02  0.7957747E-01  0.1405061E+00
         13   -1    0    0    0    0  0.00000000000E+00  0.00000000000E+00  0.99999944184E+02  0.10000000000E+03  0.10566000000E+00 0. -1.
         22   -1    0    0    0    0 -0.00000000000E+00 -0.00000000000E+00 -0.19873852023E+02  0.19873852023E+02  0.00000000000E+00 0.  1.
         13    1    1    2    0    0  0.45063149745E+01  0.29661722581E+02  0.19646599141E+02  0.35862580539E+02  0.10566000000E+00 0.  1.
        996    1    1    2    0    0 -0.45063149745E+01 -0.29661722581E+02  0.60479493020E+02  0.84011271488E+02  0.50000000000E+02 0.  0.
<mgrwt>
<rscale>  0 0.58310588E+02</rscale>
<asrwt>0</asrwt>
<pdfrwt beam="1">  1       13 0.10000000E+01 0.58310588E+02</pdfrwt>
<pdfrwt beam="2">  1       22 0.19873874E+00 0.58310588E+02</pdfrwt>
<totfact> 0.46337350E-01</totfact>
</mgrwt>
</event>
<event>
 4    1  0.2416490E+000  0.5261095E+02  0.7957747E-01  0.1431747E+00
         13   -1    0    0    0    0  0.00000000000E+00  0.00000000000E+00  0.99999944184E+02  0.10000000000E+03  0.10566000000E+00 0. -1.
         22   -1    0    0    0    0 -0.00000000000E+00 -0.00000000000E+00 -0.12731379337E+02  0.12731379337E+02  0.00000000000E+00 0. -1.
         13    1    1    2    0    0 -0.10514666815E+02 -0.12544075500E+02  0.97711346296E+01  0.19063008272E+02  0.10566000000E+00 0.  1.
        996    1    1    2    0    0  0.10514666815E+02  0.12544075500E+02  0.77497430218E+02  0.93668371069E+02  0.50000000000E+02 0.  0.
<mgrwt>
<rscale>  0 0.52610950E+02</rscale>
<asrwt>0</asrwt>
<pdfrwt beam="1">  1       13 0.10000000E+01 0.52610950E+02</pdfrwt>
<pdfrwt beam="2">  1       22 0.12731404E+00 0.52610950E+02</pdfrwt>
<totfact> 0.98219077E-01</totfact>
</mgrwt>
</event>
<event>
 4    1  0.2416490E+000  0.5118673E+02  0.7957747E-01  0.1439044E+00
         13   -1    0    0    0    0  0.00000000000E+00  0.00000000000E+00  0.99999944180E+02  0.10000000000E+03  0.10566000000E+00 0. -1.
         22   -1    0    0    0    0 -0.00000000000E+00 -0.00000000000E+00 -0.97592165416E+01  0.97592165416E+01  0.00000000000E+00 0. -1.
         13    1    1    2    0    0  0.10612972874E+02 -0.27287377205E+01  0.20561733873E+02  0.23299726751E+02  0.10566000000E+00 0.  1.
        996    1    1    2    0    0 -0.10612972874E+02  0.27287377205E+01  0.69678993766E+02  0.86459489791E+02  0.50000000000E+02 0.  0.
<mgrwt>
<rscale>  0 0.51186729E+02</rscale>
<asrwt>0</asrwt>
<pdfrwt beam="1">  1       13 0.10000000E+01 0.51186729E+02</pdfrwt>
<pdfrwt beam="2">  1       22 0.97592417E-01 0.51186729E+02</pdfrwt>
<totfact> 0.14573942E+00</totfact>
</mgrwt>
</event>
<event>
 4    1  0.2416490E+000  0.5101172E+02  0.7957747E-01  0.1439960E+00
         13   -1    0    0    0    0  0.00000000000E+00  0.00000000000E+00  0.99999944180E+02  0.10000000000E+03  0.10566000000E+00 0.  1.
         22   -1    0    0    0    0 -0.00000000000E+00 -0.00000000000E+00 -0.11016571464E+02  0.11016571464E+02  0.00000000000E+00 0.  1.
         13    1    1    2    0    0 -0.98852134729E+01  0.21162294558E+01  0.21927915104E+01  0.10344823399E+02  0.10566000000E+00 0. -1.
        996    1    1    2    0    0  0.98852134729E+01 -0.21162294558E+01  0.86790581206E+02  0.10067174807E+03  0.50000000000E+02 0.  0.
<mgrwt>
<rscale>  0 0.51011723E+02</rscale>
<asrwt>0</asrwt>
<pdfrwt beam="1">  1       13 0.10000000E+01 0.51011723E+02</pdfrwt>
<pdfrwt beam="2">  1       22 0.11016596E+00 0.51011723E+02</pdfrwt>
<totfact> 0.12201651E+00</totfact>
</mgrwt>
</event>
<event>
 4    1  0.2416490E+000  0.5275001E+02  0.7957747E-01  0.1431049E+00
         13   -1    0    0    0    0  0.00000000000E+00  0.00000000000E+00  0.99999944171E+02  0.99999999991E+02  0.10566000000E+00 0.  1.
         22   -1    0    0    0    0 -0.00000000000E+00 -0.00000000000E+00 -0.19375682832E+02  0.19375682832E+02  0.00000000000E+00 0. -1.
         13    1    1    2    0    0 -0.16187784057E+01 -0.16731504425E+02 -0.60884555405E+01  0.17878594429E+02  0.10566000000E+00 0. -1.
        996    1    1    2    0    0  0.16187784057E+01  0.16731504425E+02  0.86712716879E+02  0.10149708839E+03  0.50000000000E+02 0.  0.
<mgrwt>
<rscale>  0 0.52750011E+02</rscale>
<asrwt>0</asrwt>
<pdfrwt beam="1">  1       13 0.10000000E+01 0.52750011E+02</pdfrwt>
<pdfrwt beam="2">  1       22 0.19375705E+00 0.52750011E+02</pdfrwt>
<totfact> 0.48118314E-01</totfact>
</mgrwt>
</event>
<event>
 4    1  0.2416490E+000  0.5366069E+02  0.7957747E-01  0.1426541E+00
         13   -1    0    0    0    0  0.00000000000E+00  0.00000000000E+00  0.99999944181E+02  0.10000000000E+03  0.10566000000E+00 0.  1.
         22   -1    0    0    0    0 -0.00000000000E+00 -0.00000000000E+00 -0.13945115706E+02  0.13945115706E+02  0.00000000000E+00 0.  1.
         13    1    1    2    0    0  0.11527053054E+01 -0.19445845576E+02  0.13491666424E+02  0.23696115012E+02  0.10566000000E+00 0. -1.
        996    1    1    2    0    0 -0.11527053054E+01  0.19445845576E+02  0.72563162051E+02  0.90249000696E+02  0.50000000000E+02 0.  0.
<mgrwt>
<rscale>  0 0.53660690E+02</rscale>
<asrwt>0</asrwt>
<pdfrwt beam="1">  1       13 0.10000000E+01 0.53660690E+02</pdfrwt>
<pdfrwt beam="2">  1       22 0.13945140E+00 0.53660690E+02</pdfrwt>
<totfact> 0.85157939E-01</totfact>
</mgrwt>
</event>
<event>
 4    1  0.2416490E+000  0.5836865E+02  0.7957747E-01  0.1404808E+00
         13   -1    0    0    0    0  0.00000000000E+00  0.00000000000E+00  0.99999944183E+02  0.10000000000E+03  0.10566000000E+00 0.  1.
         22   -1    0    0    0    0 -0.00000000000E+00 -0.00000000000E+00 -0.53526900550E+02  0.53526900550E+02  0.00000000000E+00 0. -1.
         13    1    1    2    0    0 -0.28249032785E+02 -0.10435093492E+02 -0.39464060536E+02  0.49641940610E+02  0.10566000000E+00 0. -1.
        996    1    1    2    0    0  0.28249032785E+02  0.10435093492E+02  0.85937104170E+02  0.10388495994E+03  0.50000000000E+02 0.  0.
<mgrwt>
<rscale>  0 0.58368648E+02</rscale>
<asrwt>0</asrwt>
<pdfrwt beam="1">  1       13 0.10000000E+01 0.58368648E+02</pdfrwt>
<pdfrwt beam="2">  1       22 0.53526914E+00 0.58368648E+02</pdfrwt>
<totfact> 0.61840633E-02</totfact>
</mgrwt>
</event>
<event>
 4    1  0.2416490E+000  0.5376476E+02  0.7957747E-01  0.1426032E+00
         13   -1    0    0    0    0  0.00000000000E+00  0.00000000000E+00  0.99999944178E+02  0.99999999998E+02  0.10566000000E+00 0.  1.
         22   -1    0    0    0    0 -0.00000000000E+00 -0.00000000000E+00 -0.15555816098E+02  0.15555816098E+02  0.00000000000E+00 0. -1.
         13    1    1    2    0    0  0.15950578322E+01 -0.19700381213E+02  0.63818196796E+01  0.20769882424E+02  0.10566000000E+00 0. -1.
        996    1    1    2    0    0 -0.15950578322E+01  0.19700381213E+02  0.78062308400E+02  0.94785933672E+02  0.50000000000E+02 0.  0.
<mgrwt>
<rscale>  0 0.53764758E+02</rscale>
<asrwt>0</asrwt>
<pdfrwt beam="1">  1       13 0.10000000E+01 0.53764758E+02</pdfrwt>
<pdfrwt beam="2">  1       22 0.15555840E+00 0.53764758E+02</pdfrwt>
<totfact> 0.71082434E-01</totfact>
</mgrwt>
</event>
<event>
 4    1  0.2416490E+000  0.5423194E+02  0.7957747E-01  0.1423766E+00
         13   -1    0    0    0    0  0.00000000000E+00  0.00000000000E+00  0.99999944180E+02  0.10000000000E+03  0.10566000000E+00 0.  1.
         22   -1    0    0    0    0 -0.00000000000E+00 -0.00000000000E+00 -0.15755794574E+02  0.15755794574E+02  0.00000000000E+00 0. -1.
         13    1    1    2    0    0  0.17409479958E+02  0.11747929244E+02  0.86357151155E+01  0.22708821491E+02  0.10566000000E+00 0. -1.
        996    1    1    2    0    0 -0.17409479958E+02 -0.11747929244E+02  0.75608434490E+02  0.93046973083E+02  0.50000000000E+02 0.  0.
<mgrwt>
<rscale>  0 0.54231945E+02</rscale>
<asrwt>0</asrwt>
<pdfrwt beam="1">  1       13 0.10000000E+01 0.54231945E+02</pdfrwt>
<pdfrwt beam="2">  1       22 0.15755818E+00 0.54231945E+02</pdfrwt>
<totfact> 0.69621543E-01</totfact>
</mgrwt>
</event>
<event>
 4    1  0.2416490E+000  0.5385864E+02  0.7957747E-01  0.1425575E+00
         13   -1    0    0    0    0  0.00000000000E+00  0.00000000000E+00  0.99999944181E+02  0.10000000000E+03  0.10566000000E+00 0. -1.
         22   -1    0    0    0    0 -0.00000000000E+00 -0.00000000000E+00 -0.32087351433E+02  0.32087351433E+02  0.00000000000E+00 0.  1.
         13    1    1    2    0    0  0.19050179448E+02 -0.61517168838E+01 -0.20441651423E+02  0.28611627611E+02  0.10566000000E+00 0.  1.
        996    1    1    2    0    0 -0.19050179448E+02  0.61517168838E+01  0.88354244171E+02  0.10347572382E+03  0.50000000000E+02 0.  0.
<mgrwt>
<rscale>  0 0.53858639E+02</rscale>
<asrwt>0</asrwt>
<pdfrwt beam="1">  1       13 0.10000000E+01 0.53858639E+02</pdfrwt>
<pdfrwt beam="2">  1       22 0.32087370E+00 0.53858639E+02</pdfrwt>
<totfact> 0.18348747E-01</totfact>
</mgrwt>
</event>
<event>
 4    1  0.2416490E+000  0.5288962E+02  0.7957747E-01  0.1430351E+00
         13   -1    0    0    0    0  0.00000000000E+00  0.00000000000E+00  0.99999944184E+02  0.10000000000E+03  0.10566000000E+00 0.  1.
         22   -1    0    0    0    0 -0.00000000000E+00 -0.00000000000E+00 -0.19491843831E+02  0.19491843831E+02  0.00000000000E+00 0. -1.
         13    1    1    2    0    0  0.14471492693E+02 -0.93748429654E+01 -0.58638930418E+01  0.18212857740E+02  0.10566000000E+00 0. -1.
        996    1    1    2    0    0 -0.14471492693E+02  0.93748429654E+01  0.86371993396E+02  0.10127898610E+03  0.50000000000E+02 0.  0.
<mgrwt>
<rscale>  0 0.52889619E+02</rscale>
<asrwt>0</asrwt>
<pdfrwt beam="1">  1       13 0.10000000E+01 0.52889619E+02</pdfrwt>
<pdfrwt beam="2">  1       22 0.19491866E+00 0.52889619E+02</pdfrwt>
<totfact> 0.47601931E-01</totfact>
</mgrwt>
</event>
<event>
 4    1  0.2416490E+000  0.5896574E+02  0.7957747E-01  0.1402224E+00
         13   -1    0    0    0    0  0.00000000000E+00  0.00000000000E+00  0.99999944182E+02  0.10000000000E+03  0.10566000000E+00 0. -1.
         22   -1    0    0    0    0 -0.00000000000E+00 -0.00000000000E+00 -0.23105301073E+02  0.23105301073E+02  0.00000000000E+00 0.  1.
         13    1    1    2    0    0 -0.28444290386E+02  0.12956873009E+02  0.76941379936E+01  0.32189581191E+02  0.10566000000E+00 0.  1.
        996    1    1    2    0    0  0.28444290386E+02 -0.12956873009E+02  0.69200505116E+02  0.90915719884E+02  0.50000000000E+02 0.  0.
<mgrwt>
<rscale>  0 0.58965738E+02</rscale>
<asrwt>0</asrwt>
<pdfrwt beam="1">  1       13 0.10000000E+01 0.58965738E+02</pdfrwt>
<pdfrwt beam="2">  1       22 0.23105323E+00 0.58965738E+02</pdfrwt>
<totfact> 0.34771843E-01</totfact>
</mgrwt>
</event>
<event>
 4    1  0.2416490E+000  0.5980502E+02  0.7957747E-01  0.1398652E+00
         13   -1    0    0    0    0  0.00000000000E+00  0.00000000000E+00  0.99999944178E+02  0.99999999998E+02  0.10566000000E+00 0.  1.
         22   -1    0    0    0    0 -0.00000000000E+00 -0.00000000000E+00 -0.21455245811E+02  0.21455245811E+02  0.00000000000E+00 0.  1.
         13    1    1    2    0    0 -0.11761504539E+02  0.30631801463E+02  0.26558297351E+02  0.42213677548E+02  0.10566000000E+00 0. -1.
        996    1    1    2    0    0  0.11761504539E+02 -0.30631801463E+02  0.51986401017E+02  0.79241568262E+02  0.50000000000E+02 0.  0.
<mgrwt>
<rscale>  0 0.59805019E+02</rscale>
<asrwt>0</asrwt>
<pdfrwt beam="1">  1       13 0.10000000E+01 0.59805019E+02</pdfrwt>
<pdfrwt beam="2">  1       22 0.21455268E+00 0.59805019E+02</pdfrwt>
<totfact> 0.40181632E-01</totfact>
</mgrwt>
</event>
<event>
 4    1  0.2416490E+000  0.5241387E+02  0.7957747E-01  0.1432740E+00
         13   -1    0    0    0    0  0.00000000000E+00  0.00000000000E+00  0.99999944179E+02  0.99999999999E+02  0.10566000000E+00 0.  1.
         22   -1    0    0    0    0 -0.00000000000E+00 -0.00000000000E+00 -0.11701439704E+02  0.11701439704E+02  0.00000000000E+00 0. -1.
         13    1    1    2    0    0 -0.14831111254E+01  0.15652920574E+02  0.24810230084E+02  0.29372984560E+02  0.10566000000E+00 0. -1.
        996    1    1    2    0    0  0.14831111254E+01 -0.15652920574E+02  0.63488274391E+02  0.82328455143E+02  0.50000000000E+02 0.  0.
<mgrwt>
<rscale>  0 0.52413868E+02</rscale>
<asrwt>0</asrwt>
<pdfrwt beam="1">  1       13 0.10000000E+01 0.52413868E+02</pdfrwt>
<pdfrwt beam="2">  1       22 0.11701464E+00 0.52413868E+02</pdfrwt>
<totfact> 0.11180681E+00</totfact>
</mgrwt>
</event>
<event>
 4    1  0.2416490E+000  0.5361322E+02  0.7957747E-01  0.1426773E+00
         13   -1    0    0    0    0  0.00000000000E+00  0.00000000000E+00  0.99999944170E+02  0.99999999991E+02  0.10566000000E+00 0. -1.
         22   -1    0    0    0    0 -0.00000000000E+00 -0.00000000000E+00 -0.28553485339E+02  0.28553485339E+02  0.00000000000E+00 0. -1.
         13    1    1    2    0    0  0.14370614155E+02  0.12956175587E+02 -0.16582867980E+02  0.25482929806E+02  0.10566000000E+00 0.  1.
        996    1    1    2    0    0 -0.14370614155E+02 -0.12956175587E+02  0.88029326811E+02  0.10307055552E+03  0.50000000000E+02 0.  0.
<mgrwt>
<rscale>  0 0.53613217E+02</rscale>
<asrwt>0</asrwt>
<pdfrwt beam="1">  1       13 0.10000000E+01 0.53613217E+02</pdfrwt>
<pdfrwt beam="2">  1       22 0.28553505E+00 0.53613217E+02</pdfrwt>
<totfact> 0.22786904E-01</totfact>
</mgrwt>
</event>
<event>
 4    1  0.2416490E+000  0.5148050E+02  0.7957747E-01  0.1437516E+00
         13   -1    0    0    0    0  0.00000000000E+00  0.00000000000E+00  0.99999944179E+02  0.99999999999E+02  0.10566000000E+00 0.  1.
         22   -1    0    0    0    0 -0.00000000000E+00 -0.00000000000E+00 -0.34526287832E+02  0.34526287832E+02  0.00000000000E+00 0. -1.
         13    1    1    2    0    0  0.11846885295E+02 -0.31453240208E+01 -0.26459281567E+02  0.29160701286E+02  0.10566000000E+00 0. -1.
        996    1    1    2    0    0 -0.11846885295E+02  0.31453240208E+01  0.91932937915E+02  0.10536558655E+03  0.50000000000E+02 0.  0.
<mgrwt>
<rscale>  0 0.51480499E+02</rscale>
<asrwt>0</asrwt>
<pdfrwt beam="1">  1       13 0.10000000E+01 0.51480499E+02</pdfrwt>
<pdfrwt beam="2">  1       22 0.34526306E+00 0.51480499E+02</pdfrwt>
<totfact> 0.16083180E-01</totfact>
</mgrwt>
</event>
<event>
 4    1  0.2416490E+000  0.5173590E+02  0.7957747E-01  0.1436197E+00
         13   -1    0    0    0    0  0.00000000000E+00  0.00000000000E+00  0.99999944181E+02  0.10000000000E+03  0.10566000000E+00 0. -1.
         22   -1    0    0    0    0 -0.00000000000E+00 -0.00000000000E+00 -0.17426632876E+02  0.17426632876E+02  0.00000000000E+00 0.  1.
         13    1    1    2    0    0 -0.12841253783E+02 -0.34212988613E+01 -0.62102273730E+01  0.14669054935E+02  0.10566000000E+00 0.  1.
        996    1    1    2    0    0  0.12841253783E+02  0.34212988613E+01  0.88783538678E+02  0.10275757794E+03  0.50000000000E+02 0.  0.
<mgrwt>
<rscale>  0 0.51735897E+02</rscale>
<asrwt>0</asrwt>
<pdfrwt beam="1">  1       13 0.10000000E+01 0.51735897E+02</pdfrwt>
<pdfrwt beam="2">  1       22 0.17426656E+00 0.51735897E+02</pdfrwt>
<totfact> 0.58172220E-01</totfact>
</mgrwt>
</event>
<event>
 4    1  0.2416490E+000  0.5297715E+02  0.7957747E-01  0.1429915E+00
         13   -1    0    0    0    0  0.00000000000E+00  0.00000000000E+00  0.99999944181E+02  0.10000000000E+03  0.10566000000E+00 0. -1.
         22   -1    0    0    0    0 -0.00000000000E+00 -0.00000000000E+00 -0.12990195845E+02  0.12990195845E+02  0.00000000000E+00 0. -1.
         13    1    1    2    0    0  0.11103342039E+02  0.13538625757E+02  0.12277775441E+02  0.21385357739E+02  0.10566000000E+00 0.  1.
        996    1    1    2    0    0 -0.11103342039E+02 -0.13538625757E+02  0.74731972895E+02  0.91604838107E+02  0.50000000000E+02 0.  0.
<mgrwt>
<rscale>  0 0.52977152E+02</rscale>
<asrwt>0</asrwt>
<pdfrwt beam="1">  1       13 0.10000000E+01 0.52977152E+02</pdfrwt>
<pdfrwt beam="2">  1       22 0.12990220E+00 0.52977152E+02</pdfrwt>
<totfact> 0.95238740E-01</totfact>
</mgrwt>
</event>
<event>
 4    1  0.2416490E+000  0.5120971E+02  0.7957747E-01  0.1438924E+00
         13   -1    0    0    0    0  0.00000000000E+00  0.00000000000E+00  0.99999944175E+02  0.99999999995E+02  0.10566000000E+00 0. -1.
         22   -1    0    0    0    0 -0.00000000000E+00 -0.00000000000E+00 -0.13977942849E+02  0.13977942849E+02  0.00000000000E+00 0. -1.
         13    1    1    2    0    0  0.10154145999E+02  0.43963751184E+01 -0.28329461382E+01  0.11422414062E+02  0.10566000000E+00 0.  1.
        996    1    1    2    0    0 -0.10154145999E+02 -0.43963751184E+01  0.88854947464E+02  0.10255552878E+03  0.50000000000E+02 0.  0.
<mgrwt>
<rscale>  0 0.51209714E+02</rscale>
<asrwt>0</asrwt>
<pdfrwt beam="1">  1       13 0.10000000E+01 0.51209714E+02</pdfrwt>
<pdfrwt beam="2">  1       22 0.13977967E+00 0.51209714E+02</pdfrwt>
<totfact> 0.84401724E-01</totfact>
</mgrwt>
</event>
<event>
 4    1  0.2416490E+000  0.5183907E+02  0.7957747E-01  0.1435667E+00
         13   -1    0    0    0    0  0.00000000000E+00  0.00000000000E+00  0.99999944178E+02  0.99999999998E+02  0.10566000000E+00 0. -1.
         22   -1    0    0    0    0 -0.00000000000E+00 -0.00000000000E+00 -0.37643470696E+02  0.37643470696E+02  0.00000000000E+00 0.  1.
         13    1    1    2    0    0  0.23975635444E+01  0.13473696435E+02 -0.29302410445E+02  0.32340860046E+02  0.10566000000E+00 0.  1.
        996    1    1    2    0    0 -0.23975635444E+01 -0.13473696435E+02  0.91658883927E+02  0.10530261065E+03  0.50000000000E+02 0.  0.
<mgrwt>
<rscale>  0 0.51839066E+02</rscale>
<asrwt>0</asrwt>
<pdfrwt beam="1">  1       13 0.10000000E+01 0.51839066E+02</pdfrwt>
<pdfrwt beam="2">  1       22 0.37643488E+00 0.51839066E+02</pdfrwt>
<totfact> 0.13824368E-01</totfact>
</mgrwt>
</event>
<event>
 4    1  0.2416490E+000  0.5300495E+02  0.7957747E-01  0.1429776E+00
         13   -1    0    0    0    0  0.00000000000E+00  0.00000000000E+00  0.99999944179E+02  0.99999999999E+02  0.10566000000E+00 0.  1.
         22   -1    0    0    0    0 -0.00000000000E+00 -0.00000000000E+00 -0.13733699390E+02  0.13733699390E+02  0.00000000000E+00 0.  1.
         13    1    1    2    0    0  0.24061929203E+01  0.17427986748E+02  0.82925942836E+01  0.19450006952E+02  0.10566000000E+00 0. -1.
        996    1    1    2    0    0 -0.24061929203E+01 -0.17427986748E+02  0.77973650505E+02  0.94283692437E+02  0.50000000000E+02 0.  0.
<mgrwt>
<rscale>  0 0.53004948E+02</rscale>
<asrwt>0</asrwt>
<pdfrwt beam="1">  1       13 0.10000000E+01 0.53004948E+02</pdfrwt>
<pdfrwt beam="2">  1       22 0.13733723E+00 0.53004948E+02</pdfrwt>
<totfact> 0.87166979E-01</totfact>
</mgrwt>
</event>
<event>
 4    1  0.2416490E+000  0.5584023E+02  0.7957747E-01  0.1416167E+00
         13   -1    0    0    0    0  0.00000000000E+00  0.00000000000E+00  0.99999944178E+02  0.99999999998E+02  0.10566000000E+00 0. -1.
         22   -1    0    0    0    0 -0.00000000000E+00 -0.00000000000E+00 -0.44724897980E+02  0.44724897980E+02  0.00000000000E+00 0.  1.
         13    1    1    2    0    0 -0.22258834451E+02 -0.11075920314E+02 -0.32361878015E+02  0.40809729656E+02  0.10566000000E+00 0.  1.
        996    1    1    2    0    0  0.22258834451E+02  0.11075920314E+02  0.87636924213E+02  0.10391516832E+03  0.50000000000E+02 0.  0.
<mgrwt>
<rscale>  0 0.55840234E+02</rscale>
<asrwt>0</asrwt>
<pdfrwt beam="1">  1       13 0.10000000E+01 0.55840234E+02</pdfrwt>
<pdfrwt beam="2">  1       22 0.44724913E+00 0.55840234E+02</pdfrwt>
<totfact> 0.98226636E-02</totfact>
</mgrwt>
</event>
<event>
 4    1  0.2416490E+000  0.5133931E+02  0.7957747E-01  0.1438249E+00
         13   -1    0    0    0    0  0.00000000000E+00  0.00000000000E+00  0.99999944176E+02  0.99999999996E+02  0.10566000000E+00 0.  1.
         22   -1    0    0    0    0 -0.00000000000E+00 -0.00000000000E+00 -0.31170805503E+02  0.31170805503E+02  0.00000000000E+00 0. -1.
         13    1    1    2    0    0  0.66615548297E+01  0.95576491201E+01 -0.23103239958E+02  0.25874617486E+02  0.10566000000E+00 0. -1.
        996    1    1    2    0    0 -0.66615548297E+01 -0.95576491201E+01  0.91932378630E+02  0.10529618801E+03  0.50000000000E+02 0.  0.
<mgrwt>
<rscale>  0 0.51339312E+02</rscale>
<asrwt>0</asrwt>
<pdfrwt beam="1">  1       13 0.10000000E+01 0.51339312E+02</pdfrwt>
<pdfrwt beam="2">  1       22 0.31170825E+00 0.51339312E+02</pdfrwt>
<totfact> 0.19275769E-01</totfact>
</mgrwt>
</event>
<event>
 4    1  0.2416490E+000  0.5403288E+02  0.7957747E-01  0.1424729E+00
         13   -1    0    0    0    0  0.00000000000E+00  0.00000000000E+00  0.99999944175E+02  0.99999999995E+02  0.10566000000E+00 0. -1.
         22   -1    0    0    0    0 -0.00000000000E+00 -0.00000000000E+00 -0.52408186021E+02  0.52408186021E+02  0.00000000000E+00 0.  1.
         13    1    1    2    0    0  0.18080451377E+01 -0.20403022514E+02 -0.42600595687E+02  0.47269168301E+02  0.10566000000E+00 0.  1.
        996    1    1    2    0    0 -0.18080451377E+01  0.20403022514E+02  0.90192353840E+02  0.10513901772E+03  0.50000000000E+02 0.  0.
<mgrwt>
<rscale>  0 0.54032882E+02</rscale>
<asrwt>0</asrwt>
<pdfrwt beam="1">  1       13 0.10000000E+01 0.54032882E+02</pdfrwt>
<pdfrwt beam="2">  1       22 0.52408199E+00 0.54032882E+02</pdfrwt>
<totfact> 0.65022537E-02</totfact>
</mgrwt>
</event>
<event>
 4    1  0.2416490E+000  0.5213642E+02  0.7957747E-01  0.1434147E+00
         13   -1    0    0    0    0  0.00000000000E+00  0.00000000000E+00  0.99999944173E+02  0.99999999993E+02  0.10566000000E+00 0.  1.
         22   -1    0    0    0    0 -0.00000000000E+00 -0.00000000000E+00 -0.11816784469E+02  0.11816784469E+02  0.00000000000E+00 0.  1.
         13    1    1    2    0    0  0.13801621627E+02 -0.52651500005E+01  0.31563669515E+02  0.34849432727E+02  0.10566000000E+00 0. -1.
        996    1    1    2    0    0 -0.13801621627E+02  0.52651500005E+01  0.56619490188E+02  0.76967351736E+02  0.50000000000E+02 0.  0.
<mgrwt>
<rscale>  0 0.52136423E+02</rscale>
<asrwt>0</asrwt>
<pdfrwt beam="1">  1       13 0.10000000E+01 0.52136423E+02</pdfrwt>
<pdfrwt beam="2">  1       22 0.11816809E+00 0.52136423E+02</pdfrwt>
<totfact> 0.11008410E+00</totfact>
</mgrwt>
</event>
<event>
 4    1  0.2416490E+000  0.5170972E+02  0.7957747E-01  0.1436332E+00
         13   -1    0    0    0    0  0.00000000000E+00  0.00000000000E+00  0.99999944174E+02  0.99999999995E+02  0.10566000000E+00 0.  1.
         22   -1    0    0    0    0 -0.00000000000E+00 -0.00000000000E+00 -0.10572277115E+02  0.10572277115E+02  0.00000000000E+00 0.  1.
         13    1    1    2    0    0 -0.24199785618E+01  0.12962978871E+02  0.21128729309E+02  0.24906414509E+02  0.10566000000E+00 0. -1.
        996    1    1    2    0    0  0.24199785618E+01 -0.12962978871E+02  0.68298937750E+02  0.85665862601E+02  0.50000000000E+02 0.  0.
<mgrwt>
<rscale>  0 0.51709720E+02</rscale>
<asrwt>0</asrwt>
<pdfrwt beam="1">  1       13 0.10000000E+01 0.51709720E+02</pdfrwt>
<pdfrwt beam="2">  1       22 0.10572302E+00 0.51709720E+02</pdfrwt>
<totfact> 0.12989041E+00</totfact>
</mgrwt>
</event>
<event>
 4    1  0.2416490E+000  0.5376092E+02  0.7957747E-01  0.1426051E+00
         13   -1    0    0    0    0  0.00000000000E+00  0.00000000000E+00  0.99999944173E+02  0.99999999993E+02  0.10566000000E+00 0. -1.
         22   -1    0    0    0    0 -0.00000000000E+00 -0.00000000000E+00 -0.18079318653E+02  0.18079318653E+02  0.00000000000E+00 0.  1.
         13    1    1    2    0    0 -0.18631720350E+02  0.65647280315E+01 -0.40008342486E+00  0.19758742068E+02  0.10566000000E+00 0.  1.
        996    1    1    2    0    0  0.18631720350E+02 -0.65647280315E+01  0.82320708945E+02  0.98320576578E+02  0.50000000000E+02 0.  0.
<mgrwt>
<rscale>  0 0.53760921E+02</rscale>
<asrwt>0</asrwt>
<pdfrwt beam="1">  1       13 0.10000000E+01 0.53760921E+02</pdfrwt>
<pdfrwt beam="2">  1       22 0.18079342E+00 0.53760921E+02</pdfrwt>
<totfact> 0.54686620E-01</totfact>
</mgrwt>
</event>
<event>
 4    1  0.2416490E+000  0.5204691E+02  0.7957747E-01  0.1434604E+00
         13   -1    0    0    0    0  0.00000000000E+00  0.00000000000E+00  0.99999944179E+02  0.99999999999E+02  0.10566000000E+00 0.  1.
         22   -1    0    0    0    0 -0.00000000000E+00 -0.00000000000E+00 -0.14475650611E+02  0.14475650611E+02  0.00000000000E+00 0.  1.
         13    1    1    2    0    0  0.53449220221E+01  0.13428039799E+02  0.11030534488E+00  0.14453503920E+02  0.10566000000E+00 0. -1.
        996    1    1    2    0    0 -0.53449220221E+01 -0.13428039799E+02  0.85413988223E+02  0.10002214669E+03  0.50000000000E+02 0.  0.
<mgrwt>
<rscale>  0 0.52046906E+02</rscale>
<asrwt>0</asrwt>
<pdfrwt beam="1">  1       13 0.10000000E+01 0.52046906E+02</pdfrwt>
<pdfrwt beam="2">  1       22 0.14475674E+00 0.52046906E+02</pdfrwt>
<totfact> 0.79862622E-01</totfact>
</mgrwt>
</event>
<event>
 4    1  0.2416490E+000  0.5673025E+02  0.7957747E-01  0.1412089E+00
         13   -1    0    0    0    0  0.00000000000E+00  0.00000000000E+00  0.99999944183E+02  0.10000000000E+03  0.10566000000E+00 0.  1.
         22   -1    0    0    0    0 -0.00000000000E+00 -0.00000000000E+00 -0.17498536758E+02  0.17498536758E+02  0.00000000000E+00 0.  1.
         13    1    1    2    0    0 -0.21168088037E+02  0.16438786039E+02  0.29581089939E+02  0.39917085108E+02  0.10566000000E+00 0. -1.
        996    1    1    2    0    0  0.21168088037E+02 -0.16438786039E+02  0.52920317487E+02  0.77581451652E+02  0.50000000000E+02 0.  0.
<mgrwt>
<rscale>  0 0.56730253E+02</rscale>
<asrwt>0</asrwt>
<pdfrwt beam="1">  1       13 0.10000000E+01 0.56730253E+02</pdfrwt>
<pdfrwt beam="2">  1       22 0.17498560E+00 0.56730253E+02</pdfrwt>
<totfact> 0.58279434E-01</totfact>
</mgrwt>
</event>
<event>
 4    1  0.2416490E+000  0.5252641E+02  0.7957747E-01  0.1432172E+00
         13   -1    0    0    0    0  0.00000000000E+00  0.00000000000E+00  0.99999944177E+02  0.99999999997E+02  0.10566000000E+00 0.  1.
         22   -1    0    0    0    0 -0.00000000000E+00 -0.00000000000E+00 -0.14282004716E+02  0.14282004716E+02  0.00000000000E+00 0.  1.
         13    1    1    2    0    0 -0.37680636962E+00 -0.16089819096E+02  0.31154812460E+01  0.16393341606E+02  0.10566000000E+00 0. -1.
        996    1    1    2    0    0  0.37680636962E+00  0.16089819096E+02  0.82602458215E+02  0.97888663107E+02  0.50000000000E+02 0.  0.
<mgrwt>
<rscale>  0 0.52526415E+02</rscale>
<asrwt>0</asrwt>
<pdfrwt beam="1">  1       13 0.10000000E+01 0.52526415E+02</pdfrwt>
<pdfrwt beam="2">  1       22 0.14282029E+00 0.52526415E+02</pdfrwt>
<totfact> 0.81724668E-01</totfact>
</mgrwt>
</event>
<event>
 4    1  0.2416490E+000  0.5186405E+02  0.7957747E-01  0.1435539E+00
         13   -1    0    0    0    0  0.00000000000E+00  0.00000000000E+00  0.99999944182E+02  0.10000000000E+03  0.10566000000E+00 0. -1.
         22   -1    0    0    0    0 -0.00000000000E+00 -0.00000000000E+00 -0.38534619396E+02  0.38534619396E+02  0.00000000000E+00 0.  1.
         13    1    1    2    0    0  0.19321313172E+01 -0.13643534480E+02 -0.30210543032E+02  0.33204927930E+02  0.10566000000E+00 0.  1.
        996    1    1    2    0    0 -0.19321313172E+01  0.13643534480E+02  0.91675867818E+02  0.10532969147E+03  0.50000000000E+02 0.  0.
<mgrwt>
<rscale>  0 0.51864045E+02</rscale>
<asrwt>0</asrwt>
<pdfrwt beam="1">  1       13 0.10000000E+01 0.51864045E+02</pdfrwt>
<pdfrwt beam="2">  1       22 0.38534637E+00 0.51864045E+02</pdfrwt>
<totfact> 0.13253589E-01</totfact>
</mgrwt>
</event>
<event>
 4    1  0.2416490E+000  0.5272950E+02  0.7957747E-01  0.1431152E+00
         13   -1    0    0    0    0  0.00000000000E+00  0.00000000000E+00  0.99999944173E+02  0.99999999994E+02  0.10566000000E+00 0.  1.
         22   -1    0    0    0    0 -0.00000000000E+00 -0.00000000000E+00 -0.23685827874E+02  0.23685827874E+02  0.00000000000E+00 0. -1.
         13    1    1    2    0    0 -0.16217304218E+02 -0.41712174877E+01 -0.12156887116E+02  0.20693020075E+02  0.10566000000E+00 0. -1.
        996    1    1    2    0    0  0.16217304218E+02  0.41712174877E+01  0.88471003416E+02  0.10299280779E+03  0.50000000000E+02 0.  0.
<mgrwt>
<rscale>  0 0.52729498E+02</rscale>
<asrwt>0</asrwt>
<pdfrwt beam="1">  1       13 0.10000000E+01 0.52729498E+02</pdfrwt>
<pdfrwt beam="2">  1       22 0.23685849E+00 0.52729498E+02</pdfrwt>
<totfact> 0.32812615E-01</totfact>
</mgrwt>
</event>
<event>
 4    1  0.2416490E+000  0.5802191E+02  0.7957747E-01  0.1406325E+00
         13   -1    0    0    0    0  0.00000000000E+00  0.00000000000E+00  0.99999944178E+02  0.99999999998E+02  0.10566000000E+00 0.  1.
         22   -1    0    0    0    0 -0.00000000000E+00 -0.00000000000E+00 -0.19562724651E+02  0.19562724651E+02  0.00000000000E+00 0. -1.
         13    1    1    2    0    0  0.14447965423E+02  0.25647570419E+02  0.18885060962E+02  0.34974251455E+02  0.10566000000E+00 0. -1.
        996    1    1    2    0    0 -0.14447965423E+02 -0.25647570419E+02  0.61552158565E+02  0.84588473194E+02  0.50000000000E+02 0.  0.
<mgrwt>
<rscale>  0 0.58021906E+02</rscale>
<asrwt>0</asrwt>
<pdfrwt beam="1">  1       13 0.10000000E+01 0.58021906E+02</pdfrwt>
<pdfrwt beam="2">  1       22 0.19562747E+00 0.58021906E+02</pdfrwt>
<totfact> 0.47696285E-01</totfact>
</mgrwt>
</event>
<event>
 4    1  0.2416490E+000  0.5294101E+02  0.7957747E-01  0.1430095E+00
         13   -1    0    0    0    0  0.00000000000E+00  0.00000000000E+00  0.99999944178E+02  0.99999999999E+02  0.10566000000E+00 0. -1.
         22   -1    0    0    0    0 -0.00000000000E+00 -0.00000000000E+00 -0.14517963676E+02  0.14517963676E+02  0.00000000000E+00 0. -1.
         13    1    1    2    0    0 -0.19675073265E+01 -0.17288137384E+02  0.48570700756E+01  0.18065244893E+02  0.10566000000E+00 0.  1.
        996    1    1    2    0    0  0.19675073265E+01  0.17288137384E+02  0.80624910426E+02  0.96452718783E+02  0.50000000000E+02 0.  0.
<mgrwt>
<rscale>  0 0.52941012E+02</rscale>
<asrwt>0</asrwt>
<pdfrwt beam="1">  1       13 0.10000000E+01 0.52941012E+02</pdfrwt>
<pdfrwt beam="2">  1       22 0.14517988E+00 0.52941012E+02</pdfrwt>
<totfact> 0.79626469E-01</totfact>
</mgrwt>
</event>
<event>
 4    1  0.2416490E+000  0.5254166E+02  0.7957747E-01  0.1432096E+00
         13   -1    0    0    0    0  0.00000000000E+00  0.00000000000E+00  0.99999944179E+02  0.99999999999E+02  0.10566000000E+00 0.  1.
         22   -1    0    0    0    0 -0.00000000000E+00 -0.00000000000E+00 -0.11794819125E+02  0.11794819125E+02  0.00000000000E+00 0.  1.
         13    1    1    2    0    0 -0.16141406266E+02 -0.28400243596E+00  0.21028864401E+02  0.26511317501E+02  0.10566000000E+00 0. -1.
        996    1    1    2    0    0  0.16141406266E+02  0.28400243596E+00  0.67176260654E+02  0.85283501623E+02  0.50000000000E+02 0.  0.
<mgrwt>
<rscale>  0 0.52541656E+02</rscale>
<asrwt>0</asrwt>
<pdfrwt beam="1">  1       13 0.10000000E+01 0.52541656E+02</pdfrwt>
<pdfrwt beam="2">  1       22 0.11794844E+00 0.52541656E+02</pdfrwt>
<totfact> 0.11049619E+00</totfact>
</mgrwt>
</event>
<event>
 4    1  0.2416490E+000  0.5888820E+02  0.7957747E-01  0.1402558E+00
         13   -1    0    0    0    0  0.00000000000E+00  0.00000000000E+00  0.99999944177E+02  0.99999999997E+02  0.10566000000E+00 0.  1.
         22   -1    0    0    0    0 -0.00000000000E+00 -0.00000000000E+00 -0.21301793008E+02  0.21301793008E+02  0.00000000000E+00 0.  1.
         13    1    1    2    0    0  0.55698927535E+01  0.30607135775E+02  0.14946612945E+02  0.34514241527E+02  0.10566000000E+00 0. -1.
        996    1    1    2    0    0 -0.55698927535E+01 -0.30607135775E+02  0.63751538223E+02  0.86787551478E+02  0.50000000000E+02 0.  0.
<mgrwt>
<rscale>  0 0.58888203E+02</rscale>
<asrwt>0</asrwt>
<pdfrwt beam="1">  1       13 0.10000000E+01 0.58888203E+02</pdfrwt>
<pdfrwt beam="2">  1       22 0.21301815E+00 0.58888203E+02</pdfrwt>
<totfact> 0.40681195E-01</totfact>
</mgrwt>
</event>
<event>
 4    1  0.2416490E+000  0.5291474E+02  0.7957747E-01  0.1430226E+00
         13   -1    0    0    0    0  0.00000000000E+00  0.00000000000E+00  0.99999944174E+02  0.99999999994E+02  0.10566000000E+00 0. -1.
         22   -1    0    0    0    0 -0.00000000000E+00 -0.00000000000E+00 -0.24273476033E+02  0.24273476033E+02  0.00000000000E+00 0.  1.
         13    1    1    2    0    0 -0.57968659196E+01  0.16320734496E+02 -0.12524890473E+02  0.21374144998E+02  0.10566000000E+00 0.  1.
        996    1    1    2    0    0  0.57968659196E+01 -0.16320734496E+02  0.88251358614E+02  0.10289933103E+03  0.50000000000E+02 0.  0.
<mgrwt>
<rscale>  0 0.52914743E+02</rscale>
<asrwt>0</asrwt>
<pdfrwt beam="1">  1       13 0.10000000E+01 0.52914743E+02</pdfrwt>
<pdfrwt beam="2">  1       22 0.24273497E+00 0.52914743E+02</pdfrwt>
<totfact> 0.31283396E-01</totfact>
</mgrwt>
</event>
<event>
 4    1  0.2416490E+000  0.5208879E+02  0.7957747E-01  0.1434390E+00
         13   -1    0    0    0    0  0.00000000000E+00  0.00000000000E+00  0.99999944177E+02  0.99999999997E+02  0.10566000000E+00 0. -1.
         22   -1    0    0    0    0 -0.00000000000E+00 -0.00000000000E+00 -0.12020807620E+02  0.12020807620E+02  0.00000000000E+00 0. -1.
         13    1    1    2    0    0 -0.37507304010E+00 -0.14597977873E+02  0.82155475718E+01  0.16755537106E+02  0.10566000000E+00 0.  1.
        996    1    1    2    0    0  0.37507304010E+00  0.14597977873E+02  0.79763588985E+02  0.95265270511E+02  0.50000000000E+02 0.  0.
<mgrwt>
<rscale>  0 0.52088786E+02</rscale>
<asrwt>0</asrwt>
<pdfrwt beam="1">  1       13 0.10000000E+01 0.52088786E+02</pdfrwt>
<pdfrwt beam="2">  1       22 0.12020832E+00 0.52088786E+02</pdfrwt>
<totfact> 0.10723022E+00</totfact>
</mgrwt>
</event>
<event>
 4    1  0.2416490E+000  0.7906382E+02  0.7957747E-01  0.1331729E+00
         13   -1    0    0    0    0  0.00000000000E+00  0.00000000000E+00  0.99999944174E+02  0.99999999994E+02  0.10566000000E+00 0. -1.
         22   -1    0    0    0    0 -0.00000000000E+00 -0.00000000000E+00 -0.71865441456E+02  0.71865441456E+02  0.00000000000E+00 0.  1.
         13    1    1    2    0    0  0.58373617083E+02  0.18536684722E+02 -0.35129898274E+02  0.70606010854E+02  0.10566000000E+00 0.  1.
        996    1    1    2    0    0 -0.58373617083E+02 -0.18536684722E+02  0.63264400992E+02  0.10125943060E+03  0.50000000000E+02 0.  0.
<mgrwt>
<rscale>  0 0.79063821E+02</rscale>
<asrwt>0</asrwt>
<pdfrwt beam="1">  1       13 0.10000000E+01 0.79063821E+02</pdfrwt>
<pdfrwt beam="2">  1       22 0.71865449E+00 0.79063821E+02</pdfrwt>
<totfact> 0.64740725E-02</totfact>
</mgrwt>
</event>
<event>
 4    1  0.2416490E+000  0.5217822E+02  0.7957747E-01  0.1433935E+00
         13   -1    0    0    0    0  0.00000000000E+00  0.00000000000E+00  0.99999944171E+02  0.99999999991E+02  0.10566000000E+00 0.  1.
         22   -1    0    0    0    0 -0.00000000000E+00 -0.00000000000E+00 -0.25823114894E+02  0.25823114894E+02  0.00000000000E+00 0. -1.
         13    1    1    2    0    0 -0.13916843748E+02  0.53748131176E+01 -0.15850859242E+02  0.21767591936E+02  0.10566000000E+00 0. -1.
        996    1    1    2    0    0  0.13916843748E+02 -0.53748131176E+01  0.90027688520E+02  0.10405552295E+03  0.50000000000E+02 0.  0.
<mgrwt>
<rscale>  0 0.52178225E+02</rscale>
<asrwt>0</asrwt>
<pdfrwt beam="1">  1       13 0.10000000E+01 0.52178225E+02</pdfrwt>
<pdfrwt beam="2">  1       22 0.25823136E+00 0.52178225E+02</pdfrwt>
<totfact> 0.27666329E-01</totfact>
</mgrwt>
</event>
<event>
 4    1  0.2416490E+000  0.5225342E+02  0.7957747E-01  0.1433553E+00
         13   -1    0    0    0    0  0.00000000000E+00  0.00000000000E+00  0.99999944184E+02  0.10000000000E+03  0.10566000000E+00 0.  1.
         22   -1    0    0    0    0 -0.00000000000E+00 -0.00000000000E+00 -0.11792919899E+02  0.11792919899E+02  0.00000000000E+00 0.  1.
         13    1    1    2    0    0  0.25997750635E+00  0.15177377439E+02  0.11799371493E+02  0.19226458485E+02  0.10566000000E+00 0. -1.
        996    1    1    2    0    0 -0.25997750635E+00 -0.15177377439E+02  0.76407652793E+02  0.92566461419E+02  0.50000000000E+02 0.  0.
<mgrwt>
<rscale>  0 0.52253425E+02</rscale>
<asrwt>0</asrwt>
<pdfrwt beam="1">  1       13 0.10000000E+01 0.52253425E+02</pdfrwt>
<pdfrwt beam="2">  1       22 0.11792945E+00 0.52253425E+02</pdfrwt>
<totfact> 0.11045218E+00</totfact>
</mgrwt>
</event>
<event>
 4    1  0.2416490E+000  0.5199436E+02  0.7957747E-01  0.1434872E+00
         13   -1    0    0    0    0  0.00000000000E+00  0.00000000000E+00  0.99999944171E+02  0.99999999991E+02  0.10566000000E+00 0.  1.
         22   -1    0    0    0    0 -0.00000000000E+00 -0.00000000000E+00 -0.13973707385E+02  0.13973707385E+02  0.00000000000E+00 0.  1.
         13    1    1    2    0    0  0.87920371092E+01 -0.11230018359E+02  0.98443922002E+00  0.14296625947E+02  0.10566000000E+00 0. -1.
        996    1    1    2    0    0 -0.87920371092E+01  0.11230018359E+02  0.85041797566E+02  0.99677081428E+02  0.50000000000E+02 0.  0.
<mgrwt>
<rscale>  0 0.51994358E+02</rscale>
<asrwt>0</asrwt>
<pdfrwt beam="1">  1       13 0.10000000E+01 0.51994358E+02</pdfrwt>
<pdfrwt beam="2">  1       22 0.13973731E+00 0.51994358E+02</pdfrwt>
<totfact> 0.84583766E-01</totfact>
</mgrwt>
</event>
<event>
 4    1  0.2416490E+000  0.5272742E+02  0.7957747E-01  0.1431162E+00
         13   -1    0    0    0    0  0.00000000000E+00  0.00000000000E+00  0.99999944183E+02  0.10000000000E+03  0.10566000000E+00 0.  1.
         22   -1    0    0    0    0 -0.00000000000E+00 -0.00000000000E+00 -0.16182118711E+02  0.16182118711E+02  0.00000000000E+00 0.  1.
         13    1    1    2    0    0 -0.10523464769E+02 -0.13016815972E+02 -0.48730724532E+00  0.16746027623E+02  0.10566000000E+00 0. -1.
        996    1    1    2    0    0  0.10523464769E+02  0.13016815972E+02  0.84305132718E+02  0.99436091091E+02  0.50000000000E+02 0.  0.
<mgrwt>
<rscale>  0 0.52727420E+02</rscale>
<asrwt>0</asrwt>
<pdfrwt beam="1">  1       13 0.10000000E+01 0.52727420E+02</pdfrwt>
<pdfrwt beam="2">  1       22 0.16182142E+00 0.52727420E+02</pdfrwt>
<totfact> 0.66322556E-01</totfact>
</mgrwt>
</event>
<event>
 4    1  0.2416490E+000  0.5672321E+02  0.7957747E-01  0.1412121E+00
         13   -1    0    0    0    0  0.00000000000E+00  0.00000000000E+00  0.99999944174E+02  0.99999999994E+02  0.10566000000E+00 0.  1.
         22   -1    0    0    0    0 -0.00000000000E+00 -0.00000000000E+00 -0.32683146063E+02  0.32683146063E+02  0.00000000000E+00 0. -1.
         13    1    1    2    0    0  0.26262849803E+02  0.52712169436E+01 -0.16511603330E+02  0.31466922576E+02  0.10566000000E+00 0. -1.
        996    1    1    2    0    0 -0.26262849803E+02 -0.52712169436E+01  0.83828401440E+02  0.10121622348E+03  0.50000000000E+02 0.  0.
<mgrwt>
<rscale>  0 0.56723214E+02</rscale>
<asrwt>0</asrwt>
<pdfrwt beam="1">  1       13 0.10000000E+01 0.56723214E+02</pdfrwt>
<pdfrwt beam="2">  1       22 0.32683165E+00 0.56723214E+02</pdfrwt>
<totfact> 0.17812120E-01</totfact>
</mgrwt>
</event>
<event>
 4    1  0.2416490E+000  0.5400008E+02  0.7957747E-01  0.1424888E+00
         13   -1    0    0    0    0  0.00000000000E+00  0.00000000000E+00  0.99999944180E+02  0.10000000000E+03  0.10566000000E+00 0.  1.
         22   -1    0    0    0    0 -0.00000000000E+00 -0.00000000000E+00 -0.15499976488E+02  0.15499976488E+02  0.00000000000E+00 0.  1.
         13    1    1    2    0    0 -0.16150533267E+01  0.20332251183E+02  0.81075325658E+01  0.21948851536E+02  0.10566000000E+00 0. -1.
        996    1    1    2    0    0  0.16150533267E+01 -0.20332251183E+02  0.76392435126E+02  0.93551124953E+02  0.50000000000E+02 0.  0.
<mgrwt>
<rscale>  0 0.54000082E+02</rscale>
<asrwt>0</asrwt>
<pdfrwt beam="1">  1       13 0.10000000E+01 0.54000082E+02</pdfrwt>
<pdfrwt beam="2">  1       22 0.15500000E+00 0.54000082E+02</pdfrwt>
<totfact> 0.71548456E-01</totfact>
</mgrwt>
</event>
<event>
 4    1  0.2416490E+000  0.7211515E+02  0.7957747E-01  0.1353045E+00
         13   -1    0    0    0    0  0.00000000000E+00  0.00000000000E+00  0.99999944180E+02  0.10000000000E+03  0.10566000000E+00 0.  1.
         22   -1    0    0    0    0 -0.00000000000E+00 -0.00000000000E+00 -0.66913677211E+02  0.66913677211E+02  0.00000000000E+00 0. -1.
         13    1    1    2    0    0 -0.34981353265E+02 -0.38430447388E+02 -0.38980103727E+02  0.64961942807E+02  0.10566000000E+00 0. -1.
        996    1    1    2    0    0  0.34981353265E+02  0.38430447388E+02  0.72066370696E+02  0.10195173440E+03  0.50000000000E+02 0.  0.
<mgrwt>
<rscale>  0 0.72115147E+02</rscale>
<asrwt>0</asrwt>
<pdfrwt beam="1">  1       13 0.10000000E+01 0.72115147E+02</pdfrwt>
<pdfrwt beam="2">  1       22 0.66913686E+00 0.72115147E+02</pdfrwt>
<totfact> 0.86435616E-02</totfact>
</mgrwt>
</event>
<event>
 4    1  0.2416490E+000  0.5110028E+02  0.7957747E-01  0.1439496E+00
         13   -1    0    0    0    0  0.00000000000E+00  0.00000000000E+00  0.99999944179E+02  0.99999999999E+02  0.10566000000E+00 0. -1.
         22   -1    0    0    0    0 -0.00000000000E+00 -0.00000000000E+00 -0.16151308985E+02  0.16151308985E+02  0.00000000000E+00 0.  1.
         13    1    1    2    0    0  0.90520790764E+01 -0.54128015982E+01 -0.64737329024E+01  0.12375739916E+02  0.10566000000E+00 0.  1.
        996    1    1    2    0    0 -0.90520790764E+01  0.54128015982E+01  0.90322368097E+02  0.10377556907E+03  0.50000000000E+02 0.  0.
<mgrwt>
<rscale>  0 0.51100279E+02</rscale>
<asrwt>0</asrwt>
<pdfrwt beam="1">  1       13 0.10000000E+01 0.51100279E+02</pdfrwt>
<pdfrwt beam="2">  1       22 0.16151332E+00 0.51100279E+02</pdfrwt>
<totfact> 0.66325457E-01</totfact>
</mgrwt>
</event>
<event>
 4    1  0.2416490E+000  0.5211919E+02  0.7957747E-01  0.1434235E+00
         13   -1    0    0    0    0  0.00000000000E+00  0.00000000000E+00  0.99999944177E+02  0.99999999997E+02  0.10566000000E+00 0.  1.
         22   -1    0    0    0    0 -0.00000000000E+00 -0.00000000000E+00 -0.13227797044E+02  0.13227797044E+02  0.00000000000E+00 0. -1.
         13    1    1    2    0    0  0.74067717181E+01  0.12710224348E+02  0.37164640677E+01  0.15173441912E+02  0.10566000000E+00 0. -1.
        996    1    1    2    0    0 -0.74067717181E+01 -0.12710224348E+02  0.83055683065E+02  0.98054355129E+02  0.50000000000E+02 0.  0.
<mgrwt>
<rscale>  0 0.52119191E+02</rscale>
<asrwt>0</asrwt>
<pdfrwt beam="1">  1       13 0.10000000E+01 0.52119191E+02</pdfrwt>
<pdfrwt beam="2">  1       22 0.13227821E+00 0.52119191E+02</pdfrwt>
<totfact> 0.92379377E-01</totfact>
</mgrwt>
</event>
<event>
 4    1  0.2416490E+000  0.5284301E+02  0.7957747E-01  0.1430584E+00
         13   -1    0    0    0    0  0.00000000000E+00  0.00000000000E+00  0.99999944181E+02  0.10000000000E+03  0.10566000000E+00 0. -1.
         22   -1    0    0    0    0 -0.00000000000E+00 -0.00000000000E+00 -0.28366033319E+02  0.28366033319E+02  0.00000000000E+00 0.  1.
         13    1    1    2    0    0 -0.14373438084E+02  0.92621759311E+01 -0.17676347047E+02  0.24593658416E+02  0.10566000000E+00 0.  1.
        996    1    1    2    0    0  0.14373438084E+02 -0.92621759311E+01  0.89310257910E+02  0.10377237490E+03  0.50000000000E+02 0.  0.
<mgrwt>
<rscale>  0 0.52843009E+02</rscale>
<asrwt>0</asrwt>
<pdfrwt beam="1">  1       13 0.10000000E+01 0.52843009E+02</pdfrwt>
<pdfrwt beam="2">  1       22 0.28366053E+00 0.52843009E+02</pdfrwt>
<totfact> 0.23053135E-01</totfact>
</mgrwt>
</event>
<event>
 4    1  0.2416490E+000  0.6113913E+02  0.7957747E-01  0.1393113E+00
         13   -1    0    0    0    0  0.00000000000E+00  0.00000000000E+00  0.99999944177E+02  0.99999999997E+02  0.10566000000E+00 0.  1.
         22   -1    0    0    0    0 -0.00000000000E+00 -0.00000000000E+00 -0.60088848616E+02  0.60088848616E+02  0.00000000000E+00 0. -1.
         13    1    1    2    0    0 -0.14518257747E+02 -0.32050178307E+02 -0.43954852659E+02  0.56303054747E+02  0.10566000000E+00 0. -1.
        996    1    1    2    0    0  0.14518257747E+02  0.32050178307E+02  0.83865948221E+02  0.10378579387E+03  0.50000000000E+02 0.  0.
<mgrwt>
<rscale>  0 0.61139134E+02</rscale>
<asrwt>0</asrwt>
<pdfrwt beam="1">  1       13 0.10000000E+01 0.61139134E+02</pdfrwt>
<pdfrwt beam="2">  1       22 0.60088860E+00 0.61139134E+02</pdfrwt>
<totfact> 0.63960612E-02</totfact>
</mgrwt>
</event>
<event>
 4    1  0.2416490E+000  0.5300143E+02  0.7957747E-01  0.1429794E+00
         13   -1    0    0    0    0  0.00000000000E+00  0.00000000000E+00  0.99999944180E+02  0.10000000000E+03  0.10566000000E+00 0. -1.
         22   -1    0    0    0    0 -0.00000000000E+00 -0.00000000000E+00 -0.12489647769E+02  0.12489647769E+02  0.00000000000E+00 0. -1.
         13    1    1    2    0    0  0.11677532869E+02  0.13144853639E+02  0.24408618837E+02  0.30082283634E+02  0.10566000000E+00 0.  1.
        996    1    1    2    0    0 -0.11677532869E+02 -0.13144853639E+02  0.63101677575E+02  0.82407364136E+02  0.50000000000E+02 0.  0.
<mgrwt>
<rscale>  0 0.53001433E+02</rscale>
<asrwt>0</asrwt>
<pdfrwt beam="1">  1       13 0.10000000E+01 0.53001433E+02</pdfrwt>
<pdfrwt beam="2">  1       22 0.12489672E+00 0.53001433E+02</pdfrwt>
<totfact> 0.10128409E+00</totfact>
</mgrwt>
</event>
<event>
 4    1  0.2416490E+000  0.5314739E+02  0.7957747E-01  0.1429069E+00
         13   -1    0    0    0    0  0.00000000000E+00  0.00000000000E+00  0.99999944184E+02  0.10000000000E+03  0.10566000000E+00 0. -1.
         22   -1    0    0    0    0 -0.00000000000E+00 -0.00000000000E+00 -0.44198085624E+02  0.44198085624E+02  0.00000000000E+00 0.  1.
         13    1    1    2    0    0 -0.59758311988E+01 -0.16998082569E+02 -0.34783093216E+02  0.39172951219E+02  0.10566000000E+00 0.  1.
        996    1    1    2    0    0  0.59758311988E+01  0.16998082569E+02  0.90584951776E+02  0.10502513441E+03  0.50000000000E+02 0.  0.
<mgrwt>
<rscale>  0 0.53147393E+02</rscale>
<asrwt>0</asrwt>
<pdfrwt beam="1">  1       13 0.10000000E+01 0.53147393E+02</pdfrwt>
<pdfrwt beam="2">  1       22 0.44198101E+00 0.53147393E+02</pdfrwt>
<totfact> 0.10076518E-01</totfact>
</mgrwt>
</event>
<event>
 4    1  0.2416490E+000  0.5150651E+02  0.7957747E-01  0.1437381E+00
         13   -1    0    0    0    0  0.00000000000E+00  0.00000000000E+00  0.99999944177E+02  0.99999999997E+02  0.10566000000E+00 0.  1.
         22   -1    0    0    0    0 -0.00000000000E+00 -0.00000000000E+00 -0.10206418905E+02  0.10206418905E+02  0.00000000000E+00 0.  1.
         13    1    1    2    0    0 -0.50512319056E+01 -0.11287392714E+02  0.16261029746E+02  0.20429205332E+02  0.10566000000E+00 0. -1.
        996    1    1    2    0    0  0.50512319056E+01  0.11287392714E+02  0.73532495526E+02  0.89777213570E+02  0.50000000000E+02 0.  0.
<mgrwt>
<rscale>  0 0.51506506E+02</rscale>
<asrwt>0</asrwt>
<pdfrwt beam="1">  1       13 0.10000000E+01 0.51506506E+02</pdfrwt>
<pdfrwt beam="2">  1       22 0.10206444E+00 0.51506506E+02</pdfrwt>
<totfact> 0.13669413E+00</totfact>
</mgrwt>
</event>
<event>
 4    1  0.2416490E+000  0.5339721E+02  0.7957747E-01  0.1427834E+00
         13   -1    0    0    0    0  0.00000000000E+00  0.00000000000E+00  0.99999944176E+02  0.99999999996E+02  0.10566000000E+00 0. -1.
         22   -1    0    0    0    0 -0.00000000000E+00 -0.00000000000E+00 -0.13999576044E+02  0.13999576044E+02  0.00000000000E+00 0.  1.
         13    1    1    2    0    0  0.17024932260E+02  0.78367031272E+01  0.10373417657E+02  0.21421512371E+02  0.10566000000E+00 0.  1.
        996    1    1    2    0    0 -0.17024932260E+02 -0.78367031272E+01  0.75626950475E+02  0.92578063668E+02  0.50000000000E+02 0.  0.
<mgrwt>
<rscale>  0 0.53397212E+02</rscale>
<asrwt>0</asrwt>
<pdfrwt beam="1">  1       13 0.10000000E+01 0.53397212E+02</pdfrwt>
<pdfrwt beam="2">  1       22 0.13999600E+00 0.53397212E+02</pdfrwt>
<totfact> 0.84576262E-01</totfact>
</mgrwt>
</event>
<event>
 4    1  0.2416490E+000  0.5435478E+02  0.7957747E-01  0.1423175E+00
         13   -1    0    0    0    0  0.00000000000E+00  0.00000000000E+00  0.99999944179E+02  0.99999999999E+02  0.10566000000E+00 0. -1.
         22   -1    0    0    0    0 -0.00000000000E+00 -0.00000000000E+00 -0.37443539798E+02  0.37443539798E+02  0.00000000000E+00 0.  1.
         13    1    1    2    0    0  0.16409627407E+01 -0.21254392147E+02 -0.25947243116E+02  0.33581431381E+02  0.10566000000E+00 0.  1.
        996    1    1    2    0    0 -0.16409627407E+01  0.21254392147E+02  0.88503647497E+02  0.10386210842E+03  0.50000000000E+02 0.  0.
<mgrwt>
<rscale>  0 0.54354778E+02</rscale>
<asrwt>0</asrwt>
<pdfrwt beam="1">  1       13 0.10000000E+01 0.54354778E+02</pdfrwt>
<pdfrwt beam="2">  1       22 0.37443557E+00 0.54354778E+02</pdfrwt>
<totfact> 0.13987578E-01</totfact>
</mgrwt>
</event>
<event>
 4    1  0.2416490E+000  0.5148484E+02  0.7957747E-01  0.1437493E+00
         13   -1    0    0    0    0  0.00000000000E+00  0.00000000000E+00  0.99999944177E+02  0.99999999997E+02  0.10566000000E+00 0. -1.
         22   -1    0    0    0    0 -0.00000000000E+00 -0.00000000000E+00 -0.32660076994E+02  0.32660076994E+02  0.00000000000E+00 0.  1.
         13    1    1    2    0    0  0.40411364603E+00 -0.12268862618E+02 -0.24483076243E+02  0.27388327517E+02  0.10566000000E+00 0.  1.
        996    1    1    2    0    0 -0.40411364603E+00  0.12268862618E+02  0.91822943427E+02  0.10527174947E+03  0.50000000000E+02 0.  0.
<mgrwt>
<rscale>  0 0.51484836E+02</rscale>
<asrwt>0</asrwt>
<pdfrwt beam="1">  1       13 0.10000000E+01 0.51484836E+02</pdfrwt>
<pdfrwt beam="2">  1       22 0.32660096E+00 0.51484836E+02</pdfrwt>
<totfact> 0.17729964E-01</totfact>
</mgrwt>
</event>
<event>
 4    1  0.2416490E+000  0.5261181E+02  0.7957747E-01  0.1431743E+00
         13   -1    0    0    0    0  0.00000000000E+00  0.00000000000E+00  0.99999944173E+02  0.99999999993E+02  0.10566000000E+00 0.  1.
         22   -1    0    0    0    0 -0.00000000000E+00 -0.00000000000E+00 -0.37954601505E+02  0.37954601505E+02  0.00000000000E+00 0. -1.
         13    1    1    2    0    0  0.16315922955E+02  0.13389620659E+01 -0.28711431174E+02  0.33050863912E+02  0.10566000000E+00 0. -1.
        996    1    1    2    0    0 -0.16315922955E+02 -0.13389620659E+01  0.90756773841E+02  0.10490373759E+03  0.50000000000E+02 0.  0.
<mgrwt>
<rscale>  0 0.52611806E+02</rscale>
<asrwt>0</asrwt>
<pdfrwt beam="1">  1       13 0.10000000E+01 0.52611806E+02</pdfrwt>
<pdfrwt beam="2">  1       22 0.37954619E+00 0.52611806E+02</pdfrwt>
<totfact> 0.13631155E-01</totfact>
</mgrwt>
</event>
<event>
 4    1  0.2416490E+000  0.5285236E+02  0.7957747E-01  0.1430537E+00
         13   -1    0    0    0    0  0.00000000000E+00  0.00000000000E+00  0.99999944184E+02  0.10000000000E+03  0.10566000000E+00 0.  1.
         22   -1    0    0    0    0 -0.00000000000E+00 -0.00000000000E+00 -0.16872645927E+02  0.16872645927E+02  0.00000000000E+00 0. -1.
         13    1    1    2    0    0  0.48958692659E+01 -0.16413483629E+02 -0.13961184879E+01  0.17185234696E+02  0.10566000000E+00 0. -1.
        996    1    1    2    0    0 -0.48958692659E+01  0.16413483629E+02  0.84523416744E+02  0.99687411235E+02  0.50000000000E+02 0.  0.
<mgrwt>
<rscale>  0 0.52852360E+02</rscale>
<asrwt>0</asrwt>
<pdfrwt beam="1">  1       13 0.10000000E+01 0.52852360E+02</pdfrwt>
<pdfrwt beam="2">  1       22 0.16872669E+00 0.52852360E+02</pdfrwt>
<totfact> 0.61704889E-01</totfact>
</mgrwt>
</event>
<event>
 4    1  0.2416490E+000  0.5308548E+02  0.7957747E-01  0.1429376E+00
         13   -1    0    0    0    0  0.00000000000E+00  0.00000000000E+00  0.99999944182E+02  0.10000000000E+03  0.10566000000E+00 0.  1.
         22   -1    0    0    0    0 -0.00000000000E+00 -0.00000000000E+00 -0.12868047415E+02  0.12868047415E+02  0.00000000000E+00 0.  1.
         13    1    1    2    0    0  0.68151487281E+01 -0.16480946482E+02  0.14978288255E+02  0.23290086566E+02  0.10566000000E+00 0. -1.
        996    1    1    2    0    0 -0.68151487281E+01  0.16480946482E+02  0.72153608512E+02  0.89577960852E+02  0.50000000000E+02 0.  0.
<mgrwt>
<rscale>  0 0.53085477E+02</rscale>
<asrwt>0</asrwt>
<pdfrwt beam="1">  1       13 0.10000000E+01 0.53085477E+02</pdfrwt>
<pdfrwt beam="2">  1       22 0.12868072E+00 0.53085477E+02</pdfrwt>
<totfact> 0.96687133E-01</totfact>
</mgrwt>
</event>
<event>
 4    1  0.2416490E+000  0.5649438E+02  0.7957747E-01  0.1413161E+00
         13   -1    0    0    0    0  0.00000000000E+00  0.00000000000E+00  0.99999944177E+02  0.99999999998E+02  0.10566000000E+00 0. -1.
         22   -1    0    0    0    0 -0.00000000000E+00 -0.00000000000E+00 -0.24169158937E+02  0.24169158937E+02  0.00000000000E+00 0.  1.
         13    1    1    2    0    0 -0.72427895752E+01  0.25281550511E+02 -0.37601476084E+01  0.26566231783E+02  0.10566000000E+00 0.  1.
        996    1    1    2    0    0  0.72427895752E+01 -0.25281550511E+02  0.79590932848E+02  0.97602927152E+02  0.50000000000E+02 0.  0.
<mgrwt>
<rscale>  0 0.56494378E+02</rscale>
<asrwt>0</asrwt>
<pdfrwt beam="1">  1       13 0.10000000E+01 0.56494378E+02</pdfrwt>
<pdfrwt beam="2">  1       22 0.24169180E+00 0.56494378E+02</pdfrwt>
<totfact> 0.31721437E-01</totfact>
</mgrwt>
</event>
<event>
 4    1  0.2416490E+000  0.5237662E+02  0.7957747E-01  0.1432929E+00
         13   -1    0    0    0    0  0.00000000000E+00  0.00000000000E+00  0.99999944184E+02  0.10000000000E+03  0.10566000000E+00 0. -1.
         22   -1    0    0    0    0 -0.00000000000E+00 -0.00000000000E+00 -0.11969359620E+02  0.11969359620E+02  0.00000000000E+00 0. -1.
         13    1    1    2    0    0 -0.97468107570E+01 -0.12178239617E+02  0.12172765621E+02  0.19786288864E+02  0.10566000000E+00 0.  1.
        996    1    1    2    0    0  0.97468107570E+01  0.12178239617E+02  0.75857818942E+02  0.92183070760E+02  0.50000000000E+02 0.  0.
<mgrwt>
<rscale>  0 0.52376615E+02</rscale>
<asrwt>0</asrwt>
<pdfrwt beam="1">  1       13 0.10000000E+01 0.52376615E+02</pdfrwt>
<pdfrwt beam="2">  1       22 0.11969384E+00 0.52376615E+02</pdfrwt>
<totfact> 0.10800620E+00</totfact>
</mgrwt>
</event>
<event>
 4    1  0.2416490E+000  0.5377948E+02  0.7957747E-01  0.1425961E+00
         13   -1    0    0    0    0  0.00000000000E+00  0.00000000000E+00  0.99999944173E+02  0.99999999993E+02  0.10566000000E+00 0.  1.
         22   -1    0    0    0    0 -0.00000000000E+00 -0.00000000000E+00 -0.43933508854E+02  0.43933508854E+02  0.00000000000E+00 0. -1.
         13    1    1    2    0    0 -0.18385765527E+02  0.73617958293E+01 -0.33816999599E+02  0.39189705763E+02  0.10566000000E+00 0. -1.
        996    1    1    2    0    0  0.18385765527E+02 -0.73617958293E+01  0.89883434918E+02  0.10474380308E+03  0.50000000000E+02 0.  0.
<mgrwt>
<rscale>  0 0.53779479E+02</rscale>
<asrwt>0</asrwt>
<pdfrwt beam="1">  1       13 0.10000000E+01 0.53779479E+02</pdfrwt>
<pdfrwt beam="2">  1       22 0.43933525E+00 0.53779479E+02</pdfrwt>
<totfact> 0.10217188E-01</totfact>
</mgrwt>
</event>
<event>
 4    1  0.2416490E+000  0.5830692E+02  0.7957747E-01  0.1405077E+00
         13   -1    0    0    0    0  0.00000000000E+00  0.00000000000E+00  0.99999944181E+02  0.10000000000E+03  0.10566000000E+00 0. -1.
         22   -1    0    0    0    0 -0.00000000000E+00 -0.00000000000E+00 -0.23917006705E+02  0.23917006705E+02  0.00000000000E+00 0.  1.
         13    1    1    2    0    0  0.83358174976E+01 -0.28813391342E+02  0.25941713050E+01  0.30107113159E+02  0.10566000000E+00 0.  1.
        996    1    1    2    0    0 -0.83358174976E+01  0.28813391342E+02  0.73488766171E+02  0.93809893547E+02  0.50000000000E+02 0.  0.
<mgrwt>
<rscale>  0 0.58306924E+02</rscale>
<asrwt>0</asrwt>
<pdfrwt beam="1">  1       13 0.10000000E+01 0.58306924E+02</pdfrwt>
<pdfrwt beam="2">  1       22 0.23917028E+00 0.58306924E+02</pdfrwt>
<totfact> 0.32467191E-01</totfact>
</mgrwt>
</event>
<event>
 4    1  0.2416490E+000  0.5707021E+02  0.7957747E-01  0.1410555E+00
         13   -1    0    0    0    0  0.00000000000E+00  0.00000000000E+00  0.99999944175E+02  0.99999999995E+02  0.10566000000E+00 0.  1.
         22   -1    0    0    0    0 -0.00000000000E+00 -0.00000000000E+00 -0.35294718769E+02  0.35294718769E+02  0.00000000000E+00 0. -1.
         13    1    1    2    0    0  0.26061811443E+02  0.88198994276E+01 -0.19392143901E+02  0.33661180175E+02  0.10566000000E+00 0. -1.
        996    1    1    2    0    0 -0.26061811443E+02 -0.88198994276E+01  0.84097369308E+02  0.10163353859E+03  0.50000000000E+02 0.  0.
<mgrwt>
<rscale>  0 0.57070208E+02</rscale>
<asrwt>0</asrwt>
<pdfrwt beam="1">  1       13 0.10000000E+01 0.57070208E+02</pdfrwt>
<pdfrwt beam="2">  1       22 0.35294737E+00 0.57070208E+02</pdfrwt>
<totfact> 0.15562952E-01</totfact>
</mgrwt>
</event>
<event>
 4    1  0.2416490E+000  0.5281242E+02  0.7957747E-01  0.1430737E+00
         13   -1    0    0    0    0  0.00000000000E+00  0.00000000000E+00  0.99999944173E+02  0.99999999994E+02  0.10566000000E+00 0.  1.
         22   -1    0    0    0    0 -0.00000000000E+00 -0.00000000000E+00 -0.12862056306E+02  0.12862056306E+02  0.00000000000E+00 0.  1.
         13    1    1    2    0    0 -0.16978757223E+02  0.93450751625E+00  0.33607288725E+02  0.37664472924E+02  0.10566000000E+00 0. -1.
        996    1    1    2    0    0  0.16978757223E+02 -0.93450751625E+00  0.53530599142E+02  0.75197583376E+02  0.50000000000E+02 0.  0.
<mgrwt>
<rscale>  0 0.52812418E+02</rscale>
<asrwt>0</asrwt>
<pdfrwt beam="1">  1       13 0.10000000E+01 0.52812418E+02</pdfrwt>
<pdfrwt beam="2">  1       22 0.12862081E+00 0.52812418E+02</pdfrwt>
<totfact> 0.96701549E-01</totfact>
</mgrwt>
</event>
<event>
 4    1  0.2416490E+000  0.5273737E+02  0.7957747E-01  0.1431112E+00
         13   -1    0    0    0    0  0.00000000000E+00  0.00000000000E+00  0.99999944178E+02  0.99999999998E+02  0.10566000000E+00 0. -1.
         22   -1    0    0    0    0 -0.00000000000E+00 -0.00000000000E+00 -0.12348808895E+02  0.12348808895E+02  0.00000000000E+00 0. -1.
         13    1    1    2    0    0 -0.15241754801E+02  0.69941859318E+01  0.14500970100E+02  0.22170228329E+02  0.10566000000E+00 0.  1.
        996    1    1    2    0    0  0.15241754801E+02 -0.69941859318E+01  0.73150165183E+02  0.90178580565E+02  0.50000000000E+02 0.  0.
<mgrwt>
<rscale>  0 0.52737366E+02</rscale>
<asrwt>0</asrwt>
<pdfrwt beam="1">  1       13 0.10000000E+01 0.52737366E+02</pdfrwt>
<pdfrwt beam="2">  1       22 0.12348833E+00 0.52737366E+02</pdfrwt>
<totfact> 0.10302219E+00</totfact>
</mgrwt>
</event>
<event>
 4    1  0.2416490E+000  0.5303794E+02  0.7957747E-01  0.1429612E+00
         13   -1    0    0    0    0  0.00000000000E+00  0.00000000000E+00  0.99999944176E+02  0.99999999996E+02  0.10566000000E+00 0.  1.
         22   -1    0    0    0    0 -0.00000000000E+00 -0.00000000000E+00 -0.13629103731E+02  0.13629103731E+02  0.00000000000E+00 0.  1.
         13    1    1    2    0    0 -0.14083782116E+02 -0.10708435019E+02  0.90692843103E+01  0.19881815340E+02  0.10566000000E+00 0. -1.
        996    1    1    2    0    0  0.14083782116E+02  0.10708435019E+02  0.77301556134E+02  0.93747288388E+02  0.50000000000E+02 0.  0.
<mgrwt>
<rscale>  0 0.53037944E+02</rscale>
<asrwt>0</asrwt>
<pdfrwt beam="1">  1       13 0.10000000E+01 0.53037944E+02</pdfrwt>
<pdfrwt beam="2">  1       22 0.13629128E+00 0.53037944E+02</pdfrwt>
<totfact> 0.88250505E-01</totfact>
</mgrwt>
</event>
<event>
 4    1  0.2416490E+000  0.5177170E+02  0.7957747E-01  0.1436013E+00
         13   -1    0    0    0    0  0.00000000000E+00  0.00000000000E+00  0.99999944182E+02  0.10000000000E+03  0.10566000000E+00 0. -1.
         22   -1    0    0    0    0 -0.00000000000E+00 -0.00000000000E+00 -0.17488162095E+02  0.17488162095E+02  0.00000000000E+00 0.  1.
         13    1    1    2    0    0  0.88126222218E+01  0.10131470020E+02 -0.61875179269E+01  0.14785314921E+02  0.10566000000E+00 0.  1.
        996    1    1    2    0    0 -0.88126222218E+01 -0.10131470020E+02  0.88699300014E+02  0.10270284718E+03  0.50000000000E+02 0.  0.
<mgrwt>
<rscale>  0 0.51771701E+02</rscale>
<asrwt>0</asrwt>
<pdfrwt beam="1">  1       13 0.10000000E+01 0.51771701E+02</pdfrwt>
<pdfrwt beam="2">  1       22 0.17488185E+00 0.51771701E+02</pdfrwt>
<totfact> 0.57814241E-01</totfact>
</mgrwt>
</event>
<event>
 4    1  0.2416490E+000  0.5146901E+02  0.7957747E-01  0.1437575E+00
         13   -1    0    0    0    0  0.00000000000E+00  0.00000000000E+00  0.99999944178E+02  0.99999999998E+02  0.10566000000E+00 0. -1.
         22   -1    0    0    0    0 -0.00000000000E+00 -0.00000000000E+00 -0.14584430704E+02  0.14584430704E+02  0.00000000000E+00 0.  1.
         13    1    1    2    0    0 -0.88607450462E+01  0.83991891293E+01 -0.27314029244E+01  0.12511231225E+02  0.10566000000E+00 0.  1.
        996    1    1    2    0    0  0.88607450462E+01 -0.83991891293E+01  0.88146916398E+02  0.10207319948E+03  0.50000000000E+02 0.  0.
<mgrwt>
<rscale>  0 0.51469012E+02</rscale>
<asrwt>0</asrwt>
<pdfrwt beam="1">  1       13 0.10000000E+01 0.51469012E+02</pdfrwt>
<pdfrwt beam="2">  1       22 0.14584455E+00 0.51469012E+02</pdfrwt>
<totfact> 0.78790895E-01</totfact>
</mgrwt>
</event>
<event>
 4    1  0.2416490E+000  0.5174324E+02  0.7957747E-01  0.1436160E+00
         13   -1    0    0    0    0  0.00000000000E+00  0.00000000000E+00  0.99999944171E+02  0.99999999992E+02  0.10566000000E+00 0. -1.
         22   -1    0    0    0    0 -0.00000000000E+00 -0.00000000000E+00 -0.13694743543E+02  0.13694743543E+02  0.00000000000E+00 0.  1.
         13    1    1    2    0    0 -0.12129748873E+02  0.54984076327E+01  0.29692926993E+00  0.13321509871E+02  0.10566000000E+00 0.  1.
        996    1    1    2    0    0  0.12129748873E+02 -0.54984076327E+01  0.86008271358E+02  0.10037323366E+03  0.50000000000E+02 0.  0.
<mgrwt>
<rscale>  0 0.51743244E+02</rscale>
<asrwt>0</asrwt>
<pdfrwt beam="1">  1       13 0.10000000E+01 0.51743244E+02</pdfrwt>
<pdfrwt beam="2">  1       22 0.13694768E+00 0.51743244E+02</pdfrwt>
<totfact> 0.87333928E-01</totfact>
</mgrwt>
</event>
<event>
 4    1  0.2416490E+000  0.5123249E+02  0.7957747E-01  0.1438805E+00
         13   -1    0    0    0    0  0.00000000000E+00  0.00000000000E+00  0.99999944180E+02  0.10000000000E+03  0.10566000000E+00 0.  1.
         22   -1    0    0    0    0 -0.00000000000E+00 -0.00000000000E+00 -0.18960069959E+02  0.18960069959E+02  0.00000000000E+00 0.  1.
         13    1    1    2    0    0 -0.10373621428E+02 -0.41420330187E+01 -0.96749222564E+01  0.14777812550E+02  0.10566000000E+00 0. -1.
        996    1    1    2    0    0  0.10373621428E+02  0.41420330187E+01  0.90714796477E+02  0.10418225741E+03  0.50000000000E+02 0.  0.
<mgrwt>
<rscale>  0 0.51232494E+02</rscale>
<asrwt>0</asrwt>
<pdfrwt beam="1">  1       13 0.10000000E+01 0.51232494E+02</pdfrwt>
<pdfrwt beam="2">  1       22 0.18960093E+00 0.51232494E+02</pdfrwt>
<totfact> 0.49934266E-01</totfact>
</mgrwt>
</event>
<event>
 4    1  0.2416490E+000  0.5260678E+02  0.7957747E-01  0.1431768E+00
         13   -1    0    0    0    0  0.00000000000E+00  0.00000000000E+00  0.99999944177E+02  0.99999999997E+02  0.10566000000E+00 0.  1.
         22   -1    0    0    0    0 -0.00000000000E+00 -0.00000000000E+00 -0.13331326893E+02  0.13331326893E+02  0.00000000000E+00 0.  1.
         13    1    1    2    0    0 -0.94802117435E+01 -0.13326627214E+02  0.39196590642E+02  0.42471841138E+02  0.10566000000E+00 0. -1.
        996    1    1    2    0    0  0.94802117435E+01  0.13326627214E+02  0.47472026642E+02  0.70859485753E+02  0.50000000000E+02 0.  0.
<mgrwt>
<rscale>  0 0.52606781E+02</rscale>
<asrwt>0</asrwt>
<pdfrwt beam="1">  1       13 0.10000000E+01 0.52606781E+02</pdfrwt>
<pdfrwt beam="2">  1       22 0.13331351E+00 0.52606781E+02</pdfrwt>
<totfact> 0.91337540E-01</totfact>
</mgrwt>
</event>
<event>
 4    1  0.2416490E+000  0.5230615E+02  0.7957747E-01  0.1433285E+00
         13   -1    0    0    0    0  0.00000000000E+00  0.00000000000E+00  0.99999944183E+02  0.10000000000E+03  0.10566000000E+00 0.  1.
         22   -1    0    0    0    0 -0.00000000000E+00 -0.00000000000E+00 -0.15046543103E+02  0.15046543103E+02  0.00000000000E+00 0.  1.
         13    1    1    2    0    0  0.73186103823E+01  0.13504504441E+02  0.92820027854E-01  0.15360777249E+02  0.10566000000E+00 0. -1.
        996    1    1    2    0    0 -0.73186103823E+01 -0.13504504441E+02  0.84860581051E+02  0.99685765857E+02  0.50000000000E+02 0.  0.
<mgrwt>
<rscale>  0 0.52306154E+02</rscale>
<asrwt>0</asrwt>
<pdfrwt beam="1">  1       13 0.10000000E+01 0.52306154E+02</pdfrwt>
<pdfrwt beam="2">  1       22 0.15046567E+00 0.52306154E+02</pdfrwt>
<totfact> 0.74951494E-01</totfact>
</mgrwt>
</event>
<event>
 4    1  0.2416490E+000  0.5574981E+02  0.7957747E-01  0.1416586E+00
         13   -1    0    0    0    0  0.00000000000E+00  0.00000000000E+00  0.99999944176E+02  0.99999999997E+02  0.10566000000E+00 0. -1.
         22   -1    0    0    0    0 -0.00000000000E+00 -0.00000000000E+00 -0.22741270999E+02  0.22741270999E+02  0.00000000000E+00 0.  1.
         13    1    1    2    0    0  0.62047897622E+01  0.23865071465E+02 -0.31894164414E+01  0.24864122613E+02  0.10566000000E+00 0.  1.
        996    1    1    2    0    0 -0.62047897622E+01 -0.23865071465E+02  0.80448089619E+02  0.97877148382E+02  0.50000000000E+02 0.  0.
<mgrwt>
<rscale>  0 0.55749808E+02</rscale>
<asrwt>0</asrwt>
<pdfrwt beam="1">  1       13 0.10000000E+01 0.55749808E+02</pdfrwt>
<pdfrwt beam="2">  1       22 0.22741293E+00 0.55749808E+02</pdfrwt>
<totfact> 0.35691757E-01</totfact>
</mgrwt>
</event>
<event>
 4    1  0.2416490E+000  0.9015891E+02  0.7957747E-01  0.1302467E+00
         13   -1    0    0    0    0  0.00000000000E+00  0.00000000000E+00  0.99999944194E+02  0.10000000001E+03  0.10566000000E+00 0. -1.
         22   -1    0    0    0    0 -0.00000000000E+00 -0.00000000000E+00 -0.81443152601E+02  0.81443152601E+02  0.00000000000E+00 0.  1.
         13    1    1    2    0    0 -0.71556411603E+02  0.22545711894E+02 -0.27868905604E+02  0.80033219540E+02  0.10566000000E+00 0.  1.
        996    1    1    2    0    0  0.71556411603E+02 -0.22545711894E+02  0.46425697196E+02  0.10140993308E+03  0.50000000000E+02 0.  0.
<mgrwt>
<rscale>  0 0.90158911E+02</rscale>
<asrwt>0</asrwt>
<pdfrwt beam="1">  1       13 0.10000000E+01 0.90158911E+02</pdfrwt>
<pdfrwt beam="2">  1       22 0.81443158E+00 0.90158911E+02</pdfrwt>
<totfact> 0.26964734E-02</totfact>
</mgrwt>
</event>
<event>
 4    1  0.2416490E+000  0.5115881E+02  0.7957747E-01  0.1439190E+00
         13   -1    0    0    0    0  0.00000000000E+00  0.00000000000E+00  0.99999944179E+02  0.99999999999E+02  0.10566000000E+00 0. -1.
         22   -1    0    0    0    0 -0.00000000000E+00 -0.00000000000E+00 -0.12155431184E+02  0.12155431184E+02  0.00000000000E+00 0.  1.
         13    1    1    2    0    0 -0.99457714414E+01 -0.42784890711E+01  0.38756170781E+00  0.10834445367E+02  0.10566000000E+00 0.  1.
        996    1    1    2    0    0  0.99457714414E+01  0.42784890711E+01  0.87456951287E+02  0.10132098582E+03  0.50000000000E+02 0.  0.
<mgrwt>
<rscale>  0 0.51158810E+02</rscale>
<asrwt>0</asrwt>
<pdfrwt beam="1">  1       13 0.10000000E+01 0.51158810E+02</pdfrwt>
<pdfrwt beam="2">  1       22 0.12155456E+00 0.51158810E+02</pdfrwt>
<totfact> 0.10519239E+00</totfact>
</mgrwt>
</event>
<event>
 4    1  0.2416490E+000  0.5202884E+02  0.7957747E-01  0.1434696E+00
         13   -1    0    0    0    0  0.00000000000E+00  0.00000000000E+00  0.99999944179E+02  0.99999999999E+02  0.10566000000E+00 0.  1.
         22   -1    0    0    0    0 -0.00000000000E+00 -0.00000000000E+00 -0.12073359427E+02  0.12073359427E+02  0.00000000000E+00 0.  1.
         13    1    1    2    0    0  0.10459112576E+02 -0.98796473088E+01  0.35066098778E+02  0.37903072624E+02  0.10566000000E+00 0. -1.
        996    1    1    2    0    0 -0.10459112576E+02  0.98796473088E+01  0.52860485974E+02  0.74170286802E+02  0.50000000000E+02 0.  0.
<mgrwt>
<rscale>  0 0.52028843E+02</rscale>
<asrwt>0</asrwt>
<pdfrwt beam="1">  1       13 0.10000000E+01 0.52028843E+02</pdfrwt>
<pdfrwt beam="2">  1       22 0.12073384E+00 0.52028843E+02</pdfrwt>
<totfact> 0.10650086E+00</totfact>
</mgrwt>
</event>
<event>
 4    1  0.2416490E+000  0.5199198E+02  0.7957747E-01  0.1434884E+00
         13   -1    0    0    0    0  0.00000000000E+00  0.00000000000E+00  0.99999944180E+02  0.10000000000E+03  0.10566000000E+00 0.  1.
         22   -1    0    0    0    0 -0.00000000000E+00 -0.00000000000E+00 -0.22082623235E+02  0.22082623235E+02  0.00000000000E+00 0. -1.
         13    1    1    2    0    0  0.12647473057E+02  0.65732507513E+01 -0.11723076831E+02  0.18455565409E+02  0.10566000000E+00 0. -1.
        996    1    1    2    0    0 -0.12647473057E+02 -0.65732507513E+01  0.89640397776E+02  0.10362705783E+03  0.50000000000E+02 0.  0.
<mgrwt>
<rscale>  0 0.51991982E+02</rscale>
<asrwt>0</asrwt>
<pdfrwt beam="1">  1       13 0.10000000E+01 0.51991982E+02</pdfrwt>
<pdfrwt beam="2">  1       22 0.22082645E+00 0.51991982E+02</pdfrwt>
<totfact> 0.37548788E-01</totfact>
</mgrwt>
</event>
<event>
 4    1  0.2416490E+000  0.5248734E+02  0.7957747E-01  0.1432369E+00
         13   -1    0    0    0    0  0.00000000000E+00  0.00000000000E+00  0.99999944181E+02  0.10000000000E+03  0.10566000000E+00 0.  1.
         22   -1    0    0    0    0 -0.00000000000E+00 -0.00000000000E+00 -0.13165909694E+02  0.13165909694E+02  0.00000000000E+00 0.  1.
         13    1    1    2    0    0  0.32541699219E+01 -0.15631107352E+02  0.65739556006E+01  0.17266997284E+02  0.10566000000E+00 0. -1.
        996    1    1    2    0    0 -0.32541699219E+01  0.15631107352E+02  0.80260078886E+02  0.95898912412E+02  0.50000000000E+02 0.  0.
<mgrwt>
<rscale>  0 0.52487343E+02</rscale>
<asrwt>0</asrwt>
<pdfrwt beam="1">  1       13 0.10000000E+01 0.52487343E+02</pdfrwt>
<pdfrwt beam="2">  1       22 0.13165934E+00 0.52487343E+02</pdfrwt>
<totfact> 0.93141679E-01</totfact>
</mgrwt>
</event>
<event>
 4    1  0.2416490E+000  0.5149895E+02  0.7957747E-01  0.1437420E+00
         13   -1    0    0    0    0  0.00000000000E+00  0.00000000000E+00  0.99999944178E+02  0.99999999998E+02  0.10566000000E+00 0. -1.
         22   -1    0    0    0    0 -0.00000000000E+00 -0.00000000000E+00 -0.10231035073E+02  0.10231035073E+02  0.00000000000E+00 0. -1.
         13    1    1    2    0    0 -0.52042384807E+01 -0.11182931438E+02  0.14603719583E+02  0.19116010133E+02  0.10566000000E+00 0.  1.
        996    1    1    2    0    0  0.52042384807E+01  0.11182931438E+02  0.75165189522E+02  0.91115024939E+02  0.50000000000E+02 0.  0.
<mgrwt>
<rscale>  0 0.51498952E+02</rscale>
<asrwt>0</asrwt>
<pdfrwt beam="1">  1       13 0.10000000E+01 0.51498952E+02</pdfrwt>
<pdfrwt beam="2">  1       22 0.10231060E+00 0.51498952E+02</pdfrwt>
<totfact> 0.13621284E+00</totfact>
</mgrwt>
</event>
<event>
 4    1  0.2416490E+000  0.5150882E+02  0.7957747E-01  0.1437369E+00
         13   -1    0    0    0    0  0.00000000000E+00  0.00000000000E+00  0.99999944177E+02  0.99999999997E+02  0.10566000000E+00 0. -1.
         22   -1    0    0    0    0 -0.00000000000E+00 -0.00000000000E+00 -0.12202455594E+02  0.12202455594E+02  0.00000000000E+00 0. -1.
         13    1    1    2    0    0 -0.39035486020E+00  0.12369564262E+02  0.40225917702E+02  0.42086745134E+02  0.10566000000E+00 0.  1.
        996    1    1    2    0    0  0.39035486020E+00 -0.12369564262E+02  0.47571570880E+02  0.70115710457E+02  0.50000000000E+02 0.  0.
<mgrwt>
<rscale>  0 0.51508820E+02</rscale>
<asrwt>0</asrwt>
<pdfrwt beam="1">  1       13 0.10000000E+01 0.51508820E+02</pdfrwt>
<pdfrwt beam="2">  1       22 0.12202480E+00 0.51508820E+02</pdfrwt>
<totfact> 0.10465161E+00</totfact>
</mgrwt>
</event>
<event>
 4    1  0.2416490E+000  0.5280454E+02  0.7957747E-01  0.1430776E+00
         13   -1    0    0    0    0  0.00000000000E+00  0.00000000000E+00  0.99999944178E+02  0.99999999998E+02  0.10566000000E+00 0. -1.
         22   -1    0    0    0    0 -0.00000000000E+00 -0.00000000000E+00 -0.16647676523E+02  0.16647676523E+02  0.00000000000E+00 0.  1.
         13    1    1    2    0    0  0.10062021840E+02  0.13677555188E+02 -0.11328823600E+01  0.17018060580E+02  0.10566000000E+00 0.  1.
        996    1    1    2    0    0 -0.10062021840E+02 -0.13677555188E+02  0.84485150015E+02  0.99629615941E+02  0.50000000000E+02 0.  0.
<mgrwt>
<rscale>  0 0.52804543E+02</rscale>
<asrwt>0</asrwt>
<pdfrwt beam="1">  1       13 0.10000000E+01 0.52804543E+02</pdfrwt>
<pdfrwt beam="2">  1       22 0.16647700E+00 0.52804543E+02</pdfrwt>
<totfact> 0.63159637E-01</totfact>
</mgrwt>
</event>
<event>
 4    1  0.2416490E+000  0.7150261E+02  0.7957747E-01  0.1355057E+00
         13   -1    0    0    0    0  0.00000000000E+00  0.00000000000E+00  0.99999944183E+02  0.10000000000E+03  0.10566000000E+00 0. -1.
         22   -1    0    0    0    0 -0.00000000000E+00 -0.00000000000E+00 -0.47616026959E+02  0.47616026959E+02  0.00000000000E+00 0.  1.
         13    1    1    2    0    0  0.46772091218E+02  0.20615408547E+02 -0.10747398174E+02  0.52231612247E+02  0.10566000000E+00 0.  1.
        996    1    1    2    0    0 -0.46772091218E+02 -0.20615408547E+02  0.63131315398E+02  0.95384414714E+02  0.50000000000E+02 0.  0.
<mgrwt>
<rscale>  0 0.71502612E+02</rscale>
<asrwt>0</asrwt>
<pdfrwt beam="1">  1       13 0.10000000E+01 0.71502612E+02</pdfrwt>
<pdfrwt beam="2">  1       22 0.47616042E+00 0.71502612E+02</pdfrwt>
<totfact> 0.84724312E-02</totfact>
</mgrwt>
</event>
<event>
 4    1  0.2416490E+000  0.5856783E+02  0.7957747E-01  0.1403942E+00
         13   -1    0    0    0    0  0.00000000000E+00  0.00000000000E+00  0.99999944187E+02  0.10000000001E+03  0.10566000000E+00 0. -1.
         22   -1    0    0    0    0 -0.00000000000E+00 -0.00000000000E+00 -0.24870217401E+02  0.24870217401E+02  0.00000000000E+00 0.  1.
         13    1    1    2    0    0 -0.30082429752E+02 -0.50238004030E+01  0.11599128286E+01  0.30521266554E+02  0.10566000000E+00 0.  1.
        996    1    1    2    0    0  0.30082429752E+02  0.50238004030E+01  0.73969813957E+02  0.94348950854E+02  0.50000000000E+02 0.  0.
<mgrwt>
<rscale>  0 0.58567834E+02</rscale>
<asrwt>0</asrwt>
<pdfrwt beam="1">  1       13 0.10000000E+01 0.58567834E+02</pdfrwt>
<pdfrwt beam="2">  1       22 0.24870238E+00 0.58567834E+02</pdfrwt>
<totfact> 0.30073098E-01</totfact>
</mgrwt>
</event>
<event>
 4    1  0.2416490E+000  0.5144229E+02  0.7957747E-01  0.1437714E+00
         13   -1    0    0    0    0  0.00000000000E+00  0.00000000000E+00  0.99999944174E+02  0.99999999994E+02  0.10566000000E+00 0. -1.
         22   -1    0    0    0    0 -0.00000000000E+00 -0.00000000000E+00 -0.19500465447E+02  0.19500465447E+02  0.00000000000E+00 0. -1.
         13    1    1    2    0    0 -0.98914057420E+01  0.69620230680E+01 -0.98053416035E+01  0.15571305685E+02  0.10566000000E+00 0.  1.
        996    1    1    2    0    0  0.98914057420E+01 -0.69620230680E+01  0.90304820330E+02  0.10392915976E+03  0.50000000000E+02 0.  0.
<mgrwt>
<rscale>  0 0.51442295E+02</rscale>
<asrwt>0</asrwt>
<pdfrwt beam="1">  1       13 0.10000000E+01 0.51442295E+02</pdfrwt>
<pdfrwt beam="2">  1       22 0.19500488E+00 0.51442295E+02</pdfrwt>
<totfact> 0.47438409E-01</totfact>
</mgrwt>
</event>
<event>
 4    1  0.2416490E+000  0.5099684E+02  0.7957747E-01  0.1440038E+00
         13   -1    0    0    0    0  0.00000000000E+00  0.00000000000E+00  0.99999944177E+02  0.99999999998E+02  0.10566000000E+00 0. -1.
         22   -1    0    0    0    0 -0.00000000000E+00 -0.00000000000E+00 -0.11896570788E+02  0.11896570788E+02  0.00000000000E+00 0. -1.
         13    1    1    2    0    0 -0.97083697264E+01  0.25348470498E+01 -0.73552824083E-01  0.10034663241E+02  0.10566000000E+00 0.  1.
        996    1    1    2    0    0  0.97083697264E+01 -0.25348470498E+01  0.88176926213E+02  0.10186190754E+03  0.50000000000E+02 0.  0.
<mgrwt>
<rscale>  0 0.50996842E+02</rscale>
<asrwt>0</asrwt>
<pdfrwt beam="1">  1       13 0.10000000E+01 0.50996842E+02</pdfrwt>
<pdfrwt beam="2">  1       22 0.11896595E+00 0.50996842E+02</pdfrwt>
<totfact> 0.10867946E+00</totfact>
</mgrwt>
</event>
<event>
 4    1  0.2416490E+000  0.5174174E+02  0.7957747E-01  0.1436167E+00
         13   -1    0    0    0    0  0.00000000000E+00  0.00000000000E+00  0.99999944182E+02  0.10000000000E+03  0.10566000000E+00 0. -1.
         22   -1    0    0    0    0 -0.00000000000E+00 -0.00000000000E+00 -0.11090581453E+02  0.11090581453E+02  0.00000000000E+00 0. -1.
         13    1    1    2    0    0 -0.42086974814E+01  0.12629097705E+02  0.29136407640E+02  0.32033555181E+02  0.10566000000E+00 0.  1.
        996    1    1    2    0    0  0.42086974814E+01 -0.12629097705E+02  0.59772955089E+02  0.79057026274E+02  0.50000000000E+02 0.  0.
<mgrwt>
<rscale>  0 0.51741736E+02</rscale>
<asrwt>0</asrwt>
<pdfrwt beam="1">  1       13 0.10000000E+01 0.51741736E+02</pdfrwt>
<pdfrwt beam="2">  1       22 0.11090606E+00 0.51741736E+02</pdfrwt>
<totfact> 0.12101177E+00</totfact>
</mgrwt>
</event>
<event>
 4    1  0.2416490E+000  0.5534371E+02  0.7957747E-01  0.1418480E+00
         13   -1    0    0    0    0  0.00000000000E+00  0.00000000000E+00  0.99999944184E+02  0.10000000000E+03  0.10566000000E+00 0.  1.
         22   -1    0    0    0    0 -0.00000000000E+00 -0.00000000000E+00 -0.20630727523E+02  0.20630727523E+02  0.00000000000E+00 0. -1.
         13    1    1    2    0    0 -0.18371982825E+02 -0.15013202137E+02 -0.17584249444E+00  0.23726948307E+02  0.10566000000E+00 0. -1.
        996    1    1    2    0    0  0.18371982825E+02  0.15013202137E+02  0.79545059155E+02  0.96903779221E+02  0.50000000000E+02 0.  0.
<mgrwt>
<rscale>  0 0.55343708E+02</rscale>
<asrwt>0</asrwt>
<pdfrwt beam="1">  1       13 0.10000000E+01 0.55343708E+02</pdfrwt>
<pdfrwt beam="2">  1       22 0.20630750E+00 0.55343708E+02</pdfrwt>
<totfact> 0.42989761E-01</totfact>
</mgrwt>
</event>
<event>
 4    1  0.2416490E+000  0.5150039E+02  0.7957747E-01  0.1437413E+00
         13   -1    0    0    0    0  0.00000000000E+00  0.00000000000E+00  0.99999944179E+02  0.99999999999E+02  0.10566000000E+00 0.  1.
         22   -1    0    0    0    0 -0.00000000000E+00 -0.00000000000E+00 -0.12042781471E+02  0.12042781471E+02  0.00000000000E+00 0. -1.
         13    1    1    2    0    0  0.32709600917E+01  0.11899216254E+02  0.30090575972E+01  0.12702602845E+02  0.10566000000E+00 0. -1.
        996    1    1    2    0    0 -0.32709600917E+01 -0.11899216254E+02  0.84948105111E+02  0.99340178625E+02  0.50000000000E+02 0.  0.
<mgrwt>
<rscale>  0 0.51500393E+02</rscale>
<asrwt>0</asrwt>
<pdfrwt beam="1">  1       13 0.10000000E+01 0.51500393E+02</pdfrwt>
<pdfrwt beam="2">  1       22 0.12042806E+00 0.51500393E+02</pdfrwt>
<totfact> 0.10678945E+00</totfact>
</mgrwt>
</event>
<event>
 4    1  0.2416490E+000  0.5280698E+02  0.7957747E-01  0.1430764E+00
         13   -1    0    0    0    0  0.00000000000E+00  0.00000000000E+00  0.99999944181E+02  0.10000000000E+03  0.10566000000E+00 0.  1.
         22   -1    0    0    0    0 -0.00000000000E+00 -0.00000000000E+00 -0.12226368052E+02  0.12226368052E+02  0.00000000000E+00 0.  1.
         13    1    1    2    0    0  0.10179598290E+02  0.13599752958E+02  0.24474616117E+02  0.29792541012E+02  0.10566000000E+00 0. -1.
        996    1    1    2    0    0 -0.10179598290E+02 -0.13599752958E+02  0.63298960012E+02  0.82433827040E+02  0.50000000000E+02 0.  0.
<mgrwt>
<rscale>  0 0.52806983E+02</rscale>
<asrwt>0</asrwt>
<pdfrwt beam="1">  1       13 0.10000000E+01 0.52806983E+02</pdfrwt>
<pdfrwt beam="2">  1       22 0.12226393E+00 0.52806983E+02</pdfrwt>
<totfact> 0.10463640E+00</totfact>
</mgrwt>
</event>
<event>
 4    1  0.2416490E+000  0.5156867E+02  0.7957747E-01  0.1437060E+00
         13   -1    0    0    0    0  0.00000000000E+00  0.00000000000E+00  0.99999944183E+02  0.10000000000E+03  0.10566000000E+00 0. -1.
         22   -1    0    0    0    0 -0.00000000000E+00 -0.00000000000E+00 -0.27414853186E+02  0.27414853186E+02  0.00000000000E+00 0.  1.
         13    1    1    2    0    0 -0.73842366143E+01  0.10237231182E+02 -0.18705314476E+02  0.22566076449E+02  0.10566000000E+00 0.  1.
        996    1    1    2    0    0  0.73842366143E+01 -0.10237231182E+02  0.91290405472E+02  0.10484877674E+03  0.50000000000E+02 0.  0.
<mgrwt>
<rscale>  0 0.51568671E+02</rscale>
<asrwt>0</asrwt>
<pdfrwt beam="1">  1       13 0.10000000E+01 0.51568671E+02</pdfrwt>
<pdfrwt beam="2">  1       22 0.27414873E+00 0.51568671E+02</pdfrwt>
<totfact> 0.24583874E-01</totfact>
</mgrwt>
</event>
<event>
 4    1  0.2416490E+000  0.5317389E+02  0.7957747E-01  0.1428937E+00
         13   -1    0    0    0    0  0.00000000000E+00  0.00000000000E+00  0.99999944178E+02  0.99999999998E+02  0.10566000000E+00 0. -1.
         22   -1    0    0    0    0 -0.00000000000E+00 -0.00000000000E+00 -0.18262089783E+02  0.18262089783E+02  0.00000000000E+00 0.  1.
         13    1    1    2    0    0 -0.17287876612E+02 -0.53471884099E+01 -0.28798958251E+01  0.18323975160E+02  0.10566000000E+00 0.  1.
        996    1    1    2    0    0  0.17287876612E+02  0.53471884099E+01  0.84617750220E+02  0.99938114621E+02  0.50000000000E+02 0.  0.
<mgrwt>
<rscale>  0 0.53173895E+02</rscale>
<asrwt>0</asrwt>
<pdfrwt beam="1">  1       13 0.10000000E+01 0.53173895E+02</pdfrwt>
<pdfrwt beam="2">  1       22 0.18262113E+00 0.53173895E+02</pdfrwt>
<totfact> 0.53647470E-01</totfact>
</mgrwt>
</event>
<event>
 4    1  0.2416490E+000  0.5327598E+02  0.7957747E-01  0.1428432E+00
         13   -1    0    0    0    0  0.00000000000E+00  0.00000000000E+00  0.99999944179E+02  0.99999999999E+02  0.10566000000E+00 0. -1.
         22   -1    0    0    0    0 -0.00000000000E+00 -0.00000000000E+00 -0.13526407539E+02  0.13526407539E+02  0.00000000000E+00 0.  1.
         13    1    1    2    0    0  0.83310601745E+01  0.16398876081E+02  0.12013191101E+02  0.21969470290E+02  0.10566000000E+00 0.  1.
        996    1    1    2    0    0 -0.83310601745E+01 -0.16398876081E+02  0.74460345539E+02  0.91556937248E+02  0.50000000000E+02 0.  0.
<mgrwt>
<rscale>  0 0.53275977E+02</rscale>
<asrwt>0</asrwt>
<pdfrwt beam="1">  1       13 0.10000000E+01 0.53275977E+02</pdfrwt>
<pdfrwt beam="2">  1       22 0.13526432E+00 0.53275977E+02</pdfrwt>
<totfact> 0.89370530E-01</totfact>
</mgrwt>
</event>
<event>
 4    1  0.2416490E+000  0.5528081E+02  0.7957747E-01  0.1418776E+00
         13   -1    0    0    0    0  0.00000000000E+00  0.00000000000E+00  0.99999944179E+02  0.99999999999E+02  0.10566000000E+00 0. -1.
         22   -1    0    0    0    0 -0.00000000000E+00 -0.00000000000E+00 -0.16736569157E+02  0.16736569157E+02  0.00000000000E+00 0. -1.
         13    1    1    2    0    0  0.90888619989E+01 -0.21756858979E+02  0.40429221586E+02  0.46802793155E+02  0.10566000000E+00 0.  1.
        996    1    1    2    0    0 -0.90888619989E+01  0.21756858979E+02  0.42834153436E+02  0.69933776000E+02  0.50000000000E+02 0.  0.
<mgrwt>
<rscale>  0 0.55280813E+02</rscale>
<asrwt>0</asrwt>
<pdfrwt beam="1">  1       13 0.10000000E+01 0.55280813E+02</pdfrwt>
<pdfrwt beam="2">  1       22 0.16736592E+00 0.55280813E+02</pdfrwt>
<totfact> 0.62867719E-01</totfact>
</mgrwt>
</event>
<event>
 4    1  0.2416490E+000  0.7335818E+02  0.7957747E-01  0.1349032E+00
         13   -1    0    0    0    0  0.00000000000E+00  0.00000000000E+00  0.99999944184E+02  0.10000000000E+03  0.10566000000E+00 0.  1.
         22   -1    0    0    0    0 -0.00000000000E+00 -0.00000000000E+00 -0.44936438480E+02  0.44936438480E+02  0.00000000000E+00 0.  1.
         13    1    1    2    0    0 -0.52947004231E+02 -0.88338383201E+01  0.79163381033E+00  0.53684819126E+02  0.10566000000E+00 0. -1.
        996    1    1    2    0    0  0.52947004231E+02  0.88338383201E+01  0.54271871894E+02  0.91251619358E+02  0.50000000000E+02 0.  0.
<mgrwt>
<rscale>  0 0.73358176E+02</rscale>
<asrwt>0</asrwt>
<pdfrwt beam="1">  1       13 0.10000000E+01 0.73358176E+02</pdfrwt>
<pdfrwt beam="2">  1       22 0.44936454E+00 0.73358176E+02</pdfrwt>
<totfact> 0.97975305E-02</totfact>
</mgrwt>
</event>
<event>
 4    1  0.2416490E+000  0.5104687E+02  0.7957747E-01  0.1439775E+00
         13   -1    0    0    0    0  0.00000000000E+00  0.00000000000E+00  0.99999944189E+02  0.10000000001E+03  0.10566000000E+00 0.  1.
         22   -1    0    0    0    0 -0.00000000000E+00 -0.00000000000E+00 -0.27226774207E+02  0.27226774207E+02  0.00000000000E+00 0.  1.
         13    1    1    2    0    0 -0.47167004603E+01 -0.91397977732E+01 -0.19345544185E+02  0.21909915801E+02  0.10566000000E+00 0. -1.
        996    1    1    2    0    0  0.47167004603E+01  0.91397977732E+01  0.92118714167E+02  0.10531685841E+03  0.50000000000E+02 0.  0.
<mgrwt>
<rscale>  0 0.51046872E+02</rscale>
<asrwt>0</asrwt>
<pdfrwt beam="1">  1       13 0.10000000E+01 0.51046872E+02</pdfrwt>
<pdfrwt beam="2">  1       22 0.27226795E+00 0.51046872E+02</pdfrwt>
<totfact> 0.24896703E-01</totfact>
</mgrwt>
</event>
<event>
 4    1  0.2416490E+000  0.5184970E+02  0.7957747E-01  0.1435613E+00
         13   -1    0    0    0    0  0.00000000000E+00  0.00000000000E+00  0.99999944181E+02  0.10000000000E+03  0.10566000000E+00 0.  1.
         22   -1    0    0    0    0 -0.00000000000E+00 -0.00000000000E+00 -0.17172955481E+02  0.17172955481E+02  0.00000000000E+00 0. -1.
         13    1    1    2    0    0  0.65382657416E+01  0.12068236677E+02 -0.54717214868E+01  0.14776405364E+02  0.10566000000E+00 0. -1.
        996    1    1    2    0    0 -0.65382657416E+01 -0.12068236677E+02  0.88298710187E+02  0.10239655012E+03  0.50000000000E+02 0.  0.
<mgrwt>
<rscale>  0 0.51849699E+02</rscale>
<asrwt>0</asrwt>
<pdfrwt beam="1">  1       13 0.10000000E+01 0.51849699E+02</pdfrwt>
<pdfrwt beam="2">  1       22 0.17172979E+00 0.51849699E+02</pdfrwt>
<totfact> 0.59710091E-01</totfact>
</mgrwt>
</event>
<event>
 4    1  0.2416490E+000  0.6335778E+02  0.7957747E-01  0.1384258E+00
         13   -1    0    0    0    0  0.00000000000E+00  0.00000000000E+00  0.99999944182E+02  0.10000000000E+03  0.10566000000E+00 0.  1.
         22   -1    0    0    0    0 -0.00000000000E+00 -0.00000000000E+00 -0.32576047751E+02  0.32576047751E+02  0.00000000000E+00 0. -1.
         13    1    1    2    0    0 -0.74716193568E+01  0.38188789812E+02 -0.15182281530E+01  0.38942585223E+02  0.10566000000E+00 0. -1.
        996    1    1    2    0    0  0.74716193568E+01 -0.38188789812E+02  0.68942124584E+02  0.93633462529E+02  0.50000000000E+02 0.  0.
<mgrwt>
<rscale>  0 0.63357784E+02</rscale>
<asrwt>0</asrwt>
<pdfrwt beam="1">  1       13 0.10000000E+01 0.63357784E+02</pdfrwt>
<pdfrwt beam="2">  1       22 0.32576067E+00 0.63357784E+02</pdfrwt>
<totfact> 0.18037041E-01</totfact>
</mgrwt>
</event>
<event>
 4    1  0.2416490E+000  0.9348631E+02  0.7957747E-01  0.1294622E+00
         13   -1    0    0    0    0  0.00000000000E+00  0.00000000000E+00  0.99999944182E+02  0.10000000000E+03  0.10566000000E+00 0. -1.
         22   -1    0    0    0    0 -0.00000000000E+00 -0.00000000000E+00 -0.83851031062E+02  0.83851031062E+02  0.00000000000E+00 0.  1.
         13    1    1    2    0    0 -0.26382681307E+02  0.74455658136E+02 -0.23338366867E+02  0.82367356602E+02  0.10566000000E+00 0.  1.
        996    1    1    2    0    0  0.26382681307E+02 -0.74455658136E+02  0.39487279987E+02  0.10148367446E+03  0.50000000000E+02 0.  0.
<mgrwt>
<rscale>  0 0.93486314E+02</rscale>
<asrwt>0</asrwt>
<pdfrwt beam="1">  1       13 0.10000000E+01 0.93486314E+02</pdfrwt>
<pdfrwt beam="2">  1       22 0.83851036E+00 0.93486314E+02</pdfrwt>
<totfact> 0.21348979E-02</totfact>
</mgrwt>
</event>
<event>
 4    1  0.2416490E+000  0.5754838E+02  0.7957747E-01  0.1408418E+00
         13   -1    0    0    0    0  0.00000000000E+00  0.00000000000E+00  0.99999944182E+02  0.10000000000E+03  0.10566000000E+00 0.  1.
         22   -1    0    0    0    0 -0.00000000000E+00 -0.00000000000E+00 -0.67921623964E+02  0.67921623964E+02  0.00000000000E+00 0. -1.
         13    1    1    2    0    0 -0.10626119532E+02 -0.26436748270E+02 -0.55929226238E+02  0.62768667239E+02  0.10566000000E+00 0. -1.
        996    1    1    2    0    0  0.10626119532E+02  0.26436748270E+02  0.88007546455E+02  0.10515295673E+03  0.50000000000E+02 0.  0.
<mgrwt>
<rscale>  0 0.57548380E+02</rscale>
<asrwt>0</asrwt>
<pdfrwt beam="1">  1       13 0.10000000E+01 0.57548380E+02</pdfrwt>
<pdfrwt beam="2">  1       22 0.67921633E+00 0.57548380E+02</pdfrwt>
<totfact> 0.83740090E-02</totfact>
</mgrwt>
</event>
<event>
 4    1  0.2416490E+000  0.5780503E+02  0.7957747E-01  0.1407281E+00
         13   -1    0    0    0    0  0.00000000000E+00  0.00000000000E+00  0.99999944179E+02  0.99999999999E+02  0.10566000000E+00 0. -1.
         22   -1    0    0    0    0 -0.00000000000E+00 -0.00000000000E+00 -0.19189142758E+02  0.19189142758E+02  0.00000000000E+00 0. -1.
         13    1    1    2    0    0 -0.13224187386E+02  0.25817492554E+02  0.34826237688E+02  0.45324386917E+02  0.10566000000E+00 0.  1.
        996    1    1    2    0    0  0.13224187386E+02 -0.25817492554E+02  0.45984563732E+02  0.73864755841E+02  0.50000000000E+02 0.  0.
<mgrwt>
<rscale>  0 0.57805035E+02</rscale>
<asrwt>0</asrwt>
<pdfrwt beam="1">  1       13 0.10000000E+01 0.57805035E+02</pdfrwt>
<pdfrwt beam="2">  1       22 0.19189165E+00 0.57805035E+02</pdfrwt>
<totfact> 0.49410081E-01</totfact>
</mgrwt>
</event>
<event>
 4    1  0.2416490E+000  0.5311489E+02  0.7957747E-01  0.1429230E+00
         13   -1    0    0    0    0  0.00000000000E+00  0.00000000000E+00  0.99999944181E+02  0.10000000000E+03  0.10566000000E+00 0.  1.
         22   -1    0    0    0    0 -0.00000000000E+00 -0.00000000000E+00 -0.24995093980E+02  0.24995093980E+02  0.00000000000E+00 0. -1.
         13    1    1    2    0    0  0.16049274511E+02  0.79757664838E+01 -0.13043827689E+02  0.22166295770E+02  0.10566000000E+00 0. -1.
        996    1    1    2    0    0 -0.16049274511E+02 -0.79757664838E+01  0.88048677890E+02  0.10282879821E+03  0.50000000000E+02 0.  0.
<mgrwt>
<rscale>  0 0.53114895E+02</rscale>
<asrwt>0</asrwt>
<pdfrwt beam="1">  1       13 0.10000000E+01 0.53114895E+02</pdfrwt>
<pdfrwt beam="2">  1       22 0.24995115E+00 0.53114895E+02</pdfrwt>
<totfact> 0.29541799E-01</totfact>
</mgrwt>
</event>
<event>
 4    1  0.2416490E+000  0.6063410E+02  0.7957747E-01  0.1395190E+00
         13   -1    0    0    0    0  0.00000000000E+00  0.00000000000E+00  0.99999944173E+02  0.99999999993E+02  0.10566000000E+00 0. -1.
         22   -1    0    0    0    0 -0.00000000000E+00 -0.00000000000E+00 -0.37916346638E+02  0.37916346638E+02  0.00000000000E+00 0.  1.
         13    1    1    2    0    0 -0.33233715876E+02  0.84861273359E+01 -0.16985034753E+02  0.38275276585E+02  0.10566000000E+00 0.  1.
        996    1    1    2    0    0  0.33233715876E+02 -0.84861273359E+01  0.79068632288E+02  0.99641070046E+02  0.50000000000E+02 0.  0.
<mgrwt>
<rscale>  0 0.60634101E+02</rscale>
<asrwt>0</asrwt>
<pdfrwt beam="1">  1       13 0.10000000E+01 0.60634101E+02</pdfrwt>
<pdfrwt beam="2">  1       22 0.37916364E+00 0.60634101E+02</pdfrwt>
<totfact> 0.13745123E-01</totfact>
</mgrwt>
</event>
<event>
 4    1  0.2416490E+000  0.5221118E+02  0.7957747E-01  0.1433767E+00
         13   -1    0    0    0    0  0.00000000000E+00  0.00000000000E+00  0.99999944173E+02  0.99999999993E+02  0.10566000000E+00 0.  1.
         22   -1    0    0    0    0 -0.00000000000E+00 -0.00000000000E+00 -0.12983032994E+02  0.12983032994E+02  0.00000000000E+00 0. -1.
         13    1    1    2    0    0 -0.15019838999E+02  0.64151758925E+00  0.51642839263E+01  0.15896166232E+02  0.10566000000E+00 0. -1.
        996    1    1    2    0    0  0.15019838999E+02 -0.64151758925E+00  0.81852627252E+02  0.97086866756E+02  0.50000000000E+02 0.  0.
<mgrwt>
<rscale>  0 0.52211178E+02</rscale>
<asrwt>0</asrwt>
<pdfrwt beam="1">  1       13 0.10000000E+01 0.52211178E+02</pdfrwt>
<pdfrwt beam="2">  1       22 0.12983057E+00 0.52211178E+02</pdfrwt>
<totfact> 0.95165389E-01</totfact>
</mgrwt>
</event>
<event>
 4    1  0.2416490E+000  0.5247773E+02  0.7957747E-01  0.1432418E+00
         13   -1    0    0    0    0  0.00000000000E+00  0.00000000000E+00  0.99999944179E+02  0.99999999999E+02  0.10566000000E+00 0. -1.
         22   -1    0    0    0    0 -0.00000000000E+00 -0.00000000000E+00 -0.14518052746E+02  0.14518052746E+02  0.00000000000E+00 0.  1.
         13    1    1    2    0    0 -0.84443838384E+01 -0.13513140453E+02  0.22067599688E+01  0.16087061164E+02  0.10566000000E+00 0.  1.
        996    1    1    2    0    0  0.84443838384E+01  0.13513140453E+02  0.83275131464E+02  0.98430991581E+02  0.50000000000E+02 0.  0.
<mgrwt>
<rscale>  0 0.52477734E+02</rscale>
<asrwt>0</asrwt>
<pdfrwt beam="1">  1       13 0.10000000E+01 0.52477734E+02</pdfrwt>
<pdfrwt beam="2">  1       22 0.14518077E+00 0.52477734E+02</pdfrwt>
<totfact> 0.79550396E-01</totfact>
</mgrwt>
</event>
<event>
 4    1  0.2416490E+000  0.6425418E+02  0.7957747E-01  0.1380799E+00
         13   -1    0    0    0    0  0.00000000000E+00  0.00000000000E+00  0.99999944179E+02  0.99999999999E+02  0.10566000000E+00 0. -1.
         22   -1    0    0    0    0 -0.00000000000E+00 -0.00000000000E+00 -0.70724847447E+02  0.70724847447E+02  0.00000000000E+00 0.  1.
         13    1    1    2    0    0  0.25705411081E+02  0.31109995891E+02 -0.52821193187E+02  0.66473224812E+02  0.10566000000E+00 0.  1.
        996    1    1    2    0    0 -0.25705411081E+02 -0.31109995891E+02  0.82096289919E+02  0.10425162263E+03  0.50000000000E+02 0.  0.
<mgrwt>
<rscale>  0 0.64254183E+02</rscale>
<asrwt>0</asrwt>
<pdfrwt beam="1">  1       13 0.10000000E+01 0.64254183E+02</pdfrwt>
<pdfrwt beam="2">  1       22 0.70724856E+00 0.64254183E+02</pdfrwt>
<totfact> 0.70854346E-02</totfact>
</mgrwt>
</event>
<event>
 4    1  0.2416490E+000  0.5176834E+02  0.7957747E-01  0.1436030E+00
         13   -1    0    0    0    0  0.00000000000E+00  0.00000000000E+00  0.99999944183E+02  0.10000000000E+03  0.10566000000E+00 0.  1.
         22   -1    0    0    0    0 -0.00000000000E+00 -0.00000000000E+00 -0.10782736891E+02  0.10782736891E+02  0.00000000000E+00 0. -1.
         13    1    1    2    0    0 -0.46325530997E+01  0.12589703765E+02  0.24237594318E+02  0.27702587090E+02  0.10566000000E+00 0. -1.
        996    1    1    2    0    0  0.46325530997E+01 -0.12589703765E+02  0.64979612974E+02  0.83080149804E+02  0.50000000000E+02 0.  0.
<mgrwt>
<rscale>  0 0.51768342E+02</rscale>
<asrwt>0</asrwt>
<pdfrwt beam="1">  1       13 0.10000000E+01 0.51768342E+02</pdfrwt>
<pdfrwt beam="2">  1       22 0.10782762E+00 0.51768342E+02</pdfrwt>
<totfact> 0.12618607E+00</totfact>
</mgrwt>
</event>
<event>
 4    1  0.2416490E+000  0.5116353E+02  0.7957747E-01  0.1439165E+00
         13   -1    0    0    0    0  0.00000000000E+00  0.00000000000E+00  0.99999944178E+02  0.99999999998E+02  0.10566000000E+00 0.  1.
         22   -1    0    0    0    0 -0.00000000000E+00 -0.00000000000E+00 -0.97021073174E+01  0.97021073174E+01  0.00000000000E+00 0.  1.
         13    1    1    2    0    0  0.91673385003E+01  0.58023286077E+01  0.12082118656E+02  0.16238715088E+02  0.10566000000E+00 0. -1.
        996    1    1    2    0    0 -0.91673385003E+01 -0.58023286077E+01  0.78215718204E+02  0.93463392227E+02  0.50000000000E+02 0.  0.
<mgrwt>
<rscale>  0 0.51163533E+02</rscale>
<asrwt>0</asrwt>
<pdfrwt beam="1">  1       13 0.10000000E+01 0.51163533E+02</pdfrwt>
<pdfrwt beam="2">  1       22 0.97021325E-01 0.51163533E+02</pdfrwt>
<totfact> 0.14696591E+00</totfact>
</mgrwt>
</event>
<event>
 4    1  0.2416490E+000  0.5117955E+02  0.7957747E-01  0.1439081E+00
         13   -1    0    0    0    0  0.00000000000E+00  0.00000000000E+00  0.99999944180E+02  0.10000000000E+03  0.10566000000E+00 0. -1.
         22   -1    0    0    0    0 -0.00000000000E+00 -0.00000000000E+00 -0.10028367235E+02  0.10028367235E+02  0.00000000000E+00 0.  1.
         13    1    1    2    0    0  0.10218794501E+02  0.38629866715E+01  0.86173941886E+01  0.13914635235E+02  0.10566000000E+00 0.  1.
        996    1    1    2    0    0 -0.10218794501E+02 -0.38629866715E+01  0.81354182756E+02  0.96113732000E+02  0.50000000000E+02 0.  0.
<mgrwt>
<rscale>  0 0.51179551E+02</rscale>
<asrwt>0</asrwt>
<pdfrwt beam="1">  1       13 0.10000000E+01 0.51179551E+02</pdfrwt>
<pdfrwt beam="2">  1       22 0.10028392E+00 0.51179551E+02</pdfrwt>
<totfact> 0.14012293E+00</totfact>
</mgrwt>
</event>
<event>
 4    1  0.2416490E+000  0.5581396E+02  0.7957747E-01  0.1416288E+00
         13   -1    0    0    0    0  0.00000000000E+00  0.00000000000E+00  0.99999944180E+02  0.10000000000E+03  0.10566000000E+00 0.  1.
         22   -1    0    0    0    0 -0.00000000000E+00 -0.00000000000E+00 -0.39113801886E+02  0.39113801886E+02  0.00000000000E+00 0. -1.
         13    1    1    2    0    0 -0.23317804561E+02  0.84544474195E+01 -0.25943641008E+02  0.35892636619E+02  0.10566000000E+00 0. -1.
        996    1    1    2    0    0  0.23317804561E+02 -0.84544474195E+01  0.86829783302E+02  0.10322116527E+03  0.50000000000E+02 0.  0.
<mgrwt>
<rscale>  0 0.55813956E+02</rscale>
<asrwt>0</asrwt>
<pdfrwt beam="1">  1       13 0.10000000E+01 0.55813956E+02</pdfrwt>
<pdfrwt beam="2">  1       22 0.39113819E+00 0.55813956E+02</pdfrwt>
<totfact> 0.12936797E-01</totfact>
</mgrwt>
</event>
<event>
 4    1  0.2416490E+000  0.5448117E+02  0.7957747E-01  0.1422569E+00
         13   -1    0    0    0    0  0.00000000000E+00  0.00000000000E+00  0.99999944177E+02  0.99999999997E+02  0.10566000000E+00 0.  1.
         22   -1    0    0    0    0 -0.00000000000E+00 -0.00000000000E+00 -0.14564679958E+02  0.14564679958E+02  0.00000000000E+00 0.  1.
         13    1    1    2    0    0 -0.21473247096E+02 -0.26640817773E+01  0.20570489493E+02  0.29855550147E+02  0.10566000000E+00 0. -1.
        996    1    1    2    0    0  0.21473247096E+02  0.26640817773E+01  0.64864774726E+02  0.84709129808E+02  0.50000000000E+02 0.  0.
<mgrwt>
<rscale>  0 0.54481168E+02</rscale>
<asrwt>0</asrwt>
<pdfrwt beam="1">  1       13 0.10000000E+01 0.54481168E+02</pdfrwt>
<pdfrwt beam="2">  1       22 0.14564704E+00 0.54481168E+02</pdfrwt>
<totfact> 0.79450602E-01</totfact>
</mgrwt>
</event>
<event>
 4    1  0.2416490E+000  0.5159671E+02  0.7957747E-01  0.1436915E+00
         13   -1    0    0    0    0  0.00000000000E+00  0.00000000000E+00  0.99999944188E+02  0.10000000001E+03  0.10566000000E+00 0. -1.
         22   -1    0    0    0    0 -0.00000000000E+00 -0.00000000000E+00 -0.23343468689E+02  0.23343468689E+02  0.00000000000E+00 0.  1.
         13    1    1    2    0    0 -0.38443007790E+01 -0.12142549542E+02 -0.14065428096E+02  0.18975447015E+02  0.10566000000E+00 0.  1.
        996    1    1    2    0    0  0.38443007790E+01  0.12142549542E+02  0.90721903595E+02  0.10436802168E+03  0.50000000000E+02 0.  0.
<mgrwt>
<rscale>  0 0.51596707E+02</rscale>
<asrwt>0</asrwt>
<pdfrwt beam="1">  1       13 0.10000000E+01 0.51596707E+02</pdfrwt>
<pdfrwt beam="2">  1       22 0.23343490E+00 0.51596707E+02</pdfrwt>
<totfact> 0.33696422E-01</totfact>
</mgrwt>
</event>
<event>
 4    1  0.2416490E+000  0.5325970E+02  0.7957747E-01  0.1428513E+00
         13   -1    0    0    0    0  0.00000000000E+00  0.00000000000E+00  0.99999944176E+02  0.99999999996E+02  0.10566000000E+00 0. -1.
         22   -1    0    0    0    0 -0.00000000000E+00 -0.00000000000E+00 -0.12819165089E+02  0.12819165089E+02  0.00000000000E+00 0. -1.
         13    1    1    2    0    0 -0.15088393218E+02 -0.10437250395E+02  0.22627577082E+02  0.29130983752E+02  0.10566000000E+00 0.  1.
        996    1    1    2    0    0  0.15088393218E+02  0.10437250395E+02  0.64553202005E+02  0.83688181333E+02  0.50000000000E+02 0.  0.
<mgrwt>
<rscale>  0 0.53259702E+02</rscale>
<asrwt>0</asrwt>
<pdfrwt beam="1">  1       13 0.10000000E+01 0.53259702E+02</pdfrwt>
<pdfrwt beam="2">  1       22 0.12819189E+00 0.53259702E+02</pdfrwt>
<totfact> 0.97302456E-01</totfact>
</mgrwt>
</event>
<event>
 4    1  0.2416490E+000  0.5340031E+02  0.7957747E-01  0.1427819E+00
         13   -1    0    0    0    0  0.00000000000E+00  0.00000000000E+00  0.99999944177E+02  0.99999999997E+02  0.10566000000E+00 0. -1.
         22   -1    0    0    0    0 -0.00000000000E+00 -0.00000000000E+00 -0.13027798988E+02  0.13027798988E+02  0.00000000000E+00 0. -1.
         13    1    1    2    0    0 -0.12445680000E+02 -0.14024913896E+02  0.24205325819E+02  0.30618656445E+02  0.10566000000E+00 0.  1.
        996    1    1    2    0    0  0.12445680000E+02  0.14024913896E+02  0.62766819370E+02  0.82409142541E+02  0.50000000000E+02 0.  0.
<mgrwt>
<rscale>  0 0.53400310E+02</rscale>
<asrwt>0</asrwt>
<pdfrwt beam="1">  1       13 0.10000000E+01 0.53400310E+02</pdfrwt>
<pdfrwt beam="2">  1       22 0.13027823E+00 0.53400310E+02</pdfrwt>
<totfact> 0.94890397E-01</totfact>
</mgrwt>
</event>
<event>
 4    1  0.2416490E+000  0.5438922E+02  0.7957747E-01  0.1423010E+00
         13   -1    0    0    0    0  0.00000000000E+00  0.00000000000E+00  0.99999944190E+02  0.10000000001E+03  0.10566000000E+00 0.  1.
         22   -1    0    0    0    0 -0.00000000000E+00 -0.00000000000E+00 -0.19228266984E+02  0.19228266984E+02  0.00000000000E+00 0. -1.
         13    1    1    2    0    0  0.11165312173E+02 -0.18262607421E+02 -0.52909177128E+00  0.21412102369E+02  0.10566000000E+00 0. -1.
        996    1    1    2    0    0 -0.11165312173E+02  0.18262607421E+02  0.81300768977E+02  0.97816164625E+02  0.50000000000E+02 0.  0.
<mgrwt>
<rscale>  0 0.54389218E+02</rscale>
<asrwt>0</asrwt>
<pdfrwt beam="1">  1       13 0.10000000E+01 0.54389218E+02</pdfrwt>
<pdfrwt beam="2">  1       22 0.19228290E+00 0.54389218E+02</pdfrwt>
<totfact> 0.48942179E-01</totfact>
</mgrwt>
</event>
<event>
 4    1  0.2416490E+000  0.5786990E+02  0.7957747E-01  0.1406995E+00
         13   -1    0    0    0    0  0.00000000000E+00  0.00000000000E+00  0.99999944178E+02  0.99999999998E+02  0.10566000000E+00 0. -1.
         22   -1    0    0    0    0 -0.00000000000E+00 -0.00000000000E+00 -0.25283403118E+02  0.25283403118E+02  0.00000000000E+00 0.  1.
         13    1    1    2    0    0 -0.14153357823E+02 -0.25467783209E+02 -0.19801271789E+01  0.29203725566E+02  0.10566000000E+00 0.  1.
        996    1    1    2    0    0  0.14153357823E+02  0.25467783209E+02  0.76696668239E+02  0.96079677550E+02  0.50000000000E+02 0.  0.
<mgrwt>
<rscale>  0 0.57869902E+02</rscale>
<asrwt>0</asrwt>
<pdfrwt beam="1">  1       13 0.10000000E+01 0.57869902E+02</pdfrwt>
<pdfrwt beam="2">  1       22 0.25283424E+00 0.57869902E+02</pdfrwt>
<totfact> 0.29082412E-01</totfact>
</mgrwt>
</event>
<event>
 4    1  0.2416490E+000  0.5143498E+02  0.7957747E-01  0.1437752E+00
         13   -1    0    0    0    0  0.00000000000E+00  0.00000000000E+00  0.99999944177E+02  0.99999999998E+02  0.10566000000E+00 0. -1.
         22   -1    0    0    0    0 -0.00000000000E+00 -0.00000000000E+00 -0.10380514368E+02  0.10380514368E+02  0.00000000000E+00 0. -1.
         13    1    1    2    0    0 -0.53783039360E+01 -0.10799587989E+02  0.10404541369E+02  0.15931820332E+02  0.10566000000E+00 0.  1.
        996    1    1    2    0    0  0.53783039360E+01  0.10799587989E+02  0.79214888440E+02  0.94448694033E+02  0.50000000000E+02 0.  0.
<mgrwt>
<rscale>  0 0.51434981E+02</rscale>
<asrwt>0</asrwt>
<pdfrwt beam="1">  1       13 0.10000000E+01 0.51434981E+02</pdfrwt>
<pdfrwt beam="2">  1       22 0.10380539E+00 0.51434981E+02</pdfrwt>
<totfact> 0.13333813E+00</totfact>
</mgrwt>
</event>
<event>
 4    1  0.2416490E+000  0.5394022E+02  0.7957747E-01  0.1425178E+00
         13   -1    0    0    0    0  0.00000000000E+00  0.00000000000E+00  0.99999944179E+02  0.99999999999E+02  0.10566000000E+00 0. -1.
         22   -1    0    0    0    0 -0.00000000000E+00 -0.00000000000E+00 -0.14958729449E+02  0.14958729449E+02  0.00000000000E+00 0. -1.
         13    1    1    2    0    0  0.19359032401E+02  0.58970618867E+01  0.10083717145E+02  0.22610616752E+02  0.10566000000E+00 0.  1.
        996    1    1    2    0    0 -0.19359032401E+02 -0.58970618867E+01  0.74957497585E+02  0.92348112697E+02  0.50000000000E+02 0.  0.
<mgrwt>
<rscale>  0 0.53940221E+02</rscale>
<asrwt>0</asrwt>
<pdfrwt beam="1">  1       13 0.10000000E+01 0.53940221E+02</pdfrwt>
<pdfrwt beam="2">  1       22 0.14958753E+00 0.53940221E+02</pdfrwt>
<totfact> 0.75933377E-01</totfact>
</mgrwt>
</event>
<event>
 4    1  0.2416490E+000  0.5150244E+02  0.7957747E-01  0.1437402E+00
         13   -1    0    0    0    0  0.00000000000E+00  0.00000000000E+00  0.99999944177E+02  0.99999999997E+02  0.10566000000E+00 0. -1.
         22   -1    0    0    0    0 -0.00000000000E+00 -0.00000000000E+00 -0.45597309298E+02  0.45597309298E+02  0.00000000000E+00 0.  1.
         13    1    1    2    0    0  0.76346898530E+01  0.97063059154E+01 -0.37920300803E+02  0.39880587266E+02  0.10566000000E+00 0.  1.
        996    1    1    2    0    0 -0.76346898530E+01 -0.97063059154E+01  0.92322935681E+02  0.10571672203E+03  0.50000000000E+02 0.  0.
<mgrwt>
<rscale>  0 0.51502436E+02</rscale>
<asrwt>0</asrwt>
<pdfrwt beam="1">  1       13 0.10000000E+01 0.51502436E+02</pdfrwt>
<pdfrwt beam="2">  1       22 0.45597325E+00 0.51502436E+02</pdfrwt>
<totfact> 0.93618324E-02</totfact>
</mgrwt>
</event>
<event>
 4    1  0.2416490E+000  0.5721503E+02  0.7957747E-01  0.1409905E+00
         13   -1    0    0    0    0  0.00000000000E+00  0.00000000000E+00  0.99999944167E+02  0.99999999987E+02  0.10566000000E+00 0.  1.
         22   -1    0    0    0    0 -0.00000000000E+00 -0.00000000000E+00 -0.24643392620E+02  0.24643392620E+02  0.00000000000E+00 0.  1.
         13    1    1    2    0    0 -0.27797696308E+02  0.92082350948E+00 -0.26106026296E+01  0.27935394146E+02  0.10566000000E+00 0. -1.
        996    1    1    2    0    0  0.27797696308E+02 -0.92082350948E+00  0.77967154177E+02  0.96707998461E+02  0.50000000000E+02 0.  0.
<mgrwt>
<rscale>  0 0.57215032E+02</rscale>
<asrwt>0</asrwt>
<pdfrwt beam="1">  1       13 0.10000000E+01 0.57215032E+02</pdfrwt>
<pdfrwt beam="2">  1       22 0.24643414E+00 0.57215032E+02</pdfrwt>
<totfact> 0.30563156E-01</totfact>
</mgrwt>
</event>
<event>
 4    1  0.2416490E+000  0.5991871E+02  0.7957747E-01  0.1398173E+00
         13   -1    0    0    0    0  0.00000000000E+00  0.00000000000E+00  0.99999944181E+02  0.10000000000E+03  0.10566000000E+00 0. -1.
         22   -1    0    0    0    0 -0.00000000000E+00 -0.00000000000E+00 -0.54037076081E+02  0.54037076081E+02  0.00000000000E+00 0.  1.
         13    1    1    2    0    0  0.46456081852E+00  0.33015686181E+02 -0.38347049903E+02  0.50603940074E+02  0.10566000000E+00 0.  1.
        996    1    1    2    0    0 -0.46456081852E+00 -0.33015686181E+02  0.84309918003E+02  0.10343313601E+03  0.50000000000E+02 0.  0.
<mgrwt>
<rscale>  0 0.59918706E+02</rscale>
<asrwt>0</asrwt>
<pdfrwt beam="1">  1       13 0.10000000E+01 0.59918706E+02</pdfrwt>
<pdfrwt beam="2">  1       22 0.54037089E+00 0.59918706E+02</pdfrwt>
<totfact> 0.60679836E-02</totfact>
</mgrwt>
</event>
<event>
 4    1  0.2416490E+000  0.5108002E+02  0.7957747E-01  0.1439602E+00
         13   -1    0    0    0    0  0.00000000000E+00  0.00000000000E+00  0.99999944182E+02  0.10000000000E+03  0.10566000000E+00 0.  1.
         22   -1    0    0    0    0 -0.00000000000E+00 -0.00000000000E+00 -0.22703337613E+02  0.22703337613E+02  0.00000000000E+00 0. -1.
         13    1    1    2    0    0  0.30465376008E+01 -0.99943359485E+01 -0.14368984561E+02  0.17766457828E+02  0.10566000000E+00 0. -1.
        996    1    1    2    0    0 -0.30465376008E+01  0.99943359485E+01  0.91665591130E+02  0.10493687979E+03  0.50000000000E+02 0.  0.
<mgrwt>
<rscale>  0 0.51080017E+02</rscale>
<asrwt>0</asrwt>
<pdfrwt beam="1">  1       13 0.10000000E+01 0.51080017E+02</pdfrwt>
<pdfrwt beam="2">  1       22 0.22703359E+00 0.51080017E+02</pdfrwt>
<totfact> 0.35536476E-01</totfact>
</mgrwt>
</event>
<event>
 4    1  0.2416490E+000  0.5355396E+02  0.7957747E-01  0.1427064E+00
         13   -1    0    0    0    0  0.00000000000E+00  0.00000000000E+00  0.99999944177E+02  0.99999999997E+02  0.10566000000E+00 0. -1.
         22   -1    0    0    0    0 -0.00000000000E+00 -0.00000000000E+00 -0.13358692854E+02  0.13358692854E+02  0.00000000000E+00 0.  1.
         13    1    1    2    0    0  0.62304425030E+01 -0.18144083291E+02  0.18088073764E+02  0.26366944244E+02  0.10566000000E+00 0.  1.
        996    1    1    2    0    0 -0.62304425030E+01  0.18144083291E+02  0.68553177559E+02  0.86991748607E+02  0.50000000000E+02 0.  0.
<mgrwt>
<rscale>  0 0.53553956E+02</rscale>
<asrwt>0</asrwt>
<pdfrwt beam="1">  1       13 0.10000000E+01 0.53553956E+02</pdfrwt>
<pdfrwt beam="2">  1       22 0.13358717E+00 0.53553956E+02</pdfrwt>
<totfact> 0.91220811E-01</totfact>
</mgrwt>
</event>
<event>
 4    1  0.2416490E+000  0.5135250E+02  0.7957747E-01  0.1438180E+00
         13   -1    0    0    0    0  0.00000000000E+00  0.00000000000E+00  0.99999944174E+02  0.99999999994E+02  0.10566000000E+00 0.  1.
         22   -1    0    0    0    0 -0.00000000000E+00 -0.00000000000E+00 -0.39362498658E+02  0.39362498658E+02  0.00000000000E+00 0. -1.
         13    1    1    2    0    0  0.46108297865E+00 -0.11699003460E+02 -0.31651904889E+02  0.33748089229E+02  0.10566000000E+00 0. -1.
        996    1    1    2    0    0 -0.46108297865E+00  0.11699003460E+02  0.92289350405E+02  0.10561440942E+03  0.50000000000E+02 0.  0.
<mgrwt>
<rscale>  0 0.51352500E+02</rscale>
<asrwt>0</asrwt>
<pdfrwt beam="1">  1       13 0.10000000E+01 0.51352500E+02</pdfrwt>
<pdfrwt beam="2">  1       22 0.39362516E+00 0.51352500E+02</pdfrwt>
<totfact> 0.12740074E-01</totfact>
</mgrwt>
</event>
<event>
 4    1  0.2416490E+000  0.5555924E+02  0.7957747E-01  0.1417473E+00
         13   -1    0    0    0    0  0.00000000000E+00  0.00000000000E+00  0.99999944182E+02  0.10000000000E+03  0.10566000000E+00 0. -1.
         22   -1    0    0    0    0 -0.00000000000E+00 -0.00000000000E+00 -0.16170311473E+02  0.16170311473E+02  0.00000000000E+00 0.  1.
         13    1    1    2    0    0  0.22515452317E+02 -0.89377697025E+01  0.18975494863E+02  0.30771900975E+02  0.10566000000E+00 0.  1.
        996    1    1    2    0    0 -0.22515452317E+02  0.89377697025E+01  0.64854137846E+02  0.85398410501E+02  0.50000000000E+02 0.  0.
<mgrwt>
<rscale>  0 0.55559242E+02</rscale>
<asrwt>0</asrwt>
<pdfrwt beam="1">  1       13 0.10000000E+01 0.55559242E+02</pdfrwt>
<pdfrwt beam="2">  1       22 0.16170335E+00 0.55559242E+02</pdfrwt>
<totfact> 0.66763113E-01</totfact>
</mgrwt>
</event>
<event>
 4    1  0.2416490E+000  0.5151303E+02  0.7957747E-01  0.1437347E+00
         13   -1    0    0    0    0  0.00000000000E+00  0.00000000000E+00  0.99999944181E+02  0.10000000000E+03  0.10566000000E+00 0.  1.
         22   -1    0    0    0    0 -0.00000000000E+00 -0.00000000000E+00 -0.11212885366E+02  0.11212885366E+02  0.00000000000E+00 0.  1.
         13    1    1    2    0    0  0.13541997191E+01  0.12319039799E+02  0.33145974206E+02  0.35387276930E+02  0.10566000000E+00 0. -1.
        996    1    1    2    0    0 -0.13541997191E+01 -0.12319039799E+02  0.55641084609E+02  0.75825608437E+02  0.50000000000E+02 0.  0.
<mgrwt>
<rscale>  0 0.51513033E+02</rscale>
<asrwt>0</asrwt>
<pdfrwt beam="1">  1       13 0.10000000E+01 0.51513033E+02</pdfrwt>
<pdfrwt beam="2">  1       22 0.11212910E+00 0.51513033E+02</pdfrwt>
<totfact> 0.11898238E+00</totfact>
</mgrwt>
</event>
