<event>
 5    1  0.1338396E-008  0.3735831E+03  0.7957747E-01  0.3479584E+00
         13   -1    0    0    0    0  0.00000000000E+00  0.00000000000E+00  0.14999999963E+04  0.15000000000E+04  0.10566000000E+00 0.  1.
        994   -1    0    0    0    0 -0.00000000000E+00 -0.00000000000E+00  0.11368683772E-12  0.17120000000E+03  0.17120000000E+03 0.  0.
         13    1    1    2    0    0  0.13163043184E+02 -0.24306807027E+02  0.47536080319E+02  0.54988877692E+02  0.10566000000E+00 0.  1.
        994    1    1    2    0    0 -0.28892992091E+02  0.14041592767E+02  0.10940975948E+02  0.17453113268E+03  0.17120000000E+03 0.  0.
        998    1    1    2    0    0  0.15729948907E+02  0.10265214260E+02  0.14415229400E+04  0.14416799896E+04  0.10000000000E+02 0.  1.
</event>
<event>
 5    1  0.1338396E-008  0.3854263E+03  0.7957747E-01  0.3427866E+00
         13   -1    0    0    0    0  0.00000000000E+00  0.00000000000E+00  0.14999999963E+04  0.15000000000E+04  0.10566000000E+00 0.  1.
        994   -1    0    0    0    0 -0.00000000000E+00 -0.00000000000E+00  0.11368683772E-12  0.17120000000E+03  0.17120000000E+03 0.  0.
         13    1    1    2    0    0 -0.96519134737E+01  0.31415878902E+01  0.37226879685E+02  0.38586017459E+02  0.10566000000E+00 0.  1.
        994    1    1    2    0    0  0.45577993152E+01  0.64687027875E+01  0.16243145565E+01  0.17139047829E+03  0.17120000000E+03 0.  0.
        998    1    1    2    0    0  0.50941141585E+01 -0.96102906777E+01  0.14611488020E+04  0.14612235043E+04  0.10000000000E+02 0.  1.
</event>
<event>
 5    1  0.1338396E-008  0.3728319E+03  0.7957747E-01  0.3482976E+00
         13   -1    0    0    0    0  0.00000000000E+00  0.00000000000E+00  0.14999999963E+04  0.15000000000E+04  0.10566000000E+00 0. -1.
        994   -1    0    0    0    0 -0.00000000000E+00 -0.00000000000E+00  0.11368683772E-12  0.17120000000E+03  0.17120000000E+03 0.  0.
         13    1    1    2    0    0 -0.12809703740E+02 -0.10792964691E+02  0.14776148795E+02  0.22336569432E+02  0.10566000000E+00 0. -1.
        994    1    1    2    0    0  0.82840960411E+01 -0.32389947189E+00  0.80317193105E+01  0.17158869331E+03  0.17120000000E+03 0.  0.
        998    1    1    2    0    0  0.45256076986E+01  0.11116864163E+02  0.14771921282E+04  0.14772747373E+04  0.10000000000E+02 0. -1.
</event>
<event>
 5    1  0.1885321E-008  0.3847554E+03  0.7957747E-01  0.3430710E+00
         13   -1    0    0    0    0  0.00000000000E+00  0.00000000000E+00  0.14999999963E+04  0.15000000000E+04  0.10566000000E+00 0.  1.
        994   -1    0    0    0    0 -0.00000000000E+00 -0.00000000000E+00  0.11368683772E-12  0.17120000000E+03  0.17120000000E+03 0.  0.
         13    1    1    2    0    0 -0.29411406842E+01 -0.10124246645E+02  0.30707948586E+02  0.32467521449E+02  0.10566000000E+00 0.  1.
        994    1    1    2    0    0  0.22819667459E+01  0.12294215236E+02  0.22664026006E+01  0.17167099837E+03  0.17120000000E+03 0.  0.
        998    1    1    2    0    0  0.65917393832E+00 -0.21699685918E+01  0.14670256451E+04  0.14670614802E+04  0.10000000000E+02 0.  1.
</event>
<event>
 5    1  0.1338396E-008  0.3808441E+03  0.7957747E-01  0.3447491E+00
         13   -1    0    0    0    0  0.00000000000E+00  0.00000000000E+00  0.14999999963E+04  0.15000000000E+04  0.10566000000E+00 0. -1.
        994   -1    0    0    0    0 -0.00000000000E+00 -0.00000000000E+00  0.11368683772E-12  0.17120000000E+03  0.17120000000E+03 0.  0.
         13    1    1    2    0    0  0.99209200675E+00  0.23805737608E+02  0.76649821160E+02  0.80267699839E+02  0.10566000000E+00 0. -1.
        994    1    1    2    0    0 -0.20931458856E+02 -0.10545720032E+02  0.55410842246E+01  0.17288574781E+03  0.17120000000E+03 0.  0.
        998    1    1    2    0    0  0.19939366849E+02 -0.13260017576E+02  0.14178090909E+04  0.14180465524E+04  0.10000000000E+02 0. -1.
</event>
<event>
 5    1  0.1338396E-008  0.3848113E+03  0.7957747E-01  0.3430473E+00
         13   -1    0    0    0    0  0.00000000000E+00  0.00000000000E+00  0.14999999963E+04  0.15000000000E+04  0.10566000000E+00 0. -1.
        994   -1    0    0    0    0 -0.00000000000E+00 -0.00000000000E+00  0.11368683772E-12  0.17120000000E+03  0.17120000000E+03 0.  0.
         13    1    1    2    0    0  0.14084895981E+02  0.53363981637E+00  0.57316613279E+02  0.59024354194E+02  0.10566000000E+00 0. -1.
        994    1    1    2    0    0 -0.99676280121E+01  0.60112983512E+00  0.20520270051E+01  0.17150325297E+03  0.17120000000E+03 0.  0.
        998    1    1    2    0    0 -0.41172679685E+01 -0.11347696515E+01  0.14406313560E+04  0.14406723928E+04  0.10000000000E+02 0. -1.
</event>
<event>
 5    1  0.1338396E-008  0.3748372E+03  0.7957747E-01  0.3473951E+00
         13   -1    0    0    0    0  0.00000000000E+00  0.00000000000E+00  0.14999999963E+04  0.15000000000E+04  0.10566000000E+00 0. -1.
        994   -1    0    0    0    0 -0.00000000000E+00 -0.00000000000E+00  0.11368683772E-12  0.17120000000E+03  0.17120000000E+03 0.  0.
         13    1    1    2    0    0 -0.26803072808E+01  0.63029799157E+02  0.29194955383E+03  0.29868795217E+03  0.10566000000E+00 0. -1.
        994    1    1    2    0    0  0.35316344999E+02 -0.36269422238E+02  0.15528726654E+02  0.17920183192E+03  0.17120000000E+03 0.  0.
        998    1    1    2    0    0 -0.32636037718E+02 -0.26760376919E+02  0.11925217158E+04  0.11933102159E+04  0.10000000000E+02 0. -1.
</event>
<event>
 5    1  0.1338396E-008  0.3718624E+03  0.7957747E-01  0.3487375E+00
         13   -1    0    0    0    0  0.00000000000E+00  0.00000000000E+00  0.14999999963E+04  0.15000000000E+04  0.10566000000E+00 0. -1.
        994   -1    0    0    0    0 -0.00000000000E+00 -0.00000000000E+00  0.11368683772E-12  0.17120000000E+03  0.17120000000E+03 0.  0.
         13    1    1    2    0    0  0.99244018895E+02  0.38450063173E+02  0.35130171106E+03  0.36707041014E+03  0.10566000000E+00 0. -1.
        994    1    1    2    0    0 -0.10035438816E+03 -0.39042896694E+02  0.53931622687E+02  0.20931653287E+03  0.17120000000E+03 0.  0.
        998    1    1    2    0    0  0.11103692633E+01  0.59283352097E+00  0.10947666625E+04  0.10948130570E+04  0.10000000000E+02 0.  0.
</event>
<event>
 5    1  0.1338396E-008  0.3814904E+03  0.7957747E-01  0.3444694E+00
         13   -1    0    0    0    0  0.00000000000E+00  0.00000000000E+00  0.14999999963E+04  0.15000000000E+04  0.10566000000E+00 0. -1.
        994   -1    0    0    0    0 -0.00000000000E+00 -0.00000000000E+00  0.11368683772E-12  0.17120000000E+03  0.17120000000E+03 0.  0.
         13    1    1    2    0    0  0.31960019293E+02 -0.37255066327E+02  0.26087751338E+03  0.26545521458E+03  0.10566000000E+00 0. -1.
        994    1    1    2    0    0 -0.41814479318E+02  0.46498026828E+02  0.16502201082E+02  0.18300896104E+03  0.17120000000E+03 0.  0.
        998    1    1    2    0    0  0.98544600251E+01 -0.92429605006E+01  0.12226202818E+04  0.12227358244E+04  0.10000000000E+02 0. -1.
</event>
<event>
 5    1  0.1338396E-008  0.3837838E+03  0.7957747E-01  0.3434847E+00
         13   -1    0    0    0    0  0.00000000000E+00  0.00000000000E+00  0.14999999963E+04  0.15000000000E+04  0.10566000000E+00 0.  1.
        994   -1    0    0    0    0 -0.00000000000E+00 -0.00000000000E+00  0.11368683772E-12  0.17120000000E+03  0.17120000000E+03 0.  0.
         13    1    1    2    0    0  0.20617195446E+02 -0.12106871828E+02  0.13261836949E+03  0.13475640313E+03  0.10566000000E+00 0.  1.
        994    1    1    2    0    0 -0.11578681412E+02 -0.85637718298E+00  0.26803322740E+01  0.17161417024E+03  0.17120000000E+03 0.  0.
        998    1    1    2    0    0 -0.90385140342E+01  0.12963249011E+02  0.13647012945E+04  0.13648294266E+04  0.10000000000E+02 0.  1.
</event>
<event>
 5    1  0.1338396E-008  0.3732857E+03  0.7957747E-01  0.3480926E+00
         13   -1    0    0    0    0  0.00000000000E+00  0.00000000000E+00  0.14999999963E+04  0.15000000000E+04  0.10566000000E+00 0. -1.
        994   -1    0    0    0    0 -0.00000000000E+00 -0.00000000000E+00  0.11368683772E-12  0.17120000000E+03  0.17120000000E+03 0.  0.
         13    1    1    2    0    0  0.13483669767E+01  0.99471568240E+01  0.31294027004E+01  0.10515148486E+02  0.10566000000E+00 0. -1.
        994    1    1    2    0    0 -0.46428304509E+01 -0.79216777463E+01  0.78500156979E+01  0.17162567290E+03  0.17120000000E+03 0.  0.
        998    1    1    2    0    0  0.32944634742E+01 -0.20254790776E+01  0.14890205779E+04  0.14890591786E+04  0.10000000000E+02 0. -1.
</event>
<event>
 5    1  0.1338396E-008  0.3859355E+03  0.7957747E-01  0.3425714E+00
         13   -1    0    0    0    0  0.00000000000E+00  0.00000000000E+00  0.14999999963E+04  0.15000000000E+04  0.10566000000E+00 0. -1.
        994   -1    0    0    0    0 -0.00000000000E+00 -0.00000000000E+00  0.11368683772E-12  0.17120000000E+03  0.17120000000E+03 0.  0.
         13    1    1    2    0    0  0.35725041367E+01 -0.12140450091E+02  0.70584485504E+02  0.71710069531E+02  0.10566000000E+00 0. -1.
        994    1    1    2    0    0  0.60935317560E+01  0.83554302385E+01  0.15170907985E+01  0.17151876255E+03  0.17120000000E+03 0.  0.
        998    1    1    2    0    0 -0.96660358928E+01  0.37850198526E+01  0.14278984200E+04  0.14279711679E+04  0.10000000000E+02 0. -1.
</event>
<event>
 5    1  0.1338396E-008  0.3847545E+03  0.7957747E-01  0.3430714E+00
         13   -1    0    0    0    0  0.00000000000E+00  0.00000000000E+00  0.14999999963E+04  0.15000000000E+04  0.10566000000E+00 0. -1.
        994   -1    0    0    0    0 -0.00000000000E+00 -0.00000000000E+00  0.11368683772E-12  0.17120000000E+03  0.17120000000E+03 0.  0.
         13    1    1    2    0    0 -0.96090342352E+01  0.10866823040E+02  0.61674442494E+02  0.63357473142E+02  0.10566000000E+00 0. -1.
        994    1    1    2    0    0  0.97389620092E+01  0.21287095059E+01  0.20792368075E+01  0.17150260060E+03  0.17120000000E+03 0.  0.
        998    1    1    2    0    0 -0.12992777397E+00 -0.12995532546E+02  0.14362463170E+04  0.14363399263E+04  0.10000000000E+02 0. -1.
</event>
<event>
 5    1  0.1721487E-008  0.3855958E+03  0.7957747E-01  0.3427149E+00
         13   -1    0    0    0    0  0.00000000000E+00  0.00000000000E+00  0.14999999963E+04  0.15000000000E+04  0.10566000000E+00 0.  1.
        994   -1    0    0    0    0 -0.00000000000E+00 -0.00000000000E+00  0.11368683772E-12  0.17120000000E+03  0.17120000000E+03 0.  0.
         13    1    1    2    0    0 -0.79139680616E+01 -0.61542460705E+01  0.37617794221E+02  0.38930903422E+02  0.10566000000E+00 0.  1.
        994    1    1    2    0    0  0.35287803632E+01  0.79931087837E+01  0.15852182462E+01  0.17143014611E+03  0.17120000000E+03 0.  0.
        998    1    1    2    0    0  0.43851876984E+01 -0.18388627132E+01  0.14607969838E+04  0.14608389505E+04  0.10000000000E+02 0.  1.
</event>
<event>
 5    1  0.1338396E-008  0.3792419E+03  0.7957747E-01  0.3454466E+00
         13   -1    0    0    0    0  0.00000000000E+00  0.00000000000E+00  0.14999999963E+04  0.15000000000E+04  0.10566000000E+00 0. -1.
        994   -1    0    0    0    0 -0.00000000000E+00 -0.00000000000E+00  0.11368683772E-12  0.17120000000E+03  0.17120000000E+03 0.  0.
         13    1    1    2    0    0 -0.60239334954E+01  0.13649476075E+02  0.22795529682E+02  0.27244142662E+02  0.10566000000E+00 0. -1.
        994    1    1    2    0    0  0.29607134133E+01 -0.95884670778E+01  0.48538940189E+01  0.17156253907E+03  0.17120000000E+03 0.  0.
        998    1    1    2    0    0  0.30632200821E+01 -0.40610089972E+01  0.14723505726E+04  0.14723933183E+04  0.10000000000E+02 0. -1.
</event>
<event>
 5    1  0.1338396E-008  0.3818450E+03  0.7957747E-01  0.3443164E+00
         13   -1    0    0    0    0  0.00000000000E+00  0.00000000000E+00  0.14999999963E+04  0.15000000000E+04  0.10566000000E+00 0. -1.
        994   -1    0    0    0    0 -0.00000000000E+00 -0.00000000000E+00  0.11368683772E-12  0.17120000000E+03  0.17120000000E+03 0.  0.
         13    1    1    2    0    0  0.26718794064E+02  0.39702553121E+02  0.28894018085E+03  0.29287646876E+03  0.10566000000E+00 0. -1.
        994    1    1    2    0    0 -0.26910080162E+02 -0.40301600091E+02  0.11047155602E+02  0.17826904115E+03  0.17120000000E+03 0.  0.
        998    1    1    2    0    0  0.19128609733E+00  0.59904697035E+00  0.12000126598E+04  0.12000544901E+04  0.10000000000E+02 0.  0.
</event>
<event>
 5    1  0.1338396E-008  0.4108993E+03  0.7957747E-01  0.3326747E+00
         13   -1    0    0    0    0  0.00000000000E+00  0.00000000000E+00  0.14999999963E+04  0.15000000000E+04  0.10566000000E+00 0.  1.
        994   -1    0    0    0    0 -0.00000000000E+00 -0.00000000000E+00  0.11368683772E-12  0.17120000000E+03  0.17120000000E+03 0.  0.
         13    1    1    2    0    0 -0.60618997571E+02  0.51457333919E+02  0.74813398942E+02  0.10917681029E+03  0.10566000000E+00 0.  1.
        994    1    1    2    0    0  0.36293722823E+02 -0.91222651071E+02  0.75199854998E+02  0.21119484979E+03  0.17120000000E+03 0.  0.
        998    1    1    2    0    0  0.24325274748E+02  0.39765317152E+02  0.13499867423E+04  0.13508283399E+04  0.10000000000E+02 0.  1.
</event>
<event>
 5    1  0.1338396E-008  0.3788600E+03  0.7957747E-01  0.3456137E+00
         13   -1    0    0    0    0  0.00000000000E+00  0.00000000000E+00  0.14999999963E+04  0.15000000000E+04  0.10566000000E+00 0.  1.
        994   -1    0    0    0    0 -0.00000000000E+00 -0.00000000000E+00  0.11368683772E-12  0.17120000000E+03  0.17120000000E+03 0.  0.
         13    1    1    2    0    0 -0.12430847171E+02  0.19570416434E+02  0.10876900151E+02  0.25609476404E+02  0.10566000000E+00 0.  1.
        994    1    1    2    0    0  0.79872462495E+01  0.80078876133E+01  0.16164321178E+02  0.17233295577E+03  0.17120000000E+03 0.  0.
        998    1    1    2    0    0  0.44436009211E+01 -0.27578304047E+02  0.14729587749E+04  0.14732575678E+04  0.10000000000E+02 0.  1.
</event>
<event>
 5    1  0.1338396E-008  0.3833208E+03  0.7957747E-01  0.3436825E+00
         13   -1    0    0    0    0  0.00000000000E+00  0.00000000000E+00  0.14999999963E+04  0.15000000000E+04  0.10566000000E+00 0. -1.
        994   -1    0    0    0    0 -0.00000000000E+00 -0.00000000000E+00  0.11368683772E-12  0.17120000000E+03  0.17120000000E+03 0.  0.
         13    1    1    2    0    0 -0.17728324926E+02  0.18339028294E+02  0.14045606799E+03  0.14275339458E+03  0.10566000000E+00 0. -1.
        994    1    1    2    0    0  0.59562347599E+01 -0.36375382293E+01  0.26272045852E+01  0.17136233723E+03  0.17120000000E+03 0.  0.
        998    1    1    2    0    0  0.11772090166E+02 -0.14701490064E+02  0.13569167237E+04  0.13570842682E+04  0.10000000000E+02 0. -1.
</event>
<event>
 5    1  0.1338396E-008  0.3889821E+03  0.7957747E-01  0.3412957E+00
         13   -1    0    0    0    0  0.00000000000E+00  0.00000000000E+00  0.14999999963E+04  0.15000000000E+04  0.10566000000E+00 0. -1.
        994   -1    0    0    0    0 -0.00000000000E+00 -0.00000000000E+00  0.11368683772E-12  0.17120000000E+03  0.17120000000E+03 0.  0.
         13    1    1    2    0    0 -0.70367817812E+02  0.27597833178E+02  0.14575801479E+03  0.16419098702E+03  0.10566000000E+00 0. -1.
        994    1    1    2    0    0  0.84842048586E+01 -0.66991776532E+01  0.21789748451E+02  0.17291932758E+03  0.17120000000E+03 0.  0.
        998    1    1    2    0    0  0.61883612953E+02 -0.20898655525E+02  0.13324522330E+04  0.13340896854E+04  0.10000000000E+02 0. -1.
</event>
<event>
 5    1  0.1338396E-008  0.3853561E+03  0.7957747E-01  0.3428163E+00
         13   -1    0    0    0    0  0.00000000000E+00  0.00000000000E+00  0.14999999963E+04  0.15000000000E+04  0.10566000000E+00 0.  1.
        994   -1    0    0    0    0 -0.00000000000E+00 -0.00000000000E+00  0.11368683772E-12  0.17120000000E+03  0.17120000000E+03 0.  0.
         13    1    1    2    0    0  0.59063375196E+00 -0.15298211295E+02  0.74442547498E+02  0.76000579991E+02  0.10566000000E+00 0.  1.
        994    1    1    2    0    0 -0.69236794473E+01  0.21663128490E+02  0.31543124785E+01  0.17273279411E+03  0.17120000000E+03 0.  0.
        998    1    1    2    0    0  0.63330456953E+01 -0.63649171951E+01  0.14224031363E+04  0.14224666259E+04  0.10000000000E+02 0.  1.
</event>
<event>
 5    1  0.1338396E-008  0.3846868E+03  0.7957747E-01  0.3431002E+00
         13   -1    0    0    0    0  0.00000000000E+00  0.00000000000E+00  0.14999999963E+04  0.15000000000E+04  0.10566000000E+00 0.  1.
        994   -1    0    0    0    0 -0.00000000000E+00 -0.00000000000E+00  0.11368683772E-12  0.17120000000E+03  0.17120000000E+03 0.  0.
         13    1    1    2    0    0 -0.65192596430E+01  0.12190983908E+02  0.56172100717E+02  0.57848395812E+02  0.10566000000E+00 0.  1.
        994    1    1    2    0    0  0.35935452793E+01  0.18051615074E+01  0.18389530628E+01  0.17125709890E+03  0.17120000000E+03 0.  0.
        998    1    1    2    0    0  0.29257143637E+01 -0.13996145416E+02  0.14419889425E+04  0.14420945053E+04  0.10000000000E+02 0.  1.
</event>
<event>
 5    1  0.1338396E-008  0.3819011E+03  0.7957747E-01  0.3442922E+00
         13   -1    0    0    0    0  0.00000000000E+00  0.00000000000E+00  0.14999999963E+04  0.15000000000E+04  0.10566000000E+00 0.  1.
        994   -1    0    0    0    0 -0.00000000000E+00 -0.00000000000E+00  0.11368683772E-12  0.17120000000E+03  0.17120000000E+03 0.  0.
         13    1    1    2    0    0  0.21503007624E+02  0.10358001070E+02  0.85041820646E+02  0.88327741655E+02  0.10566000000E+00 0.  1.
        994    1    1    2    0    0 -0.26292385584E+02  0.20459036940E+01  0.54903640388E+01  0.17330625886E+03  0.17120000000E+03 0.  0.
        998    1    1    2    0    0  0.47893779602E+01 -0.12403904764E+02  0.14094678116E+04  0.14095659995E+04  0.10000000000E+02 0.  1.
</event>
<event>
 5    1  0.1338396E-008  0.3840146E+03  0.7957747E-01  0.3433862E+00
         13   -1    0    0    0    0  0.00000000000E+00  0.00000000000E+00  0.14999999963E+04  0.15000000000E+04  0.10566000000E+00 0. -1.
        994   -1    0    0    0    0 -0.00000000000E+00 -0.00000000000E+00  0.11368683772E-12  0.17120000000E+03  0.17120000000E+03 0.  0.
         13    1    1    2    0    0  0.18765277248E+02  0.29715810971E+00  0.81358978657E+02  0.83495619678E+02  0.10566000000E+00 0. -1.
        994    1    1    2    0    0 -0.14470173276E+02 -0.51516288901E+01  0.28988876423E+01  0.17191209598E+03  0.17120000000E+03 0.  0.
        998    1    1    2    0    0 -0.42951039711E+01  0.48544707804E+01  0.14157421300E+04  0.14157922843E+04  0.10000000000E+02 0. -1.
</event>
<event>
 5    1  0.1338396E-008  0.3846369E+03  0.7957747E-01  0.3431213E+00
         13   -1    0    0    0    0  0.00000000000E+00  0.00000000000E+00  0.14999999963E+04  0.15000000000E+04  0.10566000000E+00 0. -1.
        994   -1    0    0    0    0 -0.00000000000E+00 -0.00000000000E+00  0.11368683772E-12  0.17120000000E+03  0.17120000000E+03 0.  0.
         13    1    1    2    0    0  0.17789654504E+02 -0.60410705423E+01  0.98838948000E+02  0.10060872301E+03  0.10566000000E+00 0. -1.
        994    1    1    2    0    0 -0.87869130331E+01  0.48659151430E+01  0.21427484317E+01  0.17150777925E+03  0.17120000000E+03 0.  0.
        998    1    1    2    0    0 -0.90027414711E+01  0.11751553993E+01  0.13990182998E+04  0.13990834977E+04  0.10000000000E+02 0. -1.
</event>
<event>
 5    1  0.1338396E-008  0.3690208E+03  0.7957747E-01  0.3500403E+00
         13   -1    0    0    0    0  0.00000000000E+00  0.00000000000E+00  0.14999999963E+04  0.15000000000E+04  0.10566000000E+00 0.  1.
        994   -1    0    0    0    0 -0.00000000000E+00 -0.00000000000E+00  0.11368683772E-12  0.17120000000E+03  0.17120000000E+03 0.  0.
         13    1    1    2    0    0  0.14741127027E+02 -0.35742932408E+01  0.88416476447E+01  0.17557400015E+02  0.10566000000E+00 0.  1.
        994    1    1    2    0    0  0.75089349551E+02 -0.93006094256E+01  0.29915283076E+02  0.18955019365E+03  0.17120000000E+03 0.  0.
        998    1    1    2    0    0 -0.89830476578E+02  0.12874902666E+02  0.14612430656E+04  0.14640924063E+04  0.10000000000E+02 0.  1.
</event>
<event>
 5    1  0.1338396E-008  0.3728990E+03  0.7957747E-01  0.3482673E+00
         13   -1    0    0    0    0  0.00000000000E+00  0.00000000000E+00  0.14999999963E+04  0.15000000000E+04  0.10566000000E+00 0. -1.
        994   -1    0    0    0    0 -0.00000000000E+00 -0.00000000000E+00  0.11368683772E-12  0.17120000000E+03  0.17120000000E+03 0.  0.
         13    1    1    2    0    0 -0.19585141072E+02 -0.18858869235E+02  0.49403130291E+02  0.56390736351E+02  0.10566000000E+00 0. -1.
        994    1    1    2    0    0 -0.25841153936E+02  0.31655182511E+01  0.10085453442E+02  0.17346164450E+03  0.17120000000E+03 0.  0.
        998    1    1    2    0    0  0.45426295008E+02  0.15693350984E+02  0.14405114125E+04  0.14413476191E+04  0.10000000000E+02 0. -1.
</event>
<event>
 5    1  0.1338396E-008  0.3751923E+03  0.7957747E-01  0.3472363E+00
         13   -1    0    0    0    0  0.00000000000E+00  0.00000000000E+00  0.14999999963E+04  0.15000000000E+04  0.10566000000E+00 0. -1.
        994   -1    0    0    0    0 -0.00000000000E+00 -0.00000000000E+00  0.11368683772E-12  0.17120000000E+03  0.17120000000E+03 0.  0.
         13    1    1    2    0    0 -0.15874254912E+02  0.22007591277E+02  0.51256599282E+02  0.57996346236E+02  0.10566000000E+00 0. -1.
        994    1    1    2    0    0  0.99349279860E+01 -0.30455153256E+02  0.10074001573E+02  0.17446244485E+03  0.17120000000E+03 0.  0.
        998    1    1    2    0    0  0.59393269262E+01  0.84475619789E+01  0.14386693954E+04  0.14387412089E+04  0.10000000000E+02 0. -1.
</event>
<event>
 5    1  0.1338396E-008  0.3698120E+03  0.7957747E-01  0.3496755E+00
         13   -1    0    0    0    0  0.00000000000E+00  0.00000000000E+00  0.14999999963E+04  0.15000000000E+04  0.10566000000E+00 0. -1.
        994   -1    0    0    0    0 -0.00000000000E+00 -0.00000000000E+00  0.11368683772E-12  0.17120000000E+03  0.17120000000E+03 0.  0.
         13    1    1    2    0    0 -0.55401006448E+01 -0.10056688750E+02  0.26709852627E+01  0.11788767114E+02  0.10566000000E+00 0. -1.
        994    1    1    2    0    0  0.39077266808E+01  0.10019009966E+02  0.97675837738E+01  0.17181529787E+03  0.17120000000E+03 0.  0.
        998    1    1    2    0    0  0.16323739640E+01  0.37678783565E-01  0.14875614272E+04  0.14875959350E+04  0.10000000000E+02 0. -1.
</event>
<event>
 5    1  0.1338396E-008  0.3815898E+03  0.7957747E-01  0.3444265E+00
         13   -1    0    0    0    0  0.00000000000E+00  0.00000000000E+00  0.14999999963E+04  0.15000000000E+04  0.10566000000E+00 0.  1.
        994   -1    0    0    0    0 -0.00000000000E+00 -0.00000000000E+00  0.11368683772E-12  0.17120000000E+03  0.17120000000E+03 0.  0.
         13    1    1    2    0    0 -0.16283022541E+02  0.32319782923E+02  0.17272059843E+03  0.17647130496E+03  0.10566000000E+00 0.  1.
        994    1    1    2    0    0  0.80246447457E+01 -0.38497767036E+02  0.84926332078E+01  0.17586369099E+03  0.17120000000E+03 0.  0.
        998    1    1    2    0    0  0.82583777953E+01  0.61779841131E+01  0.13187867646E+04  0.13188650040E+04  0.10000000000E+02 0.  1.
</event>
<event>
 5    1  0.1338396E-008  0.3804506E+03  0.7957747E-01  0.3449199E+00
         13   -1    0    0    0    0  0.00000000000E+00  0.00000000000E+00  0.14999999963E+04  0.15000000000E+04  0.10566000000E+00 0.  1.
        994   -1    0    0    0    0 -0.00000000000E+00 -0.00000000000E+00  0.11368683772E-12  0.17120000000E+03  0.17120000000E+03 0.  0.
         13    1    1    2    0    0  0.36005361666E+02 -0.18901496214E+02  0.20406139532E+03  0.20807382549E+03  0.10566000000E+00 0.  1.
        994    1    1    2    0    0 -0.18393059569E+02  0.24565866629E+02  0.70558463449E+01  0.17407185703E+03  0.17120000000E+03 0.  0.
        998    1    1    2    0    0 -0.17612302097E+02 -0.56643704150E+01  0.12888827546E+04  0.12890543175E+04  0.10000000000E+02 0.  1.
</event>
<event>
 5    1  0.1338396E-008  0.3846945E+03  0.7957747E-01  0.3430969E+00
         13   -1    0    0    0    0  0.00000000000E+00  0.00000000000E+00  0.14999999963E+04  0.15000000000E+04  0.10566000000E+00 0. -1.
        994   -1    0    0    0    0 -0.00000000000E+00 -0.00000000000E+00  0.11368683772E-12  0.17120000000E+03  0.17120000000E+03 0.  0.
         13    1    1    2    0    0  0.10203677112E+02 -0.15025202596E+01  0.30008038303E+02  0.31731153785E+02  0.10566000000E+00 0. -1.
        994    1    1    2    0    0 -0.40390382056E+01 -0.69366796197E+01  0.19940433300E+01  0.17139967200E+03  0.17120000000E+03 0.  0.
        998    1    1    2    0    0 -0.61646389060E+01  0.84391998793E+01  0.14679979146E+04  0.14680691742E+04  0.10000000000E+02 0. -1.
</event>
<event>
 5    1  0.1338396E-008  0.3816214E+03  0.7957747E-01  0.3444129E+00
         13   -1    0    0    0    0  0.00000000000E+00  0.00000000000E+00  0.14999999963E+04  0.15000000000E+04  0.10566000000E+00 0. -1.
        994   -1    0    0    0    0 -0.00000000000E+00 -0.00000000000E+00  0.11368683772E-12  0.17120000000E+03  0.17120000000E+03 0.  0.
         13    1    1    2    0    0 -0.11817856088E+02  0.83646192180E+01  0.29882389922E+02  0.33205375599E+02  0.10566000000E+00 0. -1.
        994    1    1    2    0    0  0.81880534407E+01 -0.13642538206E+02  0.41591695463E+01  0.17198808610E+03  0.17120000000E+03 0.  0.
        998    1    1    2    0    0  0.36298026474E+01  0.52779189876E+01  0.14659584368E+04  0.14660065383E+04  0.10000000000E+02 0. -1.
</event>
<event>
 5    1  0.1338396E-008  0.3844889E+03  0.7957747E-01  0.3431843E+00
         13   -1    0    0    0    0  0.00000000000E+00  0.00000000000E+00  0.14999999963E+04  0.15000000000E+04  0.10566000000E+00 0.  1.
        994   -1    0    0    0    0 -0.00000000000E+00 -0.00000000000E+00  0.11368683772E-12  0.17120000000E+03  0.17120000000E+03 0.  0.
         13    1    1    2    0    0  0.40044416985E+00 -0.21209216886E+02  0.11571561834E+03  0.11764398297E+03  0.10566000000E+00 0.  1.
        994    1    1    2    0    0  0.73954507332E+01  0.17217472521E+02  0.30416395835E+01  0.17224931240E+03  0.17120000000E+03 0.  0.
        998    1    1    2    0    0 -0.77958949030E+01  0.39917443646E+01  0.13812427384E+04  0.13813067046E+04  0.10000000000E+02 0.  1.
</event>
<event>
 5    1  0.1338396E-008  0.3839022E+03  0.7957747E-01  0.3434341E+00
         13   -1    0    0    0    0  0.00000000000E+00  0.00000000000E+00  0.14999999963E+04  0.15000000000E+04  0.10566000000E+00 0.  1.
        994   -1    0    0    0    0 -0.00000000000E+00 -0.00000000000E+00  0.11368683772E-12  0.17120000000E+03  0.17120000000E+03 0.  0.
         13    1    1    2    0    0  0.10672937817E+02 -0.14141913876E+02  0.71643073232E+02  0.73801398604E+02  0.10566000000E+00 0.  1.
        994    1    1    2    0    0 -0.10301711488E+02  0.66443394320E+01  0.26722746312E+01  0.17165912023E+03  0.17120000000E+03 0.  0.
        998    1    1    2    0    0 -0.37122632956E+00  0.74975744438E+01  0.14256846484E+04  0.14257394812E+04  0.10000000000E+02 0.  1.
</event>
<event>
 5    1  0.1338396E-008  0.3769062E+03  0.7957747E-01  0.3464741E+00
         13   -1    0    0    0    0  0.00000000000E+00  0.00000000000E+00  0.14999999963E+04  0.15000000000E+04  0.10566000000E+00 0.  1.
        994   -1    0    0    0    0 -0.00000000000E+00 -0.00000000000E+00  0.11368683772E-12  0.17120000000E+03  0.17120000000E+03 0.  0.
         13    1    1    2    0    0  0.14076827496E+02 -0.13501708769E+02  0.30571579764E+02  0.36264112637E+02  0.10566000000E+00 0.  1.
        994    1    1    2    0    0 -0.14381213797E+02  0.11776877742E+02  0.68709210161E+01  0.17234315686E+03  0.17120000000E+03 0.  0.
        998    1    1    2    0    0  0.30438630095E+00  0.17248310271E+01  0.14625574955E+04  0.14625927305E+04  0.10000000000E+02 0.  1.
</event>
<event>
 5    1  0.1338396E-008  0.3828526E+03  0.7957747E-01  0.3438831E+00
         13   -1    0    0    0    0  0.00000000000E+00  0.00000000000E+00  0.14999999963E+04  0.15000000000E+04  0.10566000000E+00 0.  1.
        994   -1    0    0    0    0 -0.00000000000E+00 -0.00000000000E+00  0.11368683772E-12  0.17120000000E+03  0.17120000000E+03 0.  0.
         13    1    1    2    0    0  0.15822125120E+02 -0.53896986113E+00  0.45928621071E+02  0.48580649742E+02  0.10566000000E+00 0.  1.
        994    1    1    2    0    0 -0.87322323515E+01 -0.19115673651E+01  0.29647145804E+01  0.17145884493E+03  0.17120000000E+03 0.  0.
        998    1    1    2    0    0 -0.70898927684E+01  0.24505372262E+01  0.14511066606E+04  0.14511605053E+04  0.10000000000E+02 0.  1.
</event>
<event>
 5    1  0.1338396E-008  0.3789583E+03  0.7957747E-01  0.3455707E+00
         13   -1    0    0    0    0  0.00000000000E+00  0.00000000000E+00  0.14999999963E+04  0.15000000000E+04  0.10566000000E+00 0. -1.
        994   -1    0    0    0    0 -0.00000000000E+00 -0.00000000000E+00  0.11368683772E-12  0.17120000000E+03  0.17120000000E+03 0.  0.
         13    1    1    2    0    0 -0.29083039295E+01 -0.30456054877E+02  0.11413433110E+03  0.11816381091E+03  0.10566000000E+00 0. -1.
        994    1    1    2    0    0  0.19843156928E+02 -0.10164475489E+02  0.63290873109E+01  0.17276158365E+03  0.17120000000E+03 0.  0.
        998    1    1    2    0    0 -0.16934852998E+02  0.40620530367E+02  0.13795365779E+04  0.13802746054E+04  0.10000000000E+02 0. -1.
</event>
<event>
 5    1  0.1500781E-008  0.3861350E+03  0.7957747E-01  0.3424873E+00
         13   -1    0    0    0    0  0.00000000000E+00  0.00000000000E+00  0.14999999963E+04  0.15000000000E+04  0.10566000000E+00 0.  1.
        994   -1    0    0    0    0 -0.00000000000E+00 -0.00000000000E+00  0.11368683772E-12  0.17120000000E+03  0.17120000000E+03 0.  0.
         13    1    1    2    0    0 -0.64869184970E+01  0.10064950401E+02  0.70863787284E+02  0.71868427354E+02  0.10566000000E+00 0.  1.
        994    1    1    2    0    0 -0.97388065567E+00 -0.42870832619E+01  0.11310001050E+01  0.17126017251E+03  0.17120000000E+03 0.  0.
        998    1    1    2    0    0  0.74607991527E+01 -0.57778671392E+01  0.14280052089E+04  0.14280714001E+04  0.10000000000E+02 0.  1.
</event>
<event>
 5    1  0.1338396E-008  0.3793783E+03  0.7957747E-01  0.3453870E+00
         13   -1    0    0    0    0  0.00000000000E+00  0.00000000000E+00  0.14999999963E+04  0.15000000000E+04  0.10566000000E+00 0. -1.
        994   -1    0    0    0    0 -0.00000000000E+00 -0.00000000000E+00  0.11368683772E-12  0.17120000000E+03  0.17120000000E+03 0.  0.
         13    1    1    2    0    0 -0.19299209712E+02 -0.73536879655E+01  0.45714285584E+02  0.50163166693E+02  0.10566000000E+00 0. -1.
        994    1    1    2    0    0  0.13002804252E+02  0.13477402997E+02  0.56230218115E+01  0.17231300498E+03  0.17120000000E+03 0.  0.
        998    1    1    2    0    0  0.62964054606E+01 -0.61237150318E+01  0.14486626889E+04  0.14487238283E+04  0.10000000000E+02 0. -1.
</event>
<event>
 5    1  0.1338396E-008  0.3773017E+03  0.7957747E-01  0.3462992E+00
         13   -1    0    0    0    0  0.00000000000E+00  0.00000000000E+00  0.14999999963E+04  0.15000000000E+04  0.10566000000E+00 0. -1.
        994   -1    0    0    0    0 -0.00000000000E+00 -0.00000000000E+00  0.11368683772E-12  0.17120000000E+03  0.17120000000E+03 0.  0.
         13    1    1    2    0    0  0.49949635801E+02  0.15894561137E+02  0.30435613269E+03  0.30883696324E+03  0.10566000000E+00 0. -1.
        994    1    1    2    0    0 -0.13949261284E+02  0.20536649319E+02  0.75831780630E+01  0.17315680883E+03  0.17120000000E+03 0.  0.
        998    1    1    2    0    0 -0.36000374517E+02 -0.36431210455E+02  0.11880606855E+04  0.11892062279E+04  0.10000000000E+02 0. -1.
</event>
<event>
 5    1  0.1338396E-008  0.3837523E+03  0.7957747E-01  0.3434981E+00
         13   -1    0    0    0    0  0.00000000000E+00  0.00000000000E+00  0.14999999963E+04  0.15000000000E+04  0.10566000000E+00 0.  1.
        994   -1    0    0    0    0 -0.00000000000E+00 -0.00000000000E+00  0.11368683772E-12  0.17120000000E+03  0.17120000000E+03 0.  0.
         13    1    1    2    0    0  0.74799537491E+01 -0.86039717590E+01  0.28107622428E+02  0.30331957416E+02  0.10566000000E+00 0.  1.
        994    1    1    2    0    0 -0.48154663788E+01  0.71956502407E+01  0.24984591139E+01  0.17143701000E+03  0.17120000000E+03 0.  0.
        998    1    1    2    0    0 -0.26644873704E+01  0.14083215183E+01  0.14693939147E+04  0.14694310326E+04  0.10000000000E+02 0.  1.
</event>
<event>
 5    1  0.1338396E-008  0.3766385E+03  0.7957747E-01  0.3465927E+00
         13   -1    0    0    0    0  0.00000000000E+00  0.00000000000E+00  0.14999999963E+04  0.15000000000E+04  0.10566000000E+00 0. -1.
        994   -1    0    0    0    0 -0.00000000000E+00 -0.00000000000E+00  0.11368683772E-12  0.17120000000E+03  0.17120000000E+03 0.  0.
         13    1    1    2    0    0  0.12406672085E+02 -0.10080184147E+02  0.19921388062E+02  0.25542288289E+02  0.10566000000E+00 0. -1.
        994    1    1    2    0    0  0.44370050238E+01  0.55985001625E+01  0.60122751211E+01  0.17145441864E+03  0.17120000000E+03 0.  0.
        998    1    1    2    0    0 -0.16843677108E+02  0.44816839844E+01  0.14740663331E+04  0.14742032931E+04  0.10000000000E+02 0. -1.
</event>
<event>
 5    1  0.1338396E-008  0.3842825E+03  0.7957747E-01  0.3432721E+00
         13   -1    0    0    0    0  0.00000000000E+00  0.00000000000E+00  0.14999999963E+04  0.15000000000E+04  0.10566000000E+00 0.  1.
        994   -1    0    0    0    0 -0.00000000000E+00 -0.00000000000E+00  0.11368683772E-12  0.17120000000E+03  0.17120000000E+03 0.  0.
         13    1    1    2    0    0 -0.11970746615E+02 -0.17886378909E+02  0.43155134733E+01  0.21951221961E+02  0.10566000000E+00 0.  1.
        994    1    1    2    0    0 -0.15284380397E+02  0.20134187754E+02  0.21055535668E+02  0.17433236470E+03  0.17120000000E+03 0.  0.
        998    1    1    2    0    0  0.27255127012E+02 -0.22478088451E+01  0.14746289471E+04  0.14749164133E+04  0.10000000000E+02 0.  1.
</event>
<event>
 5    1  0.1338396E-008  0.3802203E+03  0.7957747E-01  0.3450200E+00
         13   -1    0    0    0    0  0.00000000000E+00  0.00000000000E+00  0.14999999963E+04  0.15000000000E+04  0.10566000000E+00 0. -1.
        994   -1    0    0    0    0 -0.00000000000E+00 -0.00000000000E+00  0.11368683772E-12  0.17120000000E+03  0.17120000000E+03 0.  0.
         13    1    1    2    0    0  0.32129612440E+02 -0.57939990491E+01  0.13022231614E+03  0.13425254264E+03  0.10566000000E+00 0. -1.
        994    1    1    2    0    0 -0.19341836924E+02  0.89882604696E+01  0.55429999803E+01  0.17261245706E+03  0.17120000000E+03 0.  0.
        998    1    1    2    0    0 -0.12787775516E+02 -0.31942614205E+01  0.13642346802E+04  0.13643350003E+04  0.10000000000E+02 0. -1.
</event>
<event>
 5    1  0.1338396E-008  0.3793752E+03  0.7957747E-01  0.3453884E+00
         13   -1    0    0    0    0  0.00000000000E+00  0.00000000000E+00  0.14999999963E+04  0.15000000000E+04  0.10566000000E+00 0.  1.
        994   -1    0    0    0    0 -0.00000000000E+00 -0.00000000000E+00  0.11368683772E-12  0.17120000000E+03  0.17120000000E+03 0.  0.
         13    1    1    2    0    0  0.76330713580E+01  0.92841103624E+01  0.14258741953E+02  0.18648897278E+02  0.10566000000E+00 0.  1.
        994    1    1    2    0    0 -0.60623331322E+01 -0.79427593157E+01  0.47833907747E+01  0.17155803722E+03  0.17120000000E+03 0.  0.
        998    1    1    2    0    0 -0.15707382258E+01 -0.13413510467E+01  0.14809578636E+04  0.14809930655E+04  0.10000000000E+02 0.  1.
</event>
<event>
 5    1  0.1338396E-008  0.3770857E+03  0.7957747E-01  0.3463947E+00
         13   -1    0    0    0    0  0.00000000000E+00  0.00000000000E+00  0.14999999963E+04  0.15000000000E+04  0.10566000000E+00 0.  1.
        994   -1    0    0    0    0 -0.00000000000E+00 -0.00000000000E+00  0.11368683772E-12  0.17120000000E+03  0.17120000000E+03 0.  0.
         13    1    1    2    0    0 -0.17684659997E+02  0.16077787984E+02  0.51381106228E+02  0.56668083671E+02  0.10566000000E+00 0.  1.
        994    1    1    2    0    0 -0.13403696556E+01 -0.14688547817E+01  0.56248942038E+01  0.17130392161E+03  0.17120000000E+03 0.  0.
        998    1    1    2    0    0  0.19025029653E+02 -0.14608933202E+02  0.14429939958E+04  0.14432279947E+04  0.10000000000E+02 0.  1.
</event>
<event>
 5    1  0.1338396E-008  0.3718149E+03  0.7957747E-01  0.3487591E+00
         13   -1    0    0    0    0  0.00000000000E+00  0.00000000000E+00  0.14999999963E+04  0.15000000000E+04  0.10566000000E+00 0.  1.
        994   -1    0    0    0    0 -0.00000000000E+00 -0.00000000000E+00  0.11368683772E-12  0.17120000000E+03  0.17120000000E+03 0.  0.
         13    1    1    2    0    0 -0.69958381311E+00 -0.97124342536E+02  0.42377400438E+03  0.43476205594E+03  0.10566000000E+00 0.  1.
        994    1    1    2    0    0 -0.22185842714E+02  0.47064958094E+02  0.21488625282E+02  0.18021798721E+03  0.17120000000E+03 0.  0.
        998    1    1    2    0    0  0.22885426527E+02  0.50059384442E+02  0.10547373666E+04  0.10562199568E+04  0.10000000000E+02 0. -1.
</event>
<event>
 5    1  0.1338396E-008  0.3847920E+03  0.7957747E-01  0.3430555E+00
         13   -1    0    0    0    0  0.00000000000E+00  0.00000000000E+00  0.14999999963E+04  0.15000000000E+04  0.10566000000E+00 0.  1.
        994   -1    0    0    0    0 -0.00000000000E+00 -0.00000000000E+00  0.11368683772E-12  0.17120000000E+03  0.17120000000E+03 0.  0.
         13    1    1    2    0    0  0.16442132311E+02  0.65791348122E+01  0.87087667811E+02  0.88870139971E+02  0.10566000000E+00 0.  1.
        994    1    1    2    0    0 -0.14431281517E+02 -0.88135192438E+01  0.26750008784E+01  0.17205387423E+03  0.17120000000E+03 0.  0.
        998    1    1    2    0    0 -0.20108507939E+01  0.22343844316E+01  0.14102373276E+04  0.14102759858E+04  0.10000000000E+02 0.  1.
</event>
<event>
 5    1  0.1338396E-008  0.3853634E+03  0.7957747E-01  0.3428133E+00
         13   -1    0    0    0    0  0.00000000000E+00  0.00000000000E+00  0.14999999963E+04  0.15000000000E+04  0.10566000000E+00 0. -1.
        994   -1    0    0    0    0 -0.00000000000E+00 -0.00000000000E+00  0.11368683772E-12  0.17120000000E+03  0.17120000000E+03 0.  0.
         13    1    1    2    0    0  0.79446603006E+01 -0.78295667730E+01  0.43126437801E+02  0.44545712977E+02  0.10566000000E+00 0. -1.
        994    1    1    2    0    0 -0.23867600817E+01  0.74492156509E+01  0.16508524738E+01  0.17138655942E+03  0.17120000000E+03 0.  0.
        998    1    1    2    0    0 -0.55579002190E+01  0.38035112212E+00  0.14552227060E+04  0.14552677276E+04  0.10000000000E+02 0. -1.
</event>
<event>
 5    1  0.1338396E-008  0.3794628E+03  0.7957747E-01  0.3453501E+00
         13   -1    0    0    0    0  0.00000000000E+00  0.00000000000E+00  0.14999999963E+04  0.15000000000E+04  0.10566000000E+00 0. -1.
        994   -1    0    0    0    0 -0.00000000000E+00 -0.00000000000E+00  0.11368683772E-12  0.17120000000E+03  0.17120000000E+03 0.  0.
         13    1    1    2    0    0 -0.17122964897E+02  0.82560014498E+01  0.41361505374E+02  0.45520795002E+02  0.10566000000E+00 0. -1.
        994    1    1    2    0    0  0.33329711471E+01  0.12171955432E+02  0.49381222614E+01  0.17173552413E+03  0.17120000000E+03 0.  0.
        998    1    1    2    0    0  0.13789993750E+02 -0.20427956881E+02  0.14537003686E+04  0.14539436809E+04  0.10000000000E+02 0. -1.
</event>
<event>
 5    1  0.1338396E-008  0.3835172E+03  0.7957747E-01  0.3435985E+00
         13   -1    0    0    0    0  0.00000000000E+00  0.00000000000E+00  0.14999999963E+04  0.15000000000E+04  0.10566000000E+00 0. -1.
        994   -1    0    0    0    0 -0.00000000000E+00 -0.00000000000E+00  0.11368683772E-12  0.17120000000E+03  0.17120000000E+03 0.  0.
         13    1    1    2    0    0 -0.99489814255E+01  0.19828311536E+01  0.21354750929E+02  0.23642131928E+02  0.10566000000E+00 0. -1.
        994    1    1    2    0    0  0.23711497132E+01  0.86185822509E+01  0.26321806241E+01  0.17145340675E+03  0.17120000000E+03 0.  0.
        998    1    1    2    0    0  0.75778317123E+01 -0.10601413404E+02  0.14760130647E+04  0.14761044613E+04  0.10000000000E+02 0. -1.
</event>
<event>
 5    1  0.1338396E-008  0.3819857E+03  0.7957747E-01  0.3442558E+00
         13   -1    0    0    0    0  0.00000000000E+00  0.00000000000E+00  0.14999999963E+04  0.15000000000E+04  0.10566000000E+00 0.  1.
        994   -1    0    0    0    0 -0.00000000000E+00 -0.00000000000E+00  0.11368683772E-12  0.17120000000E+03  0.17120000000E+03 0.  0.
         13    1    1    2    0    0 -0.18430194217E+02 -0.80912336254E+00  0.55023338340E+02  0.58033659764E+02  0.10566000000E+00 0.  1.
        994    1    1    2    0    0  0.46049513991E+01 -0.20087578483E+01  0.32179623936E+01  0.17130392864E+03  0.17120000000E+03 0.  0.
        998    1    1    2    0    0  0.13825242818E+02  0.28178812109E+01  0.14417586955E+04  0.14418624116E+04  0.10000000000E+02 0.  1.
</event>
<event>
 5    1  0.1338396E-008  0.3739995E+03  0.7957747E-01  0.3477709E+00
         13   -1    0    0    0    0  0.00000000000E+00  0.00000000000E+00  0.14999999963E+04  0.15000000000E+04  0.10566000000E+00 0.  1.
        994   -1    0    0    0    0 -0.00000000000E+00 -0.00000000000E+00  0.11368683772E-12  0.17120000000E+03  0.17120000000E+03 0.  0.
         13    1    1    2    0    0 -0.32064022089E+02 -0.86506678812E+01  0.75054503988E+02  0.82073901456E+02  0.10566000000E+00 0.  1.
        994    1    1    2    0    0  0.15858841334E+02  0.71527587049E+01  0.82263528067E+01  0.17227819852E+03  0.17120000000E+03 0.  0.
        998    1    1    2    0    0  0.16205180755E+02  0.14979091764E+01  0.14167191395E+04  0.14168479000E+04  0.10000000000E+02 0.  1.
</event>
<event>
 5    1  0.1338396E-008  0.3725800E+03  0.7957747E-01  0.3484117E+00
         13   -1    0    0    0    0  0.00000000000E+00  0.00000000000E+00  0.14999999963E+04  0.15000000000E+04  0.10566000000E+00 0. -1.
        994   -1    0    0    0    0 -0.00000000000E+00 -0.00000000000E+00  0.11368683772E-12  0.17120000000E+03  0.17120000000E+03 0.  0.
         13    1    1    2    0    0  0.68054785336E+02  0.42400244418E+01  0.25994997126E+03  0.26874417266E+03  0.10566000000E+00 0. -1.
        994    1    1    2    0    0  0.20037234940E+02  0.29785382144E+01  0.13758555955E+02  0.17294247696E+03  0.17120000000E+03 0.  0.
        998    1    1    2    0    0 -0.88092020276E+02 -0.72185626562E+01  0.12262914691E+04  0.12295133504E+04  0.10000000000E+02 0. -1.
</event>
<event>
 5    1  0.1338396E-008  0.3726199E+03  0.7957747E-01  0.3483936E+00
         13   -1    0    0    0    0  0.00000000000E+00  0.00000000000E+00  0.14999999963E+04  0.15000000000E+04  0.10566000000E+00 0. -1.
        994   -1    0    0    0    0 -0.00000000000E+00 -0.00000000000E+00  0.11368683772E-12  0.17120000000E+03  0.17120000000E+03 0.  0.
         13    1    1    2    0    0 -0.11312533116E+02  0.69718039722E+01  0.76059025317E+01  0.15311445833E+02  0.10566000000E+00 0. -1.
        994    1    1    2    0    0  0.16278302180E+02  0.11639052151E+02  0.92795047867E+01  0.17261517855E+03  0.17120000000E+03 0.  0.
        998    1    1    2    0    0 -0.49657690645E+01 -0.18610856123E+02  0.14831145890E+04  0.14832733756E+04  0.10000000000E+02 0. -1.
</event>
<event>
 5    1  0.1338396E-008  0.3798562E+03  0.7957747E-01  0.3451785E+00
         13   -1    0    0    0    0  0.00000000000E+00  0.00000000000E+00  0.14999999963E+04  0.15000000000E+04  0.10566000000E+00 0.  1.
        994   -1    0    0    0    0 -0.00000000000E+00 -0.00000000000E+00  0.11368683772E-12  0.17120000000E+03  0.17120000000E+03 0.  0.
         13    1    1    2    0    0 -0.37978160967E+02  0.82340960413E+02  0.50662538710E+03  0.51467627543E+03  0.10566000000E+00 0.  1.
        994    1    1    2    0    0  0.35376295376E+02 -0.10307539628E+03  0.45006448327E+02  0.20787265328E+03  0.17120000000E+03 0.  0.
        998    1    1    2    0    0  0.26018655914E+01  0.20734435864E+02  0.94836816085E+03  0.94865107129E+03  0.10000000000E+02 0.  1.
</event>
<event>
 5    1  0.1338396E-008  0.3846601E+03  0.7957747E-01  0.3431115E+00
         13   -1    0    0    0    0  0.00000000000E+00  0.00000000000E+00  0.14999999963E+04  0.15000000000E+04  0.10566000000E+00 0. -1.
        994   -1    0    0    0    0 -0.00000000000E+00 -0.00000000000E+00  0.11368683772E-12  0.17120000000E+03  0.17120000000E+03 0.  0.
         13    1    1    2    0    0 -0.16428217323E+02 -0.56735127657E+01  0.81497880005E+02  0.83330610707E+02  0.10566000000E+00 0. -1.
        994    1    1    2    0    0  0.18345396651E+02 -0.54714472842E+01  0.30064868088E+01  0.17229326533E+03  0.17120000000E+03 0.  0.
        998    1    1    2    0    0 -0.19171793279E+01  0.11144960050E+02  0.14154956295E+04  0.14155761240E+04  0.10000000000E+02 0. -1.
</event>
<event>
 5    1  0.1338396E-008  0.3701574E+03  0.7957747E-01  0.3495168E+00
         13   -1    0    0    0    0  0.00000000000E+00  0.00000000000E+00  0.14999999963E+04  0.15000000000E+04  0.10566000000E+00 0. -1.
        994   -1    0    0    0    0 -0.00000000000E+00 -0.00000000000E+00  0.11368683772E-12  0.17120000000E+03  0.17120000000E+03 0.  0.
         13    1    1    2    0    0  0.16030051141E+02 -0.67041952345E+02  0.31470957218E+03  0.32217031505E+03  0.10566000000E+00 0. -1.
        994    1    1    2    0    0  0.17716714667E+02  0.15160342260E+02  0.11068029033E+02  0.17313480073E+03  0.17120000000E+03 0.  0.
        998    1    1    2    0    0 -0.33746765808E+02  0.51881610085E+02  0.11742223951E+04  0.11758948842E+04  0.10000000000E+02 0. -1.
</event>
<event>
 5    1  0.1338396E-008  0.3742642E+03  0.7957747E-01  0.3476520E+00
         13   -1    0    0    0    0  0.00000000000E+00  0.00000000000E+00  0.14999999963E+04  0.15000000000E+04  0.10566000000E+00 0. -1.
        994   -1    0    0    0    0 -0.00000000000E+00 -0.00000000000E+00  0.11368683772E-12  0.17120000000E+03  0.17120000000E+03 0.  0.
         13    1    1    2    0    0 -0.16404045804E+03 -0.57076247622E+02  0.87210922132E+03  0.88923645617E+03  0.10566000000E+00 0. -1.
        994    1    1    2    0    0  0.15633799411E+03  0.57195589063E+02  0.10827461713E+03  0.26219408179E+03  0.17120000000E+03 0.  0.
        998    1    1    2    0    0  0.77024639320E+01 -0.11934144133E+00  0.51961615783E+03  0.51976946204E+03  0.10000000000E+02 0.  1.
</event>
<event>
 5    1  0.1338396E-008  0.2450575E+03  0.7957747E-01  0.4387963E+00
         13   -1    0    0    0    0  0.00000000000E+00  0.00000000000E+00  0.14999999963E+04  0.15000000000E+04  0.10566000000E+00 0.  1.
        994   -1    0    0    0    0 -0.00000000000E+00 -0.00000000000E+00  0.11368683772E-12  0.17120000000E+03  0.17120000000E+03 0.  0.
         13    1    1    2    0    0 -0.12459927286E+03  0.13892692577E+03  0.30689662172E+03  0.35918131506E+03  0.10566000000E+00 0.  1.
        994    1    1    2    0    0 -0.26214347233E+02 -0.18583001665E+03  0.25241025337E+03  0.35810663649E+03  0.17120000000E+03 0.  0.
        998    1    1    2    0    0  0.15081362009E+03  0.46903090883E+02  0.94069312119E+03  0.95391204845E+03  0.10000000000E+02 0.  1.
</event>
<event>
 5    1  0.1338396E-008  0.3843451E+03  0.7957747E-01  0.3432454E+00
         13   -1    0    0    0    0  0.00000000000E+00  0.00000000000E+00  0.14999999963E+04  0.15000000000E+04  0.10566000000E+00 0. -1.
        994   -1    0    0    0    0 -0.00000000000E+00 -0.00000000000E+00  0.11368683772E-12  0.17120000000E+03  0.17120000000E+03 0.  0.
         13    1    1    2    0    0  0.11590773917E+02 -0.17224609157E+02  0.10212486662E+03  0.10421387981E+03  0.10566000000E+00 0. -1.
        994    1    1    2    0    0 -0.12852877678E+02  0.19368153460E+02  0.37383689826E+01  0.17281127636E+03  0.17120000000E+03 0.  0.
        998    1    1    2    0    0  0.12621037615E+01 -0.21435443035E+01  0.13941367607E+04  0.13941748438E+04  0.10000000000E+02 0. -1.
</event>
<event>
 5    1  0.1338396E-008  0.3845062E+03  0.7957747E-01  0.3431769E+00
         13   -1    0    0    0    0  0.00000000000E+00  0.00000000000E+00  0.14999999963E+04  0.15000000000E+04  0.10566000000E+00 0.  1.
        994   -1    0    0    0    0 -0.00000000000E+00 -0.00000000000E+00  0.11368683772E-12  0.17120000000E+03  0.17120000000E+03 0.  0.
         13    1    1    2    0    0 -0.78719954215E+01 -0.73278135818E+01  0.30628304202E+02  0.32461813660E+02  0.10566000000E+00 0.  1.
        994    1    1    2    0    0  0.33788955119E+01  0.47591877656E+01  0.19877036198E+01  0.17131099722E+03  0.17120000000E+03 0.  0.
        998    1    1    2    0    0  0.44930999096E+01  0.25686258163E+01  0.14673839885E+04  0.14674271891E+04  0.10000000000E+02 0.  1.
</event>
<event>
 5    1  0.1338396E-008  0.3856846E+03  0.7957747E-01  0.3426774E+00
         13   -1    0    0    0    0  0.00000000000E+00  0.00000000000E+00  0.14999999963E+04  0.15000000000E+04  0.10566000000E+00 0.  1.
        994   -1    0    0    0    0 -0.00000000000E+00 -0.00000000000E+00  0.11368683772E-12  0.17120000000E+03  0.17120000000E+03 0.  0.
         13    1    1    2    0    0  0.11743456643E+02 -0.17304103700E+01  0.49883252403E+02  0.51276243313E+02  0.10566000000E+00 0.  1.
        994    1    1    2    0    0 -0.22972012862E+02  0.77722247757E+01  0.32228695472E+01  0.17293914462E+03  0.17120000000E+03 0.  0.
        998    1    1    2    0    0  0.11228556218E+02 -0.60418144057E+01  0.14468938743E+04  0.14469846121E+04  0.10000000000E+02 0.  1.
</event>
<event>
 5    1  0.1338396E-008  0.3686517E+03  0.7957747E-01  0.3502110E+00
         13   -1    0    0    0    0  0.00000000000E+00  0.00000000000E+00  0.14999999963E+04  0.15000000000E+04  0.10566000000E+00 0. -1.
        994   -1    0    0    0    0 -0.00000000000E+00 -0.00000000000E+00  0.11368683772E-12  0.17120000000E+03  0.17120000000E+03 0.  0.
         13    1    1    2    0    0  0.69536797566E+00 -0.38311249027E+02  0.67635419958E+02  0.77735426515E+02  0.10566000000E+00 0. -1.
        994    1    1    2    0    0 -0.63475159515E+01  0.35498121056E+02  0.14506387327E+02  0.17555706431E+03  0.17120000000E+03 0.  0.
        998    1    1    2    0    0  0.56521479759E+01  0.28131279705E+01  0.14178581890E+04  0.14179075092E+04  0.10000000000E+02 0. -1.
</event>
<event>
 5    1  0.1338396E-008  0.3755197E+03  0.7957747E-01  0.3470902E+00
         13   -1    0    0    0    0  0.00000000000E+00  0.00000000000E+00  0.14999999963E+04  0.15000000000E+04  0.10566000000E+00 0.  1.
        994   -1    0    0    0    0 -0.00000000000E+00 -0.00000000000E+00  0.11368683772E-12  0.17120000000E+03  0.17120000000E+03 0.  0.
         13    1    1    2    0    0 -0.17985655258E+00  0.36588819329E+02  0.95104688129E+02  0.10190037741E+03  0.10566000000E+00 0.  1.
        994    1    1    2    0    0 -0.45997864424E+00 -0.39437521241E+02  0.11708658499E+02  0.17607402519E+03  0.17120000000E+03 0.  0.
        998    1    1    2    0    0  0.63983519683E+00  0.28487019117E+01  0.13931866496E+04  0.13932255974E+04  0.10000000000E+02 0.  1.
</event>
<event>
 5    1  0.1338396E-008  0.3824600E+03  0.7957747E-01  0.3440517E+00
         13   -1    0    0    0    0  0.00000000000E+00  0.00000000000E+00  0.14999999963E+04  0.15000000000E+04  0.10566000000E+00 0. -1.
        994   -1    0    0    0    0 -0.00000000000E+00 -0.00000000000E+00  0.11368683772E-12  0.17120000000E+03  0.17120000000E+03 0.  0.
         13    1    1    2    0    0  0.13255474320E+02 -0.15416731918E+00  0.29349036946E+02  0.32204168996E+02  0.10566000000E+00 0. -1.
        994    1    1    2    0    0 -0.84945456243E+01  0.42461455259E+01  0.31955988370E+01  0.17149297044E+03  0.17120000000E+03 0.  0.
        998    1    1    2    0    0 -0.47609286956E+01 -0.40919782067E+01  0.14674553605E+04  0.14675028606E+04  0.10000000000E+02 0. -1.
</event>
<event>
 5    1  0.1338396E-008  0.3827981E+03  0.7957747E-01  0.3439065E+00
         13   -1    0    0    0    0  0.00000000000E+00  0.00000000000E+00  0.14999999963E+04  0.15000000000E+04  0.10566000000E+00 0. -1.
        994   -1    0    0    0    0 -0.00000000000E+00 -0.00000000000E+00  0.11368683772E-12  0.17120000000E+03  0.17120000000E+03 0.  0.
         13    1    1    2    0    0  0.19292125575E+01  0.12041351800E+02  0.26661880621E+02  0.29318646908E+02  0.10566000000E+00 0. -1.
        994    1    1    2    0    0 -0.56002582039E+01 -0.34731961882E+01  0.28711463514E+01  0.17135083736E+03  0.17120000000E+03 0.  0.
        998    1    1    2    0    0  0.36710456465E+01 -0.85681556121E+01  0.14704669693E+04  0.14705305157E+04  0.10000000000E+02 0. -1.
</event>
<event>
 5    1  0.1338396E-008  0.3851098E+03  0.7957747E-01  0.3429207E+00
         13   -1    0    0    0    0  0.00000000000E+00  0.00000000000E+00  0.14999999963E+04  0.15000000000E+04  0.10566000000E+00 0. -1.
        994   -1    0    0    0    0 -0.00000000000E+00 -0.00000000000E+00  0.11368683772E-12  0.17120000000E+03  0.17120000000E+03 0.  0.
         13    1    1    2    0    0  0.72843515004E+01  0.14953153982E+02  0.95432501955E+02  0.96871214425E+02  0.10566000000E+00 0. -1.
        994    1    1    2    0    0 -0.39331307479E+01  0.14573025969E+01  0.16334876947E+01  0.17125916481E+03  0.17120000000E+03 0.  0.
        998    1    1    2    0    0 -0.33512207525E+01 -0.16410456579E+02  0.14029340066E+04  0.14030696208E+04  0.10000000000E+02 0. -1.
</event>
<event>
 5    1  0.1338396E-008  0.3833259E+03  0.7957747E-01  0.3436804E+00
         13   -1    0    0    0    0  0.00000000000E+00  0.00000000000E+00  0.14999999963E+04  0.15000000000E+04  0.10566000000E+00 0.  1.
        994   -1    0    0    0    0 -0.00000000000E+00 -0.00000000000E+00  0.11368683772E-12  0.17120000000E+03  0.17120000000E+03 0.  0.
         13    1    1    2    0    0  0.16214673134E+02 -0.77468833484E+01  0.72952219832E+02  0.75132997870E+02  0.10566000000E+00 0.  1.
        994    1    1    2    0    0 -0.66988316300E+01 -0.32830647798E+02  0.61848759367E+01  0.17455777975E+03  0.17120000000E+03 0.  0.
        998    1    1    2    0    0 -0.95158415041E+01  0.40577531146E+02  0.14208629005E+04  0.14215092224E+04  0.10000000000E+02 0.  1.
</event>
<event>
 5    1  0.1338396E-008  0.3854083E+03  0.7957747E-01  0.3427943E+00
         13   -1    0    0    0    0  0.00000000000E+00  0.00000000000E+00  0.14999999963E+04  0.15000000000E+04  0.10566000000E+00 0. -1.
        994   -1    0    0    0    0 -0.00000000000E+00 -0.00000000000E+00  0.11368683772E-12  0.17120000000E+03  0.17120000000E+03 0.  0.
         13    1    1    2    0    0  0.11880033273E+02 -0.11589166752E+02  0.98118604266E+02  0.99512389398E+02  0.10566000000E+00 0. -1.
        994    1    1    2    0    0 -0.10334588202E+02  0.25209869398E+01  0.17993184175E+01  0.17153960661E+03  0.17120000000E+03 0.  0.
        998    1    1    2    0    0 -0.15454450715E+01  0.90681798122E+01  0.14000820736E+04  0.14001480040E+04  0.10000000000E+02 0. -1.
</event>
<event>
 5    1  0.1338396E-008  0.3858743E+03  0.7957747E-01  0.3425973E+00
         13   -1    0    0    0    0  0.00000000000E+00  0.00000000000E+00  0.14999999963E+04  0.15000000000E+04  0.10566000000E+00 0. -1.
        994   -1    0    0    0    0 -0.00000000000E+00 -0.00000000000E+00  0.11368683772E-12  0.17120000000E+03  0.17120000000E+03 0.  0.
         13    1    1    2    0    0 -0.10256193762E+02  0.79577736330E+00  0.43870410747E+02  0.45060480193E+02  0.10566000000E+00 0. -1.
        994    1    1    2    0    0  0.94232439584E+01 -0.49968518599E+01  0.15698675806E+01  0.17153912247E+03  0.17120000000E+03 0.  0.
        998    1    1    2    0    0  0.83294980376E+00  0.42010744966E+01  0.14545597180E+04  0.14546003973E+04  0.10000000000E+02 0. -1.
</event>
<event>
 5    1  0.1338396E-008  0.3751670E+03  0.7957747E-01  0.3472476E+00
         13   -1    0    0    0    0  0.00000000000E+00  0.00000000000E+00  0.14999999963E+04  0.15000000000E+04  0.10566000000E+00 0. -1.
        994   -1    0    0    0    0 -0.00000000000E+00 -0.00000000000E+00  0.11368683772E-12  0.17120000000E+03  0.17120000000E+03 0.  0.
         13    1    1    2    0    0  0.16755971206E+02 -0.25933777675E+02  0.68029411108E+02  0.74708335113E+02  0.10566000000E+00 0. -1.
        994    1    1    2    0    0 -0.25176718575E+02  0.15850483198E+02  0.96058166612E+01  0.17403107967E+03  0.17120000000E+03 0.  0.
        998    1    1    2    0    0  0.84207473693E+01  0.10083294477E+02  0.14223647685E+04  0.14224605852E+04  0.10000000000E+02 0. -1.
</event>
<event>
 5    1  0.1338396E-008  0.3833080E+03  0.7957747E-01  0.3436880E+00
         13   -1    0    0    0    0  0.00000000000E+00  0.00000000000E+00  0.14999999963E+04  0.15000000000E+04  0.10566000000E+00 0.  1.
        994   -1    0    0    0    0 -0.00000000000E+00 -0.00000000000E+00  0.11368683772E-12  0.17120000000E+03  0.17120000000E+03 0.  0.
         13    1    1    2    0    0 -0.10449285505E+02 -0.12634608738E+02  0.73725578778E+02  0.75526770325E+02  0.10566000000E+00 0.  1.
        994    1    1    2    0    0 -0.39109839543E+02 -0.23469402001E+02  0.93825548113E+01  0.17742002343E+03  0.17120000000E+03 0.  0.
        998    1    1    2    0    0  0.49559125048E+02  0.36104010739E+02  0.14168918627E+04  0.14182532062E+04  0.10000000000E+02 0.  1.
</event>
<event>
 5    1  0.1338396E-008  0.3851769E+03  0.7957747E-01  0.3428922E+00
         13   -1    0    0    0    0  0.00000000000E+00  0.00000000000E+00  0.14999999963E+04  0.15000000000E+04  0.10566000000E+00 0. -1.
        994   -1    0    0    0    0 -0.00000000000E+00 -0.00000000000E+00  0.11368683772E-12  0.17120000000E+03  0.17120000000E+03 0.  0.
         13    1    1    2    0    0 -0.12139101245E+02 -0.52111706589E+00  0.47063975030E+02  0.48607183129E+02  0.10566000000E+00 0. -1.
        994    1    1    2    0    0  0.10923856631E+02  0.95065854107E+01  0.22318679976E+01  0.17182586256E+03  0.17120000000E+03 0.  0.
        998    1    1    2    0    0  0.12152446140E+01 -0.89854683448E+01  0.14507041533E+04  0.14507669543E+04  0.10000000000E+02 0. -1.
</event>
<event>
 5    1  0.1338396E-008  0.3743489E+03  0.7957747E-01  0.3476140E+00
         13   -1    0    0    0    0  0.00000000000E+00  0.00000000000E+00  0.14999999963E+04  0.15000000000E+04  0.10566000000E+00 0.  1.
        994   -1    0    0    0    0 -0.00000000000E+00 -0.00000000000E+00  0.11368683772E-12  0.17120000000E+03  0.17120000000E+03 0.  0.
         13    1    1    2    0    0 -0.56384563247E+02 -0.55952187425E+02  0.36211894249E+03  0.37072901954E+03  0.10566000000E+00 0.  1.
        994    1    1    2    0    0  0.55790785237E+02  0.45596320655E+02  0.24911000020E+02  0.18740766819E+03  0.17120000000E+03 0.  0.
        998    1    1    2    0    0  0.59377800984E+00  0.10355866770E+02  0.11129700538E+04  0.11130633123E+04  0.10000000000E+02 0.  1.
</event>
<event>
 5    1  0.1338396E-008  0.3718602E+03  0.7957747E-01  0.3487385E+00
         13   -1    0    0    0    0  0.00000000000E+00  0.00000000000E+00  0.14999999963E+04  0.15000000000E+04  0.10566000000E+00 0. -1.
        994   -1    0    0    0    0 -0.00000000000E+00 -0.00000000000E+00  0.11368683772E-12  0.17120000000E+03  0.17120000000E+03 0.  0.
         13    1    1    2    0    0  0.50452357682E+02  0.23311242516E+02  0.21756224948E+03  0.22454887661E+03  0.10566000000E+00 0. -1.
        994    1    1    2    0    0 -0.17871235691E+02  0.28434456437E+02  0.12184895613E+02  0.17488799575E+03  0.17120000000E+03 0.  0.
        998    1    1    2    0    0 -0.32581121991E+02 -0.51745698954E+02  0.12702528512E+04  0.12717631276E+04  0.10000000000E+02 0. -1.
</event>
<event>
 5    1  0.1338396E-008  0.3843628E+03  0.7957747E-01  0.3432379E+00
         13   -1    0    0    0    0  0.00000000000E+00  0.00000000000E+00  0.14999999963E+04  0.15000000000E+04  0.10566000000E+00 0. -1.
        994   -1    0    0    0    0 -0.00000000000E+00 -0.00000000000E+00  0.11368683772E-12  0.17120000000E+03  0.17120000000E+03 0.  0.
         13    1    1    2    0    0  0.63486142809E+01  0.11164168019E+02  0.42343403082E+02  0.44248372845E+02  0.10566000000E+00 0. -1.
        994    1    1    2    0    0 -0.20211259629E+01 -0.67398563841E+01  0.21100027164E+01  0.17135752894E+03  0.17120000000E+03 0.  0.
        998    1    1    2    0    0 -0.43274883180E+01 -0.44243116345E+01  0.14555465905E+04  0.14555940982E+04  0.10000000000E+02 0. -1.
</event>
<event>
 5    1  0.1338396E-008  0.3839457E+03  0.7957747E-01  0.3434156E+00
         13   -1    0    0    0    0  0.00000000000E+00  0.00000000000E+00  0.14999999963E+04  0.15000000000E+04  0.10566000000E+00 0.  1.
        994   -1    0    0    0    0 -0.00000000000E+00 -0.00000000000E+00  0.11368683772E-12  0.17120000000E+03  0.17120000000E+03 0.  0.
         13    1    1    2    0    0  0.34511985284E+01  0.16837566865E+02  0.66759865285E+02  0.68936965455E+02  0.10566000000E+00 0.  1.
        994    1    1    2    0    0 -0.36159879974E+01 -0.14283275211E+02  0.28711749015E+01  0.17185683276E+03  0.17120000000E+03 0.  0.
        998    1    1    2    0    0  0.16478946901E+00 -0.25542916539E+01  0.14303689561E+04  0.14304062018E+04  0.10000000000E+02 0.  1.
</event>
<event>
 5    1  0.1338396E-008  0.3818579E+03  0.7957747E-01  0.3443108E+00
         13   -1    0    0    0    0  0.00000000000E+00  0.00000000000E+00  0.14999999963E+04  0.15000000000E+04  0.10566000000E+00 0.  1.
        994   -1    0    0    0    0 -0.00000000000E+00 -0.00000000000E+00  0.11368683772E-12  0.17120000000E+03  0.17120000000E+03 0.  0.
         13    1    1    2    0    0  0.75804546573E+02 -0.52179546299E+02  0.46038816350E+03  0.46949580039E+03  0.10566000000E+00 0.  1.
        994    1    1    2    0    0 -0.14340376376E+03  0.52548399480E+02  0.85021996167E+02  0.24467152180E+03  0.17120000000E+03 0.  0.
        998    1    1    2    0    0  0.67599217191E+02 -0.36885318016E+00  0.95458983661E+03  0.95703267780E+03  0.10000000000E+02 0.  1.
</event>
<event>
 5    1  0.1338396E-008  0.3770429E+03  0.7957747E-01  0.3464136E+00
         13   -1    0    0    0    0  0.00000000000E+00  0.00000000000E+00  0.14999999963E+04  0.15000000000E+04  0.10566000000E+00 0.  1.
        994   -1    0    0    0    0 -0.00000000000E+00 -0.00000000000E+00  0.11368683772E-12  0.17120000000E+03  0.17120000000E+03 0.  0.
         13    1    1    2    0    0 -0.11139026305E+02 -0.10885475203E+01  0.84845921645E+01  0.14045010181E+02  0.10566000000E+00 0.  1.
        994    1    1    2    0    0  0.13193690828E+02 -0.76313005753E+01  0.64180240373E+01  0.17199692224E+03  0.17120000000E+03 0.  0.
        998    1    1    2    0    0 -0.20546645223E+01  0.87198480956E+01  0.14850973801E+04  0.14851580676E+04  0.10000000000E+02 0.  1.
</event>
<event>
 5    1  0.1338396E-008  0.3843483E+03  0.7957747E-01  0.3432441E+00
         13   -1    0    0    0    0  0.00000000000E+00  0.00000000000E+00  0.14999999963E+04  0.15000000000E+04  0.10566000000E+00 0. -1.
        994   -1    0    0    0    0 -0.00000000000E+00 -0.00000000000E+00  0.11368683772E-12  0.17120000000E+03  0.17120000000E+03 0.  0.
         13    1    1    2    0    0 -0.79685925983E+01 -0.19740569688E+02  0.11939209183E+03  0.12127518837E+03  0.10566000000E+00 0. -1.
        994    1    1    2    0    0  0.18657511894E+01  0.92384077872E+01  0.22468407219E+01  0.17147395575E+03  0.17120000000E+03 0.  0.
        998    1    1    2    0    0  0.61028414089E+01  0.10502161901E+02  0.13783610637E+04  0.13784508559E+04  0.10000000000E+02 0. -1.
</event>
<event>
 5    1  0.1338396E-008  0.3854806E+03  0.7957747E-01  0.3427636E+00
         13   -1    0    0    0    0  0.00000000000E+00  0.00000000000E+00  0.14999999963E+04  0.15000000000E+04  0.10566000000E+00 0. -1.
        994   -1    0    0    0    0 -0.00000000000E+00 -0.00000000000E+00  0.11368683772E-12  0.17120000000E+03  0.17120000000E+03 0.  0.
         13    1    1    2    0    0  0.19013053328E+01 -0.12519719442E+02  0.58806870849E+02  0.60154946264E+02  0.10566000000E+00 0. -1.
        994    1    1    2    0    0 -0.91548328722E+00  0.59356286609E+01  0.15101617113E+01  0.17131196802E+03  0.17120000000E+03 0.  0.
        998    1    1    2    0    0 -0.98582204555E+00  0.65840907809E+01  0.14396829637E+04  0.14397330857E+04  0.10000000000E+02 0. -1.
</event>
<event>
 5    1  0.1338396E-008  0.3035819E+03  0.7957747E-01  0.3870775E+00
         13   -1    0    0    0    0  0.00000000000E+00  0.00000000000E+00  0.14999999963E+04  0.15000000000E+04  0.10566000000E+00 0.  1.
        994   -1    0    0    0    0 -0.00000000000E+00 -0.00000000000E+00  0.11368683772E-12  0.17120000000E+03  0.17120000000E+03 0.  0.
         13    1    1    2    0    0  0.37157264044E+02  0.23342435356E+03  0.28323882000E+03  0.36890626374E+03  0.10566000000E+00 0.  1.
        994    1    1    2    0    0 -0.19171294675E+02 -0.26147219567E+03  0.53684299353E+03  0.62148619240E+03  0.17120000000E+03 0.  0.
        998    1    1    2    0    0 -0.17985969369E+02  0.28047842106E+02  0.67991818275E+03  0.68080754386E+03  0.10000000000E+02 0.  1.
</event>
<event>
 5    1  0.1338396E-008  0.3888426E+03  0.7957747E-01  0.3413537E+00
         13   -1    0    0    0    0  0.00000000000E+00  0.00000000000E+00  0.14999999963E+04  0.15000000000E+04  0.10566000000E+00 0. -1.
        994   -1    0    0    0    0 -0.00000000000E+00 -0.00000000000E+00  0.11368683772E-12  0.17120000000E+03  0.17120000000E+03 0.  0.
         13    1    1    2    0    0 -0.36385134181E+02 -0.52511000454E+02  0.98812189888E+02  0.11766538655E+03  0.10566000000E+00 0. -1.
        994    1    1    2    0    0  0.32644606438E+02 -0.12388752296E+02  0.25851392091E+02  0.17662640229E+03  0.17120000000E+03 0.  0.
        998    1    1    2    0    0  0.37405277433E+01  0.64899752750E+02  0.13753364143E+04  0.13769082112E+04  0.10000000000E+02 0. -1.
</event>
<event>
 5    1  0.1338396E-008  0.3850660E+03  0.7957747E-01  0.3429392E+00
         13   -1    0    0    0    0  0.00000000000E+00  0.00000000000E+00  0.14999999963E+04  0.15000000000E+04  0.10566000000E+00 0. -1.
        994   -1    0    0    0    0 -0.00000000000E+00 -0.00000000000E+00  0.11368683772E-12  0.17120000000E+03  0.17120000000E+03 0.  0.
         13    1    1    2    0    0 -0.10524871152E+02 -0.58452088017E+01  0.45491845899E+02  0.47058034235E+02  0.10566000000E+00 0. -1.
        994    1    1    2    0    0  0.64370864915E+01  0.35597098256E+01  0.17752986163E+01  0.17136714767E+03  0.17120000000E+03 0.  0.
        998    1    1    2    0    0  0.40877846609E+01  0.22854989761E+01  0.14527328518E+04  0.14527748181E+04  0.10000000000E+02 0. -1.
</event>
<event>
 5    1  0.1338396E-008  0.3851511E+03  0.7957747E-01  0.3429031E+00
         13   -1    0    0    0    0  0.00000000000E+00  0.00000000000E+00  0.14999999963E+04  0.15000000000E+04  0.10566000000E+00 0. -1.
        994   -1    0    0    0    0 -0.00000000000E+00 -0.00000000000E+00  0.11368683772E-12  0.17120000000E+03  0.17120000000E+03 0.  0.
         13    1    1    2    0    0  0.17492939757E+02 -0.32535870368E+01  0.10634522417E+03  0.10782349761E+03  0.10566000000E+00 0. -1.
        994    1    1    2    0    0 -0.82761634589E+01 -0.89065321872E+01  0.20411591169E+01  0.17164331484E+03  0.17120000000E+03 0.  0.
        998    1    1    2    0    0 -0.92167762977E+01  0.12160119224E+02  0.13916136130E+04  0.13917331876E+04  0.10000000000E+02 0. -1.
</event>
<event>
 5    1  0.1338396E-008  0.3728305E+03  0.7957747E-01  0.3482983E+00
         13   -1    0    0    0    0  0.00000000000E+00  0.00000000000E+00  0.14999999963E+04  0.15000000000E+04  0.10566000000E+00 0. -1.
        994   -1    0    0    0    0 -0.00000000000E+00 -0.00000000000E+00  0.11368683772E-12  0.17120000000E+03  0.17120000000E+03 0.  0.
         13    1    1    2    0    0 -0.65064191942E+01  0.25471091332E+02  0.43092812803E+02  0.50478823913E+02  0.10566000000E+00 0. -1.
        994    1    1    2    0    0  0.10773825836E+02  0.54790173205E+00  0.81956469676E+01  0.17173521523E+03  0.17120000000E+03 0.  0.
        998    1    1    2    0    0 -0.42674066416E+01 -0.26018993064E+02  0.14487115365E+04  0.14489859609E+04  0.10000000000E+02 0. -1.
</event>
<event>
 5    1  0.1338396E-008  0.3847810E+03  0.7957747E-01  0.3430602E+00
         13   -1    0    0    0    0  0.00000000000E+00  0.00000000000E+00  0.14999999963E+04  0.15000000000E+04  0.10566000000E+00 0. -1.
        994   -1    0    0    0    0 -0.00000000000E+00 -0.00000000000E+00  0.11368683772E-12  0.17120000000E+03  0.17120000000E+03 0.  0.
         13    1    1    2    0    0 -0.32510207635E+01 -0.16311229492E+02  0.80512651758E+02  0.82212672993E+02  0.10566000000E+00 0. -1.
        994    1    1    2    0    0  0.96167805802E+01  0.72108318114E+01  0.22145343779E+01  0.17163572684E+03  0.17120000000E+03 0.  0.
        998    1    1    2    0    0 -0.63657598167E+01  0.91003976803E+01  0.14172728101E+04  0.14173516002E+04  0.10000000000E+02 0. -1.
</event>
<event>
 5    1  0.1338396E-008  0.3799421E+03  0.7957747E-01  0.3451411E+00
         13   -1    0    0    0    0  0.00000000000E+00  0.00000000000E+00  0.14999999963E+04  0.15000000000E+04  0.10566000000E+00 0. -1.
        994   -1    0    0    0    0 -0.00000000000E+00 -0.00000000000E+00  0.11368683772E-12  0.17120000000E+03  0.17120000000E+03 0.  0.
         13    1    1    2    0    0  0.50715532221E+01  0.22053998958E+02  0.60494100060E+02  0.64588287082E+02  0.10566000000E+00 0. -1.
        994    1    1    2    0    0 -0.18732002582E+01 -0.12361058524E+02  0.46851503884E+01  0.17171981622E+03  0.17120000000E+03 0.  0.
        998    1    1    2    0    0 -0.31983529639E+01 -0.96929404336E+01  0.14348207458E+04  0.14348918967E+04  0.10000000000E+02 0. -1.
</event>
<event>
 5    1  0.1338396E-008  0.3808069E+03  0.7957747E-01  0.3447653E+00
         13   -1    0    0    0    0  0.00000000000E+00  0.00000000000E+00  0.14999999963E+04  0.15000000000E+04  0.10566000000E+00 0.  1.
        994   -1    0    0    0    0 -0.00000000000E+00 -0.00000000000E+00  0.11368683772E-12  0.17120000000E+03  0.17120000000E+03 0.  0.
         13    1    1    2    0    0  0.15213888787E+02  0.77167526642E+00  0.30359747521E+02  0.33967386245E+02  0.10566000000E+00 0.  1.
        994    1    1    2    0    0 -0.33114776661E+01 -0.12685931716E+01  0.37683298734E+01  0.17127818169E+03  0.17120000000E+03 0.  0.
        998    1    1    2    0    0 -0.11902411121E+02  0.49691790522E+00  0.14658719189E+04  0.14659544321E+04  0.10000000000E+02 0.  1.
</event>
<event>
 5    1  0.1338396E-008  0.3844089E+03  0.7957747E-01  0.3432183E+00
         13   -1    0    0    0    0  0.00000000000E+00  0.00000000000E+00  0.14999999963E+04  0.15000000000E+04  0.10566000000E+00 0.  1.
        994   -1    0    0    0    0 -0.00000000000E+00 -0.00000000000E+00  0.11368683772E-12  0.17120000000E+03  0.17120000000E+03 0.  0.
         13    1    1    2    0    0  0.15200092383E+02 -0.77442673975E+01  0.88744154677E+02  0.90368980515E+02  0.10566000000E+00 0.  1.
        994    1    1    2    0    0  0.12449954936E+01 -0.23040701467E+02  0.36801541879E+01  0.17278717392E+03  0.17120000000E+03 0.  0.
        998    1    1    2    0    0 -0.16445087876E+02  0.30784968864E+02  0.14075756874E+04  0.14080438456E+04  0.10000000000E+02 0.  1.
</event>
<event>
 5    1  0.1338396E-008  0.3716068E+03  0.7957747E-01  0.3488539E+00
         13   -1    0    0    0    0  0.00000000000E+00  0.00000000000E+00  0.14999999963E+04  0.15000000000E+04  0.10566000000E+00 0.  1.
        994   -1    0    0    0    0 -0.00000000000E+00 -0.00000000000E+00  0.11368683772E-12  0.17120000000E+03  0.17120000000E+03 0.  0.
         13    1    1    2    0    0 -0.22662023471E+02  0.19055925032E+02  0.47360551081E+02  0.55854530249E+02  0.10566000000E+00 0.  1.
        994    1    1    2    0    0  0.22931991192E+02 -0.18370717370E+02  0.11406135692E+02  0.17407727999E+03  0.17120000000E+03 0.  0.
        998    1    1    2    0    0 -0.26996772128E+00 -0.68520766159E+00  0.14412333095E+04  0.14412681898E+04  0.10000000000E+02 0.  0.
</event>
<event>
 5    1  0.1338396E-008  0.3727495E+03  0.7957747E-01  0.3483349E+00
         13   -1    0    0    0    0  0.00000000000E+00  0.00000000000E+00  0.14999999963E+04  0.15000000000E+04  0.10566000000E+00 0. -1.
        994   -1    0    0    0    0 -0.00000000000E+00 -0.00000000000E+00  0.11368683772E-12  0.17120000000E+03  0.17120000000E+03 0.  0.
         13    1    1    2    0    0 -0.43108740948E+01 -0.25836097200E+02  0.42601255664E+02  0.50009656090E+02  0.10566000000E+00 0. -1.
        994    1    1    2    0    0 -0.33813819124E+01  0.16765187576E+01  0.78877829693E+01  0.17142316523E+03  0.17120000000E+03 0.  0.
        998    1    1    2    0    0  0.76922560072E+01  0.24159578443E+02  0.14495109576E+04  0.14497671787E+04  0.10000000000E+02 0. -1.
</event>
<event>
 5    1  0.1338396E-008  0.3824557E+03  0.7957747E-01  0.3440535E+00
         13   -1    0    0    0    0  0.00000000000E+00  0.00000000000E+00  0.14999999963E+04  0.15000000000E+04  0.10566000000E+00 0.  1.
        994   -1    0    0    0    0 -0.00000000000E+00 -0.00000000000E+00  0.11368683772E-12  0.17120000000E+03  0.17120000000E+03 0.  0.
         13    1    1    2    0    0  0.28553758527E+02 -0.70684685448E+01  0.13454902650E+03  0.13772702012E+03  0.10566000000E+00 0.  1.
        994    1    1    2    0    0 -0.29785271251E+02  0.11814002483E+02  0.63107345763E+01  0.17428711487E+03  0.17120000000E+03 0.  0.
        998    1    1    2    0    0  0.12315127240E+01 -0.47455339382E+01  0.13591402352E+04  0.13591858650E+04  0.10000000000E+02 0.  0.
</event>
<event>
 5    1  0.1338396E-008  0.3810214E+03  0.7957747E-01  0.3446723E+00
         13   -1    0    0    0    0  0.00000000000E+00  0.00000000000E+00  0.14999999963E+04  0.15000000000E+04  0.10566000000E+00 0. -1.
        994   -1    0    0    0    0 -0.00000000000E+00 -0.00000000000E+00  0.11368683772E-12  0.17120000000E+03  0.17120000000E+03 0.  0.
         13    1    1    2    0    0 -0.29026543744E+02 -0.15238394836E+02  0.15807514416E+03  0.16143887786E+03  0.10566000000E+00 0. -1.
        994    1    1    2    0    0  0.70196574965E+01  0.64215131743E+01  0.39200505015E+01  0.17150894501E+03  0.17120000000E+03 0.  0.
        998    1    1    2    0    0  0.22006886248E+02  0.88168816617E+01  0.13380048016E+04  0.13382521771E+04  0.10000000000E+02 0. -1.
</event>
<event>
 5    1  0.1338396E-008  0.3921064E+03  0.7957747E-01  0.3400081E+00
         13   -1    0    0    0    0  0.00000000000E+00  0.00000000000E+00  0.14999999963E+04  0.15000000000E+04  0.10566000000E+00 0. -1.
        994   -1    0    0    0    0 -0.00000000000E+00 -0.00000000000E+00  0.11368683772E-12  0.17120000000E+03  0.17120000000E+03 0.  0.
         13    1    1    2    0    0  0.13359727063E+03 -0.56501924853E+02  0.33465563072E+03  0.36473977103E+03  0.10566000000E+00 0. -1.
        994    1    1    2    0    0 -0.13016845592E+03  0.61207440848E+02  0.10671114841E+03  0.24776377242E+03  0.17120000000E+03 0.  0.
        998    1    1    2    0    0 -0.34288147112E+01 -0.47055159955E+01  0.10586332171E+04  0.10586964565E+04  0.10000000000E+02 0. -1.
</event>
<event>
 5    1  0.1338396E-008  0.3837645E+03  0.7957747E-01  0.3434929E+00
         13   -1    0    0    0    0  0.00000000000E+00  0.00000000000E+00  0.14999999963E+04  0.15000000000E+04  0.10566000000E+00 0.  1.
        994   -1    0    0    0    0 -0.00000000000E+00 -0.00000000000E+00  0.11368683772E-12  0.17120000000E+03  0.17120000000E+03 0.  0.
         13    1    1    2    0    0 -0.46258442372E+01 -0.96083178572E+01  0.24047708740E+02  0.26306304693E+02  0.10566000000E+00 0.  1.
        994    1    1    2    0    0  0.16370025761E+02  0.76610751908E+01  0.33241665407E+01  0.17218350647E+03  0.17120000000E+03 0.  0.
        998    1    1    2    0    0 -0.11744181524E+02  0.19472426664E+01  0.14726281210E+04  0.14727101888E+04  0.10000000000E+02 0.  1.
</event>
<event>
 5    1  0.1338396E-008  0.3791450E+03  0.7957747E-01  0.3454890E+00
         13   -1    0    0    0    0  0.00000000000E+00  0.00000000000E+00  0.14999999963E+04  0.15000000000E+04  0.10566000000E+00 0.  1.
        994   -1    0    0    0    0 -0.00000000000E+00 -0.00000000000E+00  0.11368683772E-12  0.17120000000E+03  0.17120000000E+03 0.  0.
         13    1    1    2    0    0  0.27596699153E+01  0.36286205601E+02  0.11846437258E+03  0.12392789529E+03  0.10566000000E+00 0.  1.
        994    1    1    2    0    0  0.37531379945E+01 -0.58612231127E+02  0.16217563262E+02  0.18171936892E+03  0.17120000000E+03 0.  0.
        998    1    1    2    0    0 -0.65128079098E+01  0.22326025526E+02  0.13653180604E+04  0.13655527358E+04  0.10000000000E+02 0.  1.
</event>
<event>
 5    1  0.1338396E-008  0.3695618E+03  0.7957747E-01  0.3497907E+00
         13   -1    0    0    0    0  0.00000000000E+00  0.00000000000E+00  0.14999999963E+04  0.15000000000E+04  0.10566000000E+00 0.  1.
        994   -1    0    0    0    0 -0.00000000000E+00 -0.00000000000E+00  0.11368683772E-12  0.17120000000E+03  0.17120000000E+03 0.  0.
         13    1    1    2    0    0 -0.88875274232E+02  0.75654055743E+02  0.28027734090E+03  0.30360788775E+03  0.10566000000E+00 0.  1.
        994    1    1    2    0    0  0.14949427542E+03 -0.15859008080E+03  0.19784796866E+03  0.34051815050E+03  0.17120000000E+03 0.  0.
        998    1    1    2    0    0 -0.60619001192E+02  0.82936025057E+02  0.10218746867E+04  0.10270739617E+04  0.10000000000E+02 0.  1.
</event>
<event>
 5    1  0.1338396E-008  0.3781212E+03  0.7957747E-01  0.3459380E+00
         13   -1    0    0    0    0  0.00000000000E+00  0.00000000000E+00  0.14999999963E+04  0.15000000000E+04  0.10566000000E+00 0.  1.
        994   -1    0    0    0    0 -0.00000000000E+00 -0.00000000000E+00  0.11368683772E-12  0.17120000000E+03  0.17120000000E+03 0.  0.
         13    1    1    2    0    0  0.77154684015E+02 -0.13056687576E+03  0.71572312141E+03  0.73161475655E+03  0.10566000000E+00 0.  1.
        994    1    1    2    0    0 -0.46072325088E+02  0.18938173385E+03  0.14581565836E+03  0.29758989646E+03  0.17120000000E+03 0.  0.
        998    1    1    2    0    0 -0.31082358927E+02 -0.58814858086E+02  0.63846121651E+03  0.64199534699E+03  0.10000000000E+02 0.  1.
</event>
<event>
 5    1  0.1338396E-008  0.3823016E+03  0.7957747E-01  0.3441198E+00
         13   -1    0    0    0    0  0.00000000000E+00  0.00000000000E+00  0.14999999963E+04  0.15000000000E+04  0.10566000000E+00 0. -1.
        994   -1    0    0    0    0 -0.00000000000E+00 -0.00000000000E+00  0.11368683772E-12  0.17120000000E+03  0.17120000000E+03 0.  0.
         13    1    1    2    0    0  0.59365467541E+01 -0.93315259055E+01  0.20548483048E+02  0.23336051138E+02  0.10566000000E+00 0. -1.
        994    1    1    2    0    0 -0.19088357266E+02 -0.26073385055E+02  0.64478202950E+01  0.17434219563E+03  0.17120000000E+03 0.  0.
        998    1    1    2    0    0  0.13151810512E+02  0.35404910961E+02  0.14730036929E+04  0.14735217532E+04  0.10000000000E+02 0. -1.
</event>
<event>
 5    1  0.1338396E-008  0.3825126E+03  0.7957747E-01  0.3440290E+00
         13   -1    0    0    0    0  0.00000000000E+00  0.00000000000E+00  0.14999999963E+04  0.15000000000E+04  0.10566000000E+00 0. -1.
        994   -1    0    0    0    0 -0.00000000000E+00 -0.00000000000E+00  0.11368683772E-12  0.17120000000E+03  0.17120000000E+03 0.  0.
         13    1    1    2    0    0  0.60806825254E+02  0.22885143877E+02  0.35954854271E+03  0.36537154451E+03  0.10566000000E+00 0. -1.
        994    1    1    2    0    0 -0.10317453743E+03 -0.19853506362E+02  0.40375322474E+02  0.20488717274E+03  0.17120000000E+03 0.  0.
        998    1    1    2    0    0  0.42367712176E+02 -0.30316375156E+01  0.11000761311E+04  0.11009412827E+04  0.10000000000E+02 0. -1.
</event>
<event>
 5    1  0.1338396E-008  0.3835644E+03  0.7957747E-01  0.3435784E+00
         13   -1    0    0    0    0  0.00000000000E+00  0.00000000000E+00  0.14999999963E+04  0.15000000000E+04  0.10566000000E+00 0. -1.
        994   -1    0    0    0    0 -0.00000000000E+00 -0.00000000000E+00  0.11368683772E-12  0.17120000000E+03  0.17120000000E+03 0.  0.
         13    1    1    2    0    0  0.20696565640E+01  0.10270507841E+02  0.22828708458E+02  0.25118278275E+02  0.10566000000E+00 0. -1.
        994    1    1    2    0    0  0.34588853791E+01 -0.53165022697E+01  0.24775193726E+01  0.17133536467E+03  0.17120000000E+03 0.  0.
        998    1    1    2    0    0 -0.55285419431E+01 -0.49540055708E+01  0.14746937684E+04  0.14747463571E+04  0.10000000000E+02 0. -1.
</event>
<event>
 5    1  0.1338396E-008  0.3791225E+03  0.7957747E-01  0.3454988E+00
         13   -1    0    0    0    0  0.00000000000E+00  0.00000000000E+00  0.14999999963E+04  0.15000000000E+04  0.10566000000E+00 0. -1.
        994   -1    0    0    0    0 -0.00000000000E+00 -0.00000000000E+00  0.11368683772E-12  0.17120000000E+03  0.17120000000E+03 0.  0.
         13    1    1    2    0    0 -0.21862706539E+02  0.41841855582E+01  0.52310400685E+02  0.56849578097E+02  0.10566000000E+00 0. -1.
        994    1    1    2    0    0  0.17570935365E+02  0.12051709121E+02  0.61002720376E+01  0.17262860360E+03  0.17120000000E+03 0.  0.
        998    1    1    2    0    0  0.42917711741E+01 -0.16235894680E+02  0.14415893236E+04  0.14417218183E+04  0.10000000000E+02 0. -1.
</event>
<event>
 5    1  0.1338396E-008  0.3758005E+03  0.7957747E-01  0.3469650E+00
         13   -1    0    0    0    0  0.00000000000E+00  0.00000000000E+00  0.14999999963E+04  0.15000000000E+04  0.10566000000E+00 0. -1.
        994   -1    0    0    0    0 -0.00000000000E+00 -0.00000000000E+00  0.11368683772E-12  0.17120000000E+03  0.17120000000E+03 0.  0.
         13    1    1    2    0    0  0.39009537070E+01  0.12130992159E+03  0.61927396742E+03  0.63105591860E+03  0.10566000000E+00 0. -1.
        994    1    1    2    0    0 -0.83698545374E+01 -0.12560481173E+03  0.62036199599E+02  0.22136972073E+03  0.17120000000E+03 0.  0.
        998    1    1    2    0    0  0.44689008304E+01  0.42948901371E+01  0.81868982926E+03  0.81877436067E+03  0.10000000000E+02 0. -1.
</event>
<event>
 5    1  0.1338396E-008  0.3835794E+03  0.7957747E-01  0.3435720E+00
         13   -1    0    0    0    0  0.00000000000E+00  0.00000000000E+00  0.14999999963E+04  0.15000000000E+04  0.10566000000E+00 0. -1.
        994   -1    0    0    0    0 -0.00000000000E+00 -0.00000000000E+00  0.11368683772E-12  0.17120000000E+03  0.17120000000E+03 0.  0.
         13    1    1    2    0    0 -0.10996337333E+02  0.14476710775E+01  0.25381201239E+02  0.27698948115E+02  0.10566000000E+00 0. -1.
        994    1    1    2    0    0  0.10869088942E+02  0.87659573183E+01  0.29815448522E+01  0.17179437916E+03  0.17120000000E+03 0.  0.
        998    1    1    2    0    0  0.12724839097E+00 -0.10213628396E+02  0.14716372502E+04  0.14717066727E+04  0.10000000000E+02 0. -1.
</event>
<event>
 5    1  0.1338396E-008  0.3825520E+03  0.7957747E-01  0.3440121E+00
         13   -1    0    0    0    0  0.00000000000E+00  0.00000000000E+00  0.14999999963E+04  0.15000000000E+04  0.10566000000E+00 0.  1.
        994   -1    0    0    0    0 -0.00000000000E+00 -0.00000000000E+00  0.11368683772E-12  0.17120000000E+03  0.17120000000E+03 0.  0.
         13    1    1    2    0    0  0.14781071101E+02  0.14831696037E+01  0.36980763845E+02  0.39853079098E+02  0.10566000000E+00 0.  1.
        994    1    1    2    0    0 -0.15778389268E+02  0.35134678162E+01  0.37170932908E+01  0.17200162443E+03  0.17120000000E+03 0.  0.
        998    1    1    2    0    0  0.99731816705E+00 -0.49966374198E+01  0.14593021391E+04  0.14593452965E+04  0.10000000000E+02 0.  1.
</event>
<event>
 5    1  0.1338396E-008  0.3842418E+03  0.7957747E-01  0.3432894E+00
         13   -1    0    0    0    0  0.00000000000E+00  0.00000000000E+00  0.14999999963E+04  0.15000000000E+04  0.10566000000E+00 0. -1.
        994   -1    0    0    0    0 -0.00000000000E+00 -0.00000000000E+00  0.11368683772E-12  0.17120000000E+03  0.17120000000E+03 0.  0.
         13    1    1    2    0    0  0.88732916361E+02 -0.57421426114E+02  0.60592995631E+03  0.61507875410E+03  0.10566000000E+00 0. -1.
        994    1    1    2    0    0 -0.11055136728E+03 -0.11157454315E+03  0.11625696883E+03  0.25979916530E+03  0.17120000000E+03 0.  0.
        998    1    1    2    0    0  0.21818450918E+02  0.16899596927E+03  0.77781307114E+03  0.79632208061E+03  0.10000000000E+02 0. -1.
</event>
<event>
 5    1  0.1338396E-008  0.3852157E+03  0.7957747E-01  0.3428758E+00
         13   -1    0    0    0    0  0.00000000000E+00  0.00000000000E+00  0.14999999963E+04  0.15000000000E+04  0.10566000000E+00 0. -1.
        994   -1    0    0    0    0 -0.00000000000E+00 -0.00000000000E+00  0.11368683772E-12  0.17120000000E+03  0.17120000000E+03 0.  0.
         13    1    1    2    0    0  0.57955456605E+01  0.16716034977E+02  0.95785704216E+02  0.97405987860E+02  0.10566000000E+00 0. -1.
        994    1    1    2    0    0 -0.15717964487E+02 -0.16481714051E+02  0.32295725582E+01  0.17273844808E+03  0.17120000000E+03 0.  0.
        998    1    1    2    0    0  0.99224188270E+01 -0.23432092570E+00  0.14009847195E+04  0.14010555641E+04  0.10000000000E+02 0. -1.
</event>
<event>
 5    1  0.1338396E-008  0.3854286E+03  0.7957747E-01  0.3427856E+00
         13   -1    0    0    0    0  0.00000000000E+00  0.00000000000E+00  0.14999999963E+04  0.15000000000E+04  0.10566000000E+00 0.  1.
        994   -1    0    0    0    0 -0.00000000000E+00 -0.00000000000E+00  0.11368683772E-12  0.17120000000E+03  0.17120000000E+03 0.  0.
         13    1    1    2    0    0 -0.10165629835E+02 -0.33798659909E+01  0.40963999521E+02  0.42341751792E+02  0.10566000000E+00 0.  1.
        994    1    1    2    0    0  0.33148401814E+01  0.73785906639E+01  0.16324071036E+01  0.17139876464E+03  0.17120000000E+03 0.  0.
        998    1    1    2    0    0  0.68507896533E+01 -0.39987246730E+01  0.14574035897E+04  0.14574594836E+04  0.10000000000E+02 0.  1.
</event>
<event>
 5    1  0.1338396E-008  0.3816838E+03  0.7957747E-01  0.3443859E+00
         13   -1    0    0    0    0  0.00000000000E+00  0.00000000000E+00  0.14999999963E+04  0.15000000000E+04  0.10566000000E+00 0. -1.
        994   -1    0    0    0    0 -0.00000000000E+00 -0.00000000000E+00  0.11368683772E-12  0.17120000000E+03  0.17120000000E+03 0.  0.
         13    1    1    2    0    0  0.14985957630E+02  0.13262519390E+02  0.43286541297E+01  0.20474905550E+02  0.10566000000E+00 0. -1.
        994    1    1    2    0    0 -0.96927309488E+01  0.21144687494E+02  0.19230292912E+02  0.17383984298E+03  0.17120000000E+03 0.  0.
        998    1    1    2    0    0 -0.52932266809E+01 -0.34407206885E+02  0.14764410492E+04  0.14768852515E+04  0.10000000000E+02 0. -1.
</event>
<event>
 5    1  0.1338396E-008  0.2093399E+03  0.7957747E-01  0.4875480E+00
         13   -1    0    0    0    0  0.00000000000E+00  0.00000000000E+00  0.14999999963E+04  0.15000000000E+04  0.10566000000E+00 0. -1.
        994   -1    0    0    0    0 -0.00000000000E+00 -0.00000000000E+00  0.11368683772E-12  0.17120000000E+03  0.17120000000E+03 0.  0.
         13    1    1    2    0    0  0.12007855034E+03  0.31686792751E+02  0.78743781014E+02  0.14704932947E+03  0.10566000000E+00 0. -1.
        994    1    1    2    0    0 -0.69718655379E+02 -0.12008209196E+03  0.19699671249E+03  0.29563075694E+03  0.17120000000E+03 0.  0.
        998    1    1    2    0    0 -0.50359894958E+02  0.88395299210E+02  0.12242595028E+04  0.12285199136E+04  0.10000000000E+02 0. -1.
</event>
<event>
 5    1  0.1338396E-008  0.3775529E+03  0.7957747E-01  0.3461883E+00
         13   -1    0    0    0    0  0.00000000000E+00  0.00000000000E+00  0.14999999963E+04  0.15000000000E+04  0.10566000000E+00 0. -1.
        994   -1    0    0    0    0 -0.00000000000E+00 -0.00000000000E+00  0.11368683772E-12  0.17120000000E+03  0.17120000000E+03 0.  0.
         13    1    1    2    0    0  0.46813307057E+02 -0.71869060099E+02  0.20718316794E+03  0.22423542039E+03  0.10566000000E+00 0. -1.
        994    1    1    2    0    0 -0.57466212924E+02  0.64978928036E+02  0.42535737654E+02  0.19657913342E+03  0.17120000000E+03 0.  0.
        998    1    1    2    0    0  0.10652905867E+02  0.68901320630E+01  0.12502810907E+04  0.12503854462E+04  0.10000000000E+02 0. -1.
</event>
<event>
 5    1  0.1338396E-008  0.3786391E+03  0.7957747E-01  0.3457106E+00
         13   -1    0    0    0    0  0.00000000000E+00  0.00000000000E+00  0.14999999963E+04  0.15000000000E+04  0.10566000000E+00 0.  1.
        994   -1    0    0    0    0 -0.00000000000E+00 -0.00000000000E+00  0.11368683772E-12  0.17120000000E+03  0.17120000000E+03 0.  0.
         13    1    1    2    0    0 -0.91473379713E+01  0.17579841720E+02  0.41027112443E+02  0.45562701262E+02  0.10566000000E+00 0.  1.
        994    1    1    2    0    0 -0.17042530024E+01  0.31529869298E+01  0.48648541014E+01  0.17130660411E+03  0.17120000000E+03 0.  0.
        998    1    1    2    0    0  0.10851590974E+02 -0.20732828650E+02  0.14541080297E+04  0.14543306946E+04  0.10000000000E+02 0.  1.
</event>
<event>
 5    1  0.1338396E-008  0.3731390E+03  0.7957747E-01  0.3481588E+00
         13   -1    0    0    0    0  0.00000000000E+00  0.00000000000E+00  0.14999999963E+04  0.15000000000E+04  0.10566000000E+00 0. -1.
        994   -1    0    0    0    0 -0.00000000000E+00 -0.00000000000E+00  0.11368683772E-12  0.17120000000E+03  0.17120000000E+03 0.  0.
         13    1    1    2    0    0 -0.11086018339E+02 -0.40636327116E+02  0.10818013074E+03  0.11609118285E+03  0.10566000000E+00 0. -1.
        994    1    1    2    0    0  0.10004938436E+02  0.35913914737E+02  0.12406811372E+02  0.17565100920E+03  0.17120000000E+03 0.  0.
        998    1    1    2    0    0  0.10810799034E+01  0.47224123789E+01  0.13794130542E+04  0.13794578080E+04  0.10000000000E+02 0. -1.
</event>
<event>
 5    1  0.1338396E-008  0.3696274E+03  0.7957747E-01  0.3497605E+00
         13   -1    0    0    0    0  0.00000000000E+00  0.00000000000E+00  0.14999999963E+04  0.15000000000E+04  0.10566000000E+00 0.  1.
        994   -1    0    0    0    0 -0.00000000000E+00 -0.00000000000E+00  0.11368683772E-12  0.17120000000E+03  0.17120000000E+03 0.  0.
         13    1    1    2    0    0  0.20208660354E+02 -0.49414782398E+02  0.16665707261E+03  0.17499943340E+03  0.10566000000E+00 0.  1.
        994    1    1    2    0    0  0.55203296884E+02  0.32139250852E+02  0.23726269221E+02  0.18426261499E+03  0.17120000000E+03 0.  0.
        998    1    1    2    0    0 -0.75411957238E+02  0.17275531547E+02  0.13096166544E+04  0.13119379516E+04  0.10000000000E+02 0.  1.
</event>
<event>
 5    1  0.1338396E-008  0.3834527E+03  0.7957747E-01  0.3436261E+00
         13   -1    0    0    0    0  0.00000000000E+00  0.00000000000E+00  0.14999999963E+04  0.15000000000E+04  0.10566000000E+00 0. -1.
        994   -1    0    0    0    0 -0.00000000000E+00 -0.00000000000E+00  0.11368683772E-12  0.17120000000E+03  0.17120000000E+03 0.  0.
         13    1    1    2    0    0  0.83607529158E+01 -0.25320481607E+02  0.14125387927E+03  0.14374873408E+03  0.10566000000E+00 0. -1.
        994    1    1    2    0    0 -0.75422765331E+01  0.20236289482E+02  0.39433487776E+01  0.17260180575E+03  0.17120000000E+03 0.  0.
        998    1    1    2    0    0 -0.81847638270E+00  0.50841921258E+01  0.13548027682E+04  0.13548494602E+04  0.10000000000E+02 0. -1.
</event>
<event>
 5    1  0.1338396E-008  0.3841535E+03  0.7957747E-01  0.3433270E+00
         13   -1    0    0    0    0  0.00000000000E+00  0.00000000000E+00  0.14999999963E+04  0.15000000000E+04  0.10566000000E+00 0.  1.
        994   -1    0    0    0    0 -0.00000000000E+00 -0.00000000000E+00  0.11368683772E-12  0.17120000000E+03  0.17120000000E+03 0.  0.
         13    1    1    2    0    0 -0.39098850683E+01  0.12557354567E+02  0.41652907275E+02  0.43680089326E+02  0.10566000000E+00 0.  1.
        994    1    1    2    0    0 -0.13081171626E+01 -0.10005626870E+02  0.23868390519E+01  0.17151373339E+03  0.17120000000E+03 0.  0.
        998    1    1    2    0    0  0.52180022310E+01 -0.25517276968E+01  0.14559602500E+04  0.14560061773E+04  0.10000000000E+02 0.  1.
</event>
<event>
 5    1  0.1338396E-008  0.3805378E+03  0.7957747E-01  0.3448820E+00
         13   -1    0    0    0    0  0.00000000000E+00  0.00000000000E+00  0.14999999963E+04  0.15000000000E+04  0.10566000000E+00 0. -1.
        994   -1    0    0    0    0 -0.00000000000E+00 -0.00000000000E+00  0.11368683772E-12  0.17120000000E+03  0.17120000000E+03 0.  0.
         13    1    1    2    0    0 -0.37562381032E+02 -0.65040880923E+01  0.17614520871E+03  0.18022314321E+03  0.10566000000E+00 0. -1.
        994    1    1    2    0    0  0.32757011532E+02 -0.86125322537E+01  0.76995634224E+01  0.17468806712E+03  0.17120000000E+03 0.  0.
        998    1    1    2    0    0  0.48053695001E+01  0.15116620346E+02  0.13161552241E+04  0.13162887897E+04  0.10000000000E+02 0. -1.
</event>
<event>
 5    1  0.1338396E-008  0.3817626E+03  0.7957747E-01  0.3443519E+00
         13   -1    0    0    0    0  0.00000000000E+00  0.00000000000E+00  0.14999999963E+04  0.15000000000E+04  0.10566000000E+00 0. -1.
        994   -1    0    0    0    0 -0.00000000000E+00 -0.00000000000E+00  0.11368683772E-12  0.17120000000E+03  0.17120000000E+03 0.  0.
         13    1    1    2    0    0  0.12754843493E+02 -0.40583509906E+01  0.26330903012E+02  0.29537837814E+02  0.10566000000E+00 0. -1.
        994    1    1    2    0    0 -0.13652235900E+02 -0.11575666973E+02  0.43115356816E+01  0.17218713352E+03  0.17120000000E+03 0.  0.
        998    1    1    2    0    0  0.89739240769E+00  0.15634017963E+02  0.14693575576E+04  0.14694750287E+04  0.10000000000E+02 0. -1.
</event>
<event>
 5    1  0.1338396E-008  0.3821964E+03  0.7957747E-01  0.3441650E+00
         13   -1    0    0    0    0  0.00000000000E+00  0.00000000000E+00  0.14999999963E+04  0.15000000000E+04  0.10566000000E+00 0.  1.
        994   -1    0    0    0    0 -0.00000000000E+00 -0.00000000000E+00  0.11368683772E-12  0.17120000000E+03  0.17120000000E+03 0.  0.
         13    1    1    2    0    0 -0.20438297805E+02  0.12126693705E+02  0.73702481416E+02  0.77439315908E+02  0.10566000000E+00 0.  1.
        994    1    1    2    0    0  0.31861117493E+02 -0.66245625241E+02  0.21174354344E+02  0.18751375137E+03  0.17120000000E+03 0.  0.
        998    1    1    2    0    0 -0.11422819688E+02  0.54118931536E+02  0.14051231605E+04  0.14062469327E+04  0.10000000000E+02 0.  1.
</event>
<event>
 5    1  0.1338396E-008  0.3828011E+03  0.7957747E-01  0.3439052E+00
         13   -1    0    0    0    0  0.00000000000E+00  0.00000000000E+00  0.14999999963E+04  0.15000000000E+04  0.10566000000E+00 0.  1.
        994   -1    0    0    0    0 -0.00000000000E+00 -0.00000000000E+00  0.11368683772E-12  0.17120000000E+03  0.17120000000E+03 0.  0.
         13    1    1    2    0    0  0.18377993080E+02  0.47084493098E+01  0.65406477056E+02  0.68102412068E+02  0.10566000000E+00 0.  1.
        994    1    1    2    0    0 -0.13343750439E+02  0.51111423064E+01  0.34023779341E+01  0.17182897202E+03  0.17120000000E+03 0.  0.
        998    1    1    2    0    0 -0.50342426417E+01 -0.98195916162E+01  0.14311911413E+04  0.14312686159E+04  0.10000000000E+02 0.  1.
</event>
<event>
 5    1  0.1338396E-008  0.3785996E+03  0.7957747E-01  0.3457279E+00
         13   -1    0    0    0    0  0.00000000000E+00  0.00000000000E+00  0.14999999963E+04  0.15000000000E+04  0.10566000000E+00 0. -1.
        994   -1    0    0    0    0 -0.00000000000E+00 -0.00000000000E+00  0.11368683772E-12  0.17120000000E+03  0.17120000000E+03 0.  0.
         13    1    1    2    0    0 -0.15739685383E+02  0.10761707953E+01  0.23610852165E+02  0.28396819250E+02  0.10566000000E+00 0. -1.
        994    1    1    2    0    0  0.11738602909E+02 -0.66952026933E+01  0.54552795486E+01  0.17181915089E+03  0.17120000000E+03 0.  0.
        998    1    1    2    0    0  0.40010824737E+01  0.56190318980E+01  0.14709338646E+04  0.14709840299E+04  0.10000000000E+02 0. -1.
</event>
<event>
 5    1  0.1338396E-008  0.3752465E+03  0.7957747E-01  0.3472121E+00
         13   -1    0    0    0    0  0.00000000000E+00  0.00000000000E+00  0.14999999963E+04  0.15000000000E+04  0.10566000000E+00 0.  1.
        994   -1    0    0    0    0 -0.00000000000E+00 -0.00000000000E+00  0.11368683772E-12  0.17120000000E+03  0.17120000000E+03 0.  0.
         13    1    1    2    0    0  0.20466727100E+02  0.17872967102E+02  0.20494987531E+02  0.34035063525E+02  0.10566000000E+00 0.  1.
        994    1    1    2    0    0 -0.28225894331E+02 -0.17622752378E+02  0.17694006146E+02  0.17529911684E+03  0.17120000000E+03 0.  0.
        998    1    1    2    0    0  0.77591672305E+01 -0.25021472416E+00  0.14618110026E+04  0.14618658196E+04  0.10000000000E+02 0.  1.
</event>
<event>
 5    1  0.1338396E-008  0.3845330E+03  0.7957747E-01  0.3431655E+00
         13   -1    0    0    0    0  0.00000000000E+00  0.00000000000E+00  0.14999999963E+04  0.15000000000E+04  0.10566000000E+00 0. -1.
        994   -1    0    0    0    0 -0.00000000000E+00 -0.00000000000E+00  0.11368683772E-12  0.17120000000E+03  0.17120000000E+03 0.  0.
         13    1    1    2    0    0  0.13684004586E+01  0.16898328495E+02  0.74490479824E+02  0.76395476136E+02  0.10566000000E+00 0. -1.
        994    1    1    2    0    0  0.39182129934E+01 -0.16577108951E+02  0.28184010639E+01  0.17206840593E+03  0.17120000000E+03 0.  0.
        998    1    1    2    0    0 -0.52866134520E+01 -0.32121954371E+00  0.14226911154E+04  0.14227361179E+04  0.10000000000E+02 0. -1.
</event>
<event>
 5    1  0.1338396E-008  0.3852346E+03  0.7957747E-01  0.3428678E+00
         13   -1    0    0    0    0  0.00000000000E+00  0.00000000000E+00  0.14999999963E+04  0.15000000000E+04  0.10566000000E+00 0. -1.
        994   -1    0    0    0    0 -0.00000000000E+00 -0.00000000000E+00  0.11368683772E-12  0.17120000000E+03  0.17120000000E+03 0.  0.
         13    1    1    2    0    0 -0.13587997289E+02  0.68721808041E+01  0.76624438613E+02  0.78122828265E+02  0.10566000000E+00 0. -1.
        994    1    1    2    0    0  0.97746200519E+01 -0.33608441830E+01  0.18648936167E+01  0.17152188286E+03  0.17120000000E+03 0.  0.
        998    1    1    2    0    0  0.38133772369E+01 -0.35113366211E+01  0.14215106640E+04  0.14215552889E+04  0.10000000000E+02 0. -1.
</event>
<event>
 5    1  0.1338396E-008  0.3847933E+03  0.7957747E-01  0.3430549E+00
         13   -1    0    0    0    0  0.00000000000E+00  0.00000000000E+00  0.14999999963E+04  0.15000000000E+04  0.10566000000E+00 0.  1.
        994   -1    0    0    0    0 -0.00000000000E+00 -0.00000000000E+00  0.11368683772E-12  0.17120000000E+03  0.17120000000E+03 0.  0.
         13    1    1    2    0    0  0.17916825839E+02 -0.36410018201E+01  0.10050329115E+03  0.10215278869E+03  0.10566000000E+00 0.  1.
        994    1    1    2    0    0 -0.72859654599E+01 -0.42576796690E+01  0.19671667616E+01  0.17141914384E+03  0.17120000000E+03 0.  0.
        998    1    1    2    0    0 -0.10630860379E+02  0.78986814890E+01  0.13975295384E+04  0.13976280675E+04  0.10000000000E+02 0.  1.
</event>
<event>
 5    1  0.1338396E-008  0.3862089E+03  0.7957747E-01  0.3424561E+00
         13   -1    0    0    0    0  0.00000000000E+00  0.00000000000E+00  0.14999999963E+04  0.15000000000E+04  0.10566000000E+00 0.  1.
        994   -1    0    0    0    0 -0.00000000000E+00 -0.00000000000E+00  0.11368683772E-12  0.17120000000E+03  0.17120000000E+03 0.  0.
         13    1    1    2    0    0  0.21297974243E+01  0.11234197634E+02  0.54555571350E+02  0.55741050967E+02  0.10566000000E+00 0.  1.
        994    1    1    2    0    0 -0.22402900310E+02 -0.27963553145E+02  0.52481136680E+01  0.17498809372E+03  0.17120000000E+03 0.  0.
        998    1    1    2    0    0  0.20273102885E+02  0.16729355510E+02  0.14401963113E+04  0.14404708553E+04  0.10000000000E+02 0.  1.
</event>
<event>
 5    1  0.1338396E-008  0.3801290E+03  0.7957747E-01  0.3450597E+00
         13   -1    0    0    0    0  0.00000000000E+00  0.00000000000E+00  0.14999999963E+04  0.15000000000E+04  0.10566000000E+00 0. -1.
        994   -1    0    0    0    0 -0.00000000000E+00 -0.00000000000E+00  0.11368683772E-12  0.17120000000E+03  0.17120000000E+03 0.  0.
         13    1    1    2    0    0  0.18376770295E+02  0.11302866471E+02  0.70522816567E+01  0.22698156699E+02  0.10566000000E+00 0. -1.
        994    1    1    2    0    0 -0.12933762264E+02 -0.71100528177E+01  0.17188281391E+02  0.17269253624E+03  0.17120000000E+03 0.  0.
        998    1    1    2    0    0 -0.54430080313E+01 -0.41928136537E+01  0.14757594332E+04  0.14758093071E+04  0.10000000000E+02 0. -1.
</event>
<event>
 5    1  0.1338396E-008  0.3844543E+03  0.7957747E-01  0.3431990E+00
         13   -1    0    0    0    0  0.00000000000E+00  0.00000000000E+00  0.14999999963E+04  0.15000000000E+04  0.10566000000E+00 0.  1.
        994   -1    0    0    0    0 -0.00000000000E+00 -0.00000000000E+00  0.11368683772E-12  0.17120000000E+03  0.17120000000E+03 0.  0.
         13    1    1    2    0    0  0.30777971719E+02 -0.17786297828E+01  0.17663713557E+02  0.35531183595E+02  0.10566000000E+00 0.  1.
        994    1    1    2    0    0 -0.21045087162E+02  0.33896698090E+00  0.20429361223E+02  0.17369458654E+03  0.17120000000E+03 0.  0.
        998    1    1    2    0    0 -0.97328845570E+01  0.14396628019E+01  0.14619069215E+04  0.14619742299E+04  0.10000000000E+02 0.  1.
</event>
<event>
 5    1  0.1338396E-008  0.3809902E+03  0.7957747E-01  0.3446858E+00
         13   -1    0    0    0    0  0.00000000000E+00  0.00000000000E+00  0.14999999963E+04  0.15000000000E+04  0.10566000000E+00 0. -1.
        994   -1    0    0    0    0 -0.00000000000E+00 -0.00000000000E+00  0.11368683772E-12  0.17120000000E+03  0.17120000000E+03 0.  0.
         13    1    1    2    0    0 -0.23567522121E+02  0.10637347206E+02  0.91690789407E+02  0.95266957969E+02  0.10566000000E+00 0. -1.
        994    1    1    2    0    0  0.10219976521E+02 -0.11373320898E+02  0.44135480510E+01  0.17193812769E+03  0.17120000000E+03 0.  0.
        998    1    1    2    0    0  0.13347545600E+02  0.73597369144E+00  0.14038956588E+04  0.14039949143E+04  0.10000000000E+02 0. -1.
</event>
<event>
 5    1  0.1338396E-008  0.3806035E+03  0.7957747E-01  0.3448535E+00
         13   -1    0    0    0    0  0.00000000000E+00  0.00000000000E+00  0.14999999963E+04  0.15000000000E+04  0.10566000000E+00 0.  1.
        994   -1    0    0    0    0 -0.00000000000E+00 -0.00000000000E+00  0.11368683772E-12  0.17120000000E+03  0.17120000000E+03 0.  0.
         13    1    1    2    0    0 -0.35250870655E+02  0.95402840607E+01  0.19213950186E+03  0.19557924286E+03  0.10566000000E+00 0.  1.
        994    1    1    2    0    0  0.78048437978E+01  0.68061172524E+00  0.40335980162E+01  0.17142662784E+03  0.17120000000E+03 0.  0.
        998    1    1    2    0    0  0.27446026857E+02 -0.10220895786E+02  0.13038268964E+04  0.13041941293E+04  0.10000000000E+02 0.  1.
</event>
<event>
 5    1  0.1338396E-008  0.3831935E+03  0.7957747E-01  0.3437370E+00
         13   -1    0    0    0    0  0.00000000000E+00  0.00000000000E+00  0.14999999963E+04  0.15000000000E+04  0.10566000000E+00 0. -1.
        994   -1    0    0    0    0 -0.00000000000E+00 -0.00000000000E+00  0.11368683772E-12  0.17120000000E+03  0.17120000000E+03 0.  0.
         13    1    1    2    0    0 -0.88708115655E+01  0.15605393501E+02  0.65043417209E+02  0.67475009377E+02  0.10566000000E+00 0. -1.
        994    1    1    2    0    0 -0.40533121521E+01 -0.86267411727E+01  0.28303023677E+01  0.17148848537E+03  0.17120000000E+03 0.  0.
        998    1    1    2    0    0  0.12924123718E+02 -0.69786523285E+01  0.14321262767E+04  0.14322365053E+04  0.10000000000E+02 0. -1.
</event>
<event>
 5    1  0.1338396E-008  0.3809227E+03  0.7957747E-01  0.3447151E+00
         13   -1    0    0    0    0  0.00000000000E+00  0.00000000000E+00  0.14999999963E+04  0.15000000000E+04  0.10566000000E+00 0. -1.
        994   -1    0    0    0    0 -0.00000000000E+00 -0.00000000000E+00  0.11368683772E-12  0.17120000000E+03  0.17120000000E+03 0.  0.
         13    1    1    2    0    0 -0.27797367561E+02  0.18213097763E+02  0.16252799873E+03  0.16589084396E+03  0.10566000000E+00 0. -1.
        994    1    1    2    0    0  0.96843098061E+01  0.95856335844E+00  0.39837742282E+01  0.17152263745E+03  0.17120000000E+03 0.  0.
        998    1    1    2    0    0  0.18113057755E+02 -0.19171661121E+02  0.13334882233E+04  0.13337865186E+04  0.10000000000E+02 0. -1.
</event>
<event>
 5    1  0.1338396E-008  0.3850443E+03  0.7957747E-01  0.3429484E+00
         13   -1    0    0    0    0  0.00000000000E+00  0.00000000000E+00  0.14999999963E+04  0.15000000000E+04  0.10566000000E+00 0.  1.
        994   -1    0    0    0    0 -0.00000000000E+00 -0.00000000000E+00  0.11368683772E-12  0.17120000000E+03  0.17120000000E+03 0.  0.
         13    1    1    2    0    0  0.11773507557E+02 -0.12349055873E+02  0.92163903282E+02  0.93729989296E+02  0.10566000000E+00 0.  1.
        994    1    1    2    0    0 -0.37591377945E+01  0.85075887510E+01  0.18926527475E+01  0.17146291820E+03  0.17120000000E+03 0.  0.
        998    1    1    2    0    0 -0.80143697624E+01  0.38414671220E+01  0.14059434402E+04  0.14060070925E+04  0.10000000000E+02 0.  1.
</event>
<event>
 5    1  0.1338396E-008  0.3712464E+03  0.7957747E-01  0.3490182E+00
         13   -1    0    0    0    0  0.00000000000E+00  0.00000000000E+00  0.14999999963E+04  0.15000000000E+04  0.10566000000E+00 0.  1.
        994   -1    0    0    0    0 -0.00000000000E+00 -0.00000000000E+00  0.11368683772E-12  0.17120000000E+03  0.17120000000E+03 0.  0.
         13    1    1    2    0    0  0.52678848286E+02  0.25755605546E+02  0.15911675058E+03  0.16957760392E+03  0.10566000000E+00 0.  1.
        994    1    1    2    0    0 -0.75517936067E+02 -0.26651407353E+02  0.31033775604E+02  0.19153535290E+03  0.17120000000E+03 0.  0.
        998    1    1    2    0    0  0.22839087781E+02  0.89580180672E+00  0.13098494701E+04  0.13100870432E+04  0.10000000000E+02 0.  1.
</event>
<event>
 5    1  0.1338396E-008  0.3684407E+03  0.7957747E-01  0.3503088E+00
         13   -1    0    0    0    0  0.00000000000E+00  0.00000000000E+00  0.14999999963E+04  0.15000000000E+04  0.10566000000E+00 0.  1.
        994   -1    0    0    0    0 -0.00000000000E+00 -0.00000000000E+00  0.11368683772E-12  0.17120000000E+03  0.17120000000E+03 0.  0.
         13    1    1    2    0    0  0.66586050375E+02 -0.36631665275E+02  0.20167826406E+03  0.21552195796E+03  0.10566000000E+00 0.  1.
        994    1    1    2    0    0 -0.89621390578E+02  0.70080443606E+02  0.56535536554E+02  0.21318763829E+03  0.17120000000E+03 0.  0.
        998    1    1    2    0    0  0.23035340203E+02 -0.33448778332E+02  0.12417861957E+04  0.12424904037E+04  0.10000000000E+02 0.  1.
</event>
<event>
 5    1  0.1338396E-008  0.3824309E+03  0.7957747E-01  0.3440642E+00
         13   -1    0    0    0    0  0.00000000000E+00  0.00000000000E+00  0.14999999963E+04  0.15000000000E+04  0.10566000000E+00 0. -1.
        994   -1    0    0    0    0 -0.00000000000E+00 -0.00000000000E+00  0.11368683772E-12  0.17120000000E+03  0.17120000000E+03 0.  0.
         13    1    1    2    0    0 -0.14539114774E+02 -0.93848479622E+01  0.52470270623E+02  0.55250354686E+02  0.10566000000E+00 0. -1.
        994    1    1    2    0    0  0.13104013581E+01  0.29097102768E+01  0.29448308117E+01  0.17125506005E+03  0.17120000000E+03 0.  0.
        998    1    1    2    0    0  0.13228713416E+02  0.64751376854E+01  0.14445848948E+04  0.14446945853E+04  0.10000000000E+02 0. -1.
</event>
<event>
 5    1  0.1338396E-008  0.3807058E+03  0.7957747E-01  0.3448091E+00
         13   -1    0    0    0    0  0.00000000000E+00  0.00000000000E+00  0.14999999963E+04  0.15000000000E+04  0.10566000000E+00 0.  1.
        994   -1    0    0    0    0 -0.00000000000E+00 -0.00000000000E+00  0.11368683772E-12  0.17120000000E+03  0.17120000000E+03 0.  0.
         13    1    1    2    0    0 -0.19549857990E+02  0.16692858077E+02  0.82823926868E+02  0.86721753235E+02  0.10566000000E+00 0.  1.
        994    1    1    2    0    0  0.10835020486E+02 -0.24551898106E+02  0.61829268379E+01  0.17340087068E+03  0.17120000000E+03 0.  0.
        998    1    1    2    0    0  0.87148375041E+01  0.78590400288E+01  0.14109931426E+04  0.14110773761E+04  0.10000000000E+02 0.  1.
</event>
<event>
 5    1  0.1338396E-008  0.3756482E+03  0.7957747E-01  0.3470329E+00
         13   -1    0    0    0    0  0.00000000000E+00  0.00000000000E+00  0.14999999963E+04  0.15000000000E+04  0.10566000000E+00 0. -1.
        994   -1    0    0    0    0 -0.00000000000E+00 -0.00000000000E+00  0.11368683772E-12  0.17120000000E+03  0.17120000000E+03 0.  0.
         13    1    1    2    0    0 -0.33064060439E+02  0.34313339351E+01  0.81501911889E+02  0.88020332599E+02  0.10566000000E+00 0. -1.
        994    1    1    2    0    0  0.30265167847E+02 -0.55377223791E+01  0.95637467058E+01  0.17420548787E+03  0.17120000000E+03 0.  0.
        998    1    1    2    0    0  0.27988925913E+01  0.21063884440E+01  0.14089343377E+04  0.14089741795E+04  0.10000000000E+02 0. -1.
</event>
<event>
 5    1  0.1338396E-008  0.3859143E+03  0.7957747E-01  0.3425804E+00
         13   -1    0    0    0    0  0.00000000000E+00  0.00000000000E+00  0.14999999963E+04  0.15000000000E+04  0.10566000000E+00 0. -1.
        994   -1    0    0    0    0 -0.00000000000E+00 -0.00000000000E+00  0.11368683772E-12  0.17120000000E+03  0.17120000000E+03 0.  0.
         13    1    1    2    0    0 -0.68763747875E+00  0.10596454662E+02  0.47691802723E+02  0.48859767782E+02  0.10566000000E+00 0. -1.
        994    1    1    2    0    0  0.54430334510E+01 -0.91559127849E+01  0.15489670566E+01  0.17153803267E+03  0.17120000000E+03 0.  0.
        998    1    1    2    0    0 -0.47553959723E+01 -0.14405418775E+01  0.14507592265E+04  0.14508021996E+04  0.10000000000E+02 0. -1.
</event>
<event>
 5    1  0.1338396E-008  0.3695784E+03  0.7957747E-01  0.3497831E+00
         13   -1    0    0    0    0  0.00000000000E+00  0.00000000000E+00  0.14999999963E+04  0.15000000000E+04  0.10566000000E+00 0.  1.
        994   -1    0    0    0    0 -0.00000000000E+00 -0.00000000000E+00  0.11368683772E-12  0.17120000000E+03  0.17120000000E+03 0.  0.
         13    1    1    2    0    0  0.12739691862E+03 -0.16072041926E+03  0.76839626243E+03  0.79529482289E+03  0.10566000000E+00 0.  1.
        994    1    1    2    0    0 -0.12498904813E+03  0.16038929784E+03  0.17287987487E+03  0.31708654993E+03  0.17120000000E+03 0.  0.
        998    1    1    2    0    0 -0.24078704864E+01  0.33112142030E+00  0.55872385898E+03  0.55881862717E+03  0.10000000000E+02 0.  0.
</event>
<event>
 5    1  0.1338396E-008  0.3713273E+03  0.7957747E-01  0.3489813E+00
         13   -1    0    0    0    0  0.00000000000E+00  0.00000000000E+00  0.14999999963E+04  0.15000000000E+04  0.10566000000E+00 0.  1.
        994   -1    0    0    0    0 -0.00000000000E+00 -0.00000000000E+00  0.11368683772E-12  0.17120000000E+03  0.17120000000E+03 0.  0.
         13    1    1    2    0    0 -0.56163665454E+02 -0.36529434579E+02  0.31168179862E+03  0.31880136710E+03  0.10566000000E+00 0.  1.
        994    1    1    2    0    0 -0.24969885329E+01  0.28462067619E+02  0.11391779074E+02  0.17394118798E+03  0.17120000000E+03 0.  0.
        998    1    1    2    0    0  0.58660653986E+02  0.80673669602E+01  0.11769264186E+04  0.11784574449E+04  0.10000000000E+02 0.  1.
</event>
<event>
 5    1  0.1338396E-008  0.3830646E+03  0.7957747E-01  0.3437922E+00
         13   -1    0    0    0    0  0.00000000000E+00  0.00000000000E+00  0.14999999963E+04  0.15000000000E+04  0.10566000000E+00 0. -1.
        994   -1    0    0    0    0 -0.00000000000E+00 -0.00000000000E+00  0.11368683772E-12  0.17120000000E+03  0.17120000000E+03 0.  0.
         13    1    1    2    0    0 -0.48402439035E+02  0.21904773178E+00  0.28049665323E+03  0.28464228028E+03  0.10566000000E+00 0. -1.
        994    1    1    2    0    0  0.74258096480E+02 -0.30265874531E+01  0.21093346345E+02  0.18782383870E+03  0.17120000000E+03 0.  0.
        998    1    1    2    0    0 -0.25855657445E+02  0.28075397213E+01  0.11984099967E+04  0.11987338810E+04  0.10000000000E+02 0. -1.
</event>
<event>
 5    1  0.1338396E-008  0.3746737E+03  0.7957747E-01  0.3474683E+00
         13   -1    0    0    0    0  0.00000000000E+00  0.00000000000E+00  0.14999999963E+04  0.15000000000E+04  0.10566000000E+00 0. -1.
        994   -1    0    0    0    0 -0.00000000000E+00 -0.00000000000E+00  0.11368683772E-12  0.17120000000E+03  0.17120000000E+03 0.  0.
         13    1    1    2    0    0  0.35521818073E+01 -0.34960846006E+02  0.98199835701E+02  0.10429811909E+03  0.10566000000E+00 0. -1.
        994    1    1    2    0    0  0.44048822035E+01 -0.48376888130E+01  0.69920679000E+01  0.17146759237E+03  0.17120000000E+03 0.  0.
        998    1    1    2    0    0 -0.79570640108E+01  0.39798534819E+02  0.13948080927E+04  0.13954342885E+04  0.10000000000E+02 0. -1.
</event>
<event>
 5    1  0.1338396E-008  0.3808798E+03  0.7957747E-01  0.3447337E+00
         13   -1    0    0    0    0  0.00000000000E+00  0.00000000000E+00  0.14999999963E+04  0.15000000000E+04  0.10566000000E+00 0. -1.
        994   -1    0    0    0    0 -0.00000000000E+00 -0.00000000000E+00  0.11368683772E-12  0.17120000000E+03  0.17120000000E+03 0.  0.
         13    1    1    2    0    0  0.21329455409E+02  0.14014114780E+02  0.86497089243E+02  0.90183694162E+02  0.10566000000E+00 0. -1.
        994    1    1    2    0    0 -0.13295956638E+02 -0.10639444692E+02  0.46568703160E+01  0.17210783447E+03  0.17120000000E+03 0.  0.
        998    1    1    2    0    0 -0.80334987710E+01 -0.33746700873E+01  0.14088460367E+04  0.14089084714E+04  0.10000000000E+02 0. -1.
</event>
<event>
 5    1  0.1338396E-008  0.3842489E+03  0.7957747E-01  0.3432864E+00
         13   -1    0    0    0    0  0.00000000000E+00  0.00000000000E+00  0.14999999963E+04  0.15000000000E+04  0.10566000000E+00 0.  1.
        994   -1    0    0    0    0 -0.00000000000E+00 -0.00000000000E+00  0.11368683772E-12  0.17120000000E+03  0.17120000000E+03 0.  0.
         13    1    1    2    0    0  0.11511434698E+02  0.19628278715E+02  0.12710897304E+03  0.12912972022E+03  0.10566000000E+00 0.  1.
        994    1    1    2    0    0 -0.10937868429E+02 -0.11835054967E+02  0.28601202104E+01  0.17198059710E+03  0.17120000000E+03 0.  0.
        998    1    1    2    0    0 -0.57356626944E+00 -0.77932237486E+01  0.13700309030E+04  0.13700896827E+04  0.10000000000E+02 0.  1.
</event>
<event>
 5    1  0.1338396E-008  0.3790671E+03  0.7957747E-01  0.3455230E+00
         13   -1    0    0    0    0  0.00000000000E+00  0.00000000000E+00  0.14999999963E+04  0.15000000000E+04  0.10566000000E+00 0. -1.
        994   -1    0    0    0    0 -0.00000000000E+00 -0.00000000000E+00  0.11368683772E-12  0.17120000000E+03  0.17120000000E+03 0.  0.
         13    1    1    2    0    0  0.58783149311E+01 -0.14689074735E+02  0.25610187124E+02  0.30103427572E+02  0.10566000000E+00 0. -1.
        994    1    1    2    0    0 -0.18849720644E+02 -0.70027425204E+00  0.57987865151E+01  0.17233359590E+03  0.17120000000E+03 0.  0.
        998    1    1    2    0    0  0.12971405713E+02  0.15389348987E+02  0.14685910226E+04  0.14687629765E+04  0.10000000000E+02 0. -1.
</event>
<event>
 5    1  0.1338396E-008  0.3823957E+03  0.7957747E-01  0.3440793E+00
         13   -1    0    0    0    0  0.00000000000E+00  0.00000000000E+00  0.14999999963E+04  0.15000000000E+04  0.10566000000E+00 0. -1.
        994   -1    0    0    0    0 -0.00000000000E+00 -0.00000000000E+00  0.11368683772E-12  0.17120000000E+03  0.17120000000E+03 0.  0.
         13    1    1    2    0    0 -0.52806838489E+01 -0.97064610169E+01  0.19610421590E+02  0.22509571439E+02  0.10566000000E+00 0. -1.
        994    1    1    2    0    0  0.30885923873E+01  0.90581019114E+01  0.32325118325E+01  0.17149774852E+03  0.17120000000E+03 0.  0.
        998    1    1    2    0    0  0.21920914616E+01  0.64835910543E+00  0.14771570629E+04  0.14771926800E+04  0.10000000000E+02 0. -1.
</event>
<event>
 5    1  0.1338396E-008  0.3704647E+03  0.7957747E-01  0.3493758E+00
         13   -1    0    0    0    0  0.00000000000E+00  0.00000000000E+00  0.14999999963E+04  0.15000000000E+04  0.10566000000E+00 0.  1.
        994   -1    0    0    0    0 -0.00000000000E+00 -0.00000000000E+00  0.11368683772E-12  0.17120000000E+03  0.17120000000E+03 0.  0.
         13    1    1    2    0    0  0.35921677749E+02 -0.26246844142E+02  0.81801910471E+02  0.93117278099E+02  0.10566000000E+00 0.  1.
        994    1    1    2    0    0 -0.28935147171E+02  0.26207268819E+02  0.16540471711E+02  0.17637202410E+03  0.17120000000E+03 0.  0.
        998    1    1    2    0    0 -0.69865305784E+01  0.39575322942E-01  0.14016576141E+04  0.14017106978E+04  0.10000000000E+02 0.  1.
</event>
<event>
 5    1  0.1338396E-008  0.3854741E+03  0.7957747E-01  0.3427664E+00
         13   -1    0    0    0    0  0.00000000000E+00  0.00000000000E+00  0.14999999963E+04  0.15000000000E+04  0.10566000000E+00 0. -1.
        994   -1    0    0    0    0 -0.00000000000E+00 -0.00000000000E+00  0.11368683772E-12  0.17120000000E+03  0.17120000000E+03 0.  0.
         13    1    1    2    0    0 -0.13774987616E+02  0.72421717383E+00  0.66064778428E+02  0.67489561320E+02  0.10566000000E+00 0. -1.
        994    1    1    2    0    0  0.14429897035E+02 -0.14829423869E+01  0.20861624463E+01  0.17182611303E+03  0.17120000000E+03 0.  0.
        998    1    1    2    0    0 -0.65490941910E+00  0.75872521305E+00  0.14318490554E+04  0.14318843256E+04  0.10000000000E+02 0. -1.
</event>
<event>
 5    1  0.1338396E-008  0.3833930E+03  0.7957747E-01  0.3436517E+00
         13   -1    0    0    0    0  0.00000000000E+00  0.00000000000E+00  0.14999999963E+04  0.15000000000E+04  0.10566000000E+00 0.  1.
        994   -1    0    0    0    0 -0.00000000000E+00 -0.00000000000E+00  0.11368683772E-12  0.17120000000E+03  0.17120000000E+03 0.  0.
         13    1    1    2    0    0  0.10591709304E+02 -0.76621886141E+00  0.23368295416E+02  0.25668264297E+02  0.10566000000E+00 0.  1.
        994    1    1    2    0    0  0.55525059338E+01 -0.15828748709E+01  0.25403233583E+01  0.17131616695E+03  0.17120000000E+03 0.  0.
        998    1    1    2    0    0 -0.16144215238E+02  0.23490937323E+01  0.14740913775E+04  0.14742155688E+04  0.10000000000E+02 0.  1.
</event>
<event>
 5    1  0.1338396E-008  0.3820073E+03  0.7957747E-01  0.3442464E+00
         13   -1    0    0    0    0  0.00000000000E+00  0.00000000000E+00  0.14999999963E+04  0.15000000000E+04  0.10566000000E+00 0.  1.
        994   -1    0    0    0    0 -0.00000000000E+00 -0.00000000000E+00  0.11368683772E-12  0.17120000000E+03  0.17120000000E+03 0.  0.
         13    1    1    2    0    0 -0.28161844419E+02 -0.55432148016E+01  0.12325612170E+03  0.12655393875E+03  0.10566000000E+00 0.  1.
        994    1    1    2    0    0  0.25198573507E+02  0.98643945241E+01  0.55588647986E+01  0.17341457656E+03  0.17120000000E+03 0.  0.
        998    1    1    2    0    0  0.29632709118E+01 -0.43211797226E+01  0.13711850098E+04  0.13712314847E+04  0.10000000000E+02 0.  1.
</event>
<event>
 5    1  0.1338396E-008  0.3839950E+03  0.7957747E-01  0.3433946E+00
         13   -1    0    0    0    0  0.00000000000E+00  0.00000000000E+00  0.14999999963E+04  0.15000000000E+04  0.10566000000E+00 0.  1.
        994   -1    0    0    0    0 -0.00000000000E+00 -0.00000000000E+00  0.11368683772E-12  0.17120000000E+03  0.17120000000E+03 0.  0.
         13    1    1    2    0    0 -0.18191843793E+02 -0.51172796155E+01  0.82502078129E+02  0.84638843275E+02  0.10566000000E+00 0.  1.
        994    1    1    2    0    0  0.13401520325E+02  0.33792824240E+01  0.27604421198E+01  0.17177916153E+03  0.17120000000E+03 0.  0.
        998    1    1    2    0    0  0.47903234675E+01  0.17379971914E+01  0.14147374760E+04  0.14147819952E+04  0.10000000000E+02 0.  0.
</event>
<event>
 5    1  0.1914375E-008  0.3861956E+03  0.7957747E-01  0.3424617E+00
         13   -1    0    0    0    0  0.00000000000E+00  0.00000000000E+00  0.14999999963E+04  0.15000000000E+04  0.10566000000E+00 0. -1.
        994   -1    0    0    0    0 -0.00000000000E+00 -0.00000000000E+00  0.11368683772E-12  0.17120000000E+03  0.17120000000E+03 0.  0.
         13    1    1    2    0    0  0.10766747189E+02  0.65285593928E+01  0.73105360903E+02  0.74181870357E+02  0.10566000000E+00 0. -1.
        994    1    1    2    0    0 -0.12613148691E+02 -0.89496153099E+01  0.18216368977E+01  0.17190679305E+03  0.17120000000E+03 0.  0.
        998    1    1    2    0    0  0.18464015024E+01  0.24210559171E+01  0.14250729985E+04  0.14251113366E+04  0.10000000000E+02 0. -1.
</event>
<event>
 5    1  0.1338396E-008  0.3855706E+03  0.7957747E-01  0.3427256E+00
         13   -1    0    0    0    0  0.00000000000E+00  0.00000000000E+00  0.14999999963E+04  0.15000000000E+04  0.10566000000E+00 0. -1.
        994   -1    0    0    0    0 -0.00000000000E+00 -0.00000000000E+00  0.11368683772E-12  0.17120000000E+03  0.17120000000E+03 0.  0.
         13    1    1    2    0    0  0.11687959038E+02 -0.55285461147E+01  0.65103408307E+02  0.66374981324E+02  0.10566000000E+00 0. -1.
        994    1    1    2    0    0  0.36726669319E+01  0.14444908787E+02  0.20766452861E+01  0.17186010685E+03  0.17120000000E+03 0.  0.
        998    1    1    2    0    0 -0.15360625970E+02 -0.89163626724E+01  0.14328199427E+04  0.14329649118E+04  0.10000000000E+02 0. -1.
</event>
<event>
 5    1  0.1338396E-008  0.3843756E+03  0.7957747E-01  0.3432325E+00
         13   -1    0    0    0    0  0.00000000000E+00  0.00000000000E+00  0.14999999963E+04  0.15000000000E+04  0.10566000000E+00 0. -1.
        994   -1    0    0    0    0 -0.00000000000E+00 -0.00000000000E+00  0.11368683772E-12  0.17120000000E+03  0.17120000000E+03 0.  0.
         13    1    1    2    0    0 -0.11099100172E+01 -0.19548779357E+02  0.10173735815E+03  0.10360447810E+03  0.10566000000E+00 0. -1.
        994    1    1    2    0    0  0.10029169412E+01  0.79492409137E+01  0.21520156300E+01  0.17140089686E+03  0.17120000000E+03 0.  0.
        998    1    1    2    0    0  0.10699307604E+00  0.11599538443E+02  0.13961106225E+04  0.13961946250E+04  0.10000000000E+02 0. -1.
</event>
<event>
 5    1  0.1338396E-008  0.3759693E+03  0.7957747E-01  0.3468899E+00
         13   -1    0    0    0    0  0.00000000000E+00  0.00000000000E+00  0.14999999963E+04  0.15000000000E+04  0.10566000000E+00 0. -1.
        994   -1    0    0    0    0 -0.00000000000E+00 -0.00000000000E+00  0.11368683772E-12  0.17120000000E+03  0.17120000000E+03 0.  0.
         13    1    1    2    0    0  0.36745786855E+00  0.34842031524E+02  0.90104402564E+02  0.96607022060E+02  0.10566000000E+00 0. -1.
        994    1    1    2    0    0  0.86339736042E+01 -0.36839196669E+02  0.11047907849E+02  0.17567916262E+03  0.17120000000E+03 0.  0.
        998    1    1    2    0    0 -0.90014314727E+01  0.19971651457E+01  0.13988476859E+04  0.13989138153E+04  0.10000000000E+02 0. -1.
</event>
<event>
 5    1  0.1338396E-008  0.3852401E+03  0.7957747E-01  0.3428654E+00
         13   -1    0    0    0    0  0.00000000000E+00  0.00000000000E+00  0.14999999963E+04  0.15000000000E+04  0.10566000000E+00 0.  1.
        994   -1    0    0    0    0 -0.00000000000E+00 -0.00000000000E+00  0.11368683772E-12  0.17120000000E+03  0.17120000000E+03 0.  0.
         13    1    1    2    0    0 -0.11708938332E+02  0.80253276341E+01  0.69576961635E+02  0.71010350477E+02  0.10566000000E+00 0.  1.
        994    1    1    2    0    0 -0.25975175310E+01 -0.10214943890E+02  0.18761015739E+01  0.17153440452E+03  0.17120000000E+03 0.  0.
        998    1    1    2    0    0  0.14306455863E+02  0.21896162554E+01  0.14285469331E+04  0.14286552450E+04  0.10000000000E+02 0.  1.
</event>
<event>
 5    1  0.1338396E-008  0.3805888E+03  0.7957747E-01  0.3448599E+00
         13   -1    0    0    0    0  0.00000000000E+00  0.00000000000E+00  0.14999999963E+04  0.15000000000E+04  0.10566000000E+00 0. -1.
        994   -1    0    0    0    0 -0.00000000000E+00 -0.00000000000E+00  0.11368683772E-12  0.17120000000E+03  0.17120000000E+03 0.  0.
         13    1    1    2    0    0 -0.10387982427E+02 -0.50696831433E+02  0.29044630142E+03  0.29502058245E+03  0.10566000000E+00 0. -1.
        994    1    1    2    0    0  0.23226458675E+01  0.49691176356E+02  0.12137087693E+02  0.17869347103E+03  0.17120000000E+03 0.  0.
        998    1    1    2    0    0  0.80653365595E+01  0.10056550767E+01  0.11974166072E+04  0.11974859465E+04  0.10000000000E+02 0. -1.
</event>
<event>
 5    1  0.1338396E-008  0.3841997E+03  0.7957747E-01  0.3433073E+00
         13   -1    0    0    0    0  0.00000000000E+00  0.00000000000E+00  0.14999999963E+04  0.15000000000E+04  0.10566000000E+00 0. -1.
        994   -1    0    0    0    0 -0.00000000000E+00 -0.00000000000E+00  0.11368683772E-12  0.17120000000E+03  0.17120000000E+03 0.  0.
         13    1    1    2    0    0 -0.27051925015E+01  0.19040289583E+02  0.85396802865E+02  0.87535568756E+02  0.10566000000E+00 0. -1.
        994    1    1    2    0    0  0.18720618402E+01 -0.21746314074E+02  0.36003545528E+01  0.17262331634E+03  0.17120000000E+03 0.  0.
        998    1    1    2    0    0  0.83313066134E+00  0.27060244913E+01  0.14110028389E+04  0.14110411149E+04  0.10000000000E+02 0. -1.
</event>
<event>
 5    1  0.1338396E-008  0.3836928E+03  0.7957747E-01  0.3435235E+00
         13   -1    0    0    0    0  0.00000000000E+00  0.00000000000E+00  0.14999999963E+04  0.15000000000E+04  0.10566000000E+00 0. -1.
        994   -1    0    0    0    0 -0.00000000000E+00 -0.00000000000E+00  0.11368683772E-12  0.17120000000E+03  0.17120000000E+03 0.  0.
         13    1    1    2    0    0 -0.92075165106E+01  0.25226399873E+02  0.15919674623E+03  0.16144585714E+03  0.10566000000E+00 0. -1.
        994    1    1    2    0    0  0.29892307133E+01 -0.14747996653E+02  0.30287103968E+01  0.17188674176E+03  0.17120000000E+03 0.  0.
        998    1    1    2    0    0  0.62182857972E+01 -0.10478403220E+02  0.13377745396E+04  0.13378674011E+04  0.10000000000E+02 0. -1.
</event>
<event>
 5    1  0.1338396E-008  0.3774327E+03  0.7957747E-01  0.3462414E+00
         13   -1    0    0    0    0  0.00000000000E+00  0.00000000000E+00  0.14999999963E+04  0.15000000000E+04  0.10566000000E+00 0.  1.
        994   -1    0    0    0    0 -0.00000000000E+00 -0.00000000000E+00  0.11368683772E-12  0.17120000000E+03  0.17120000000E+03 0.  0.
         13    1    1    2    0    0 -0.24613892032E+02 -0.38895964662E+02  0.18547203607E+03  0.19109847481E+03  0.10566000000E+00 0.  1.
        994    1    1    2    0    0  0.15451972092E+02  0.29435350723E+02  0.91700339560E+01  0.17463886405E+03  0.17120000000E+03 0.  0.
        998    1    1    2    0    0  0.91619199399E+01  0.94606139386E+01  0.13053579263E+04  0.13054626611E+04  0.10000000000E+02 0.  1.
</event>
<event>
 5    1  0.1338396E-008  0.3964200E+03  0.7957747E-01  0.3382637E+00
         13   -1    0    0    0    0  0.00000000000E+00  0.00000000000E+00  0.14999999963E+04  0.15000000000E+04  0.10566000000E+00 0. -1.
        994   -1    0    0    0    0 -0.00000000000E+00 -0.00000000000E+00  0.11368683772E-12  0.17120000000E+03  0.17120000000E+03 0.  0.
         13    1    1    2    0    0  0.60270277474E+02  0.98967071782E+01  0.68425675697E+02  0.91719874719E+02  0.10566000000E+00 0. -1.
        994    1    1    2    0    0 -0.65809436872E+01 -0.65492669941E+02  0.42572217132E+02  0.18829347388E+03  0.17120000000E+03 0.  0.
        998    1    1    2    0    0 -0.53689333787E+02  0.55595962763E+02  0.13890021034E+04  0.13911866514E+04  0.10000000000E+02 0. -1.
</event>
<event>
 5    1  0.1338396E-008  0.3837825E+03  0.7957747E-01  0.3434852E+00
         13   -1    0    0    0    0  0.00000000000E+00  0.00000000000E+00  0.14999999963E+04  0.15000000000E+04  0.10566000000E+00 0.  1.
        994   -1    0    0    0    0 -0.00000000000E+00 -0.00000000000E+00  0.11368683772E-12  0.17120000000E+03  0.17120000000E+03 0.  0.
         13    1    1    2    0    0  0.14307964808E+02  0.43219255934E+00  0.47802434559E+02  0.49899785181E+02  0.10566000000E+00 0.  1.
        994    1    1    2    0    0  0.17845503801E+01  0.34153848879E+01  0.22848416886E+01  0.17125860555E+03  0.17120000000E+03 0.  0.
        998    1    1    2    0    0 -0.16092515188E+02 -0.38475774473E+01  0.14499127200E+04  0.14500416093E+04  0.10000000000E+02 0.  1.
</event>
<event>
 5    1  0.1338396E-008  0.3151077E+03  0.7957747E-01  0.3793737E+00
         13   -1    0    0    0    0  0.00000000000E+00  0.00000000000E+00  0.14999999963E+04  0.15000000000E+04  0.10566000000E+00 0.  1.
        994   -1    0    0    0    0 -0.00000000000E+00 -0.00000000000E+00  0.11368683772E-12  0.17120000000E+03  0.17120000000E+03 0.  0.
         13    1    1    2    0    0 -0.32012759490E+02  0.17727019940E+03  0.88880025925E+03  0.90687124354E+03  0.10566000000E+00 0.  1.
        994    1    1    2    0    0 -0.86903419792E+01 -0.10745362670E+03  0.65598060308E+02  0.21268368403E+03  0.17120000000E+03 0.  0.
        998    1    1    2    0    0  0.40703101469E+02 -0.69816572703E+02  0.54560167672E+03  0.55164507243E+03  0.10000000000E+02 0. -1.
</event>
<event>
 5    1  0.1338396E-008  0.3738618E+03  0.7957747E-01  0.3478329E+00
         13   -1    0    0    0    0  0.00000000000E+00  0.00000000000E+00  0.14999999963E+04  0.15000000000E+04  0.10566000000E+00 0.  1.
        994   -1    0    0    0    0 -0.00000000000E+00 -0.00000000000E+00  0.11368683772E-12  0.17120000000E+03  0.17120000000E+03 0.  0.
         13    1    1    2    0    0 -0.10648662357E+01 -0.52193930369E+02  0.88478951039E+02  0.10273206047E+03  0.10566000000E+00 0.  1.
        994    1    1    2    0    0  0.14336675955E+02  0.72244025263E+02  0.32478927772E+02  0.18917996779E+03  0.17120000000E+03 0.  0.
        998    1    1    2    0    0 -0.13271809719E+02 -0.20050094894E+02  0.13790421175E+04  0.13792879717E+04  0.10000000000E+02 0.  1.
</event>
<event>
 5    1  0.1338396E-008  0.3771620E+03  0.7957747E-01  0.3463609E+00
         13   -1    0    0    0    0  0.00000000000E+00  0.00000000000E+00  0.14999999963E+04  0.15000000000E+04  0.10566000000E+00 0.  1.
        994   -1    0    0    0    0 -0.00000000000E+00 -0.00000000000E+00  0.11368683772E-12  0.17120000000E+03  0.17120000000E+03 0.  0.
         13    1    1    2    0    0  0.36827762465E+02  0.34559708756E+02  0.22051259943E+03  0.22622218112E+03  0.10566000000E+00 0.  1.
        994    1    1    2    0    0 -0.19923293908E+02 -0.27476571197E+02  0.94696753250E+01  0.17478848462E+03  0.17120000000E+03 0.  0.
        998    1    1    2    0    0 -0.16904468556E+02 -0.70831375585E+01  0.12700177215E+04  0.12701893343E+04  0.10000000000E+02 0.  1.
</event>
<event>
 5    1  0.1338396E-008  0.3830630E+03  0.7957747E-01  0.3437929E+00
         13   -1    0    0    0    0  0.00000000000E+00  0.00000000000E+00  0.14999999963E+04  0.15000000000E+04  0.10566000000E+00 0. -1.
        994   -1    0    0    0    0 -0.00000000000E+00 -0.00000000000E+00  0.11368683772E-12  0.17120000000E+03  0.17120000000E+03 0.  0.
         13    1    1    2    0    0 -0.84525860718E+01 -0.14149265487E+02  0.53004365439E+02  0.55507853902E+02  0.10566000000E+00 0. -1.
        994    1    1    2    0    0 -0.22233501606E+01  0.71812386813E+01  0.27819226251E+01  0.17138755080E+03  0.17120000000E+03 0.  0.
        998    1    1    2    0    0  0.10675936232E+02  0.69680268061E+01  0.14442137082E+04  0.14443045953E+04  0.10000000000E+02 0. -1.
</event>
<event>
 5    1  0.1338396E-008  0.3822106E+03  0.7957747E-01  0.3441589E+00
         13   -1    0    0    0    0  0.00000000000E+00  0.00000000000E+00  0.14999999963E+04  0.15000000000E+04  0.10566000000E+00 0. -1.
        994   -1    0    0    0    0 -0.00000000000E+00 -0.00000000000E+00  0.11368683772E-12  0.17120000000E+03  0.17120000000E+03 0.  0.
         13    1    1    2    0    0  0.71219147671E+01 -0.35869582122E+02  0.20524972586E+03  0.20848215684E+03  0.10566000000E+00 0. -1.
        994    1    1    2    0    0 -0.97457325222E+01  0.28151056440E+02  0.59721566421E+01  0.17387515043E+03  0.17120000000E+03 0.  0.
        998    1    1    2    0    0  0.26238177551E+01  0.77185256815E+01  0.12887781138E+04  0.12888426927E+04  0.10000000000E+02 0. -1.
</event>
<event>
 5    1  0.1338396E-008  0.3854668E+03  0.7957747E-01  0.3427695E+00
         13   -1    0    0    0    0  0.00000000000E+00  0.00000000000E+00  0.14999999963E+04  0.15000000000E+04  0.10566000000E+00 0.  1.
        994   -1    0    0    0    0 -0.00000000000E+00 -0.00000000000E+00  0.11368683772E-12  0.17120000000E+03  0.17120000000E+03 0.  0.
         13    1    1    2    0    0  0.16468477738E+01  0.12565926512E+02  0.55897615683E+02  0.57316395732E+02  0.10566000000E+00 0.  1.
        994    1    1    2    0    0  0.92167529424E+00 -0.13688564733E+02  0.20168604625E+01  0.17176068821E+03  0.17120000000E+03 0.  0.
        998    1    1    2    0    0 -0.25685230680E+01  0.11226382215E+01  0.14420855201E+04  0.14421229161E+04  0.10000000000E+02 0.  1.
</event>
<event>
 5    1  0.1338396E-008  0.3822987E+03  0.7957747E-01  0.3441210E+00
         13   -1    0    0    0    0  0.00000000000E+00  0.00000000000E+00  0.14999999963E+04  0.15000000000E+04  0.10566000000E+00 0. -1.
        994   -1    0    0    0    0 -0.00000000000E+00 -0.00000000000E+00  0.11368683772E-12  0.17120000000E+03  0.17120000000E+03 0.  0.
         13    1    1    2    0    0 -0.10214362303E+02  0.75818735351E+01  0.26093137788E+02  0.29028968415E+02  0.10566000000E+00 0. -1.
        994    1    1    2    0    0  0.80751809070E+01 -0.33757791600E+01  0.32314310880E+01  0.17145403634E+03  0.17120000000E+03 0.  0.
        998    1    1    2    0    0  0.21391813963E+01 -0.42060943752E+01  0.14706754274E+04  0.14707169952E+04  0.10000000000E+02 0. -1.
</event>
<event>
 5    1  0.1338396E-008  0.2389859E+03  0.7957747E-01  0.4458484E+00
         13   -1    0    0    0    0  0.00000000000E+00  0.00000000000E+00  0.14999999963E+04  0.15000000000E+04  0.10566000000E+00 0. -1.
        994   -1    0    0    0    0 -0.00000000000E+00 -0.00000000000E+00  0.11368683772E-12  0.17120000000E+03  0.17120000000E+03 0.  0.
         13    1    1    2    0    0  0.48108127129E+02  0.11462206751E+03  0.29325431138E+02  0.12772079835E+03  0.10566000000E+00 0. -1.
        994    1    1    2    0    0 -0.44777112708E+02 -0.12990844319E+03  0.29529756756E+03  0.36795555008E+03  0.17120000000E+03 0.  0.
        998    1    1    2    0    0 -0.33310144208E+01  0.15286375678E+02  0.11753769976E+04  0.11755236516E+04  0.10000000000E+02 0. -1.
</event>
<event>
 5    1  0.1338396E-008  0.3774545E+03  0.7957747E-01  0.3462318E+00
         13   -1    0    0    0    0  0.00000000000E+00  0.00000000000E+00  0.14999999963E+04  0.15000000000E+04  0.10566000000E+00 0.  1.
        994   -1    0    0    0    0 -0.00000000000E+00 -0.00000000000E+00  0.11368683772E-12  0.17120000000E+03  0.17120000000E+03 0.  0.
         13    1    1    2    0    0 -0.41554041741E+02 -0.55130001587E+02  0.14980427661E+03  0.16494662141E+03  0.10566000000E+00 0.  1.
        994    1    1    2    0    0  0.47783816042E+02  0.29214505341E+02  0.26284324492E+02  0.18203594731E+03  0.17120000000E+03 0.  0.
        998    1    1    2    0    0 -0.62297743010E+01  0.25915496245E+02  0.13239113952E+04  0.13242174313E+04  0.10000000000E+02 0.  1.
</event>
<event>
 5    1  0.1338396E-008  0.3779347E+03  0.7957747E-01  0.3460201E+00
         13   -1    0    0    0    0  0.00000000000E+00  0.00000000000E+00  0.14999999963E+04  0.15000000000E+04  0.10566000000E+00 0.  1.
        994   -1    0    0    0    0 -0.00000000000E+00 -0.00000000000E+00  0.11368683772E-12  0.17120000000E+03  0.17120000000E+03 0.  0.
         13    1    1    2    0    0 -0.96283301717E+01 -0.37785541262E+02  0.21097599648E+03  0.21454914152E+03  0.10566000000E+00 0.  1.
        994    1    1    2    0    0 -0.40438125311E+01 -0.28143014169E+02  0.79050636525E+01  0.17372481601E+03  0.17120000000E+03 0.  0.
        998    1    1    2    0    0  0.13672142703E+02  0.65928555431E+02  0.12811189361E+04  0.12829260425E+04  0.10000000000E+02 0.  1.
</event>
<event>
 5    1  0.1338396E-008  0.3830711E+03  0.7957747E-01  0.3437894E+00
         13   -1    0    0    0    0  0.00000000000E+00  0.00000000000E+00  0.14999999963E+04  0.15000000000E+04  0.10566000000E+00 0. -1.
        994   -1    0    0    0    0 -0.00000000000E+00 -0.00000000000E+00  0.11368683772E-12  0.17120000000E+03  0.17120000000E+03 0.  0.
         13    1    1    2    0    0 -0.19292879365E+02  0.17789257728E+02  0.14349550547E+03  0.14587544049E+03  0.10566000000E+00 0. -1.
        994    1    1    2    0    0  0.16185360273E+02  0.91397819372E+01  0.37350622061E+01  0.17224660284E+03  0.17120000000E+03 0.  0.
        998    1    1    2    0    0  0.31075190929E+01 -0.26929039665E+02  0.13527694286E+04  0.13530779567E+04  0.10000000000E+02 0. -1.
</event>
<event>
 5    1  0.1338396E-008  0.3862755E+03  0.7957747E-01  0.3424280E+00
         13   -1    0    0    0    0  0.00000000000E+00  0.00000000000E+00  0.14999999963E+04  0.15000000000E+04  0.10566000000E+00 0. -1.
        994   -1    0    0    0    0 -0.00000000000E+00 -0.00000000000E+00  0.11368683772E-12  0.17120000000E+03  0.17120000000E+03 0.  0.
         13    1    1    2    0    0  0.10400213696E+02  0.14302461237E+01  0.61871117414E+02  0.62755528704E+02  0.10566000000E+00 0. -1.
        994    1    1    2    0    0  0.43860983702E+01  0.53955313916E+01  0.11565368426E+01  0.17134505302E+03  0.17120000000E+03 0.  0.
        998    1    1    2    0    0 -0.14786312066E+02 -0.68257775153E+01  0.14369723420E+04  0.14370994183E+04  0.10000000000E+02 0. -1.
</event>
<event>
 5    1  0.1338396E-008  0.3853958E+03  0.7957747E-01  0.3427995E+00
         13   -1    0    0    0    0  0.00000000000E+00  0.00000000000E+00  0.14999999963E+04  0.15000000000E+04  0.10566000000E+00 0.  1.
        994   -1    0    0    0    0 -0.00000000000E+00 -0.00000000000E+00  0.11368683772E-12  0.17120000000E+03  0.17120000000E+03 0.  0.
         13    1    1    2    0    0 -0.82083329858E+01 -0.90604814609E+01  0.53784721133E+02  0.55156834990E+02  0.10566000000E+00 0.  1.
        994    1    1    2    0    0 -0.95793827112E+01  0.14019607245E+02  0.23812760971E+01  0.17205645712E+03  0.17120000000E+03 0.  0.
        998    1    1    2    0    0  0.17787715697E+02 -0.49591257844E+01  0.14438339990E+04  0.14439867079E+04  0.10000000000E+02 0.  1.
</event>
<event>
 5    1  0.1338396E-008  0.3846412E+03  0.7957747E-01  0.3431195E+00
         13   -1    0    0    0    0  0.00000000000E+00  0.00000000000E+00  0.14999999963E+04  0.15000000000E+04  0.10566000000E+00 0.  1.
        994   -1    0    0    0    0 -0.00000000000E+00 -0.00000000000E+00  0.11368683772E-12  0.17120000000E+03  0.17120000000E+03 0.  0.
         13    1    1    2    0    0  0.14805126604E+02  0.82275720091E+01  0.79083042155E+02  0.80876593866E+02  0.10566000000E+00 0.  1.
        994    1    1    2    0    0 -0.11591052084E+02 -0.21033804441E+01  0.22654314128E+01  0.17161977997E+03  0.17120000000E+03 0.  0.
        998    1    1    2    0    0 -0.32140745209E+01 -0.61241915649E+01  0.14186515227E+04  0.14187036262E+04  0.10000000000E+02 0.  1.
</event>
<event>
 5    1  0.1338396E-008  0.3849042E+03  0.7957747E-01  0.3430078E+00
         13   -1    0    0    0    0  0.00000000000E+00  0.00000000000E+00  0.14999999963E+04  0.15000000000E+04  0.10566000000E+00 0.  1.
        994   -1    0    0    0    0 -0.00000000000E+00 -0.00000000000E+00  0.11368683772E-12  0.17120000000E+03  0.17120000000E+03 0.  0.
         13    1    1    2    0    0 -0.12364296657E+02  0.81282482519E+01  0.64703710446E+02  0.66374133222E+02  0.10566000000E+00 0.  1.
        994    1    1    2    0    0  0.92439362758E+01 -0.59759230890E+01  0.20763790994E+01  0.17156606123E+03  0.17120000000E+03 0.  0.
        998    1    1    2    0    0  0.31203603815E+01 -0.21523251629E+01  0.14332199067E+04  0.14332598056E+04  0.10000000000E+02 0.  1.
</event>
<event>
 5    1  0.1338396E-008  0.3737362E+03  0.7957747E-01  0.3478894E+00
         13   -1    0    0    0    0  0.00000000000E+00  0.00000000000E+00  0.14999999963E+04  0.15000000000E+04  0.10566000000E+00 0.  1.
        994   -1    0    0    0    0 -0.00000000000E+00 -0.00000000000E+00  0.11368683772E-12  0.17120000000E+03  0.17120000000E+03 0.  0.
         13    1    1    2    0    0 -0.97653071934E+01 -0.46515199347E+02  0.15016196657E+03  0.15750445188E+03  0.10566000000E+00 0.  1.
        994    1    1    2    0    0 -0.11458489893E+02  0.33483504130E+02  0.11616677110E+02  0.17520510617E+03  0.17120000000E+03 0.  0.
        998    1    1    2    0    0  0.21223797087E+02  0.13031695217E+02  0.13382213526E+04  0.13384904420E+04  0.10000000000E+02 0.  1.
</event>
<event>
 5    1  0.1338396E-008  0.3804245E+03  0.7957747E-01  0.3449312E+00
         13   -1    0    0    0    0  0.00000000000E+00  0.00000000000E+00  0.14999999963E+04  0.15000000000E+04  0.10566000000E+00 0. -1.
        994   -1    0    0    0    0 -0.00000000000E+00 -0.00000000000E+00  0.11368683772E-12  0.17120000000E+03  0.17120000000E+03 0.  0.
         13    1    1    2    0    0 -0.28275140555E+02 -0.98901085904E+01  0.11488706028E+03  0.11872803210E+03  0.10566000000E+00 0. -1.
        994    1    1    2    0    0  0.18296150573E+02 -0.55010807919E+01  0.51384623185E+01  0.17233935944E+03  0.17120000000E+03 0.  0.
        998    1    1    2    0    0  0.99789899819E+01  0.15391189382E+02  0.13799744737E+04  0.13801326085E+04  0.10000000000E+02 0. -1.
</event>
<event>
 5    1  0.1338396E-008  0.3805491E+03  0.7957747E-01  0.3448771E+00
         13   -1    0    0    0    0  0.00000000000E+00  0.00000000000E+00  0.14999999963E+04  0.15000000000E+04  0.10566000000E+00 0.  1.
        994   -1    0    0    0    0 -0.00000000000E+00 -0.00000000000E+00  0.11368683772E-12  0.17120000000E+03  0.17120000000E+03 0.  0.
         13    1    1    2    0    0  0.26677438129E+02  0.30787031913E+02  0.18616348846E+03  0.19056857726E+03  0.10566000000E+00 0.  1.
        994    1    1    2    0    0 -0.31439146630E+02 -0.29595704270E+02  0.10102397391E+02  0.17684972176E+03  0.17120000000E+03 0.  0.
        998    1    1    2    0    0  0.47617085010E+01 -0.11913276433E+01  0.13037341104E+04  0.13037817010E+04  0.10000000000E+02 0.  0.
</event>
<event>
 5    1  0.1338396E-008  0.3814250E+03  0.7957747E-01  0.3444977E+00
         13   -1    0    0    0    0  0.00000000000E+00  0.00000000000E+00  0.14999999963E+04  0.15000000000E+04  0.10566000000E+00 0.  1.
        994   -1    0    0    0    0 -0.00000000000E+00 -0.00000000000E+00  0.11368683772E-12  0.17120000000E+03  0.17120000000E+03 0.  0.
         13    1    1    2    0    0 -0.19825057721E+02 -0.18051354679E+02  0.13677792471E+03  0.13938111842E+03  0.10566000000E+00 0.  1.
        994    1    1    2    0    0 -0.36409095406E+01 -0.29995992092E+02  0.64593156829E+01  0.17396602692E+03  0.17120000000E+03 0.  0.
        998    1    1    2    0    0  0.23465967261E+02  0.48047346770E+02  0.13567627559E+04  0.13578528547E+04  0.10000000000E+02 0.  1.
</event>
<event>
 5    1  0.1338396E-008  0.3792559E+03  0.7957747E-01  0.3454405E+00
         13   -1    0    0    0    0  0.00000000000E+00  0.00000000000E+00  0.14999999963E+04  0.15000000000E+04  0.10566000000E+00 0. -1.
        994   -1    0    0    0    0 -0.00000000000E+00 -0.00000000000E+00  0.11368683772E-12  0.17120000000E+03  0.17120000000E+03 0.  0.
         13    1    1    2    0    0  0.22057656623E+01 -0.16830276323E+02  0.29666845667E+02  0.34179767394E+02  0.10566000000E+00 0. -1.
        994    1    1    2    0    0 -0.87032602656E+01  0.15817270220E+02  0.56022213626E+01  0.17224040659E+03  0.17120000000E+03 0.  0.
        998    1    1    2    0    0  0.64974946033E+01  0.10130061033E+01  0.14647309292E+04  0.14647798260E+04  0.10000000000E+02 0. -1.
</event>
<event>
 5    1  0.1338396E-008  0.3757224E+03  0.7957747E-01  0.3469998E+00
         13   -1    0    0    0    0  0.00000000000E+00  0.00000000000E+00  0.14999999963E+04  0.15000000000E+04  0.10566000000E+00 0. -1.
        994   -1    0    0    0    0 -0.00000000000E+00 -0.00000000000E+00  0.11368683772E-12  0.17120000000E+03  0.17120000000E+03 0.  0.
         13    1    1    2    0    0 -0.64375572364E+02  0.47148420950E+02  0.25521695436E+03  0.26740024845E+03  0.10566000000E+00 0. -1.
        994    1    1    2    0    0  0.49147458820E+02  0.27312560348E+02  0.25363450652E+02  0.18197305650E+03  0.17120000000E+03 0.  0.
        998    1    1    2    0    0  0.15228113545E+02 -0.74460981298E+02  0.12194195913E+04  0.12218266951E+04  0.10000000000E+02 0. -1.
</event>
<event>
 5    1  0.1338396E-008  0.3721597E+03  0.7957747E-01  0.3486024E+00
         13   -1    0    0    0    0  0.00000000000E+00  0.00000000000E+00  0.14999999963E+04  0.15000000000E+04  0.10566000000E+00 0.  1.
        994   -1    0    0    0    0 -0.00000000000E+00 -0.00000000000E+00  0.11368683772E-12  0.17120000000E+03  0.17120000000E+03 0.  0.
         13    1    1    2    0    0 -0.90035859702E+02 -0.36349628169E+02  0.42812196296E+03  0.43899450775E+03  0.10566000000E+00 0.  1.
        994    1    1    2    0    0  0.72408366747E+02  0.71024789596E+02  0.44323565309E+02  0.20386640418E+03  0.17120000000E+03 0.  0.
        998    1    1    2    0    0  0.17627492955E+02 -0.34675161427E+02  0.10275544680E+04  0.10283390881E+04  0.10000000000E+02 0. -1.
</event>
<event>
 5    1  0.1338396E-008  0.3825103E+03  0.7957747E-01  0.3440300E+00
         13   -1    0    0    0    0  0.00000000000E+00  0.00000000000E+00  0.14999999963E+04  0.15000000000E+04  0.10566000000E+00 0.  1.
        994   -1    0    0    0    0 -0.00000000000E+00 -0.00000000000E+00  0.11368683772E-12  0.17120000000E+03  0.17120000000E+03 0.  0.
         13    1    1    2    0    0 -0.16117372195E+02  0.12900832543E+02  0.76298518001E+02  0.79042243009E+02  0.10566000000E+00 0.  1.
        994    1    1    2    0    0  0.42074030793E+01 -0.37843829070E+01  0.29774571807E+01  0.17131937732E+03  0.17120000000E+03 0.  0.
        998    1    1    2    0    0  0.11909969115E+02 -0.91164496355E+01  0.14207240211E+04  0.14208383797E+04  0.10000000000E+02 0.  1.
</event>
<event>
 5    1  0.1338396E-008  0.3813010E+03  0.7957747E-01  0.3445513E+00
         13   -1    0    0    0    0  0.00000000000E+00  0.00000000000E+00  0.14999999963E+04  0.15000000000E+04  0.10566000000E+00 0. -1.
        994   -1    0    0    0    0 -0.00000000000E+00 -0.00000000000E+00  0.11368683772E-12  0.17120000000E+03  0.17120000000E+03 0.  0.
         13    1    1    2    0    0  0.22673019847E+02 -0.53124272199E+01  0.73364372424E+02  0.76971618257E+02  0.10566000000E+00 0. -1.
        994    1    1    2    0    0 -0.25131411678E+02 -0.98324787959E+00  0.55861980262E+01  0.17312769922E+03  0.17120000000E+03 0.  0.
        998    1    1    2    0    0  0.24583918308E+01  0.62956750995E+01  0.14210494258E+04  0.14211006825E+04  0.10000000000E+02 0. -1.
</event>
<event>
 5    1  0.1338396E-008  0.3854914E+03  0.7957747E-01  0.3427591E+00
         13   -1    0    0    0    0  0.00000000000E+00  0.00000000000E+00  0.14999999963E+04  0.15000000000E+04  0.10566000000E+00 0.  1.
        994   -1    0    0    0    0 -0.00000000000E+00 -0.00000000000E+00  0.11368683772E-12  0.17120000000E+03  0.17120000000E+03 0.  0.
         13    1    1    2    0    0  0.78902775058E+02 -0.92634181239E+02  0.60376295934E+03  0.61590296450E+03  0.10566000000E+00 0.  1.
        994    1    1    2    0    0  0.39869029613E+02  0.69271953163E+02  0.43405536238E+02  0.19385980397E+03  0.17120000000E+03 0.  0.
        998    1    1    2    0    0 -0.11877180467E+03  0.23362228075E+02  0.85283150070E+03  0.86143723153E+03  0.10000000000E+02 0.  1.
</event>
<event>
 5    1  0.1338396E-008  0.3939534E+03  0.7957747E-01  0.3392565E+00
         13   -1    0    0    0    0  0.00000000000E+00  0.00000000000E+00  0.14999999963E+04  0.15000000000E+04  0.10566000000E+00 0. -1.
        994   -1    0    0    0    0 -0.00000000000E+00 -0.00000000000E+00  0.11368683772E-12  0.17120000000E+03  0.17120000000E+03 0.  0.
         13    1    1    2    0    0  0.97017305133E+02  0.25395606903E+02  0.28194433522E+03  0.29924891591E+03  0.10566000000E+00 0. -1.
        994    1    1    2    0    0  0.18272458330E+02 -0.26613740433E+02  0.28204937385E+02  0.17648550197E+03  0.17120000000E+03 0.  0.
        998    1    1    2    0    0 -0.11528976346E+03  0.12181335295E+01  0.11898507237E+04  0.11954655821E+04  0.10000000000E+02 0.  1.
</event>
<event>
 5    1  0.1338396E-008  0.3844044E+03  0.7957747E-01  0.3432202E+00
         13   -1    0    0    0    0  0.00000000000E+00  0.00000000000E+00  0.14999999963E+04  0.15000000000E+04  0.10566000000E+00 0.  1.
        994   -1    0    0    0    0 -0.00000000000E+00 -0.00000000000E+00  0.11368683772E-12  0.17120000000E+03  0.17120000000E+03 0.  0.
         13    1    1    2    0    0 -0.14084876728E+02 -0.22318629271E+01  0.54577913866E+02  0.56410325390E+02  0.10566000000E+00 0.  1.
        994    1    1    2    0    0  0.16343695480E+01  0.41645916131E+01  0.19920658726E+01  0.17127003040E+03  0.17120000000E+03 0.  0.
        998    1    1    2    0    0  0.12450507180E+02 -0.19327286860E+01  0.14434300165E+04  0.14435196442E+04  0.10000000000E+02 0.  1.
</event>
<event>
 5    1  0.1338396E-008  0.3792836E+03  0.7957747E-01  0.3454284E+00
         13   -1    0    0    0    0  0.00000000000E+00  0.00000000000E+00  0.14999999963E+04  0.15000000000E+04  0.10566000000E+00 0. -1.
        994   -1    0    0    0    0 -0.00000000000E+00 -0.00000000000E+00  0.11368683772E-12  0.17120000000E+03  0.17120000000E+03 0.  0.
         13    1    1    2    0    0  0.18104458158E+02 -0.14650777343E+02  0.56589481951E+02  0.61194749068E+02  0.10566000000E+00 0. -1.
        994    1    1    2    0    0 -0.15627534068E+02  0.19453948798E+02  0.65844830523E+01  0.17313425820E+03  0.17120000000E+03 0.  0.
        998    1    1    2    0    0 -0.24769240902E+01 -0.48031714552E+01  0.14368260313E+04  0.14368709927E+04  0.10000000000E+02 0. -1.
</event>
<event>
 5    1  0.1338396E-008  0.3822996E+03  0.7957747E-01  0.3441206E+00
         13   -1    0    0    0    0  0.00000000000E+00  0.00000000000E+00  0.14999999963E+04  0.15000000000E+04  0.10566000000E+00 0.  1.
        994   -1    0    0    0    0 -0.00000000000E+00 -0.00000000000E+00  0.11368683772E-12  0.17120000000E+03  0.17120000000E+03 0.  0.
         13    1    1    2    0    0 -0.59166744517E+01 -0.16559195017E+02  0.49261783592E+02  0.52306294677E+02  0.10566000000E+00 0.  1.
        994    1    1    2    0    0  0.17210098489E+02  0.14626933457E+02  0.46710892507E+01  0.17274661718E+03  0.17120000000E+03 0.  0.
        998    1    1    2    0    0 -0.11293424037E+02  0.19322615601E+01  0.14460671234E+04  0.14461470881E+04  0.10000000000E+02 0.  1.
</event>
<event>
 5    1  0.1338396E-008  0.3802688E+03  0.7957747E-01  0.3449989E+00
         13   -1    0    0    0    0  0.00000000000E+00  0.00000000000E+00  0.14999999963E+04  0.15000000000E+04  0.10566000000E+00 0. -1.
        994   -1    0    0    0    0 -0.00000000000E+00 -0.00000000000E+00  0.11368683772E-12  0.17120000000E+03  0.17120000000E+03 0.  0.
         13    1    1    2    0    0  0.15632928393E+02 -0.16653126119E+02  0.64853470258E+02  0.68758263708E+02  0.10566000000E+00 0. -1.
        994    1    1    2    0    0  0.25508197701E+00  0.15088099611E+02  0.47584673298E+01  0.17192963336E+03  0.17120000000E+03 0.  0.
        998    1    1    2    0    0 -0.15888010370E+02  0.15650265083E+01  0.14303880587E+04  0.14305121029E+04  0.10000000000E+02 0. -1.
</event>
<event>
 5    1  0.1338396E-008  0.4027616E+03  0.7957747E-01  0.3357668E+00
         13   -1    0    0    0    0  0.00000000000E+00  0.00000000000E+00  0.14999999963E+04  0.15000000000E+04  0.10566000000E+00 0. -1.
        994   -1    0    0    0    0 -0.00000000000E+00 -0.00000000000E+00  0.11368683772E-12  0.17120000000E+03  0.17120000000E+03 0.  0.
         13    1    1    2    0    0  0.31600561217E+02  0.94776981157E+02  0.14038875416E+03  0.17230869127E+03  0.10566000000E+00 0. -1.
        994    1    1    2    0    0 -0.41918637724E+02 -0.10163299624E+03  0.79121736397E+02  0.21830283389E+03  0.17120000000E+03 0.  0.
        998    1    1    2    0    0  0.10318076507E+02  0.68560150871E+01  0.12804895057E+04  0.12805884748E+04  0.10000000000E+02 0. -1.
</event>
<event>
 5    1  0.1338396E-008  0.3684954E+03  0.7957747E-01  0.3502834E+00
         13   -1    0    0    0    0  0.00000000000E+00  0.00000000000E+00  0.14999999963E+04  0.15000000000E+04  0.10566000000E+00 0.  1.
        994   -1    0    0    0    0 -0.00000000000E+00 -0.00000000000E+00  0.11368683772E-12  0.17120000000E+03  0.17120000000E+03 0.  0.
         13    1    1    2    0    0 -0.21474820304E+02  0.17655251199E+02  0.34196001956E+02  0.44071005387E+02  0.10566000000E+00 0.  1.
        994    1    1    2    0    0  0.12035583181E+02 -0.18828899130E+02  0.11795261465E+02  0.17305476271E+03  0.17120000000E+03 0.  0.
        998    1    1    2    0    0  0.94392371231E+01  0.11736479308E+01  0.14540087329E+04  0.14540742319E+04  0.10000000000E+02 0.  1.
</event>
<event>
 5    1  0.1338396E-008  0.3693318E+03  0.7957747E-01  0.3498967E+00
         13   -1    0    0    0    0  0.00000000000E+00  0.00000000000E+00  0.14999999963E+04  0.15000000000E+04  0.10566000000E+00 0.  1.
        994   -1    0    0    0    0 -0.00000000000E+00 -0.00000000000E+00  0.11368683772E-12  0.17120000000E+03  0.17120000000E+03 0.  0.
         13    1    1    2    0    0  0.78581757510E+02  0.69155580428E+02  0.39781277797E+03  0.41135459691E+03  0.10566000000E+00 0.  1.
        994    1    1    2    0    0 -0.87780996317E+02 -0.63657621151E+02  0.51547918415E+02  0.20910385921E+03  0.17120000000E+03 0.  0.
        998    1    1    2    0    0  0.91992388069E+01 -0.54979592774E+01  0.10506392999E+04  0.10507415439E+04  0.10000000000E+02 0.  1.
</event>
<event>
 5    1  0.1338396E-008  0.3855177E+03  0.7957747E-01  0.3427479E+00
         13   -1    0    0    0    0  0.00000000000E+00  0.00000000000E+00  0.14999999963E+04  0.15000000000E+04  0.10566000000E+00 0. -1.
        994   -1    0    0    0    0 -0.00000000000E+00 -0.00000000000E+00  0.11368683772E-12  0.17120000000E+03  0.17120000000E+03 0.  0.
         13    1    1    2    0    0  0.12883092555E+02 -0.82937570155E+01  0.86158635959E+02  0.87510469051E+02  0.10566000000E+00 0. -1.
        994    1    1    2    0    0 -0.68668447546E+01  0.70874697459E+01  0.16931097527E+01  0.17149254329E+03  0.17120000000E+03 0.  0.
        998    1    1    2    0    0 -0.60162478000E+01  0.12062872696E+01  0.14121482506E+04  0.14121969877E+04  0.10000000000E+02 0. -1.
</event>
<event>
 5    1  0.1338396E-008  0.3827547E+03  0.7957747E-01  0.3439251E+00
         13   -1    0    0    0    0  0.00000000000E+00  0.00000000000E+00  0.14999999963E+04  0.15000000000E+04  0.10566000000E+00 0.  1.
        994   -1    0    0    0    0 -0.00000000000E+00 -0.00000000000E+00  0.11368683772E-12  0.17120000000E+03  0.17120000000E+03 0.  0.
         13    1    1    2    0    0 -0.72333978902E+01 -0.24173501727E+02  0.12148749683E+03  0.12408022921E+03  0.10566000000E+00 0.  1.
        994    1    1    2    0    0 -0.48641950579E+01  0.92059976354E+01  0.31082032952E+01  0.17154448902E+03  0.17120000000E+03 0.  0.
        998    1    1    2    0    0  0.12097592948E+02  0.14967504092E+02  0.13754042962E+04  0.13755752818E+04  0.10000000000E+02 0.  1.
</event>
<event>
 5    1  0.1338396E-008  0.3777583E+03  0.7957747E-01  0.3460978E+00
         13   -1    0    0    0    0  0.00000000000E+00  0.00000000000E+00  0.14999999963E+04  0.15000000000E+04  0.10566000000E+00 0.  1.
        994   -1    0    0    0    0 -0.00000000000E+00 -0.00000000000E+00  0.11368683772E-12  0.17120000000E+03  0.17120000000E+03 0.  0.
         13    1    1    2    0    0 -0.82668273657E+01  0.90972445165E+01  0.11846743521E+02  0.17072105570E+02  0.10566000000E+00 0.  1.
        994    1    1    2    0    0  0.92534505819E+01 -0.11211683451E+02  0.59810893684E+01  0.17192016061E+03  0.17120000000E+03 0.  0.
        998    1    1    2    0    0 -0.98662321618E+00  0.21144389346E+01  0.14821721634E+04  0.14822077338E+04  0.10000000000E+02 0.  1.
</event>
<event>
 5    1  0.5211416E-008  0.3864262E+03  0.7957747E-01  0.3423646E+00
         13   -1    0    0    0    0  0.00000000000E+00  0.00000000000E+00  0.14999999963E+04  0.15000000000E+04  0.10566000000E+00 0.  1.
        994   -1    0    0    0    0 -0.00000000000E+00 -0.00000000000E+00  0.11368683772E-12  0.17120000000E+03  0.17120000000E+03 0.  0.
         13    1    1    2    0    0 -0.86954708369E+01 -0.49771746710E+01  0.55397016487E+02  0.56295862020E+02  0.10566000000E+00 0.  1.
        994    1    1    2    0    0  0.35640767711E+01  0.76445550916E+01  0.11566163484E+01  0.17141155045E+03  0.17120000000E+03 0.  0.
        998    1    1    2    0    0  0.51313940658E+01 -0.26673804206E+01  0.14434463634E+04  0.14434925875E+04  0.10000000000E+02 0.  1.
</event>
<event>
 5    1  0.1338396E-008  0.3800332E+03  0.7957747E-01  0.3451014E+00
         13   -1    0    0    0    0  0.00000000000E+00  0.00000000000E+00  0.14999999963E+04  0.15000000000E+04  0.10566000000E+00 0.  1.
        994   -1    0    0    0    0 -0.00000000000E+00 -0.00000000000E+00  0.11368683772E-12  0.17120000000E+03  0.17120000000E+03 0.  0.
         13    1    1    2    0    0  0.39585868109E+02  0.72386761498E+01  0.18919762768E+03  0.19343007230E+03  0.10566000000E+00 0.  1.
        994    1    1    2    0    0 -0.27775916936E+02 -0.23483282843E+01  0.67179478916E+01  0.17358452417E+03  0.17120000000E+03 0.  0.
        998    1    1    2    0    0 -0.11809951173E+02 -0.48903478655E+01  0.13040844207E+04  0.13041854035E+04  0.10000000000E+02 0.  1.
</event>
<event>
 5    1  0.1338396E-008  0.3857137E+03  0.7957747E-01  0.3426651E+00
         13   -1    0    0    0    0  0.00000000000E+00  0.00000000000E+00  0.14999999963E+04  0.15000000000E+04  0.10566000000E+00 0. -1.
        994   -1    0    0    0    0 -0.00000000000E+00 -0.00000000000E+00  0.11368683772E-12  0.17120000000E+03  0.17120000000E+03 0.  0.
         13    1    1    2    0    0  0.19556852910E+01  0.12287460633E+02  0.63951258661E+02  0.65150449286E+02  0.10566000000E+00 0. -1.
        994    1    1    2    0    0 -0.66172988022E+01 -0.94257412333E+00  0.14228075039E+01  0.17133634019E+03  0.17120000000E+03 0.  0.
        998    1    1    2    0    0  0.46616135112E+01 -0.11344886510E+02  0.14346259301E+04  0.14347132105E+04  0.10000000000E+02 0. -1.
</event>
<event>
 5    1  0.1338396E-008  0.3841833E+03  0.7957747E-01  0.3433143E+00
         13   -1    0    0    0    0  0.00000000000E+00  0.00000000000E+00  0.14999999963E+04  0.15000000000E+04  0.10566000000E+00 0. -1.
        994   -1    0    0    0    0 -0.00000000000E+00 -0.00000000000E+00  0.11368683772E-12  0.17120000000E+03  0.17120000000E+03 0.  0.
         13    1    1    2    0    0 -0.14254159142E+02  0.84675801260E+00  0.54114847656E+02  0.55967186394E+02  0.10566000000E+00 0. -1.
        994    1    1    2    0    0 -0.65860015393E+01  0.17722940319E+01  0.21895386617E+01  0.17134978997E+03  0.17120000000E+03 0.  0.
        998    1    1    2    0    0  0.20840160681E+02 -0.26190520445E+01  0.14436956100E+04  0.14438830236E+04  0.10000000000E+02 0. -1.
</event>
<event>
 5    1  0.1338396E-008  0.3800002E+03  0.7957747E-01  0.3451158E+00
         13   -1    0    0    0    0  0.00000000000E+00  0.00000000000E+00  0.14999999963E+04  0.15000000000E+04  0.10566000000E+00 0.  1.
        994   -1    0    0    0    0 -0.00000000000E+00 -0.00000000000E+00  0.11368683772E-12  0.17120000000E+03  0.17120000000E+03 0.  0.
         13    1    1    2    0    0 -0.33665454385E+02 -0.14030090341E+02  0.18602867266E+03  0.18957026262E+03  0.10566000000E+00 0.  1.
        994    1    1    2    0    0 -0.48504740811E+01  0.12739250416E+02  0.47544508043E+01  0.17180762615E+03  0.17120000000E+03 0.  0.
        998    1    1    2    0    0  0.38515928466E+02  0.12908399247E+01  0.13092168728E+04  0.13098221112E+04  0.10000000000E+02 0.  1.
</event>
<event>
 5    1  0.1338396E-008  0.3782912E+03  0.7957747E-01  0.3458633E+00
         13   -1    0    0    0    0  0.00000000000E+00  0.00000000000E+00  0.14999999963E+04  0.15000000000E+04  0.10566000000E+00 0. -1.
        994   -1    0    0    0    0 -0.00000000000E+00 -0.00000000000E+00  0.11368683772E-12  0.17120000000E+03  0.17120000000E+03 0.  0.
         13    1    1    2    0    0  0.22265822054E+00  0.18407649131E+02  0.31326472901E+02  0.36335247235E+02  0.10566000000E+00 0. -1.
        994    1    1    2    0    0 -0.44924266831E+01 -0.18421921203E+02  0.62079085578E+01  0.17235871666E+03  0.17120000000E+03 0.  0.
        998    1    1    2    0    0  0.42697684625E+01  0.14272071750E-01  0.14624656148E+04  0.14625060361E+04  0.10000000000E+02 0. -1.
</event>
<event>
 5    1  0.1338396E-008  0.3811251E+03  0.7957747E-01  0.3446274E+00
         13   -1    0    0    0    0  0.00000000000E+00  0.00000000000E+00  0.14999999963E+04  0.15000000000E+04  0.10566000000E+00 0.  1.
        994   -1    0    0    0    0 -0.00000000000E+00 -0.00000000000E+00  0.11368683772E-12  0.17120000000E+03  0.17120000000E+03 0.  0.
         13    1    1    2    0    0 -0.21153136661E+01  0.10538565626E+02  0.14263347381E+02  0.17860295628E+02  0.10566000000E+00 0.  1.
        994    1    1    2    0    0 -0.10878060878E+02 -0.21615937056E+02  0.55190227200E+01  0.17298982789E+03  0.17120000000E+03 0.  0.
        998    1    1    2    0    0  0.12993374544E+02  0.11077371430E+02  0.14802176262E+04  0.14803498765E+04  0.10000000000E+02 0.  1.
</event>
<event>
 5    1  0.1338396E-008  0.3802252E+03  0.7957747E-01  0.3450178E+00
         13   -1    0    0    0    0  0.00000000000E+00  0.00000000000E+00  0.14999999963E+04  0.15000000000E+04  0.10566000000E+00 0. -1.
        994   -1    0    0    0    0 -0.00000000000E+00 -0.00000000000E+00  0.11368683772E-12  0.17120000000E+03  0.17120000000E+03 0.  0.
         13    1    1    2    0    0  0.39211241365E+02 -0.37409006769E+01  0.22986809350E+03  0.23321849704E+03  0.10566000000E+00 0. -1.
        994    1    1    2    0    0 -0.37199772402E+01 -0.20688308465E+02  0.54968454110E+01  0.17257317186E+03  0.17120000000E+03 0.  0.
        998    1    1    2    0    0 -0.35491264125E+02  0.24429209141E+02  0.12646350574E+04  0.12654083311E+04  0.10000000000E+02 0.  1.
</event>
<event>
 5    1  0.1338396E-008  0.3696178E+03  0.7957747E-01  0.3497649E+00
         13   -1    0    0    0    0  0.00000000000E+00  0.00000000000E+00  0.14999999963E+04  0.15000000000E+04  0.10566000000E+00 0. -1.
        994   -1    0    0    0    0 -0.00000000000E+00 -0.00000000000E+00  0.11368683772E-12  0.17120000000E+03  0.17120000000E+03 0.  0.
         13    1    1    2    0    0  0.42373291206E+02 -0.21957028062E+02  0.12452334341E+03  0.13335546898E+03  0.10566000000E+00 0. -1.
        994    1    1    2    0    0 -0.57190313405E+01  0.20091266904E+02  0.10981218910E+02  0.17281896162E+03  0.17120000000E+03 0.  0.
        998    1    1    2    0    0 -0.36654259866E+02  0.18657611580E+01  0.13644954340E+04  0.13650255694E+04  0.10000000000E+02 0. -1.
</event>
<event>
 5    1  0.1338396E-008  0.3768618E+03  0.7957747E-01  0.3464938E+00
         13   -1    0    0    0    0  0.00000000000E+00  0.00000000000E+00  0.14999999963E+04  0.15000000000E+04  0.10566000000E+00 0.  1.
        994   -1    0    0    0    0 -0.00000000000E+00 -0.00000000000E+00  0.11368683772E-12  0.17120000000E+03  0.17120000000E+03 0.  0.
         13    1    1    2    0    0  0.59976064129E+01 -0.17792686989E+02  0.28066374212E+02  0.33768084317E+02  0.10566000000E+00 0.  1.
        994    1    1    2    0    0 -0.59491238237E+00  0.18282340289E+02  0.68567982895E+01  0.17231092122E+03  0.17120000000E+03 0.  0.
        998    1    1    2    0    0 -0.54026940305E+01 -0.48965330054E+00  0.14650768238E+04  0.14651209945E+04  0.10000000000E+02 0.  1.
</event>
<event>
 5    1  0.1338396E-008  0.3827771E+03  0.7957747E-01  0.3439155E+00
         13   -1    0    0    0    0  0.00000000000E+00  0.00000000000E+00  0.14999999963E+04  0.15000000000E+04  0.10566000000E+00 0. -1.
        994   -1    0    0    0    0 -0.00000000000E+00 -0.00000000000E+00  0.11368683772E-12  0.17120000000E+03  0.17120000000E+03 0.  0.
         13    1    1    2    0    0 -0.32477272863E+01  0.13002260800E+02  0.31659003518E+02  0.34378920666E+02  0.10566000000E+00 0. -1.
        994    1    1    2    0    0  0.89687173957E+00 -0.11001953902E+02  0.31415446602E+01  0.17158425531E+03  0.17120000000E+03 0.  0.
        998    1    1    2    0    0  0.23508555467E+01 -0.20003068974E+01  0.14651994481E+04  0.14652368240E+04  0.10000000000E+02 0. -1.
</event>
<event>
 5    1  0.1338396E-008  0.3742399E+03  0.7957747E-01  0.3476629E+00
         13   -1    0    0    0    0  0.00000000000E+00  0.00000000000E+00  0.14999999963E+04  0.15000000000E+04  0.10566000000E+00 0.  1.
        994   -1    0    0    0    0 -0.00000000000E+00 -0.00000000000E+00  0.11368683772E-12  0.17120000000E+03  0.17120000000E+03 0.  0.
         13    1    1    2    0    0 -0.18883941617E+02 -0.13266399860E+02  0.37037467169E+02  0.43639268492E+02  0.10566000000E+00 0.  1.
        994    1    1    2    0    0  0.15741757061E+02 -0.34692172840E+02  0.12031780325E+02  0.17579975401E+03  0.17120000000E+03 0.  0.
        998    1    1    2    0    0  0.31421845559E+01  0.47958572700E+02  0.14509307488E+04  0.14517609775E+04  0.10000000000E+02 0.  1.
</event>
<event>
 5    1  0.1338396E-008  0.3940506E+03  0.7957747E-01  0.3392172E+00
         13   -1    0    0    0    0  0.00000000000E+00  0.00000000000E+00  0.14999999963E+04  0.15000000000E+04  0.10566000000E+00 0.  1.
        994   -1    0    0    0    0 -0.00000000000E+00 -0.00000000000E+00  0.11368683772E-12  0.17120000000E+03  0.17120000000E+03 0.  0.
         13    1    1    2    0    0  0.52609659554E+02  0.60874773761E+02  0.11227251623E+03  0.13812546262E+03  0.10566000000E+00 0.  1.
        994    1    1    2    0    0 -0.32966859603E+02 -0.91973063150E+02  0.61769865878E+02  0.20656915188E+03  0.17120000000E+03 0.  0.
        998    1    1    2    0    0 -0.19642799950E+02  0.31098289389E+02  0.13259576142E+04  0.13265053855E+04  0.10000000000E+02 0.  1.
</event>
<event>
 5    1  0.1338396E-008  0.3819724E+03  0.7957747E-01  0.3442615E+00
         13   -1    0    0    0    0  0.00000000000E+00  0.00000000000E+00  0.14999999963E+04  0.15000000000E+04  0.10566000000E+00 0. -1.
        994   -1    0    0    0    0 -0.00000000000E+00 -0.00000000000E+00  0.11368683772E-12  0.17120000000E+03  0.17120000000E+03 0.  0.
         13    1    1    2    0    0 -0.88118675292E+01 -0.93454881973E+01  0.24907994816E+02  0.28025105330E+02  0.10566000000E+00 0. -1.
        994    1    1    2    0    0  0.10874407041E+02  0.47207839297E+01  0.36076759399E+01  0.17164787751E+03  0.17120000000E+03 0.  0.
        998    1    1    2    0    0 -0.20625395122E+01  0.46247042676E+01  0.14714843255E+04  0.14715270172E+04  0.10000000000E+02 0. -1.
</event>
<event>
 5    1  0.1338396E-008  0.3828658E+03  0.7957747E-01  0.3438774E+00
         13   -1    0    0    0    0  0.00000000000E+00  0.00000000000E+00  0.14999999963E+04  0.15000000000E+04  0.10566000000E+00 0. -1.
        994   -1    0    0    0    0 -0.00000000000E+00 -0.00000000000E+00  0.11368683772E-12  0.17120000000E+03  0.17120000000E+03 0.  0.
         13    1    1    2    0    0  0.35257252221E+02  0.99866883272E+01  0.20530185477E+03  0.20854656677E+03  0.10566000000E+00 0. -1.
        994    1    1    2    0    0 -0.41274774629E+02 -0.11656372247E+02  0.88090170810E+01  0.17671026234E+03  0.17120000000E+03 0.  0.
        998    1    1    2    0    0  0.60175224073E+01  0.16696839201E+01  0.12858891244E+04  0.12859431709E+04  0.10000000000E+02 0. -1.
</event>
<event>
 5    1  0.1338396E-008  0.3801728E+03  0.7957747E-01  0.3450406E+00
         13   -1    0    0    0    0  0.00000000000E+00  0.00000000000E+00  0.14999999963E+04  0.15000000000E+04  0.10566000000E+00 0.  1.
        994   -1    0    0    0    0 -0.00000000000E+00 -0.00000000000E+00  0.11368683772E-12  0.17120000000E+03  0.17120000000E+03 0.  0.
         13    1    1    2    0    0 -0.48555350176E+02 -0.42279802913E+02  0.36940099469E+03  0.37496974519E+03  0.10566000000E+00 0.  1.
        994    1    1    2    0    0  0.59562090959E+02  0.36403794346E+02  0.20501750477E+02  0.18601785047E+03  0.17120000000E+03 0.  0.
        998    1    1    2    0    0 -0.11006740783E+02  0.58760085673E+01  0.11100972511E+04  0.11102124043E+04  0.10000000000E+02 0.  0.
</event>
<event>
 5    1  0.1338396E-008  0.3779283E+03  0.7957747E-01  0.3460229E+00
         13   -1    0    0    0    0  0.00000000000E+00  0.00000000000E+00  0.14999999963E+04  0.15000000000E+04  0.10566000000E+00 0. -1.
        994   -1    0    0    0    0 -0.00000000000E+00 -0.00000000000E+00  0.11368683772E-12  0.17120000000E+03  0.17120000000E+03 0.  0.
         13    1    1    2    0    0  0.28166928231E+02 -0.32387690567E+02  0.60966551308E+02  0.74560511591E+02  0.10566000000E+00 0. -1.
        994    1    1    2    0    0  0.14774912129E+02  0.19116276434E+01  0.15992536031E+02  0.17258955228E+03  0.17120000000E+03 0.  0.
        998    1    1    2    0    0 -0.42941840361E+02  0.30476062924E+02  0.14230409089E+04  0.14240499361E+04  0.10000000000E+02 0. -1.
</event>
<event>
 5    1  0.1338396E-008  0.3844982E+03  0.7957747E-01  0.3431803E+00
         13   -1    0    0    0    0  0.00000000000E+00  0.00000000000E+00  0.14999999963E+04  0.15000000000E+04  0.10566000000E+00 0.  1.
        994   -1    0    0    0    0 -0.00000000000E+00 -0.00000000000E+00  0.11368683772E-12  0.17120000000E+03  0.17120000000E+03 0.  0.
         13    1    1    2    0    0 -0.76313176297E+01 -0.12936009067E+02  0.59199338588E+02  0.61074955527E+02  0.10566000000E+00 0.  1.
        994    1    1    2    0    0  0.57305832354E+01  0.10070945391E+02  0.23218656172E+01  0.17160738500E+03  0.17120000000E+03 0.  0.
        998    1    1    2    0    0  0.19007343943E+01  0.28650636764E+01  0.14384787921E+04  0.14385176595E+04  0.10000000000E+02 0.  1.
</event>
<event>
 5    1  0.1338396E-008  0.3701123E+03  0.7957747E-01  0.3495375E+00
         13   -1    0    0    0    0  0.00000000000E+00  0.00000000000E+00  0.14999999963E+04  0.15000000000E+04  0.10566000000E+00 0. -1.
        994   -1    0    0    0    0 -0.00000000000E+00 -0.00000000000E+00  0.11368683772E-12  0.17120000000E+03  0.17120000000E+03 0.  0.
         13    1    1    2    0    0  0.22254421050E+01  0.17055891417E+02  0.83834311696E+01  0.19135023042E+02  0.10566000000E+00 0. -1.
        994    1    1    2    0    0 -0.31662134483E+01 -0.19697721398E+02  0.12391441372E+02  0.17280339393E+03  0.17120000000E+03 0.  0.
        998    1    1    2    0    0  0.94077134328E+00  0.26418299805E+01  0.14792251237E+04  0.14792615830E+04  0.10000000000E+02 0. -1.
</event>
<event>
 5    1  0.1338396E-008  0.3835605E+03  0.7957747E-01  0.3435800E+00
         13   -1    0    0    0    0  0.00000000000E+00  0.00000000000E+00  0.14999999963E+04  0.15000000000E+04  0.10566000000E+00 0.  1.
        994   -1    0    0    0    0 -0.00000000000E+00 -0.00000000000E+00  0.11368683772E-12  0.17120000000E+03  0.17120000000E+03 0.  0.
         13    1    1    2    0    0  0.64153755941E+01 -0.58687476637E+02  0.85148663051E+02  0.10361314078E+03  0.10566000000E+00 0.  1.
        994    1    1    2    0    0 -0.13820247696E+02  0.54632006377E+02  0.30050500532E+02  0.18272418545E+03  0.17120000000E+03 0.  0.
        998    1    1    2    0    0  0.74048721023E+01  0.40554702609E+01  0.13848008327E+04  0.13848626738E+04  0.10000000000E+02 0.  1.
</event>
<event>
 5    1  0.1338396E-008  0.3789307E+03  0.7957747E-01  0.3455828E+00
         13   -1    0    0    0    0  0.00000000000E+00  0.00000000000E+00  0.14999999963E+04  0.15000000000E+04  0.10566000000E+00 0. -1.
        994   -1    0    0    0    0 -0.00000000000E+00 -0.00000000000E+00  0.11368683772E-12  0.17120000000E+03  0.17120000000E+03 0.  0.
         13    1    1    2    0    0 -0.66318551455E+01 -0.29970015053E+02  0.11225726529E+03  0.11637821136E+03  0.10566000000E+00 0. -1.
        994    1    1    2    0    0  0.18854247342E+00 -0.52082972408E+01  0.47650034239E+01  0.17134557819E+03  0.17120000000E+03 0.  0.
        998    1    1    2    0    0  0.64433126721E+01  0.35178312294E+02  0.13829777276E+04  0.13834762105E+04  0.10000000000E+02 0. -1.
</event>
<event>
 5    1  0.1338396E-008  0.3842982E+03  0.7957747E-01  0.3432654E+00
         13   -1    0    0    0    0  0.00000000000E+00  0.00000000000E+00  0.14999999963E+04  0.15000000000E+04  0.10566000000E+00 0.  1.
        994   -1    0    0    0    0 -0.00000000000E+00 -0.00000000000E+00  0.11368683772E-12  0.17120000000E+03  0.17120000000E+03 0.  0.
         13    1    1    2    0    0 -0.15356630306E+02  0.99356459529E+01  0.89406077598E+02  0.91257882017E+02  0.10566000000E+00 0.  1.
        994    1    1    2    0    0  0.48682979174E+01  0.19942198536E+01  0.20701888923E+01  0.17129332421E+03  0.17120000000E+03 0.  0.
        998    1    1    2    0    0  0.10488332389E+02 -0.11929865807E+02  0.14085237298E+04  0.14086487938E+04  0.10000000000E+02 0.  1.
</event>
<event>
 5    1  0.1338396E-008  0.3727232E+03  0.7957747E-01  0.3483468E+00
         13   -1    0    0    0    0  0.00000000000E+00  0.00000000000E+00  0.14999999963E+04  0.15000000000E+04  0.10566000000E+00 0.  1.
        994   -1    0    0    0    0 -0.00000000000E+00 -0.00000000000E+00  0.11368683772E-12  0.17120000000E+03  0.17120000000E+03 0.  0.
         13    1    1    2    0    0 -0.84624084927E+02 -0.37597420162E+02  0.28984567888E+03  0.30427837663E+03  0.10566000000E+00 0.  1.
        994    1    1    2    0    0  0.69469338759E+02  0.50115821862E+02  0.38758625782E+02  0.19531834451E+03  0.17120000000E+03 0.  0.
        998    1    1    2    0    0  0.15154746168E+02 -0.12518401699E+02  0.11713956916E+04  0.11716032789E+04  0.10000000000E+02 0.  1.
</event>
<event>
 5    1  0.1338396E-008  0.3690690E+03  0.7957747E-01  0.3500181E+00
         13   -1    0    0    0    0  0.00000000000E+00  0.00000000000E+00  0.14999999963E+04  0.15000000000E+04  0.10566000000E+00 0. -1.
        994   -1    0    0    0    0 -0.00000000000E+00 -0.00000000000E+00  0.11368683772E-12  0.17120000000E+03  0.17120000000E+03 0.  0.
         13    1    1    2    0    0  0.14848329264E+01 -0.86026734383E+02  0.28266964935E+03  0.29547410307E+03  0.10566000000E+00 0. -1.
        994    1    1    2    0    0 -0.92010989180E+01  0.96892205486E+02  0.43374781222E+02  0.20165210475E+03  0.17120000000E+03 0.  0.
        998    1    1    2    0    0  0.77162659917E+01 -0.10865471103E+02  0.11739555657E+04  0.11740737922E+04  0.10000000000E+02 0. -1.
</event>
<event>
 5    1  0.1338396E-008  0.3798673E+03  0.7957747E-01  0.3451737E+00
         13   -1    0    0    0    0  0.00000000000E+00  0.00000000000E+00  0.14999999963E+04  0.15000000000E+04  0.10566000000E+00 0.  1.
        994   -1    0    0    0    0 -0.00000000000E+00 -0.00000000000E+00  0.11368683772E-12  0.17120000000E+03  0.17120000000E+03 0.  0.
         13    1    1    2    0    0 -0.16956558681E+02  0.73759252245E+01  0.37884308931E+02  0.42156389580E+02  0.10566000000E+00 0.  1.
        994    1    1    2    0    0  0.20178413942E+02 -0.79743086791E+01  0.57761369583E+01  0.17266604109E+03  0.17120000000E+03 0.  0.
        998    1    1    2    0    0 -0.32218552611E+01  0.59838345470E+00  0.14563395504E+04  0.14563775693E+04  0.10000000000E+02 0.  1.
</event>
<event>
 5    1  0.1338396E-008  0.3812102E+03  0.7957747E-01  0.3445906E+00
         13   -1    0    0    0    0  0.00000000000E+00  0.00000000000E+00  0.14999999963E+04  0.15000000000E+04  0.10566000000E+00 0. -1.
        994   -1    0    0    0    0 -0.00000000000E+00 -0.00000000000E+00  0.11368683772E-12  0.17120000000E+03  0.17120000000E+03 0.  0.
         13    1    1    2    0    0 -0.48871265982E+02  0.21721679410E+02  0.29145771525E+03  0.29632388183E+03  0.10566000000E+00 0. -1.
        994    1    1    2    0    0  0.62082503269E+02 -0.22029951902E+02  0.18109923941E+02  0.18432841707E+03  0.17120000000E+03 0.  0.
        998    1    1    2    0    0 -0.13211237287E+02  0.30827249136E+00  0.11904323571E+04  0.11905477011E+04  0.10000000000E+02 0. -1.
</event>
<event>
 5    1  0.1338396E-008  0.3764131E+03  0.7957747E-01  0.3466927E+00
         13   -1    0    0    0    0  0.00000000000E+00  0.00000000000E+00  0.14999999963E+04  0.15000000000E+04  0.10566000000E+00 0. -1.
        994   -1    0    0    0    0 -0.00000000000E+00 -0.00000000000E+00  0.11368683772E-12  0.17120000000E+03  0.17120000000E+03 0.  0.
         13    1    1    2    0    0 -0.40421081004E+02 -0.35301250601E+02  0.24924314896E+03  0.25495529128E+03  0.10566000000E+00 0. -1.
        994    1    1    2    0    0  0.74016107801E+01  0.30791189998E+02  0.93551462173E+01  0.17435549886E+03  0.17120000000E+03 0.  0.
        998    1    1    2    0    0  0.33019470224E+02  0.45100606032E+01  0.12414017011E+04  0.12418892099E+04  0.10000000000E+02 0. -1.
</event>
<event>
 5    1  0.1338396E-008  0.3838095E+03  0.7957747E-01  0.3434737E+00
         13   -1    0    0    0    0  0.00000000000E+00  0.00000000000E+00  0.14999999963E+04  0.15000000000E+04  0.10566000000E+00 0. -1.
        994   -1    0    0    0    0 -0.00000000000E+00 -0.00000000000E+00  0.11368683772E-12  0.17120000000E+03  0.17120000000E+03 0.  0.
         13    1    1    2    0    0 -0.10968979321E+02 -0.22238753856E+01  0.27696483021E+02  0.29872570443E+02  0.10566000000E+00 0. -1.
        994    1    1    2    0    0  0.50795201654E+01  0.45974076934E+01  0.23773347156E+01  0.17135352171E+03  0.17120000000E+03 0.  0.
        998    1    1    2    0    0  0.58894591554E+01 -0.23735323078E+01  0.14699261785E+04  0.14699739078E+04  0.10000000000E+02 0. -1.
</event>
<event>
 5    1  0.1338396E-008  0.3801473E+03  0.7957747E-01  0.3450517E+00
         13   -1    0    0    0    0  0.00000000000E+00  0.00000000000E+00  0.14999999963E+04  0.15000000000E+04  0.10566000000E+00 0.  1.
        994   -1    0    0    0    0 -0.00000000000E+00 -0.00000000000E+00  0.11368683772E-12  0.17120000000E+03  0.17120000000E+03 0.  0.
         13    1    1    2    0    0  0.58040298656E+02  0.81997120037E+02  0.58163350564E+03  0.59024549978E+03  0.10566000000E+00 0.  1.
        994    1    1    2    0    0 -0.11417822403E+03 -0.72995367344E+02  0.68082387909E+02  0.22871301240E+03  0.17120000000E+03 0.  0.
        998    1    1    2    0    0  0.56137925371E+02 -0.90017526933E+01  0.85028410273E+03  0.85224148782E+03  0.10000000000E+02 0.  1.
</event>
<event>
 5    1  0.1338396E-008  0.3686488E+03  0.7957747E-01  0.3502124E+00
         13   -1    0    0    0    0  0.00000000000E+00  0.00000000000E+00  0.14999999963E+04  0.15000000000E+04  0.10566000000E+00 0. -1.
        994   -1    0    0    0    0 -0.00000000000E+00 -0.00000000000E+00  0.11368683772E-12  0.17120000000E+03  0.17120000000E+03 0.  0.
         13    1    1    2    0    0  0.58910246270E+02  0.42801006357E+02  0.24983529059E+03  0.26023071849E+03  0.10566000000E+00 0. -1.
        994    1    1    2    0    0 -0.34292432811E+02 -0.40146630513E+02  0.19724494164E+02  0.18023933688E+03  0.17120000000E+03 0.  0.
        998    1    1    2    0    0 -0.24617813459E+02 -0.26543758438E+01  0.12304402115E+04  0.12307299446E+04  0.10000000000E+02 0. -1.
</event>
<event>
 5    1  0.1338396E-008  0.3853904E+03  0.7957747E-01  0.3428018E+00
         13   -1    0    0    0    0  0.00000000000E+00  0.00000000000E+00  0.14999999963E+04  0.15000000000E+04  0.10566000000E+00 0. -1.
        994   -1    0    0    0    0 -0.00000000000E+00 -0.00000000000E+00  0.11368683772E-12  0.17120000000E+03  0.17120000000E+03 0.  0.
         13    1    1    2    0    0 -0.12995635449E+02 -0.10743028671E+02  0.98599237563E+02  0.10003059541E+03  0.10566000000E+00 0. -1.
        994    1    1    2    0    0  0.11835223367E+02  0.41141593385E+01  0.19522758602E+01  0.17166901351E+03  0.17120000000E+03 0.  0.
        998    1    1    2    0    0  0.11604120819E+01  0.66288693321E+01  0.13994484829E+04  0.13995003911E+04  0.10000000000E+02 0. -1.
</event>
<event>
 5    1  0.1338396E-008  0.3730506E+03  0.7957747E-01  0.3481987E+00
         13   -1    0    0    0    0  0.00000000000E+00  0.00000000000E+00  0.14999999963E+04  0.15000000000E+04  0.10566000000E+00 0.  1.
        994   -1    0    0    0    0 -0.00000000000E+00 -0.00000000000E+00  0.11368683772E-12  0.17120000000E+03  0.17120000000E+03 0.  0.
         13    1    1    2    0    0  0.11978349409E+02  0.33892193679E+01  0.65042238980E+01  0.14045773565E+02  0.10566000000E+00 0.  1.
        994    1    1    2    0    0 -0.12894086397E+02 -0.43420724417E+01  0.83168384057E+01  0.17194103890E+03  0.17120000000E+03 0.  0.
        998    1    1    2    0    0  0.91573698787E+00  0.95285307374E+00  0.14851789340E+04  0.14852131875E+04  0.10000000000E+02 0.  1.
</event>
<event>
 5    1  0.1338396E-008  0.3754890E+03  0.7957747E-01  0.3471039E+00
         13   -1    0    0    0    0  0.00000000000E+00  0.00000000000E+00  0.14999999963E+04  0.15000000000E+04  0.10566000000E+00 0.  1.
        994   -1    0    0    0    0 -0.00000000000E+00 -0.00000000000E+00  0.11368683772E-12  0.17120000000E+03  0.17120000000E+03 0.  0.
         13    1    1    2    0    0  0.41047478588E+02 -0.51503510584E+02  0.16134732572E+03  0.17427127641E+03  0.10566000000E+00 0.  1.
        994    1    1    2    0    0 -0.21862545113E+02  0.15969625911E+02  0.16488323116E+02  0.17411003598E+03  0.17120000000E+03 0.  0.
        998    1    1    2    0    0 -0.19184933475E+02  0.35533884673E+02  0.13221643474E+04  0.13228186876E+04  0.10000000000E+02 0.  1.
</event>
<event>
 5    1  0.1338396E-008  0.3869156E+03  0.7957747E-01  0.3421588E+00
         13   -1    0    0    0    0  0.00000000000E+00  0.00000000000E+00  0.14999999963E+04  0.15000000000E+04  0.10566000000E+00 0.  1.
        994   -1    0    0    0    0 -0.00000000000E+00 -0.00000000000E+00  0.11368683772E-12  0.17120000000E+03  0.17120000000E+03 0.  0.
         13    1    1    2    0    0  0.59045499272E+02  0.54346810318E+02  0.13932577583E+03  0.16078442011E+03  0.10566000000E+00 0.  1.
        994    1    1    2    0    0 -0.54564348594E+02 -0.59356708535E+02  0.44773565322E+02  0.19445976226E+03  0.17120000000E+03 0.  0.
        998    1    1    2    0    0 -0.44811506781E+01  0.50098982163E+01  0.13159006551E+04  0.13159558176E+04  0.10000000000E+02 0.  1.
</event>
<event>
 5    1  0.1338396E-008  0.3829627E+03  0.7957747E-01  0.3438359E+00
         13   -1    0    0    0    0  0.00000000000E+00  0.00000000000E+00  0.14999999963E+04  0.15000000000E+04  0.10566000000E+00 0.  1.
        994   -1    0    0    0    0 -0.00000000000E+00 -0.00000000000E+00  0.11368683772E-12  0.17120000000E+03  0.17120000000E+03 0.  0.
         13    1    1    2    0    0  0.20475046159E+02 -0.54915614593E+01  0.89520393209E+02  0.91996177783E+02  0.10566000000E+00 0.  1.
        994    1    1    2    0    0 -0.72612485148E+01 -0.14144903375E+02  0.34823791056E+01  0.17197200640E+03  0.17120000000E+03 0.  0.
        998    1    1    2    0    0 -0.13213797644E+02  0.19636464834E+02  0.14069972240E+04  0.14072318158E+04  0.10000000000E+02 0.  1.
</event>
<event>
 5    1  0.1338396E-008  0.3846028E+03  0.7957747E-01  0.3431358E+00
         13   -1    0    0    0    0  0.00000000000E+00  0.00000000000E+00  0.14999999963E+04  0.15000000000E+04  0.10566000000E+00 0. -1.
        994   -1    0    0    0    0 -0.00000000000E+00 -0.00000000000E+00  0.11368683772E-12  0.17120000000E+03  0.17120000000E+03 0.  0.
         13    1    1    2    0    0  0.49999496739E+01  0.99058803647E+01  0.33687346959E+02  0.35467935825E+02  0.10566000000E+00 0. -1.
        994    1    1    2    0    0 -0.28259428938E+01 -0.43653465949E+01  0.19165053162E+01  0.17128968211E+03  0.17120000000E+03 0.  0.
        998    1    1    2    0    0 -0.21740067802E+01 -0.55405337698E+01  0.14643961440E+04  0.14644423821E+04  0.10000000000E+02 0. -1.
</event>
<event>
 5    1  0.1338396E-008  0.3788120E+03  0.7957747E-01  0.3456348E+00
         13   -1    0    0    0    0  0.00000000000E+00  0.00000000000E+00  0.14999999963E+04  0.15000000000E+04  0.10566000000E+00 0.  1.
        994   -1    0    0    0    0 -0.00000000000E+00 -0.00000000000E+00  0.11368683772E-12  0.17120000000E+03  0.17120000000E+03 0.  0.
         13    1    1    2    0    0 -0.10230848832E+02  0.91353518426E+02  0.32180425558E+03  0.33467615044E+03  0.10566000000E+00 0.  1.
        994    1    1    2    0    0 -0.37128266987E+02 -0.26106593020E+02  0.23145752747E+02  0.17862034677E+03  0.17120000000E+03 0.  0.
        998    1    1    2    0    0  0.47359115819E+02 -0.65246925406E+02  0.11550499879E+04  0.11579035028E+04  0.10000000000E+02 0.  1.
</event>
<event>
 5    1  0.1338396E-008  0.3839159E+03  0.7957747E-01  0.3434283E+00
         13   -1    0    0    0    0  0.00000000000E+00  0.00000000000E+00  0.14999999963E+04  0.15000000000E+04  0.10566000000E+00 0.  1.
        994   -1    0    0    0    0 -0.00000000000E+00 -0.00000000000E+00  0.11368683772E-12  0.17120000000E+03  0.17120000000E+03 0.  0.
         13    1    1    2    0    0 -0.27215903354E+02 -0.85491786315E+01  0.17215129444E+03  0.17449892032E+03  0.10566000000E+00 0.  1.
        994    1    1    2    0    0  0.24362126131E+02  0.98028760332E+01  0.44485294257E+01  0.17325945568E+03  0.17120000000E+03 0.  0.
        998    1    1    2    0    0  0.28537772233E+01 -0.12536974017E+01  0.13234001724E+04  0.13234416240E+04  0.10000000000E+02 0.  1.
</event>
<event>
 5    1  0.1338396E-008  0.3760531E+03  0.7957747E-01  0.3468526E+00
         13   -1    0    0    0    0  0.00000000000E+00  0.00000000000E+00  0.14999999963E+04  0.15000000000E+04  0.10566000000E+00 0. -1.
        994   -1    0    0    0    0 -0.00000000000E+00 -0.00000000000E+00  0.11368683772E-12  0.17120000000E+03  0.17120000000E+03 0.  0.
         13    1    1    2    0    0 -0.17954718610E+02 -0.24889281825E+02  0.73168044450E+02  0.79343696428E+02  0.10566000000E+00 0. -1.
        994    1    1    2    0    0  0.17121788274E+02  0.17108686672E+02  0.81258930837E+01  0.17309342255E+03  0.17120000000E+03 0.  0.
        998    1    1    2    0    0  0.83293033588E+00  0.77805951528E+01  0.14187060587E+04  0.14187628810E+04  0.10000000000E+02 0. -1.
</event>
<event>
 5    1  0.1338396E-008  0.4423674E+03  0.7957747E-01  0.3217707E+00
         13   -1    0    0    0    0  0.00000000000E+00  0.00000000000E+00  0.14999999963E+04  0.15000000000E+04  0.10566000000E+00 0. -1.
        994   -1    0    0    0    0 -0.00000000000E+00 -0.00000000000E+00  0.11368683772E-12  0.17120000000E+03  0.17120000000E+03 0.  0.
         13    1    1    2    0    0  0.57267791646E+02 -0.52232694137E+02  0.27536956743E+02  0.82256607318E+02  0.10566000000E+00 0. -1.
        994    1    1    2    0    0 -0.83598358933E+02  0.97405917890E+02  0.14064232643E+03  0.25605917761E+03  0.17120000000E+03 0.  0.
        998    1    1    2    0    0  0.26330567287E+02 -0.45173223753E+02  0.13318207131E+04  0.13328842151E+04  0.10000000000E+02 0. -1.
</event>
<event>
 5    1  0.1338396E-008  0.3793116E+03  0.7957747E-01  0.3454161E+00
         13   -1    0    0    0    0  0.00000000000E+00  0.00000000000E+00  0.14999999963E+04  0.15000000000E+04  0.10566000000E+00 0. -1.
        994   -1    0    0    0    0 -0.00000000000E+00 -0.00000000000E+00  0.11368683772E-12  0.17120000000E+03  0.17120000000E+03 0.  0.
         13    1    1    2    0    0  0.13398080101E+02 -0.62075375305E+01  0.22901021294E+02  0.27249036917E+02  0.10566000000E+00 0. -1.
        994    1    1    2    0    0 -0.25696320203E+01  0.24085157240E+01  0.45226142119E+01  0.17129593689E+03  0.17120000000E+03 0.  0.
        998    1    1    2    0    0 -0.10828448081E+02  0.37990218065E+01  0.14725763608E+04  0.14726550262E+04  0.10000000000E+02 0. -1.
</event>
<event>
 5    1  0.1338396E-008  0.3716860E+03  0.7957747E-01  0.3488178E+00
         13   -1    0    0    0    0  0.00000000000E+00  0.00000000000E+00  0.14999999963E+04  0.15000000000E+04  0.10566000000E+00 0.  1.
        994   -1    0    0    0    0 -0.00000000000E+00 -0.00000000000E+00  0.11368683772E-12  0.17120000000E+03  0.17120000000E+03 0.  0.
         13    1    1    2    0    0  0.51873860441E+02  0.79747959413E+01  0.14750054678E+03  0.15655962836E+03  0.10566000000E+00 0.  1.
        994    1    1    2    0    0 -0.49984824415E+02 -0.89033056411E+01  0.17304534170E+02  0.17940635002E+03  0.17120000000E+03 0.  0.
        998    1    1    2    0    0 -0.18890360263E+01  0.92850969978E+00  0.13351949153E+04  0.13352340216E+04  0.10000000000E+02 0.  0.
</event>
<event>
 5    1  0.1338396E-008  0.3828223E+03  0.7957747E-01  0.3438961E+00
         13   -1    0    0    0    0  0.00000000000E+00  0.00000000000E+00  0.14999999963E+04  0.15000000000E+04  0.10566000000E+00 0.  1.
        994   -1    0    0    0    0 -0.00000000000E+00 -0.00000000000E+00  0.11368683772E-12  0.17120000000E+03  0.17120000000E+03 0.  0.
         13    1    1    2    0    0  0.38205842359E+02  0.16176557366E+03  0.93808061641E+03  0.95269252189E+03  0.10566000000E+00 0.  1.
        994    1    1    2    0    0 -0.19440408254E+02 -0.18827141782E+03  0.13215065114E+03  0.28739744403E+03  0.17120000000E+03 0.  0.
        998    1    1    2    0    0 -0.18765434105E+02  0.26505844159E+02  0.42976872873E+03  0.43111003408E+03  0.10000000000E+02 0.  1.
</event>
<event>
 5    1  0.1338396E-008  0.3824592E+03  0.7957747E-01  0.3440520E+00
         13   -1    0    0    0    0  0.00000000000E+00  0.00000000000E+00  0.14999999963E+04  0.15000000000E+04  0.10566000000E+00 0. -1.
        994   -1    0    0    0    0 -0.00000000000E+00 -0.00000000000E+00  0.11368683772E-12  0.17120000000E+03  0.17120000000E+03 0.  0.
         13    1    1    2    0    0  0.10343707311E+02 -0.17416355217E+02  0.79641602128E+02  0.82177354931E+02  0.10566000000E+00 0. -1.
        994    1    1    2    0    0 -0.43042334007E+01 -0.15030136322E+02  0.37078018483E+01  0.17195237485E+03  0.17120000000E+03 0.  0.
        998    1    1    2    0    0 -0.60394739101E+01  0.32446491539E+02  0.14166505923E+04  0.14170702702E+04  0.10000000000E+02 0. -1.
</event>
<event>
 5    1  0.1338396E-008  0.3809236E+03  0.7957747E-01  0.3447147E+00
         13   -1    0    0    0    0  0.00000000000E+00  0.00000000000E+00  0.14999999963E+04  0.15000000000E+04  0.10566000000E+00 0. -1.
        994   -1    0    0    0    0 -0.00000000000E+00 -0.00000000000E+00  0.11368683772E-12  0.17120000000E+03  0.17120000000E+03 0.  0.
         13    1    1    2    0    0  0.53037469166E+01 -0.31340999087E+02  0.15303193408E+03  0.15629834282E+03  0.10566000000E+00 0. -1.
        994    1    1    2    0    0 -0.21553115858E+01  0.18452299785E+01  0.36944660899E+01  0.17126336246E+03  0.17120000000E+03 0.  0.
        998    1    1    2    0    0 -0.31484353308E+01  0.29495769108E+02  0.13432735961E+04  0.13436382947E+04  0.10000000000E+02 0. -1.
</event>
<event>
 5    1  0.1338396E-008  0.3822015E+03  0.7957747E-01  0.3441628E+00
         13   -1    0    0    0    0  0.00000000000E+00  0.00000000000E+00  0.14999999963E+04  0.15000000000E+04  0.10566000000E+00 0.  1.
        994   -1    0    0    0    0 -0.00000000000E+00 -0.00000000000E+00  0.11368683772E-12  0.17120000000E+03  0.17120000000E+03 0.  0.
         13    1    1    2    0    0 -0.38909430314E+01  0.36342917622E+02  0.21308704481E+03  0.21619909095E+03  0.10566000000E+00 0.  1.
        994    1    1    2    0    0 -0.79609643999E+01 -0.25869931026E+02  0.54611561170E+01  0.17341249814E+03  0.17120000000E+03 0.  0.
        998    1    1    2    0    0  0.11851907431E+02 -0.10472986596E+02  0.12814517954E+04  0.12815884109E+04  0.10000000000E+02 0.  1.
</event>
<event>
 5    1  0.1338396E-008  0.3691438E+03  0.7957747E-01  0.3499835E+00
         13   -1    0    0    0    0  0.00000000000E+00  0.00000000000E+00  0.14999999963E+04  0.15000000000E+04  0.10566000000E+00 0.  1.
        994   -1    0    0    0    0 -0.00000000000E+00 -0.00000000000E+00  0.11368683772E-12  0.17120000000E+03  0.17120000000E+03 0.  0.
         13    1    1    2    0    0 -0.34909493913E+02  0.20557351377E+02  0.66526638320E+02  0.77891477269E+02  0.10566000000E+00 0.  1.
        994    1    1    2    0    0  0.55763957451E+02 -0.28341466267E+02  0.24252354071E+02  0.18387624735E+03  0.17120000000E+03 0.  0.
        998    1    1    2    0    0 -0.20854463538E+02  0.77841148905E+01  0.14092210039E+04  0.14094322754E+04  0.10000000000E+02 0.  1.
</event>
<event>
 5    1  0.1338396E-008  0.3807940E+03  0.7957747E-01  0.3447709E+00
         13   -1    0    0    0    0  0.00000000000E+00  0.00000000000E+00  0.14999999963E+04  0.15000000000E+04  0.10566000000E+00 0.  1.
        994   -1    0    0    0    0 -0.00000000000E+00 -0.00000000000E+00  0.11368683772E-12  0.17120000000E+03  0.17120000000E+03 0.  0.
         13    1    1    2    0    0 -0.34541986551E+02  0.26806071294E+02  0.22439397636E+03  0.22861404612E+03  0.10566000000E+00 0.  1.
        994    1    1    2    0    0  0.25690179772E+02 -0.33777446844E+02  0.97608188154E+01  0.17665111049E+03  0.17120000000E+03 0.  0.
        998    1    1    2    0    0  0.88518067795E+01  0.69713755498E+01  0.12658452011E+04  0.12659348434E+04  0.10000000000E+02 0.  1.
</event>
<event>
 5    1  0.1338396E-008  0.3755712E+03  0.7957747E-01  0.3470672E+00
         13   -1    0    0    0    0  0.00000000000E+00  0.00000000000E+00  0.14999999963E+04  0.15000000000E+04  0.10566000000E+00 0.  1.
        994   -1    0    0    0    0 -0.00000000000E+00 -0.00000000000E+00  0.11368683772E-12  0.17120000000E+03  0.17120000000E+03 0.  0.
         13    1    1    2    0    0  0.29005281298E+02  0.27272752982E+02  0.14695706857E+03  0.15225472264E+03  0.10566000000E+00 0.  1.
        994    1    1    2    0    0  0.58913894743E+01  0.10517890882E+02  0.68789016564E+01  0.17176173551E+03  0.17120000000E+03 0.  0.
        998    1    1    2    0    0 -0.34896670773E+02 -0.37790643864E+02  0.13461640261E+04  0.13471835419E+04  0.10000000000E+02 0.  1.
</event>
<event>
 5    1  0.1338396E-008  0.3700683E+03  0.7957747E-01  0.3495577E+00
         13   -1    0    0    0    0  0.00000000000E+00  0.00000000000E+00  0.14999999963E+04  0.15000000000E+04  0.10566000000E+00 0. -1.
        994   -1    0    0    0    0 -0.00000000000E+00 -0.00000000000E+00  0.11368683772E-12  0.17120000000E+03  0.17120000000E+03 0.  0.
         13    1    1    2    0    0 -0.58426667023E+02 -0.26163067179E+02  0.20203691945E+03  0.21193656949E+03  0.10566000000E+00 0. -1.
        994    1    1    2    0    0  0.33756165624E+02 -0.27744020412E+02  0.17680967584E+02  0.17757045363E+03  0.17120000000E+03 0.  0.
        998    1    1    2    0    0  0.24670501399E+02  0.53907087591E+02  0.12802821092E+04  0.12816929769E+04  0.10000000000E+02 0. -1.
</event>
<event>
 5    1  0.1338396E-008  0.3855512E+03  0.7957747E-01  0.3427338E+00
         13   -1    0    0    0    0  0.00000000000E+00  0.00000000000E+00  0.14999999963E+04  0.15000000000E+04  0.10566000000E+00 0.  1.
        994   -1    0    0    0    0 -0.00000000000E+00 -0.00000000000E+00  0.11368683772E-12  0.17120000000E+03  0.17120000000E+03 0.  0.
         13    1    1    2    0    0  0.15540173615E+01 -0.16119354185E+02  0.94150226545E+02  0.95532847083E+02  0.10566000000E+00 0.  1.
        994    1    1    2    0    0  0.95433289910E+01  0.15444873121E+02  0.24395448825E+01  0.17217726509E+03  0.17120000000E+03 0.  0.
        998    1    1    2    0    0 -0.11097346353E+02  0.67448106396E+00  0.14034102249E+04  0.14034898878E+04  0.10000000000E+02 0.  1.
</event>
<event>
 5    1  0.1338396E-008  0.3775503E+03  0.7957747E-01  0.3461895E+00
         13   -1    0    0    0    0  0.00000000000E+00  0.00000000000E+00  0.14999999963E+04  0.15000000000E+04  0.10566000000E+00 0. -1.
        994   -1    0    0    0    0 -0.00000000000E+00 -0.00000000000E+00  0.11368683772E-12  0.17120000000E+03  0.17120000000E+03 0.  0.
         13    1    1    2    0    0 -0.30141431455E+02  0.17673113036E+02  0.10981154561E+03  0.11523641581E+03  0.10566000000E+00 0. -1.
        994    1    1    2    0    0  0.27883555340E+02 -0.12896723705E+01  0.80052480130E+01  0.17364527033E+03  0.17120000000E+03 0.  0.
        998    1    1    2    0    0  0.22578761151E+01 -0.16383440665E+02  0.13821832027E+04  0.13823183139E+04  0.10000000000E+02 0. -1.
</event>
<event>
 5    1  0.1338396E-008  0.3695881E+03  0.7957747E-01  0.3497786E+00
         13   -1    0    0    0    0  0.00000000000E+00  0.00000000000E+00  0.14999999963E+04  0.15000000000E+04  0.10566000000E+00 0. -1.
        994   -1    0    0    0    0 -0.00000000000E+00 -0.00000000000E+00  0.11368683772E-12  0.17120000000E+03  0.17120000000E+03 0.  0.
         13    1    1    2    0    0  0.22208955579E+02 -0.12010309432E+02  0.31204371902E+02  0.40139870832E+02  0.10566000000E+00 0. -1.
        994    1    1    2    0    0  0.40870156347E+02  0.63431154473E+02  0.29467183081E+02  0.18939808847E+03  0.17120000000E+03 0.  0.
        998    1    1    2    0    0 -0.63079111926E+02 -0.51420845041E+02  0.14393284413E+04  0.14416620407E+04  0.10000000000E+02 0. -1.
</event>
<event>
 5    1  0.1338396E-008  0.3839519E+03  0.7957747E-01  0.3434129E+00
         13   -1    0    0    0    0  0.00000000000E+00  0.00000000000E+00  0.14999999963E+04  0.15000000000E+04  0.10566000000E+00 0.  1.
        994   -1    0    0    0    0 -0.00000000000E+00 -0.00000000000E+00  0.11368683772E-12  0.17120000000E+03  0.17120000000E+03 0.  0.
         13    1    1    2    0    0 -0.71144980516E+01  0.10221063675E+02  0.35645556379E+02  0.37758483534E+02  0.10566000000E+00 0.  1.
        994    1    1    2    0    0 -0.33113346146E+01 -0.11292105581E+02  0.26084773305E+01  0.17162377673E+03  0.17120000000E+03 0.  0.
        998    1    1    2    0    0  0.10425832666E+02  0.10710419057E+01  0.14617459626E+04  0.14618177397E+04  0.10000000000E+02 0.  1.
</event>
<event>
 5    1  0.1338396E-008  0.3840590E+03  0.7957747E-01  0.3433673E+00
         13   -1    0    0    0    0  0.00000000000E+00  0.00000000000E+00  0.14999999963E+04  0.15000000000E+04  0.10566000000E+00 0. -1.
        994   -1    0    0    0    0 -0.00000000000E+00 -0.00000000000E+00  0.11368683772E-12  0.17120000000E+03  0.17120000000E+03 0.  0.
         13    1    1    2    0    0 -0.82692758785E+01  0.71187119541E+01  0.27436180836E+02  0.29526465524E+02  0.10566000000E+00 0. -1.
        994    1    1    2    0    0  0.73857017245E+01 -0.79103680091E+01  0.24844841640E+01  0.17155971314E+03  0.17120000000E+03 0.  0.
        998    1    1    2    0    0  0.88357415407E+00  0.79165605491E+00  0.14700793313E+04  0.14701138213E+04  0.10000000000E+02 0.  0.
</event>
<event>
 5    1  0.1338396E-008  0.3827139E+03  0.7957747E-01  0.3439426E+00
         13   -1    0    0    0    0  0.00000000000E+00  0.00000000000E+00  0.14999999963E+04  0.15000000000E+04  0.10566000000E+00 0. -1.
        994   -1    0    0    0    0 -0.00000000000E+00 -0.00000000000E+00  0.11368683772E-12  0.17120000000E+03  0.17120000000E+03 0.  0.
         13    1    1    2    0    0  0.49581766929E+01 -0.16285468888E+02  0.51812878032E+02  0.54537927235E+02  0.10566000000E+00 0. -1.
        994    1    1    2    0    0 -0.65081405634E+01  0.80988696627E+01  0.31271489081E+01  0.17154348324E+03  0.17120000000E+03 0.  0.
        998    1    1    2    0    0  0.15499638705E+01  0.81865992252E+01  0.14450599693E+04  0.14451185895E+04  0.10000000000E+02 0. -1.
</event>
<event>
 5    1  0.1338396E-008  0.3755344E+03  0.7957747E-01  0.3470836E+00
         13   -1    0    0    0    0  0.00000000000E+00  0.00000000000E+00  0.14999999963E+04  0.15000000000E+04  0.10566000000E+00 0.  1.
        994   -1    0    0    0    0 -0.00000000000E+00 -0.00000000000E+00  0.11368683772E-12  0.17120000000E+03  0.17120000000E+03 0.  0.
         13    1    1    2    0    0 -0.14364143080E+02  0.34679728889E+01  0.15297912170E+02  0.21269525692E+02  0.10566000000E+00 0.  1.
        994    1    1    2    0    0 -0.21274425394E+02  0.11925123130E+01  0.79466066559E+01  0.17270382688E+03  0.17120000000E+03 0.  0.
        998    1    1    2    0    0  0.35638568474E+02 -0.46604852018E+01  0.14767554775E+04  0.14772266474E+04  0.10000000000E+02 0.  1.
</event>
<event>
 5    1  0.1338396E-008  0.3758805E+03  0.7957747E-01  0.3469294E+00
         13   -1    0    0    0    0  0.00000000000E+00  0.00000000000E+00  0.14999999963E+04  0.15000000000E+04  0.10566000000E+00 0.  1.
        994   -1    0    0    0    0 -0.00000000000E+00 -0.00000000000E+00  0.11368683772E-12  0.17120000000E+03  0.17120000000E+03 0.  0.
         13    1    1    2    0    0  0.13025948510E+02 -0.45943724686E+02  0.17168619348E+03  0.17820398808E+03  0.10566000000E+00 0.  1.
        994    1    1    2    0    0 -0.89907574325E+01  0.36180580272E+02  0.10952252149E+02  0.17555415101E+03  0.17120000000E+03 0.  0.
        998    1    1    2    0    0 -0.40351910776E+01  0.97631444145E+01  0.13173615506E+04  0.13174418609E+04  0.10000000000E+02 0.  1.
</event>
<event>
 5    1  0.1880448E-008  0.3855644E+03  0.7957747E-01  0.3427282E+00
         13   -1    0    0    0    0  0.00000000000E+00  0.00000000000E+00  0.14999999963E+04  0.15000000000E+04  0.10566000000E+00 0.  1.
        994   -1    0    0    0    0 -0.00000000000E+00 -0.00000000000E+00  0.11368683772E-12  0.17120000000E+03  0.17120000000E+03 0.  0.
         13    1    1    2    0    0  0.59491712692E+00 -0.10704155029E+02  0.42033794593E+02  0.43379533344E+02  0.10566000000E+00 0.  1.
        994    1    1    2    0    0  0.10249863024E+01  0.10318981067E+02  0.17032440371E+01  0.17152222307E+03  0.17120000000E+03 0.  0.
        998    1    1    2    0    0 -0.16199034293E+01  0.38517396144E+00  0.14562629576E+04  0.14562982436E+04  0.10000000000E+02 0.  1.
</event>
<event>
 5    1  0.1338396E-008  0.3803502E+03  0.7957747E-01  0.3449635E+00
         13   -1    0    0    0    0  0.00000000000E+00  0.00000000000E+00  0.14999999963E+04  0.15000000000E+04  0.10566000000E+00 0.  1.
        994   -1    0    0    0    0 -0.00000000000E+00 -0.00000000000E+00  0.11368683772E-12  0.17120000000E+03  0.17120000000E+03 0.  0.
         13    1    1    2    0    0  0.52398257845E+02 -0.81846025593E+02  0.26134597330E+03  0.27882983746E+03  0.10566000000E+00 0.  1.
        994    1    1    2    0    0 -0.65994734299E+02  0.45512627456E+02  0.40225789959E+02  0.19327249776E+03  0.17120000000E+03 0.  0.
        998    1    1    2    0    0  0.13596476454E+02  0.36333398137E+02  0.11984282330E+04  0.11990976648E+04  0.10000000000E+02 0.  1.
</event>
<event>
 5    1  0.1338396E-008  0.3817413E+03  0.7957747E-01  0.3443611E+00
         13   -1    0    0    0    0  0.00000000000E+00  0.00000000000E+00  0.14999999963E+04  0.15000000000E+04  0.10566000000E+00 0.  1.
        994   -1    0    0    0    0 -0.00000000000E+00 -0.00000000000E+00  0.11368683772E-12  0.17120000000E+03  0.17120000000E+03 0.  0.
         13    1    1    2    0    0 -0.28739825780E+01  0.42280089022E+02  0.24789518037E+03  0.25149134641E+03  0.10566000000E+00 0.  1.
        994    1    1    2    0    0  0.74078812201E+01 -0.35106040087E+02  0.75472864778E+01  0.17508201589E+03  0.17120000000E+03 0.  0.
        998    1    1    2    0    0 -0.45338986421E+01 -0.71740489353E+01  0.12445575294E+04  0.12446266377E+04  0.10000000000E+02 0.  1.
</event>
<event>
 5    1  0.1338396E-008  0.3824420E+03  0.7957747E-01  0.3440594E+00
         13   -1    0    0    0    0  0.00000000000E+00  0.00000000000E+00  0.14999999963E+04  0.15000000000E+04  0.10566000000E+00 0. -1.
        994   -1    0    0    0    0 -0.00000000000E+00 -0.00000000000E+00  0.11368683772E-12  0.17120000000E+03  0.17120000000E+03 0.  0.
         13    1    1    2    0    0 -0.29620737720E+02 -0.22988147793E+02  0.21855815770E+03  0.22175103721E+03  0.10566000000E+00 0. -1.
        994    1    1    2    0    0  0.22045205431E+02  0.24807520791E+02  0.65665399467E+01  0.17451064041E+03  0.17120000000E+03 0.  0.
        998    1    1    2    0    0  0.75755322893E+01 -0.18193729981E+01  0.12748752986E+04  0.12749383224E+04  0.10000000000E+02 0. -1.
</event>
<event>
 5    1  0.1338396E-008  0.3817955E+03  0.7957747E-01  0.3443378E+00
         13   -1    0    0    0    0  0.00000000000E+00  0.00000000000E+00  0.14999999963E+04  0.15000000000E+04  0.10566000000E+00 0.  1.
        994   -1    0    0    0    0 -0.00000000000E+00 -0.00000000000E+00  0.11368683772E-12  0.17120000000E+03  0.17120000000E+03 0.  0.
         13    1    1    2    0    0  0.11768544782E+02  0.66306937466E+01  0.26621037762E+02  0.29852228751E+02  0.10566000000E+00 0.  1.
        994    1    1    2    0    0 -0.12120144907E+02 -0.68905811872E+01  0.38757524840E+01  0.17181047546E+03  0.17120000000E+03 0.  0.
        998    1    1    2    0    0  0.35160012475E+00  0.25988744064E+00  0.14695032060E+04  0.14695372958E+04  0.10000000000E+02 0.  1.
</event>
<event>
 5    1  0.1338396E-008  0.3825529E+03  0.7957747E-01  0.3440117E+00
         13   -1    0    0    0    0  0.00000000000E+00  0.00000000000E+00  0.14999999963E+04  0.15000000000E+04  0.10566000000E+00 0.  1.
        994   -1    0    0    0    0 -0.00000000000E+00 -0.00000000000E+00  0.11368683772E-12  0.17120000000E+03  0.17120000000E+03 0.  0.
         13    1    1    2    0    0 -0.21530656795E+02  0.10316806297E+02  0.86468769195E+02  0.89704319207E+02  0.10566000000E+00 0.  1.
        994    1    1    2    0    0  0.41585197014E+02 -0.50101731895E+01  0.86877337619E+01  0.17646344427E+03  0.17120000000E+03 0.  0.
        998    1    1    2    0    0 -0.20054540219E+02 -0.53066331079E+01  0.14048434933E+04  0.14050322365E+04  0.10000000000E+02 0.  1.
</event>
<event>
 5    1  0.1338396E-008  0.3734304E+03  0.7957747E-01  0.3480273E+00
         13   -1    0    0    0    0  0.00000000000E+00  0.00000000000E+00  0.14999999963E+04  0.15000000000E+04  0.10566000000E+00 0. -1.
        994   -1    0    0    0    0 -0.00000000000E+00 -0.00000000000E+00  0.11368683772E-12  0.17120000000E+03  0.17120000000E+03 0.  0.
         13    1    1    2    0    0  0.34632174875E+02  0.40289592887E+02  0.16657933973E+03  0.17484657966E+03  0.10566000000E+00 0. -1.
        994    1    1    2    0    0 -0.39794348828E+02 -0.35454783328E+02  0.17257184942E+02  0.18013295726E+03  0.17120000000E+03 0.  0.
        998    1    1    2    0    0  0.51621739530E+01 -0.48348095583E+01  0.13161634716E+04  0.13162204631E+04  0.10000000000E+02 0. -1.
</event>
<event>
 5    1  0.1338396E-008  0.3844916E+03  0.7957747E-01  0.3431831E+00
         13   -1    0    0    0    0  0.00000000000E+00  0.00000000000E+00  0.14999999963E+04  0.15000000000E+04  0.10566000000E+00 0.  1.
        994   -1    0    0    0    0 -0.00000000000E+00 -0.00000000000E+00  0.11368683772E-12  0.17120000000E+03  0.17120000000E+03 0.  0.
         13    1    1    2    0    0 -0.25462786258E+01 -0.12971627197E+02  0.47121327513E+02  0.48940548807E+02  0.10566000000E+00 0.  1.
        994    1    1    2    0    0  0.66262997989E+01  0.33852206152E+01  0.20651595035E+01  0.17137407170E+03  0.17120000000E+03 0.  0.
        998    1    1    2    0    0 -0.40800211731E+01  0.95864065817E+01  0.14508135093E+04  0.14508853795E+04  0.10000000000E+02 0.  1.
</event>
<event>
 5    1  0.1338396E-008  0.3772716E+03  0.7957747E-01  0.3463125E+00
         13   -1    0    0    0    0  0.00000000000E+00  0.00000000000E+00  0.14999999963E+04  0.15000000000E+04  0.10566000000E+00 0.  1.
        994   -1    0    0    0    0 -0.00000000000E+00 -0.00000000000E+00  0.11368683772E-12  0.17120000000E+03  0.17120000000E+03 0.  0.
         13    1    1    2    0    0 -0.12649044383E+02 -0.11255604901E+02  0.23815205744E+02  0.29220919803E+02  0.10566000000E+00 0.  1.
        994    1    1    2    0    0  0.49831927788E+01  0.85971838064E+01  0.58499986315E+01  0.17158789661E+03  0.17120000000E+03 0.  0.
        998    1    1    2    0    0  0.76658516038E+01  0.26584210946E+01  0.14703347919E+04  0.14703911836E+04  0.10000000000E+02 0.  1.
</event>
<event>
 5    1  0.1338396E-008  0.3789249E+03  0.7957747E-01  0.3455853E+00
         13   -1    0    0    0    0  0.00000000000E+00  0.00000000000E+00  0.14999999963E+04  0.15000000000E+04  0.10566000000E+00 0. -1.
        994   -1    0    0    0    0 -0.00000000000E+00 -0.00000000000E+00  0.11368683772E-12  0.17120000000E+03  0.17120000000E+03 0.  0.
         13    1    1    2    0    0 -0.97483436905E+01  0.86718607874E+01  0.16306125150E+02  0.20883779726E+02  0.10566000000E+00 0. -1.
        994    1    1    2    0    0  0.27922880435E+01 -0.63752287628E+01  0.48393447875E+01  0.17140974206E+03  0.17120000000E+03 0.  0.
        998    1    1    2    0    0  0.69560556471E+01 -0.22966320246E+01  0.14788545263E+04  0.14789064782E+04  0.10000000000E+02 0. -1.
</event>
<event>
 5    1  0.1338396E-008  0.3833297E+03  0.7957747E-01  0.3436787E+00
         13   -1    0    0    0    0  0.00000000000E+00  0.00000000000E+00  0.14999999963E+04  0.15000000000E+04  0.10566000000E+00 0. -1.
        994   -1    0    0    0    0 -0.00000000000E+00 -0.00000000000E+00  0.11368683772E-12  0.17120000000E+03  0.17120000000E+03 0.  0.
         13    1    1    2    0    0 -0.16019260643E+02  0.21463409565E+02  0.13739254681E+03  0.13997863317E+03  0.10566000000E+00 0. -1.
        994    1    1    2    0    0  0.19270702510E+02 -0.14727509754E+02  0.44092109730E+01  0.17296572106E+03  0.17120000000E+03 0.  0.
        998    1    1    2    0    0 -0.32514418671E+01 -0.67358998111E+01  0.13581982385E+04  0.13582556458E+04  0.10000000000E+02 0. -1.
</event>
<event>
 5    1  0.1338396E-008  0.3724909E+03  0.7957747E-01  0.3484521E+00
         13   -1    0    0    0    0  0.00000000000E+00  0.00000000000E+00  0.14999999963E+04  0.15000000000E+04  0.10566000000E+00 0.  1.
        994   -1    0    0    0    0 -0.00000000000E+00 -0.00000000000E+00  0.11368683772E-12  0.17120000000E+03  0.17120000000E+03 0.  0.
         13    1    1    2    0    0 -0.14040315052E+02 -0.18110564453E+02  0.29984367918E+02  0.37738527728E+02  0.10566000000E+00 0.  1.
        994    1    1    2    0    0 -0.36873579884E+01  0.17211552000E+02  0.90357494246E+01  0.17233954537E+03  0.17120000000E+03 0.  0.
        998    1    1    2    0    0  0.17727673041E+02  0.89901245334E+00  0.14609798789E+04  0.14611219269E+04  0.10000000000E+02 0.  1.
</event>
<event>
 5    1  0.1338396E-008  0.3859755E+03  0.7957747E-01  0.3425545E+00
         13   -1    0    0    0    0  0.00000000000E+00  0.00000000000E+00  0.14999999963E+04  0.15000000000E+04  0.10566000000E+00 0. -1.
        994   -1    0    0    0    0 -0.00000000000E+00 -0.00000000000E+00  0.11368683772E-12  0.17120000000E+03  0.17120000000E+03 0.  0.
         13    1    1    2    0    0  0.93414912461E+01  0.50248607692E+01  0.49664988309E+02  0.50785183984E+02  0.10566000000E+00 0. -1.
        994    1    1    2    0    0 -0.10960804541E+02  0.53365556843E+01  0.16339389069E+01  0.17164127656E+03  0.17120000000E+03 0.  0.
        998    1    1    2    0    0  0.16193132953E+01 -0.10361416453E+02  0.14487010691E+04  0.14487735395E+04  0.10000000000E+02 0. -1.
</event>
<event>
 5    1  0.1338396E-008  0.3847917E+03  0.7957747E-01  0.3430556E+00
         13   -1    0    0    0    0  0.00000000000E+00  0.00000000000E+00  0.14999999963E+04  0.15000000000E+04  0.10566000000E+00 0.  1.
        994   -1    0    0    0    0 -0.00000000000E+00 -0.00000000000E+00  0.11368683772E-12  0.17120000000E+03  0.17120000000E+03 0.  0.
         13    1    1    2    0    0 -0.10705526829E+01 -0.18649311839E+02  0.10450286605E+03  0.10615932880E+03  0.10566000000E+00 0.  1.
        994    1    1    2    0    0  0.45895870988E+01  0.67745690639E+01  0.19539569327E+01  0.17140658401E+03  0.17120000000E+03 0.  0.
        998    1    1    2    0    0 -0.35190344159E+01  0.11874742775E+02  0.13935431733E+04  0.13936340872E+04  0.10000000000E+02 0.  1.
</event>
<event>
 5    1  0.1338396E-008  0.3819185E+03  0.7957747E-01  0.3442847E+00
         13   -1    0    0    0    0  0.00000000000E+00  0.00000000000E+00  0.14999999963E+04  0.15000000000E+04  0.10566000000E+00 0. -1.
        994   -1    0    0    0    0 -0.00000000000E+00 -0.00000000000E+00  0.11368683772E-12  0.17120000000E+03  0.17120000000E+03 0.  0.
         13    1    1    2    0    0 -0.14639254809E+02 -0.14241610752E+02  0.70829080520E+02  0.73714998946E+02  0.10566000000E+00 0. -1.
        994    1    1    2    0    0 -0.17894905189E+01 -0.52689328782E+01  0.32707119873E+01  0.17132163170E+03  0.17120000000E+03 0.  0.
        998    1    1    2    0    0  0.16428745328E+02  0.19510543630E+02  0.14259002038E+04  0.14261633694E+04  0.10000000000E+02 0. -1.
</event>
<event>
 5    1  0.1338396E-008  0.3844900E+03  0.7957747E-01  0.3431838E+00
         13   -1    0    0    0    0  0.00000000000E+00  0.00000000000E+00  0.14999999963E+04  0.15000000000E+04  0.10566000000E+00 0.  1.
        994   -1    0    0    0    0 -0.00000000000E+00 -0.00000000000E+00  0.11368683772E-12  0.17120000000E+03  0.17120000000E+03 0.  0.
         13    1    1    2    0    0 -0.13167226457E+02  0.51539149690E+01  0.54717722025E+02  0.56515298457E+02  0.10566000000E+00 0.  1.
        994    1    1    2    0    0  0.66552554800E+01  0.87778597509E+01  0.22833850390E+01  0.17156921954E+03  0.17120000000E+03 0.  0.
        998    1    1    2    0    0  0.65119709769E+01 -0.13931774720E+02  0.14429988892E+04  0.14431154820E+04  0.10000000000E+02 0.  1.
</event>
<event>
 5    1  0.1338396E-008  0.3787032E+03  0.7957747E-01  0.3456825E+00
         13   -1    0    0    0    0  0.00000000000E+00  0.00000000000E+00  0.14999999963E+04  0.15000000000E+04  0.10566000000E+00 0.  1.
        994   -1    0    0    0    0 -0.00000000000E+00 -0.00000000000E+00  0.11368683772E-12  0.17120000000E+03  0.17120000000E+03 0.  0.
         13    1    1    2    0    0 -0.43279761510E+01 -0.10642429257E+02  0.11636936731E+02  0.16353046767E+02  0.10566000000E+00 0.  1.
        994    1    1    2    0    0  0.34224592631E+01  0.85725004484E+01  0.50752935961E+01  0.17152375811E+03  0.17120000000E+03 0.  0.
        998    1    1    2    0    0  0.90551688786E+00  0.20699288082E+01  0.14832877660E+04  0.14833231951E+04  0.10000000000E+02 0.  1.
</event>
<event>
 5    1  0.1338396E-008  0.3824615E+03  0.7957747E-01  0.3440510E+00
         13   -1    0    0    0    0  0.00000000000E+00  0.00000000000E+00  0.14999999963E+04  0.15000000000E+04  0.10566000000E+00 0.  1.
        994   -1    0    0    0    0 -0.00000000000E+00 -0.00000000000E+00  0.11368683772E-12  0.17120000000E+03  0.17120000000E+03 0.  0.
         13    1    1    2    0    0 -0.18562459146E+02  0.42900715279E+01  0.59820846184E+02  0.62781481390E+02  0.10566000000E+00 0.  1.
        994    1    1    2    0    0  0.19095913952E+02 -0.22794720370E+01  0.41230693583E+01  0.17232611417E+03  0.17120000000E+03 0.  0.
        998    1    1    2    0    0 -0.53345480567E+00 -0.20105994908E+01  0.14360560807E+04  0.14360924044E+04  0.10000000000E+02 0.  1.
</event>
<event>
 5    1  0.1338396E-008  0.3856812E+03  0.7957747E-01  0.3426788E+00
         13   -1    0    0    0    0  0.00000000000E+00  0.00000000000E+00  0.14999999963E+04  0.15000000000E+04  0.10566000000E+00 0.  1.
        994   -1    0    0    0    0 -0.00000000000E+00 -0.00000000000E+00  0.11368683772E-12  0.17120000000E+03  0.17120000000E+03 0.  0.
         13    1    1    2    0    0  0.37975625946E+01  0.12857101354E+02  0.72576002850E+02  0.73803888045E+02  0.10566000000E+00 0.  1.
        994    1    1    2    0    0 -0.53366391789E+01 -0.27548942113E+01  0.14106742260E+01  0.17131111803E+03  0.17120000000E+03 0.  0.
        998    1    1    2    0    0  0.15390765843E+01 -0.10102207143E+02  0.14260133192E+04  0.14260849939E+04  0.10000000000E+02 0.  1.
</event>
<event>
 5    1  0.1338396E-008  0.3842257E+03  0.7957747E-01  0.3432963E+00
         13   -1    0    0    0    0  0.00000000000E+00  0.00000000000E+00  0.14999999963E+04  0.15000000000E+04  0.10566000000E+00 0. -1.
        994   -1    0    0    0    0 -0.00000000000E+00 -0.00000000000E+00  0.11368683772E-12  0.17120000000E+03  0.17120000000E+03 0.  0.
         13    1    1    2    0    0  0.16017278989E+02  0.93609305263E+00  0.63854314553E+02  0.65839305491E+02  0.10566000000E+00 0. -1.
        994    1    1    2    0    0 -0.91383394748E+01 -0.95606146410E+01  0.25919617275E+01  0.17172965052E+03  0.17120000000E+03 0.  0.
        998    1    1    2    0    0 -0.68789395146E+01  0.86245215884E+01  0.14335537200E+04  0.14336310440E+04  0.10000000000E+02 0. -1.
</event>
<event>
 5    1  0.1338396E-008  0.3740172E+03  0.7957747E-01  0.3477630E+00
         13   -1    0    0    0    0  0.00000000000E+00  0.00000000000E+00  0.14999999963E+04  0.15000000000E+04  0.10566000000E+00 0. -1.
        994   -1    0    0    0    0 -0.00000000000E+00 -0.00000000000E+00  0.11368683772E-12  0.17120000000E+03  0.17120000000E+03 0.  0.
         13    1    1    2    0    0  0.25871328541E+02 -0.74883737283E+02  0.28052601802E+03  0.29149915558E+03  0.10566000000E+00 0. -1.
        994    1    1    2    0    0 -0.99333781243E+02  0.87687969236E+02  0.69643696327E+02  0.22741166303E+03  0.17120000000E+03 0.  0.
        998    1    1    2    0    0  0.73462452702E+02 -0.12804231953E+02  0.11498302819E+04  0.11522891814E+04  0.10000000000E+02 0. -1.
</event>
<event>
 5    1  0.1338396E-008  0.3848862E+03  0.7957747E-01  0.3430155E+00
         13   -1    0    0    0    0  0.00000000000E+00  0.00000000000E+00  0.14999999963E+04  0.15000000000E+04  0.10566000000E+00 0.  1.
        994   -1    0    0    0    0 -0.00000000000E+00 -0.00000000000E+00  0.11368683772E-12  0.17120000000E+03  0.17120000000E+03 0.  0.
         13    1    1    2    0    0  0.12162199865E+02 -0.39633117648E+01  0.64989650542E+02  0.66236642331E+02  0.10566000000E+00 0.  1.
        994    1    1    2    0    0  0.37642448936E+02 -0.71021907209E+00  0.63638473327E+01  0.17540637653E+03  0.17120000000E+03 0.  0.
        998    1    1    2    0    0 -0.49804648801E+02  0.46735308369E+01  0.14286464984E+04  0.14295569811E+04  0.10000000000E+02 0.  1.
</event>
<event>
 5    1  0.1338396E-008  0.3800842E+03  0.7957747E-01  0.3450792E+00
         13   -1    0    0    0    0  0.00000000000E+00  0.00000000000E+00  0.14999999963E+04  0.15000000000E+04  0.10566000000E+00 0.  1.
        994   -1    0    0    0    0 -0.00000000000E+00 -0.00000000000E+00  0.11368683772E-12  0.17120000000E+03  0.17120000000E+03 0.  0.
         13    1    1    2    0    0 -0.46163872335E-01  0.29919242034E+02  0.12605668148E+03  0.12955871752E+03  0.10566000000E+00 0.  1.
        994    1    1    2    0    0 -0.13929538963E+02  0.77877031335E+01  0.49422525474E+01  0.17201321529E+03  0.17120000000E+03 0.  0.
        998    1    1    2    0    0  0.13975702835E+02 -0.37706945167E+02  0.13690010623E+04  0.13696280672E+04  0.10000000000E+02 0.  1.
</event>
<event>
 5    1  0.1338396E-008  0.3829920E+03  0.7957747E-01  0.3438233E+00
         13   -1    0    0    0    0  0.00000000000E+00  0.00000000000E+00  0.14999999963E+04  0.15000000000E+04  0.10566000000E+00 0.  1.
        994   -1    0    0    0    0 -0.00000000000E+00 -0.00000000000E+00  0.11368683772E-12  0.17120000000E+03  0.17120000000E+03 0.  0.
         13    1    1    2    0    0  0.15485850757E+02  0.41209272198E+01  0.43918319121E+02  0.46750652758E+02  0.10566000000E+00 0.  1.
        994    1    1    2    0    0 -0.32986664135E+02  0.60422034890E+00  0.62418361237E+01  0.17446170242E+03  0.17120000000E+03 0.  0.
        998    1    1    2    0    0  0.17500813378E+02 -0.47251475687E+01  0.14498398410E+04  0.14499876448E+04  0.10000000000E+02 0.  1.
</event>
<event>
 5    1  0.1338396E-008  0.3804389E+03  0.7957747E-01  0.3449250E+00
         13   -1    0    0    0    0  0.00000000000E+00  0.00000000000E+00  0.14999999963E+04  0.15000000000E+04  0.10566000000E+00 0. -1.
        994   -1    0    0    0    0 -0.00000000000E+00 -0.00000000000E+00  0.11368683772E-12  0.17120000000E+03  0.17120000000E+03 0.  0.
         13    1    1    2    0    0  0.14661105748E+02 -0.39936454817E+01  0.28511938097E+02  0.32308497397E+02  0.10566000000E+00 0. -1.
        994    1    1    2    0    0 -0.28109541264E+01  0.51799541026E+01  0.40277067993E+01  0.17134875491E+03  0.17120000000E+03 0.  0.
        998    1    1    2    0    0 -0.11850151622E+02 -0.11863086209E+01  0.14674603514E+04  0.14675427477E+04  0.10000000000E+02 0. -1.
</event>
<event>
 5    1  0.1338396E-008  0.3725667E+03  0.7957747E-01  0.3484177E+00
         13   -1    0    0    0    0  0.00000000000E+00  0.00000000000E+00  0.14999999963E+04  0.15000000000E+04  0.10566000000E+00 0. -1.
        994   -1    0    0    0    0 -0.00000000000E+00 -0.00000000000E+00  0.11368683772E-12  0.17120000000E+03  0.17120000000E+03 0.  0.
         13    1    1    2    0    0  0.30157037371E+01  0.24171180468E+02  0.18797519814E+02  0.30768463554E+02  0.10566000000E+00 0. -1.
        994    1    1    2    0    0  0.24031242454E+02 -0.22611497140E+02  0.16153054347E+02  0.17509752020E+03  0.17120000000E+03 0.  0.
        998    1    1    2    0    0 -0.27046946192E+02 -0.15596833278E+01  0.14650494221E+04  0.14653340162E+04  0.10000000000E+02 0. -1.
</event>
<event>
 5    1  0.1338396E-008  0.3771430E+03  0.7957747E-01  0.3463693E+00
         13   -1    0    0    0    0  0.00000000000E+00  0.00000000000E+00  0.14999999963E+04  0.15000000000E+04  0.10566000000E+00 0.  1.
        994   -1    0    0    0    0 -0.00000000000E+00 -0.00000000000E+00  0.11368683772E-12  0.17120000000E+03  0.17120000000E+03 0.  0.
         13    1    1    2    0    0 -0.15966197622E+02 -0.30270444443E+02  0.10334683547E+03  0.10886596732E+03  0.10566000000E+00 0.  1.
        994    1    1    2    0    0 -0.20107654270E+01  0.23690588990E+02  0.74923976707E+01  0.17300538491E+03  0.17120000000E+03 0.  0.
        998    1    1    2    0    0  0.17976963049E+02  0.65798554533E+01  0.13891607631E+04  0.13893286478E+04  0.10000000000E+02 0.  1.
</event>
<event>
 5    1  0.1338396E-008  0.3779911E+03  0.7957747E-01  0.3459953E+00
         13   -1    0    0    0    0  0.00000000000E+00  0.00000000000E+00  0.14999999963E+04  0.15000000000E+04  0.10566000000E+00 0.  1.
        994   -1    0    0    0    0 -0.00000000000E+00 -0.00000000000E+00  0.11368683772E-12  0.17120000000E+03  0.17120000000E+03 0.  0.
         13    1    1    2    0    0 -0.64909295411E+02 -0.47842702570E+02  0.41698929902E+03  0.42471428924E+03  0.10566000000E+00 0.  1.
        994    1    1    2    0    0  0.70867006880E+02  0.52424714604E+02  0.31762957949E+02  0.19516354389E+03  0.17120000000E+03 0.  0.
        998    1    1    2    0    0 -0.59577114682E+01 -0.45820120346E+01  0.10512477393E+04  0.10513221669E+04  0.10000000000E+02 0.  1.
</event>
<event>
 5    1  0.1338396E-008  0.3844628E+03  0.7957747E-01  0.3431954E+00
         13   -1    0    0    0    0  0.00000000000E+00  0.00000000000E+00  0.14999999963E+04  0.15000000000E+04  0.10566000000E+00 0.  1.
        994   -1    0    0    0    0 -0.00000000000E+00 -0.00000000000E+00  0.11368683772E-12  0.17120000000E+03  0.17120000000E+03 0.  0.
         13    1    1    2    0    0 -0.72111450904E+02 -0.17233703960E+02  0.12868658658E+03  0.14851703819E+03  0.10566000000E+00 0.  1.
        994    1    1    2    0    0  0.72372767523E+02  0.15518484939E+02  0.39275008585E+02  0.19060589485E+03  0.17120000000E+03 0.  0.
        998    1    1    2    0    0 -0.26131661937E+00  0.17152190211E+01  0.13320384011E+04  0.13320770670E+04  0.10000000000E+02 0.  0.
</event>
<event>
 5    1  0.1338396E-008  0.3786820E+03  0.7957747E-01  0.3456918E+00
         13   -1    0    0    0    0  0.00000000000E+00  0.00000000000E+00  0.14999999963E+04  0.15000000000E+04  0.10566000000E+00 0.  1.
        994   -1    0    0    0    0 -0.00000000000E+00 -0.00000000000E+00  0.11368683772E-12  0.17120000000E+03  0.17120000000E+03 0.  0.
         13    1    1    2    0    0 -0.66686213814E+01 -0.25393085660E+02  0.77436160053E+02  0.81765820232E+02  0.10566000000E+00 0.  1.
        994    1    1    2    0    0 -0.40801530379E+01 -0.58660743439E+01  0.49714202058E+01  0.17142115825E+03  0.17120000000E+03 0.  0.
        998    1    1    2    0    0  0.10748774419E+02  0.31259160004E+02  0.14175924160E+04  0.14180130215E+04  0.10000000000E+02 0.  1.
</event>
<event>
 5    1  0.1338396E-008  0.3760232E+03  0.7957747E-01  0.3468659E+00
         13   -1    0    0    0    0  0.00000000000E+00  0.00000000000E+00  0.14999999963E+04  0.15000000000E+04  0.10566000000E+00 0. -1.
        994   -1    0    0    0    0 -0.00000000000E+00 -0.00000000000E+00  0.11368683772E-12  0.17120000000E+03  0.17120000000E+03 0.  0.
         13    1    1    2    0    0 -0.75320453106E+02 -0.49982084683E+02  0.46265914279E+03  0.47140733237E+03  0.10566000000E+00 0. -1.
        994    1    1    2    0    0  0.71701191463E+02  0.51750896030E+02  0.33119653112E+02  0.19551359932E+03  0.17120000000E+03 0.  0.
        998    1    1    2    0    0  0.36192616429E+01 -0.17688113468E+01  0.10042212004E+04  0.10042790683E+04  0.10000000000E+02 0. -1.
</event>
<event>
 5    1  0.1338396E-008  0.3776232E+03  0.7957747E-01  0.3461573E+00
         13   -1    0    0    0    0  0.00000000000E+00  0.00000000000E+00  0.14999999963E+04  0.15000000000E+04  0.10566000000E+00 0. -1.
        994   -1    0    0    0    0 -0.00000000000E+00 -0.00000000000E+00  0.11368683772E-12  0.17120000000E+03  0.17120000000E+03 0.  0.
         13    1    1    2    0    0 -0.18337833501E+02  0.46302535369E+01  0.31027255098E+02  0.36337544059E+02  0.10566000000E+00 0. -1.
        994    1    1    2    0    0  0.15641641287E+02 -0.47788449841E+01  0.62395822086E+01  0.17209262241E+03  0.17120000000E+03 0.  0.
        998    1    1    2    0    0  0.26961922145E+01  0.14859144722E+00  0.14627331590E+04  0.14627698335E+04  0.10000000000E+02 0. -1.
</event>
<event>
 5    1  0.1338396E-008  0.3799447E+03  0.7957747E-01  0.3451399E+00
         13   -1    0    0    0    0  0.00000000000E+00  0.00000000000E+00  0.14999999963E+04  0.15000000000E+04  0.10566000000E+00 0. -1.
        994   -1    0    0    0    0 -0.00000000000E+00 -0.00000000000E+00  0.11368683772E-12  0.17120000000E+03  0.17120000000E+03 0.  0.
         13    1    1    2    0    0  0.43360529400E+00  0.23520978455E+02  0.59819449369E+02  0.64279095574E+02  0.10566000000E+00 0. -1.
        994    1    1    2    0    0  0.29762073515E+01 -0.35646210742E+02  0.84509931475E+01  0.17510102637E+03  0.17120000000E+03 0.  0.
        998    1    1    2    0    0 -0.34098126455E+01  0.12125232288E+02  0.14317295538E+04  0.14318198781E+04  0.10000000000E+02 0. -1.
</event>
<event>
 5    1  0.1338396E-008  0.3822611E+03  0.7957747E-01  0.3441372E+00
         13   -1    0    0    0    0  0.00000000000E+00  0.00000000000E+00  0.14999999963E+04  0.15000000000E+04  0.10566000000E+00 0. -1.
        994   -1    0    0    0    0 -0.00000000000E+00 -0.00000000000E+00  0.11368683772E-12  0.17120000000E+03  0.17120000000E+03 0.  0.
         13    1    1    2    0    0 -0.32437234983E+01  0.32735766915E+02  0.16517377662E+03  0.16841775389E+03  0.10566000000E+00 0. -1.
        994    1    1    2    0    0  0.23220397158E+01 -0.30289264283E+02  0.60641893398E+01  0.17398001549E+03  0.17120000000E+03 0.  0.
        998    1    1    2    0    0  0.92168378256E+00 -0.24465026321E+01  0.13287620303E+04  0.13288022306E+04  0.10000000000E+02 0. -1.
</event>
<event>
 5    1  0.1338396E-008  0.3783987E+03  0.7957747E-01  0.3458161E+00
         13   -1    0    0    0    0  0.00000000000E+00  0.00000000000E+00  0.14999999963E+04  0.15000000000E+04  0.10566000000E+00 0.  1.
        994   -1    0    0    0    0 -0.00000000000E+00 -0.00000000000E+00  0.11368683772E-12  0.17120000000E+03  0.17120000000E+03 0.  0.
         13    1    1    2    0    0 -0.10102555283E+02 -0.25445571641E+00  0.80706113529E+01  0.12933379396E+02  0.10566000000E+00 0.  1.
        994    1    1    2    0    0  0.85435691126E+01 -0.13830330065E+01  0.51954552095E+01  0.17149734140E+03  0.17120000000E+03 0.  0.
        998    1    1    2    0    0  0.15589861699E+01  0.16374887229E+01  0.14867339297E+04  0.14867692792E+04  0.10000000000E+02 0.  1.
</event>
<event>
 5    1  0.1338396E-008  0.3851191E+03  0.7957747E-01  0.3429167E+00
         13   -1    0    0    0    0  0.00000000000E+00  0.00000000000E+00  0.14999999963E+04  0.15000000000E+04  0.10566000000E+00 0.  1.
        994   -1    0    0    0    0 -0.00000000000E+00 -0.00000000000E+00  0.11368683772E-12  0.17120000000E+03  0.17120000000E+03 0.  0.
         13    1    1    2    0    0  0.18565778227E+02 -0.52839461254E+01  0.11406719156E+03  0.11568899499E+03  0.10566000000E+00 0.  1.
        994    1    1    2    0    0 -0.26323912750E+02 -0.24365384353E+02  0.58120932692E+01  0.17501383021E+03  0.17120000000E+03 0.  0.
        998    1    1    2    0    0  0.77581345227E+01  0.29649330478E+02  0.13801207114E+04  0.13804971748E+04  0.10000000000E+02 0.  1.
</event>
<event>
 5    1  0.1338396E-008  0.3813737E+03  0.7957747E-01  0.3445199E+00
         13   -1    0    0    0    0  0.00000000000E+00  0.00000000000E+00  0.14999999963E+04  0.15000000000E+04  0.10566000000E+00 0.  1.
        994   -1    0    0    0    0 -0.00000000000E+00 -0.00000000000E+00  0.11368683772E-12  0.17120000000E+03  0.17120000000E+03 0.  0.
         13    1    1    2    0    0 -0.17903776008E+02 -0.12586556054E+02  0.65898048905E+02  0.69437242185E+02  0.10566000000E+00 0.  1.
        994    1    1    2    0    0  0.19513825426E+02  0.10766652155E+02  0.50960160886E+01  0.17271977177E+03  0.17120000000E+03 0.  0.
        998    1    1    2    0    0 -0.16100494175E+01  0.18199038994E+01  0.14290059313E+04  0.14290429860E+04  0.10000000000E+02 0.  1.
</event>
<event>
 5    1  0.1338396E-008  0.3691274E+03  0.7957747E-01  0.3499911E+00
         13   -1    0    0    0    0  0.00000000000E+00  0.00000000000E+00  0.14999999963E+04  0.15000000000E+04  0.10566000000E+00 0.  1.
        994   -1    0    0    0    0 -0.00000000000E+00 -0.00000000000E+00  0.11368683772E-12  0.17120000000E+03  0.17120000000E+03 0.  0.
         13    1    1    2    0    0  0.54933701118E+02  0.71519120498E+02  0.53485294394E+03  0.54240241419E+03  0.10566000000E+00 0.  1.
        994    1    1    2    0    0 -0.10681602485E+02 -0.15301661758E+02  0.11692799215E+02  0.17261054150E+03  0.17120000000E+03 0.  0.
        998    1    1    2    0    0 -0.44252098632E+02 -0.56217458739E+02  0.95345425313E+03  0.95618704431E+03  0.10000000000E+02 0.  1.
</event>
<event>
 5    1  0.1338396E-008  0.3750118E+03  0.7957747E-01  0.3473170E+00
         13   -1    0    0    0    0  0.00000000000E+00  0.00000000000E+00  0.14999999963E+04  0.15000000000E+04  0.10566000000E+00 0. -1.
        994   -1    0    0    0    0 -0.00000000000E+00 -0.00000000000E+00  0.11368683772E-12  0.17120000000E+03  0.17120000000E+03 0.  0.
         13    1    1    2    0    0 -0.43508027409E+02 -0.72867271900E+01  0.12650895821E+03  0.13397974665E+03  0.10566000000E+00 0. -1.
        994    1    1    2    0    0  0.55366899079E+02 -0.70107551683E+01  0.17334161842E+02  0.18089930174E+03  0.17120000000E+03 0.  0.
        998    1    1    2    0    0 -0.11858871670E+02  0.14297482358E+02  0.13561568762E+04  0.13563209516E+04  0.10000000000E+02 0. -1.
</event>
<event>
 5    1  0.1338396E-008  0.3742749E+03  0.7957747E-01  0.3476472E+00
         13   -1    0    0    0    0  0.00000000000E+00  0.00000000000E+00  0.14999999963E+04  0.15000000000E+04  0.10566000000E+00 0. -1.
        994   -1    0    0    0    0 -0.00000000000E+00 -0.00000000000E+00  0.11368683772E-12  0.17120000000E+03  0.17120000000E+03 0.  0.
         13    1    1    2    0    0  0.10043223733E+02 -0.18374618351E+02  0.27989418202E+02  0.34955852697E+02  0.10566000000E+00 0. -1.
        994    1    1    2    0    0 -0.51912769906E+01  0.16414182449E+02  0.80621142063E+01  0.17225217684E+03  0.17120000000E+03 0.  0.
        998    1    1    2    0    0 -0.48519467422E+01  0.19604359016E+01  0.14639484639E+04  0.14639919705E+04  0.10000000000E+02 0. -1.
</event>
<event>
 5    1  0.1338396E-008  0.3861685E+03  0.7957747E-01  0.3424731E+00
         13   -1    0    0    0    0  0.00000000000E+00  0.00000000000E+00  0.14999999963E+04  0.15000000000E+04  0.10566000000E+00 0.  1.
        994   -1    0    0    0    0 -0.00000000000E+00 -0.00000000000E+00  0.11368683772E-12  0.17120000000E+03  0.17120000000E+03 0.  0.
         13    1    1    2    0    0  0.37526934739E+01  0.98164905941E+01  0.59169684797E+02  0.60095831460E+02  0.10566000000E+00 0.  1.
        994    1    1    2    0    0  0.70943415139E+01  0.43013308540E+01  0.12766239605E+01  0.17140566180E+03  0.17120000000E+03 0.  0.
        998    1    1    2    0    0 -0.10847034988E+02 -0.14117821448E+02  0.14395536875E+04  0.14396985067E+04  0.10000000000E+02 0.  1.
</event>
<event>
 5    1  0.1338396E-008  0.3779862E+03  0.7957747E-01  0.3459974E+00
         13   -1    0    0    0    0  0.00000000000E+00  0.00000000000E+00  0.14999999963E+04  0.15000000000E+04  0.10566000000E+00 0. -1.
        994   -1    0    0    0    0 -0.00000000000E+00 -0.00000000000E+00  0.11368683772E-12  0.17120000000E+03  0.17120000000E+03 0.  0.
         13    1    1    2    0    0  0.20573513070E+02  0.12310413977E+03  0.72668222623E+03  0.73732283822E+03  0.10566000000E+00 0. -1.
        994    1    1    2    0    0 -0.33926772405E+02 -0.12225040854E+03  0.61389282767E+02  0.22175272786E+03  0.17120000000E+03 0.  0.
        998    1    1    2    0    0  0.13353259334E+02 -0.85373122433E+00  0.71192848728E+03  0.71212443392E+03  0.10000000000E+02 0. -1.
</event>
<event>
 5    1  0.1338396E-008  0.3785745E+03  0.7957747E-01  0.3457389E+00
         13   -1    0    0    0    0  0.00000000000E+00  0.00000000000E+00  0.14999999963E+04  0.15000000000E+04  0.10566000000E+00 0.  1.
        994   -1    0    0    0    0 -0.00000000000E+00 -0.00000000000E+00  0.11368683772E-12  0.17120000000E+03  0.17120000000E+03 0.  0.
         13    1    1    2    0    0 -0.41785347890E+00 -0.15449259205E+02  0.22267079012E+02  0.27105132047E+02  0.10566000000E+00 0. -1.
        994    1    1    2    0    0  0.17632573439E-01  0.15848519086E+02  0.56985443537E+01  0.17202642028E+03  0.17120000000E+03 0.  0.
        998    1    1    2    0    0  0.40022090546E+00 -0.39925988097E+00  0.14720343729E+04  0.14720684477E+04  0.10000000000E+02 0.  1.
</event>
<event>
 5    1  0.1338396E-008  0.3825197E+03  0.7957747E-01  0.3440260E+00
         13   -1    0    0    0    0  0.00000000000E+00  0.00000000000E+00  0.14999999963E+04  0.15000000000E+04  0.10566000000E+00 0.  1.
        994   -1    0    0    0    0 -0.00000000000E+00 -0.00000000000E+00  0.11368683772E-12  0.17120000000E+03  0.17120000000E+03 0.  0.
         13    1    1    2    0    0  0.15696284786E+02  0.43985204812E+01  0.43088420208E+02  0.46068899038E+02  0.10566000000E+00 0.  1.
        994    1    1    2    0    0 -0.22397075274E+02 -0.79633374638E+01  0.47421485388E+01  0.17290740787E+03  0.17120000000E+03 0.  0.
        998    1    1    2    0    0  0.67007904885E+01  0.35648169825E+01  0.14521694275E+04  0.14522236931E+04  0.10000000000E+02 0.  1.
</event>
<event>
 5    1  0.1338396E-008  0.3800571E+03  0.7957747E-01  0.3450910E+00
         13   -1    0    0    0    0  0.00000000000E+00  0.00000000000E+00  0.14999999963E+04  0.15000000000E+04  0.10566000000E+00 0. -1.
        994   -1    0    0    0    0 -0.00000000000E+00 -0.00000000000E+00  0.11368683772E-12  0.17120000000E+03  0.17120000000E+03 0.  0.
         13    1    1    2    0    0  0.12765099691E+02  0.88626458414E+02  0.23756660705E+03  0.25388087926E+03  0.10566000000E+00 0. -1.
        994    1    1    2    0    0  0.20192869526E+02 -0.60676020343E+02  0.31332931523E+02  0.18541985876E+03  0.17120000000E+03 0.  0.
        998    1    1    2    0    0 -0.32957969217E+02 -0.27950438071E+02  0.12311004577E+04  0.12318992620E+04  0.10000000000E+02 0. -1.
</event>
<event>
 5    1  0.1338396E-008  0.3834479E+03  0.7957747E-01  0.3436282E+00
         13   -1    0    0    0    0  0.00000000000E+00  0.00000000000E+00  0.14999999963E+04  0.15000000000E+04  0.10566000000E+00 0.  1.
        994   -1    0    0    0    0 -0.00000000000E+00 -0.00000000000E+00  0.11368683772E-12  0.17120000000E+03  0.17120000000E+03 0.  0.
         13    1    1    2    0    0 -0.16183854033E+02  0.11140918772E+02  0.76321557692E+02  0.78810078892E+02  0.10566000000E+00 0.  1.
        994    1    1    2    0    0  0.14053972158E+02 -0.15208096976E+02  0.38212772704E+01  0.17249012293E+03  0.17120000000E+03 0.  0.
        998    1    1    2    0    0  0.21298818748E+01  0.40671782043E+01  0.14198571613E+04  0.14198997982E+04  0.10000000000E+02 0.  1.
</event>
<event>
 5    1  0.1338396E-008  0.3793763E+03  0.7957747E-01  0.3453879E+00
         13   -1    0    0    0    0  0.00000000000E+00  0.00000000000E+00  0.14999999963E+04  0.15000000000E+04  0.10566000000E+00 0. -1.
        994   -1    0    0    0    0 -0.00000000000E+00 -0.00000000000E+00  0.11368683772E-12  0.17120000000E+03  0.17120000000E+03 0.  0.
         13    1    1    2    0    0  0.12794644805E+02 -0.21139682377E+02  0.68779828189E+02  0.73083958818E+02  0.10566000000E+00 0. -1.
        994    1    1    2    0    0 -0.34208101381E+01  0.89521024657E+01  0.47560045174E+01  0.17153396649E+03  0.17120000000E+03 0.  0.
        998    1    1    2    0    0 -0.93738346671E+01  0.12187579911E+02  0.14264641636E+04  0.14265820747E+04  0.10000000000E+02 0. -1.
</event>
<event>
 5    1  0.1338396E-008  0.3851186E+03  0.7957747E-01  0.3429169E+00
         13   -1    0    0    0    0  0.00000000000E+00  0.00000000000E+00  0.14999999963E+04  0.15000000000E+04  0.10566000000E+00 0.  1.
        994   -1    0    0    0    0 -0.00000000000E+00 -0.00000000000E+00  0.11368683772E-12  0.17120000000E+03  0.17120000000E+03 0.  0.
         13    1    1    2    0    0 -0.10557641450E+02  0.12106381361E+02  0.79989736121E+02  0.81586747155E+02  0.10566000000E+00 0.  1.
        994    1    1    2    0    0  0.16399569881E+02 -0.48840877384E+01  0.25343984835E+01  0.17207168094E+03  0.17120000000E+03 0.  0.
        998    1    1    2    0    0 -0.58419284309E+01 -0.72222936231E+01  0.14174758617E+04  0.14175415719E+04  0.10000000000E+02 0.  1.
</event>
<event>
 5    1  0.1338396E-008  0.3799829E+03  0.7957747E-01  0.3451233E+00
         13   -1    0    0    0    0  0.00000000000E+00  0.00000000000E+00  0.14999999963E+04  0.15000000000E+04  0.10566000000E+00 0. -1.
        994   -1    0    0    0    0 -0.00000000000E+00 -0.00000000000E+00  0.11368683772E-12  0.17120000000E+03  0.17120000000E+03 0.  0.
         13    1    1    2    0    0  0.22704883104E+02  0.39474247302E+02  0.26121324071E+03  0.26515296755E+03  0.10566000000E+00 0. -1.
        994    1    1    2    0    0 -0.29805776517E+01 -0.22038924611E+02  0.57970355139E+01  0.17273576254E+03  0.17120000000E+03 0.  0.
        998    1    1    2    0    0 -0.19724305452E+02 -0.17435322692E+02  0.12329897201E+04  0.12333112699E+04  0.10000000000E+02 0. -1.
</event>
<event>
 5    1  0.1338396E-008  0.3768890E+03  0.7957747E-01  0.3464817E+00
         13   -1    0    0    0    0  0.00000000000E+00  0.00000000000E+00  0.14999999963E+04  0.15000000000E+04  0.10566000000E+00 0.  1.
        994   -1    0    0    0    0 -0.00000000000E+00 -0.00000000000E+00  0.11368683772E-12  0.17120000000E+03  0.17120000000E+03 0.  0.
         13    1    1    2    0    0 -0.15005784017E+02  0.23849075116E+01  0.17175404588E+02  0.22931790698E+02  0.10566000000E+00 0.  1.
        994    1    1    2    0    0  0.21550748623E+02 -0.16737171138E+02  0.82308559308E+01  0.17355620027E+03  0.17120000000E+03 0.  0.
        998    1    1    2    0    0 -0.65449646064E+01  0.14352263627E+02  0.14745937358E+04  0.14747120090E+04  0.10000000000E+02 0.  1.
</event>
<event>
 5    1  0.1338396E-008  0.3708008E+03  0.7957747E-01  0.3492219E+00
         13   -1    0    0    0    0  0.00000000000E+00  0.00000000000E+00  0.14999999963E+04  0.15000000000E+04  0.10566000000E+00 0. -1.
        994   -1    0    0    0    0 -0.00000000000E+00 -0.00000000000E+00  0.11368683772E-12  0.17120000000E+03  0.17120000000E+03 0.  0.
         13    1    1    2    0    0  0.69532089587E+01  0.41173262533E+02  0.69214914878E+02  0.80835018823E+02  0.10566000000E+00 0. -1.
        994    1    1    2    0    0  0.28123946044E+01 -0.44151307881E+02  0.18256216359E+02  0.17776382362E+03  0.17120000000E+03 0.  0.
        998    1    1    2    0    0 -0.97656035631E+01  0.29780453472E+01  0.14125288650E+04  0.14126011576E+04  0.10000000000E+02 0. -1.
</event>
<event>
 5    1  0.1338396E-008  0.3832295E+03  0.7957747E-01  0.3437216E+00
         13   -1    0    0    0    0  0.00000000000E+00  0.00000000000E+00  0.14999999963E+04  0.15000000000E+04  0.10566000000E+00 0. -1.
        994   -1    0    0    0    0 -0.00000000000E+00 -0.00000000000E+00  0.11368683772E-12  0.17120000000E+03  0.17120000000E+03 0.  0.
         13    1    1    2    0    0 -0.12943693216E+02 -0.52037655399E+01  0.37089338720E+02  0.39626362192E+02  0.10566000000E+00 0. -1.
        994    1    1    2    0    0  0.13911929975E+02  0.62031292844E+01  0.32795171763E+01  0.17190757936E+03  0.17120000000E+03 0.  0.
        998    1    1    2    0    0 -0.96823675948E+00 -0.99936374446E+00  0.14596311404E+04  0.14596660584E+04  0.10000000000E+02 0. -1.
</event>
<event>
 5    1  0.1338396E-008  0.3766882E+03  0.7957747E-01  0.3465707E+00
         13   -1    0    0    0    0  0.00000000000E+00  0.00000000000E+00  0.14999999963E+04  0.15000000000E+04  0.10566000000E+00 0.  1.
        994   -1    0    0    0    0 -0.00000000000E+00 -0.00000000000E+00  0.11368683772E-12  0.17120000000E+03  0.17120000000E+03 0.  0.
         13    1    1    2    0    0 -0.17981846033E+02 -0.81252353214E+01  0.68370773684E+01  0.20883558767E+02  0.10566000000E+00 0.  1.
        994    1    1    2    0    0  0.57920108826E+01  0.35983040040E+02  0.19290267636E+02  0.17609622650E+03  0.17120000000E+03 0.  0.
        998    1    1    2    0    0  0.12189835151E+02 -0.27857804719E+02  0.14738726513E+04  0.14742202147E+04  0.10000000000E+02 0.  1.
</event>
<event>
 5    1  0.1338396E-008  0.3833178E+03  0.7957747E-01  0.3436838E+00
         13   -1    0    0    0    0  0.00000000000E+00  0.00000000000E+00  0.14999999963E+04  0.15000000000E+04  0.10566000000E+00 0. -1.
        994   -1    0    0    0    0 -0.00000000000E+00 -0.00000000000E+00  0.11368683772E-12  0.17120000000E+03  0.17120000000E+03 0.  0.
         13    1    1    2    0    0  0.14488582174E+01  0.17870767835E+02  0.64789894230E+02  0.67225033221E+02  0.10566000000E+00 0. -1.
        994    1    1    2    0    0  0.82663679578E+01 -0.11446176398E+02  0.31270930586E+01  0.17180968106E+03  0.17120000000E+03 0.  0.
        998    1    1    2    0    0 -0.97152261752E+01 -0.64245914375E+01  0.14320830090E+04  0.14321652857E+04  0.10000000000E+02 0. -1.
</event>
<event>
 5    1  0.1338396E-008  0.3824337E+03  0.7957747E-01  0.3440630E+00
         13   -1    0    0    0    0  0.00000000000E+00  0.00000000000E+00  0.14999999963E+04  0.15000000000E+04  0.10566000000E+00 0.  1.
        994   -1    0    0    0    0 -0.00000000000E+00 -0.00000000000E+00  0.11368683772E-12  0.17120000000E+03  0.17120000000E+03 0.  0.
         13    1    1    2    0    0  0.11685448036E+02  0.32260077046E+02  0.18322495968E+03  0.18640992270E+03  0.10566000000E+00 0.  1.
        994    1    1    2    0    0 -0.61068356971E+01 -0.31489146834E+02  0.63290961234E+01  0.17429388190E+03  0.17120000000E+03 0.  0.
        998    1    1    2    0    0 -0.55786123390E+01 -0.77093021238E+00  0.13104459405E+04  0.13104961954E+04  0.10000000000E+02 0.  1.
</event>
<event>
 5    1  0.1338396E-008  0.3766113E+03  0.7957747E-01  0.3466048E+00
         13   -1    0    0    0    0  0.00000000000E+00  0.00000000000E+00  0.14999999963E+04  0.15000000000E+04  0.10566000000E+00 0. -1.
        994   -1    0    0    0    0 -0.00000000000E+00 -0.00000000000E+00  0.11368683772E-12  0.17120000000E+03  0.17120000000E+03 0.  0.
         13    1    1    2    0    0  0.39817050793E+01 -0.70156413052E+02  0.31233340773E+03  0.32014050824E+03  0.10566000000E+00 0. -1.
        994    1    1    2    0    0  0.25203182399E+01  0.78055666133E+02  0.26759895973E+02  0.19006464966E+03  0.17120000000E+03 0.  0.
        998    1    1    2    0    0 -0.65020233192E+01 -0.78992530802E+01  0.11609066926E+04  0.11609948421E+04  0.10000000000E+02 0. -1.
</event>
<event>
 5    1  0.1338396E-008  0.3847858E+03  0.7957747E-01  0.3430581E+00
         13   -1    0    0    0    0  0.00000000000E+00  0.00000000000E+00  0.14999999963E+04  0.15000000000E+04  0.10566000000E+00 0.  1.
        994   -1    0    0    0    0 -0.00000000000E+00 -0.00000000000E+00  0.11368683772E-12  0.17120000000E+03  0.17120000000E+03 0.  0.
         13    1    1    2    0    0 -0.69249214570E+01  0.11638157380E+02  0.53640658889E+02  0.55323889004E+02  0.10566000000E+00 0.  1.
        994    1    1    2    0    0 -0.18452278922E+00 -0.68157701777E+01  0.18895236760E+01  0.17134613819E+03  0.17120000000E+03 0.  0.
        998    1    1    2    0    0  0.71094442462E+01 -0.48223872024E+01  0.14444698137E+04  0.14445299728E+04  0.10000000000E+02 0.  1.
</event>
<event>
 5    1  0.1338396E-008  0.3831612E+03  0.7957747E-01  0.3437508E+00
         13   -1    0    0    0    0  0.00000000000E+00  0.00000000000E+00  0.14999999963E+04  0.15000000000E+04  0.10566000000E+00 0.  1.
        994   -1    0    0    0    0 -0.00000000000E+00 -0.00000000000E+00  0.11368683772E-12  0.17120000000E+03  0.17120000000E+03 0.  0.
         13    1    1    2    0    0  0.90953254907E+01  0.93301481542E+01  0.31215167361E+02  0.33825647781E+02  0.10566000000E+00 0.  1.
        994    1    1    2    0    0 -0.13758445168E+02 -0.14300977316E+02  0.38497702561E+01  0.17238930795E+03  0.17120000000E+03 0.  0.
        998    1    1    2    0    0  0.46631196770E+01  0.49708291617E+01  0.14649350587E+04  0.14649850443E+04  0.10000000000E+02 0.  1.
</event>
<event>
 5    1  0.1338396E-008  0.3690920E+03  0.7957747E-01  0.3500075E+00
         13   -1    0    0    0    0  0.00000000000E+00  0.00000000000E+00  0.14999999963E+04  0.15000000000E+04  0.10566000000E+00 0.  1.
        994   -1    0    0    0    0 -0.00000000000E+00 -0.00000000000E+00  0.11368683772E-12  0.17120000000E+03  0.17120000000E+03 0.  0.
         13    1    1    2    0    0  0.18929442651E+02  0.29364032449E+02  0.56223827699E+02  0.66194411893E+02  0.10566000000E+00 0.  1.
        994    1    1    2    0    0 -0.23096131802E+02 -0.31587397836E+02  0.15074171285E+02  0.17626078874E+03  0.17120000000E+03 0.  0.
        998    1    1    2    0    0  0.41666891514E+01  0.22233653870E+01  0.14287019973E+04  0.14287447994E+04  0.10000000000E+02 0.  1.
</event>
<event>
 5    1  0.1338396E-008  0.3823609E+03  0.7957747E-01  0.3440942E+00
         13   -1    0    0    0    0  0.00000000000E+00  0.00000000000E+00  0.14999999963E+04  0.15000000000E+04  0.10566000000E+00 0.  1.
        994   -1    0    0    0    0 -0.00000000000E+00 -0.00000000000E+00  0.11368683772E-12  0.17120000000E+03  0.17120000000E+03 0.  0.
         13    1    1    2    0    0 -0.19710149038E+02 -0.36599466685E+02  0.24433817290E+03  0.24784907673E+03  0.10566000000E+00 0.  1.
        994    1    1    2    0    0  0.10839948505E+02  0.43298037680E+02  0.95826871565E+01  0.17718208838E+03  0.17120000000E+03 0.  0.
        998    1    1    2    0    0  0.88702005335E+01 -0.66985709951E+01  0.12460791362E+04  0.12461688349E+04  0.10000000000E+02 0.  1.
</event>
<event>
 5    1  0.1338396E-008  0.3726389E+03  0.7957747E-01  0.3483850E+00
         13   -1    0    0    0    0  0.00000000000E+00  0.00000000000E+00  0.14999999963E+04  0.15000000000E+04  0.10566000000E+00 0.  1.
        994   -1    0    0    0    0 -0.00000000000E+00 -0.00000000000E+00  0.11368683772E-12  0.17120000000E+03  0.17120000000E+03 0.  0.
         13    1    1    2    0    0  0.32967348267E+02  0.10969696363E+03  0.38553080118E+03  0.40218687162E+03  0.10566000000E+00 0.  1.
        994    1    1    2    0    0 -0.40494470770E+02 -0.10636968927E+03  0.59575172659E+02  0.21403960885E+03  0.17120000000E+03 0.  0.
        998    1    1    2    0    0  0.75271225030E+01 -0.33272743601E+01  0.10548940224E+04  0.10549735195E+04  0.10000000000E+02 0.  1.
</event>
<event>
 5    1  0.1338396E-008  0.3859203E+03  0.7957747E-01  0.3425779E+00
         13   -1    0    0    0    0  0.00000000000E+00  0.00000000000E+00  0.14999999963E+04  0.15000000000E+04  0.10566000000E+00 0.  1.
        994   -1    0    0    0    0 -0.00000000000E+00 -0.00000000000E+00  0.11368683772E-12  0.17120000000E+03  0.17120000000E+03 0.  0.
         13    1    1    2    0    0 -0.50667140817E+01  0.10521174589E+02  0.64499734158E+02  0.65548406364E+02  0.10566000000E+00 0.  1.
        994    1    1    2    0    0 -0.62777351157E+01  0.21935086233E+01  0.13189328753E+01  0.17133417938E+03  0.17120000000E+03 0.  0.
        998    1    1    2    0    0  0.11344449197E+02 -0.12714683213E+02  0.14341813292E+04  0.14343174143E+04  0.10000000000E+02 0.  1.
</event>
<event>
 5    1  0.1338396E-008  0.3843480E+03  0.7957747E-01  0.3432442E+00
         13   -1    0    0    0    0  0.00000000000E+00  0.00000000000E+00  0.14999999963E+04  0.15000000000E+04  0.10566000000E+00 0.  1.
        994   -1    0    0    0    0 -0.00000000000E+00 -0.00000000000E+00  0.11368683772E-12  0.17120000000E+03  0.17120000000E+03 0.  0.
         13    1    1    2    0    0  0.11392556615E+02 -0.22938350973E+02  0.14193616370E+03  0.14422844387E+03  0.10566000000E+00 0.  1.
        994    1    1    2    0    0 -0.13499667034E+02  0.32662405072E+02  0.60815604132E+01  0.17491569138E+03  0.17120000000E+03 0.  0.
        998    1    1    2    0    0  0.21071104183E+01 -0.97240540989E+01  0.13519822722E+04  0.13520558647E+04  0.10000000000E+02 0.  1.
</event>
<event>
 5    1  0.1338396E-008  0.3849746E+03  0.7957747E-01  0.3429780E+00
         13   -1    0    0    0    0  0.00000000000E+00  0.00000000000E+00  0.14999999963E+04  0.15000000000E+04  0.10566000000E+00 0.  1.
        994   -1    0    0    0    0 -0.00000000000E+00 -0.00000000000E+00  0.11368683772E-12  0.17120000000E+03  0.17120000000E+03 0.  0.
         13    1    1    2    0    0 -0.48103635683E+01  0.20751666304E+02  0.12581037452E+03  0.12760106878E+03  0.10566000000E+00 0.  1.
        994    1    1    2    0    0  0.12578042087E+02 -0.21873507845E+02  0.37394524518E+01  0.17308980615E+03  0.17120000000E+03 0.  0.
        998    1    1    2    0    0 -0.77676785187E+01  0.11218415413E+01  0.13704501693E+04  0.13705091251E+04  0.10000000000E+02 0.  1.
</event>
<event>
 5    1  0.1338396E-008  0.3696712E+03  0.7957747E-01  0.3497403E+00
         13   -1    0    0    0    0  0.00000000000E+00  0.00000000000E+00  0.14999999963E+04  0.15000000000E+04  0.10566000000E+00 0.  1.
        994   -1    0    0    0    0 -0.00000000000E+00 -0.00000000000E+00  0.11368683772E-12  0.17120000000E+03  0.17120000000E+03 0.  0.
         13    1    1    2    0    0  0.20906109680E+02  0.19888953605E+02  0.33485896671E+02  0.44203533087E+02  0.10566000000E+00 0.  1.
        994    1    1    2    0    0 -0.25507390124E+02 -0.16886653191E+02  0.14039785415E+02  0.17447733830E+03  0.17120000000E+03 0.  0.
        998    1    1    2    0    0  0.46012804438E+01 -0.30023004139E+01  0.14524743142E+04  0.14525191286E+04  0.10000000000E+02 0.  1.
</event>
<event>
 5    1  0.1338396E-008  0.3708368E+03  0.7957747E-01  0.3492054E+00
         13   -1    0    0    0    0  0.00000000000E+00  0.00000000000E+00  0.14999999963E+04  0.15000000000E+04  0.10566000000E+00 0.  1.
        994   -1    0    0    0    0 -0.00000000000E+00 -0.00000000000E+00  0.11368683772E-12  0.17120000000E+03  0.17120000000E+03 0.  0.
         13    1    1    2    0    0 -0.23179089649E+02 -0.56329965470E+02  0.18798554622E+03  0.19760797544E+03  0.10566000000E+00 0.  1.
        994    1    1    2    0    0  0.22778598141E+02  0.49957659852E+02  0.19298632186E+02  0.18082176173E+03  0.17120000000E+03 0.  0.
        998    1    1    2    0    0  0.40049150834E+00  0.63723056180E+01  0.12927158179E+04  0.12927702628E+04  0.10000000000E+02 0.  1.
</event>
<event>
 5    1  0.1338396E-008  0.3806352E+03  0.7957747E-01  0.3448397E+00
         13   -1    0    0    0    0  0.00000000000E+00  0.00000000000E+00  0.14999999963E+04  0.15000000000E+04  0.10566000000E+00 0. -1.
        994   -1    0    0    0    0 -0.00000000000E+00 -0.00000000000E+00  0.11368683772E-12  0.17120000000E+03  0.17120000000E+03 0.  0.
         13    1    1    2    0    0 -0.22833521181E+02 -0.48686800851E+02  0.32272478805E+03  0.32717437896E+03  0.10566000000E+00 0. -1.
        994    1    1    2    0    0  0.18888608330E+01  0.51530942405E+02  0.12734459270E+02  0.17925013884E+03  0.17120000000E+03 0.  0.
        998    1    1    2    0    0  0.20944660348E+02 -0.28441415535E+01  0.11645407490E+04  0.11647754822E+04  0.10000000000E+02 0. -1.
</event>
<event>
 5    1  0.1338396E-008  0.3701289E+03  0.7957747E-01  0.3495299E+00
         13   -1    0    0    0    0  0.00000000000E+00  0.00000000000E+00  0.14999999963E+04  0.15000000000E+04  0.10566000000E+00 0. -1.
        994   -1    0    0    0    0 -0.00000000000E+00 -0.00000000000E+00  0.11368683772E-12  0.17120000000E+03  0.17120000000E+03 0.  0.
         13    1    1    2    0    0 -0.91101294890E+02  0.63877304660E+01  0.33330559034E+03  0.34559062017E+03  0.10566000000E+00 0. -1.
        994    1    1    2    0    0  0.96433965206E+02 -0.76452248773E+01  0.42276350864E+02  0.20113351026E+03  0.17120000000E+03 0.  0.
        998    1    1    2    0    0 -0.53326703160E+01  0.12574944114E+01  0.11244180551E+04  0.11244758696E+04  0.10000000000E+02 0. -1.
</event>
<event>
 5    1  0.1338396E-008  0.3806362E+03  0.7957747E-01  0.3448393E+00
         13   -1    0    0    0    0  0.00000000000E+00  0.00000000000E+00  0.14999999963E+04  0.15000000000E+04  0.10566000000E+00 0.  1.
        994   -1    0    0    0    0 -0.00000000000E+00 -0.00000000000E+00  0.11368683772E-12  0.17120000000E+03  0.17120000000E+03 0.  0.
         13    1    1    2    0    0 -0.13231393714E+02 -0.21663550729E+02  0.92850175743E+02  0.96257703637E+02  0.10566000000E+00 0.  1.
        994    1    1    2    0    0 -0.49621963018E+00 -0.59590121139E+01  0.39316398768E+01  0.17134950788E+03  0.17120000000E+03 0.  0.
        998    1    1    2    0    0  0.13727613344E+02  0.27622562843E+02  0.14032181807E+04  0.14035927885E+04  0.10000000000E+02 0.  1.
</event>
<event>
 5    1  0.1338396E-008  0.3833197E+03  0.7957747E-01  0.3436830E+00
         13   -1    0    0    0    0  0.00000000000E+00  0.00000000000E+00  0.14999999963E+04  0.15000000000E+04  0.10566000000E+00 0.  1.
        994   -1    0    0    0    0 -0.00000000000E+00 -0.00000000000E+00  0.11368683772E-12  0.17120000000E+03  0.17120000000E+03 0.  0.
         13    1    1    2    0    0  0.15426534943E+02 -0.29349790495E+01  0.48435124779E+02  0.50917232434E+02  0.10566000000E+00 0.  1.
        994    1    1    2    0    0 -0.14363469003E+02  0.57813343020E+00  0.31502665220E+01  0.17183133492E+03  0.17120000000E+03 0.  0.
        998    1    1    2    0    0 -0.10630659406E+01  0.23568456193E+01  0.14484146050E+04  0.14484514326E+04  0.10000000000E+02 0.  1.
</event>
<event>
 5    1  0.1338396E-008  0.3807376E+03  0.7957747E-01  0.3447953E+00
         13   -1    0    0    0    0  0.00000000000E+00  0.00000000000E+00  0.14999999963E+04  0.15000000000E+04  0.10566000000E+00 0.  1.
        994   -1    0    0    0    0 -0.00000000000E+00 -0.00000000000E+00  0.11368683772E-12  0.17120000000E+03  0.17120000000E+03 0.  0.
         13    1    1    2    0    0 -0.67443507822E+00  0.11635250597E+02  0.16344468351E+02  0.20074529356E+02  0.10566000000E+00 0.  1.
        994    1    1    2    0    0  0.46536249509E+01 -0.11078682394E+02  0.42429422711E+01  0.17167363219E+03  0.17120000000E+03 0.  0.
        998    1    1    2    0    0 -0.39791898727E+01 -0.55656820331E+00  0.14794125857E+04  0.14794518385E+04  0.10000000000E+02 0.  1.
</event>
<event>
 5    1  0.1338396E-008  0.3830784E+03  0.7957747E-01  0.3437863E+00
         13   -1    0    0    0    0  0.00000000000E+00  0.00000000000E+00  0.14999999963E+04  0.15000000000E+04  0.10566000000E+00 0.  1.
        994   -1    0    0    0    0 -0.00000000000E+00 -0.00000000000E+00  0.11368683772E-12  0.17120000000E+03  0.17120000000E+03 0.  0.
         13    1    1    2    0    0  0.65216750484E+01 -0.22687445695E+02  0.10691164907E+03  0.10948682254E+03  0.10566000000E+00 0.  1.
        994    1    1    2    0    0 -0.35137948779E+01  0.14206930525E+02  0.32962866111E+01  0.17185601280E+03  0.17120000000E+03 0.  0.
        998    1    1    2    0    0 -0.30078801706E+01  0.84805151692E+01  0.13897920606E+04  0.13898571647E+04  0.10000000000E+02 0.  1.
</event>
<event>
 5    1  0.1338396E-008  0.3843247E+03  0.7957747E-01  0.3432541E+00
         13   -1    0    0    0    0  0.00000000000E+00  0.00000000000E+00  0.14999999963E+04  0.15000000000E+04  0.10566000000E+00 0. -1.
        994   -1    0    0    0    0 -0.00000000000E+00 -0.00000000000E+00  0.11368683772E-12  0.17120000000E+03  0.17120000000E+03 0.  0.
         13    1    1    2    0    0 -0.16671595577E+02 -0.33851370518E+01  0.75692459498E+02  0.77580673114E+02  0.10566000000E+00 0. -1.
        994    1    1    2    0    0  0.66835399502E+01 -0.29331396023E+01  0.21413697693E+01  0.17136889589E+03  0.17120000000E+03 0.  0.
        998    1    1    2    0    0  0.99880556270E+01  0.63182766541E+01  0.14221661670E+04  0.14222504310E+04  0.10000000000E+02 0. -1.
</event>
<event>
 5    1  0.1338396E-008  0.3914721E+03  0.7957747E-01  0.3402679E+00
         13   -1    0    0    0    0  0.00000000000E+00  0.00000000000E+00  0.14999999963E+04  0.15000000000E+04  0.10566000000E+00 0.  1.
        994   -1    0    0    0    0 -0.00000000000E+00 -0.00000000000E+00  0.11368683772E-12  0.17120000000E+03  0.17120000000E+03 0.  0.
         13    1    1    2    0    0 -0.15341335087E+03  0.65493747334E+02  0.41082428078E+03  0.44339788904E+03  0.10566000000E+00 0.  1.
        994    1    1    2    0    0  0.15127299761E+03 -0.63684325664E+02  0.13367623263E+03  0.27224619063E+03  0.17120000000E+03 0.  0.
        998    1    1    2    0    0  0.21403532543E+01 -0.18094216699E+01  0.95549948287E+03  0.95555592033E+03  0.10000000000E+02 0.  0.
</event>
<event>
 5    1  0.1338396E-008  0.3784500E+03  0.7957747E-01  0.3457935E+00
         13   -1    0    0    0    0  0.00000000000E+00  0.00000000000E+00  0.14999999963E+04  0.15000000000E+04  0.10566000000E+00 0.  1.
        994   -1    0    0    0    0 -0.00000000000E+00 -0.00000000000E+00  0.11368683772E-12  0.17120000000E+03  0.17120000000E+03 0.  0.
         13    1    1    2    0    0  0.22177201081E+02  0.17340410403E+02  0.75183989216E+02  0.80281763055E+02  0.10566000000E+00 0.  1.
        994    1    1    2    0    0 -0.20447339705E+02 -0.20627909631E+02  0.77574333810E+01  0.17381951021E+03  0.17120000000E+03 0.  0.
        998    1    1    2    0    0 -0.17298613753E+01  0.32874992280E+01  0.14170585737E+04  0.14170987267E+04  0.10000000000E+02 0.  1.
</event>
<event>
 5    1  0.1338396E-008  0.3839618E+03  0.7957747E-01  0.3434087E+00
         13   -1    0    0    0    0  0.00000000000E+00  0.00000000000E+00  0.14999999963E+04  0.15000000000E+04  0.10566000000E+00 0. -1.
        994   -1    0    0    0    0 -0.00000000000E+00 -0.00000000000E+00  0.11368683772E-12  0.17120000000E+03  0.17120000000E+03 0.  0.
         13    1    1    2    0    0  0.29434397047E+01 -0.16149545464E+02  0.60800991232E+02  0.62978118064E+02  0.10566000000E+00 0. -1.
        994    1    1    2    0    0  0.43479903826E+01  0.16407660045E+02  0.30977624731E+01  0.17206729050E+03  0.17120000000E+03 0.  0.
        998    1    1    2    0    0 -0.72914300873E+01 -0.25811458073E+00  0.14361012426E+04  0.14361545914E+04  0.10000000000E+02 0. -1.
</event>
<event>
 5    1  0.1338396E-008  0.3813053E+03  0.7957747E-01  0.3445495E+00
         13   -1    0    0    0    0  0.00000000000E+00  0.00000000000E+00  0.14999999963E+04  0.15000000000E+04  0.10566000000E+00 0. -1.
        994   -1    0    0    0    0 -0.00000000000E+00 -0.00000000000E+00  0.11368683772E-12  0.17120000000E+03  0.17120000000E+03 0.  0.
         13    1    1    2    0    0 -0.21957294162E+02  0.22266697254E+02  0.14842110672E+03  0.15167980966E+03  0.10566000000E+00 0. -1.
        994    1    1    2    0    0  0.17350925391E+02  0.33354312658E+01  0.45155073022E+01  0.17216854974E+03  0.17120000000E+03 0.  0.
        998    1    1    2    0    0  0.46063687711E+01 -0.25602128519E+02  0.13470633823E+04  0.13473516406E+04  0.10000000000E+02 0. -1.
</event>
<event>
 5    1  0.1338396E-008  0.3861553E+03  0.7957747E-01  0.3424787E+00
         13   -1    0    0    0    0  0.00000000000E+00  0.00000000000E+00  0.14999999963E+04  0.15000000000E+04  0.10566000000E+00 0. -1.
        994   -1    0    0    0    0 -0.00000000000E+00 -0.00000000000E+00  0.11368683772E-12  0.17120000000E+03  0.17120000000E+03 0.  0.
         13    1    1    2    0    0 -0.91390845702E+01 -0.50609839923E+01  0.49223387849E+02  0.50319871831E+02  0.10566000000E+00 0. -1.
        994    1    1    2    0    0  0.12318501749E+02  0.11205535315E+02  0.19667450166E+01  0.17201923611E+03  0.17120000000E+03 0.  0.
        998    1    1    2    0    0 -0.31794171790E+01 -0.61445513232E+01  0.14488098634E+04  0.14488608921E+04  0.10000000000E+02 0. -1.
</event>
<event>
 5    1  0.1338396E-008  0.3789602E+03  0.7957747E-01  0.3455698E+00
         13   -1    0    0    0    0  0.00000000000E+00  0.00000000000E+00  0.14999999963E+04  0.15000000000E+04  0.10566000000E+00 0.  1.
        994   -1    0    0    0    0 -0.00000000000E+00 -0.00000000000E+00  0.11368683772E-12  0.17120000000E+03  0.17120000000E+03 0.  0.
         13    1    1    2    0    0 -0.17773764249E+02  0.11809749160E+02  0.46577274479E+02  0.51233099972E+02  0.10566000000E+00 0.  1.
        994    1    1    2    0    0  0.19623557951E+02 -0.14367310166E+01  0.59586820942E+01  0.17242996873E+03  0.17120000000E+03 0.  0.
        998    1    1    2    0    0 -0.18497937019E+01 -0.10373018144E+02  0.14474640397E+04  0.14475369313E+04  0.10000000000E+02 0.  1.
</event>
<event>
 5    1  0.1338396E-008  0.3844126E+03  0.7957747E-01  0.3432167E+00
         13   -1    0    0    0    0  0.00000000000E+00  0.00000000000E+00  0.14999999963E+04  0.15000000000E+04  0.10566000000E+00 0.  1.
        994   -1    0    0    0    0 -0.00000000000E+00 -0.00000000000E+00  0.11368683772E-12  0.17120000000E+03  0.17120000000E+03 0.  0.
         13    1    1    2    0    0  0.10448492375E+02 -0.29921114246E+01  0.30354637092E+02  0.32241880850E+02  0.10566000000E+00 0.  1.
        994    1    1    2    0    0 -0.67618176715E+01  0.11192874973E+01  0.20768603055E+01  0.17134972522E+03  0.17120000000E+03 0.  0.
        998    1    1    2    0    0 -0.36866747038E+01  0.18728239273E+01  0.14675684989E+04  0.14676083939E+04  0.10000000000E+02 0.  1.
</event>
<event>
 5    1  0.1338396E-008  0.3685682E+03  0.7957747E-01  0.3502497E+00
         13   -1    0    0    0    0  0.00000000000E+00  0.00000000000E+00  0.14999999963E+04  0.15000000000E+04  0.10566000000E+00 0.  1.
        994   -1    0    0    0    0 -0.00000000000E+00 -0.00000000000E+00  0.11368683772E-12  0.17120000000E+03  0.17120000000E+03 0.  0.
         13    1    1    2    0    0  0.11598684350E+03 -0.28095794400E+02  0.49952886755E+03  0.51358682052E+03  0.10566000000E+00 0.  1.
        994    1    1    2    0    0 -0.10613715678E+03  0.21624799191E+02  0.52186088845E+02  0.20920218895E+03  0.17120000000E+03 0.  0.
        998    1    1    2    0    0 -0.98496867180E+01  0.64709952088E+01  0.94828503988E+03  0.94841099054E+03  0.10000000000E+02 0.  1.
</event>
<event>
 5    1  0.1338396E-008  0.3828313E+03  0.7957747E-01  0.3438922E+00
         13   -1    0    0    0    0  0.00000000000E+00  0.00000000000E+00  0.14999999963E+04  0.15000000000E+04  0.10566000000E+00 0. -1.
        994   -1    0    0    0    0 -0.00000000000E+00 -0.00000000000E+00  0.11368683772E-12  0.17120000000E+03  0.17120000000E+03 0.  0.
         13    1    1    2    0    0 -0.70883740985E+01  0.13759772094E+02  0.51401299930E+02  0.53681292589E+02  0.10566000000E+00 0. -1.
        994    1    1    2    0    0  0.66021395163E+01  0.33181691865E+02  0.65108289169E+01  0.17463231034E+03  0.17120000000E+03 0.  0.
        998    1    1    2    0    0  0.48623458223E+00 -0.46941463959E+02  0.14420878674E+04  0.14428863971E+04  0.10000000000E+02 0. -1.
</event>
<event>
 5    1  0.1338396E-008  0.3773245E+03  0.7957747E-01  0.3462892E+00
         13   -1    0    0    0    0  0.00000000000E+00  0.00000000000E+00  0.14999999963E+04  0.15000000000E+04  0.10566000000E+00 0.  1.
        994   -1    0    0    0    0 -0.00000000000E+00 -0.00000000000E+00  0.11368683772E-12  0.17120000000E+03  0.17120000000E+03 0.  0.
         13    1    1    2    0    0  0.49798753562E+02 -0.81546898745E+02  0.57732119190E+03  0.58517483057E+03  0.10566000000E+00 0.  1.
        994    1    1    2    0    0 -0.56790581692E+02  0.66095254230E+02  0.31546087913E+02  0.19467498161E+03  0.17120000000E+03 0.  0.
        998    1    1    2    0    0  0.69918281299E+01  0.15451644515E+02  0.89113271647E+03  0.89135018783E+03  0.10000000000E+02 0.  1.
</event>
<event>
 5    1  0.1338396E-008  0.3856135E+03  0.7957747E-01  0.3427074E+00
         13   -1    0    0    0    0  0.00000000000E+00  0.00000000000E+00  0.14999999963E+04  0.15000000000E+04  0.10566000000E+00 0. -1.
        994   -1    0    0    0    0 -0.00000000000E+00 -0.00000000000E+00  0.11368683772E-12  0.17120000000E+03  0.17120000000E+03 0.  0.
         13    1    1    2    0    0  0.14577732935E+02  0.28675198167E+01  0.88329360177E+02  0.89570195940E+02  0.10566000000E+00 0. -1.
        994    1    1    2    0    0 -0.49158848452E+01  0.76031093472E+01  0.15949230765E+01  0.17144665927E+03  0.17120000000E+03 0.  0.
        998    1    1    2    0    0 -0.96618480897E+01 -0.10470629164E+02  0.14100757130E+04  0.14101831448E+04  0.10000000000E+02 0. -1.
</event>
<event>
 5    1  0.1338396E-008  0.3807406E+03  0.7957747E-01  0.3447940E+00
         13   -1    0    0    0    0  0.00000000000E+00  0.00000000000E+00  0.14999999963E+04  0.15000000000E+04  0.10566000000E+00 0. -1.
        994   -1    0    0    0    0 -0.00000000000E+00 -0.00000000000E+00  0.11368683772E-12  0.17120000000E+03  0.17120000000E+03 0.  0.
         13    1    1    2    0    0 -0.20655785233E+02 -0.79537981665E+01  0.70300512277E+02  0.73702764937E+02  0.10566000000E+00 0. -1.
        994    1    1    2    0    0 -0.85981776842E+01  0.28535927794E+01  0.40335098522E+01  0.17148696992E+03  0.17120000000E+03 0.  0.
        998    1    1    2    0    0  0.29253962917E+02  0.51002053871E+01  0.14256659741E+04  0.14260102651E+04  0.10000000000E+02 0. -1.
</event>
<event>
 5    1  0.1338396E-008  0.3848357E+03  0.7957747E-01  0.3430369E+00
         13   -1    0    0    0    0  0.00000000000E+00  0.00000000000E+00  0.14999999963E+04  0.15000000000E+04  0.10566000000E+00 0.  1.
        994   -1    0    0    0    0 -0.00000000000E+00 -0.00000000000E+00  0.11368683772E-12  0.17120000000E+03  0.17120000000E+03 0.  0.
         13    1    1    2    0    0  0.65494160689E+01 -0.94240941088E+01  0.37025929678E+02  0.38763888262E+02  0.10566000000E+00 0.  1.
        994    1    1    2    0    0 -0.54939416926E+01  0.14044714698E+02  0.24604518708E+01  0.17188057258E+03  0.17120000000E+03 0.  0.
        998    1    1    2    0    0 -0.10554743763E+01 -0.46206205896E+01  0.14605136147E+04  0.14605555392E+04  0.10000000000E+02 0.  1.
</event>
<event>
 5    1  0.1338396E-008  0.3815339E+03  0.7957747E-01  0.3444507E+00
         13   -1    0    0    0    0  0.00000000000E+00  0.00000000000E+00  0.14999999963E+04  0.15000000000E+04  0.10566000000E+00 0. -1.
        994   -1    0    0    0    0 -0.00000000000E+00 -0.00000000000E+00  0.11368683772E-12  0.17120000000E+03  0.17120000000E+03 0.  0.
         13    1    1    2    0    0  0.17388421508E+02  0.14106629869E+02  0.69910211581E+02  0.73408467197E+02  0.10566000000E+00 0. -1.
        994    1    1    2    0    0 -0.24538854147E+02 -0.89449735996E+01  0.56330936950E+01  0.17327244345E+03  0.17120000000E+03 0.  0.
        998    1    1    2    0    0  0.71504326392E+01 -0.51616562692E+01  0.14244566910E+04  0.14245190894E+04  0.10000000000E+02 0. -1.
</event>
<event>
 5    1  0.2009746E-008  0.3857337E+03  0.7957747E-01  0.3426566E+00
         13   -1    0    0    0    0  0.00000000000E+00  0.00000000000E+00  0.14999999963E+04  0.15000000000E+04  0.10566000000E+00 0.  1.
        994   -1    0    0    0    0 -0.00000000000E+00 -0.00000000000E+00  0.11368683772E-12  0.17120000000E+03  0.17120000000E+03 0.  0.
         13    1    1    2    0    0 -0.72004052402E+01 -0.76954372168E+01  0.44479174421E+02  0.45710761434E+02  0.10566000000E+00 0.  1.
        994    1    1    2    0    0  0.31267132118E+01  0.51679537306E+01  0.13859976916E+01  0.17131212762E+03  0.17120000000E+03 0.  0.
        998    1    1    2    0    0  0.40736920284E+01  0.25274834862E+01  0.14541348242E+04  0.14541771109E+04  0.10000000000E+02 0.  1.
</event>
<event>
 5    1  0.1338396E-008  0.3817392E+03  0.7957747E-01  0.3443620E+00
         13   -1    0    0    0    0  0.00000000000E+00  0.00000000000E+00  0.14999999963E+04  0.15000000000E+04  0.10566000000E+00 0. -1.
        994   -1    0    0    0    0 -0.00000000000E+00 -0.00000000000E+00  0.11368683772E-12  0.17120000000E+03  0.17120000000E+03 0.  0.
         13    1    1    2    0    0 -0.14148607190E+03 -0.76335298957E+01  0.42650684034E+03  0.44942705231E+03  0.10566000000E+00 0. -1.
        994    1    1    2    0    0  0.13101427103E+03 -0.96429588617E+01  0.83285179095E+02  0.23130842381E+03  0.17120000000E+03 0.  0.
        998    1    1    2    0    0  0.10471800874E+02  0.17276488757E+02  0.99020797684E+03  0.99046452389E+03  0.10000000000E+02 0. -1.
</event>
<event>
 5    1  0.1338396E-008  0.3936120E+03  0.7957747E-01  0.3393949E+00
         13   -1    0    0    0    0  0.00000000000E+00  0.00000000000E+00  0.14999999963E+04  0.15000000000E+04  0.10566000000E+00 0. -1.
        994   -1    0    0    0    0 -0.00000000000E+00 -0.00000000000E+00  0.11368683772E-12  0.17120000000E+03  0.17120000000E+03 0.  0.
         13    1    1    2    0    0  0.26432153326E+02  0.26421452437E+02  0.19746627163E+02  0.42269283488E+02  0.10566000000E+00 0. -1.
        994    1    1    2    0    0 -0.23919401923E+02 -0.12552807799E+02  0.26803824299E+02  0.17537843587E+03  0.17120000000E+03 0.  0.
        998    1    1    2    0    0 -0.25127514022E+01 -0.13868644638E+02  0.14534495448E+04  0.14535522806E+04  0.10000000000E+02 0. -1.
</event>
<event>
 5    1  0.1338396E-008  0.3779582E+03  0.7957747E-01  0.3460097E+00
         13   -1    0    0    0    0  0.00000000000E+00  0.00000000000E+00  0.14999999963E+04  0.15000000000E+04  0.10566000000E+00 0. -1.
        994   -1    0    0    0    0 -0.00000000000E+00 -0.00000000000E+00  0.11368683772E-12  0.17120000000E+03  0.17120000000E+03 0.  0.
         13    1    1    2    0    0  0.27959290726E+02 -0.18812128596E+02  0.99951545575E+02  0.10547957502E+03  0.10566000000E+00 0. -1.
        994    1    1    2    0    0 -0.31123184463E+02  0.20412552127E+02  0.98440680380E+01  0.17547555548E+03  0.17120000000E+03 0.  0.
        998    1    1    2    0    0  0.31638937370E+01 -0.16004235314E+01  0.13902043827E+04  0.13902448695E+04  0.10000000000E+02 0. -1.
</event>
<event>
 5    1  0.1338396E-008  0.3742501E+03  0.7957747E-01  0.3476583E+00
         13   -1    0    0    0    0  0.00000000000E+00  0.00000000000E+00  0.14999999963E+04  0.15000000000E+04  0.10566000000E+00 0. -1.
        994   -1    0    0    0    0 -0.00000000000E+00 -0.00000000000E+00  0.11368683772E-12  0.17120000000E+03  0.17120000000E+03 0.  0.
         13    1    1    2    0    0 -0.92468523091E+01  0.26686887850E+02  0.55535007025E+02  0.62304433470E+02  0.10566000000E+00 0. -1.
        994    1    1    2    0    0  0.11500205931E+01 -0.83794737498E+01  0.73081447984E+01  0.17156452753E+03  0.17120000000E+03 0.  0.
        998    1    1    2    0    0  0.80968317160E+01 -0.18307414100E+02  0.14371568445E+04  0.14373310390E+04  0.10000000000E+02 0. -1.
</event>
<event>
 5    1  0.1338396E-008  0.3824879E+03  0.7957747E-01  0.3440397E+00
         13   -1    0    0    0    0  0.00000000000E+00  0.00000000000E+00  0.14999999963E+04  0.15000000000E+04  0.10566000000E+00 0. -1.
        994   -1    0    0    0    0 -0.00000000000E+00 -0.00000000000E+00  0.11368683772E-12  0.17120000000E+03  0.17120000000E+03 0.  0.
         13    1    1    2    0    0  0.13805824089E+02  0.33810570760E+00  0.31961670275E+02  0.34817734347E+02  0.10566000000E+00 0. -1.
        994    1    1    2    0    0 -0.10097343965E+02 -0.94413748819E+01  0.35163793777E+01  0.17179319206E+03  0.17120000000E+03 0.  0.
        998    1    1    2    0    0 -0.37084801245E+01  0.91032691743E+01  0.14645219466E+04  0.14645890736E+04  0.10000000000E+02 0. -1.
</event>
<event>
 5    1  0.1338396E-008  0.3851706E+03  0.7957747E-01  0.3428949E+00
         13   -1    0    0    0    0  0.00000000000E+00  0.00000000000E+00  0.14999999963E+04  0.15000000000E+04  0.10566000000E+00 0.  1.
        994   -1    0    0    0    0 -0.00000000000E+00 -0.00000000000E+00  0.11368683772E-12  0.17120000000E+03  0.17120000000E+03 0.  0.
         13    1    1    2    0    0 -0.83757664323E+01  0.18080373764E+02  0.11470639678E+03  0.11642431878E+03  0.10566000000E+00 0.  1.
        994    1    1    2    0    0  0.12294092450E+02 -0.23051280903E+02  0.37919486156E+01  0.17322333889E+03  0.17120000000E+03 0.  0.
        998    1    1    2    0    0 -0.39183260173E+01  0.49709071384E+01  0.13815016509E+04  0.13815523423E+04  0.10000000000E+02 0.  0.
</event>
<event>
 5    1  0.1338396E-008  0.3774877E+03  0.7957747E-01  0.3462171E+00
         13   -1    0    0    0    0  0.00000000000E+00  0.00000000000E+00  0.14999999963E+04  0.15000000000E+04  0.10566000000E+00 0. -1.
        994   -1    0    0    0    0 -0.00000000000E+00 -0.00000000000E+00  0.11368683772E-12  0.17120000000E+03  0.17120000000E+03 0.  0.
         13    1    1    2    0    0 -0.61009984619E+02 -0.23351026259E+02  0.29780507413E+03  0.30488581796E+03  0.10566000000E+00 0. -1.
        994    1    1    2    0    0  0.61757100654E+02  0.41942909882E+02  0.24429945523E+02  0.18835978713E+03  0.17120000000E+03 0.  0.
        998    1    1    2    0    0 -0.74711603492E+00 -0.18591883623E+02  0.11777649766E+04  0.11779543949E+04  0.10000000000E+02 0. -1.
</event>
<event>
 5    1  0.1338396E-008  0.3811366E+03  0.7957747E-01  0.3446224E+00
         13   -1    0    0    0    0  0.00000000000E+00  0.00000000000E+00  0.14999999963E+04  0.15000000000E+04  0.10566000000E+00 0. -1.
        994   -1    0    0    0    0 -0.00000000000E+00 -0.00000000000E+00  0.11368683772E-12  0.17120000000E+03  0.17120000000E+03 0.  0.
         13    1    1    2    0    0 -0.14953879314E+02 -0.38479173434E+02  0.21341846209E+03  0.21737459930E+03  0.10566000000E+00 0. -1.
        994    1    1    2    0    0  0.85459121805E+01  0.36818860608E+02  0.83331642039E+01  0.17552077580E+03  0.17120000000E+03 0.  0.
        998    1    1    2    0    0  0.64079671339E+01  0.16603128261E+01  0.12782483700E+04  0.12783046249E+04  0.10000000000E+02 0. -1.
</event>
<event>
 5    1  0.1338396E-008  0.3507904E+03  0.7957747E-01  0.3589118E+00
         13   -1    0    0    0    0  0.00000000000E+00  0.00000000000E+00  0.14999999963E+04  0.15000000000E+04  0.10566000000E+00 0. -1.
        994   -1    0    0    0    0 -0.00000000000E+00 -0.00000000000E+00  0.11368683772E-12  0.17120000000E+03  0.17120000000E+03 0.  0.
         13    1    1    2    0    0  0.33141867095E+02  0.29618519684E+03  0.96560449813E+03  0.10105523797E+04  0.10566000000E+00 0. -1.
        994    1    1    2    0    0  0.19049532769E+02 -0.24512853057E+03  0.34226423162E+03  0.45486825065E+03  0.17120000000E+03 0.  0.
        998    1    1    2    0    0 -0.52191399864E+02 -0.51056666266E+02  0.19213126653E+03  0.20577936963E+03  0.10000000000E+02 0. -1.
</event>
<event>
 5    1  0.1338396E-008  0.3835772E+03  0.7957747E-01  0.3435729E+00
         13   -1    0    0    0    0  0.00000000000E+00  0.00000000000E+00  0.14999999963E+04  0.15000000000E+04  0.10566000000E+00 0.  1.
        994   -1    0    0    0    0 -0.00000000000E+00 -0.00000000000E+00  0.11368683772E-12  0.17120000000E+03  0.17120000000E+03 0.  0.
         13    1    1    2    0    0 -0.68136752596E+01  0.15477626831E+02  0.59395994064E+02  0.61756605944E+02  0.10566000000E+00 0.  1.
        994    1    1    2    0    0  0.69217110605E+01 -0.13176642152E+02  0.30704489314E+01  0.17187321385E+03  0.17120000000E+03 0.  0.
        998    1    1    2    0    0 -0.10803580091E+00 -0.23009846796E+01  0.14375335533E+04  0.14375701802E+04  0.10000000000E+02 0.  1.
</event>
<event>
 5    1  0.1338396E-008  0.3787666E+03  0.7957747E-01  0.3456547E+00
         13   -1    0    0    0    0  0.00000000000E+00  0.00000000000E+00  0.14999999963E+04  0.15000000000E+04  0.10566000000E+00 0.  1.
        994   -1    0    0    0    0 -0.00000000000E+00 -0.00000000000E+00  0.11368683772E-12  0.17120000000E+03  0.17120000000E+03 0.  0.
         13    1    1    2    0    0 -0.10465054847E+02  0.44499002100E+01  0.11520997401E+02  0.16188376385E+02  0.10566000000E+00 0.  1.
        994    1    1    2    0    0  0.78567843796E+01  0.71806010822E+00  0.49659986397E+01  0.17145362584E+03  0.17120000000E+03 0.  0.
        998    1    1    2    0    0  0.26082704673E+01 -0.51679603183E+01  0.14835130002E+04  0.14835579978E+04  0.10000000000E+02 0.  1.
</event>
<event>
 5    1  0.1338396E-008  0.3823697E+03  0.7957747E-01  0.3440905E+00
         13   -1    0    0    0    0  0.00000000000E+00  0.00000000000E+00  0.14999999963E+04  0.15000000000E+04  0.10566000000E+00 0. -1.
        994   -1    0    0    0    0 -0.00000000000E+00 -0.00000000000E+00  0.11368683772E-12  0.17120000000E+03  0.17120000000E+03 0.  0.
         13    1    1    2    0    0  0.50962968523E+01  0.24362599803E+02  0.99805204298E+02  0.10286203614E+03  0.10566000000E+00 0. -1.
        994    1    1    2    0    0 -0.17680130565E+02 -0.19840076392E+02  0.52877037106E+01  0.17333094201E+03  0.17120000000E+03 0.  0.
        998    1    1    2    0    0  0.12583833713E+02 -0.45225234111E+01  0.13949070883E+04  0.13950070218E+04  0.10000000000E+02 0. -1.
</event>
<event>
 5    1  0.1338396E-008  0.3861346E+03  0.7957747E-01  0.3424875E+00
         13   -1    0    0    0    0  0.00000000000E+00  0.00000000000E+00  0.14999999963E+04  0.15000000000E+04  0.10566000000E+00 0.  1.
        994   -1    0    0    0    0 -0.00000000000E+00 -0.00000000000E+00  0.11368683772E-12  0.17120000000E+03  0.17120000000E+03 0.  0.
         13    1    1    2    0    0  0.11567377577E+02 -0.48695169713E+01  0.74472302192E+02  0.75522522319E+02  0.10566000000E+00 0.  1.
        994    1    1    2    0    0 -0.29951914040E+01  0.16377479258E+02  0.19766716470E+01  0.17201901124E+03  0.17120000000E+03 0.  0.
        998    1    1    2    0    0 -0.85721861726E+01 -0.11507962286E+02  0.14235510224E+04  0.14236584664E+04  0.10000000000E+02 0.  1.
</event>
<event>
 5    1  0.1338396E-008  0.3795835E+03  0.7957747E-01  0.3452974E+00
         13   -1    0    0    0    0  0.00000000000E+00  0.00000000000E+00  0.14999999963E+04  0.15000000000E+04  0.10566000000E+00 0. -1.
        994   -1    0    0    0    0 -0.00000000000E+00 -0.00000000000E+00  0.11368683772E-12  0.17120000000E+03  0.17120000000E+03 0.  0.
         13    1    1    2    0    0 -0.64147124864E+01  0.16764770257E+02  0.35810577727E+02  0.40057642208E+02  0.10566000000E+00 0. -1.
        994    1    1    2    0    0 -0.80323117823E+01 -0.12055695887E+02  0.50463443981E+01  0.17188590235E+03  0.17120000000E+03 0.  0.
        998    1    1    2    0    0  0.14447024269E+02 -0.47090743706E+01  0.14591430742E+04  0.14592564554E+04  0.10000000000E+02 0. -1.
</event>
<event>
 5    1  0.1338396E-008  0.3826628E+03  0.7957747E-01  0.3439645E+00
         13   -1    0    0    0    0  0.00000000000E+00  0.00000000000E+00  0.14999999963E+04  0.15000000000E+04  0.10566000000E+00 0.  1.
        994   -1    0    0    0    0 -0.00000000000E+00 -0.00000000000E+00  0.11368683772E-12  0.17120000000E+03  0.17120000000E+03 0.  0.
         13    1    1    2    0    0  0.10532396938E+02  0.11692983922E+02  0.42580240665E+02  0.45395432781E+02  0.10566000000E+00 0.  1.
        994    1    1    2    0    0  0.97507950421E+01 -0.29507115390E+02  0.60018047876E+01  0.17410114739E+03  0.17120000000E+03 0.  0.
        998    1    1    2    0    0 -0.20283191980E+02  0.17814131468E+02  0.14514179508E+04  0.14517034198E+04  0.10000000000E+02 0.  1.
</event>
<event>
 5    1  0.1338396E-008  0.3799856E+03  0.7957747E-01  0.3451221E+00
         13   -1    0    0    0    0  0.00000000000E+00  0.00000000000E+00  0.14999999963E+04  0.15000000000E+04  0.10566000000E+00 0. -1.
        994   -1    0    0    0    0 -0.00000000000E+00 -0.00000000000E+00  0.11368683772E-12  0.17120000000E+03  0.17120000000E+03 0.  0.
         13    1    1    2    0    0 -0.45927683490E+02 -0.19299851124E+02  0.27334283849E+03  0.27784555941E+03  0.10566000000E+00 0. -1.
        994    1    1    2    0    0  0.36242559121E+02  0.12920363306E+02  0.91056183613E+01  0.17570660535E+03  0.17120000000E+03 0.  0.
        998    1    1    2    0    0  0.96851243692E+01  0.63794878184E+01  0.12175515394E+04  0.12176478352E+04  0.10000000000E+02 0.  1.
</event>
<event>
 5    1  0.1338396E-008  0.3814068E+03  0.7957747E-01  0.3445056E+00
         13   -1    0    0    0    0  0.00000000000E+00  0.00000000000E+00  0.14999999963E+04  0.15000000000E+04  0.10566000000E+00 0.  1.
        994   -1    0    0    0    0 -0.00000000000E+00 -0.00000000000E+00  0.11368683772E-12  0.17120000000E+03  0.17120000000E+03 0.  0.
         13    1    1    2    0    0  0.90046636787E+01  0.77473547950E+01  0.18741218806E+02  0.22188959431E+02  0.10566000000E+00 0.  1.
        994    1    1    2    0    0 -0.22630751154E+02  0.74537751445E-01  0.51307276035E+01  0.17276550819E+03  0.17120000000E+03 0.  0.
        998    1    1    2    0    0  0.13626087476E+02 -0.78218925465E+01  0.14761280499E+04  0.14762455324E+04  0.10000000000E+02 0.  1.
</event>
<event>
 5    1  0.1338396E-008  0.3858185E+03  0.7957747E-01  0.3426208E+00
         13   -1    0    0    0    0  0.00000000000E+00  0.00000000000E+00  0.14999999963E+04  0.15000000000E+04  0.10566000000E+00 0.  1.
        994   -1    0    0    0    0 -0.00000000000E+00 -0.00000000000E+00  0.11368683772E-12  0.17120000000E+03  0.17120000000E+03 0.  0.
         13    1    1    2    0    0  0.87680298047E+01  0.50046009178E+01  0.41875844916E+02  0.43075769622E+02  0.10566000000E+00 0.  1.
        994    1    1    2    0    0 -0.11042779836E+01 -0.12766252327E+02  0.17630271030E+01  0.17168792879E+03  0.17120000000E+03 0.  0.
        998    1    1    2    0    0 -0.76637518211E+01  0.77616514092E+01  0.14563611243E+04  0.14564363016E+04  0.10000000000E+02 0.  1.
</event>
<event>
 5    1  0.1338396E-008  0.3841577E+03  0.7957747E-01  0.3433252E+00
         13   -1    0    0    0    0  0.00000000000E+00  0.00000000000E+00  0.14999999963E+04  0.15000000000E+04  0.10566000000E+00 0. -1.
        994   -1    0    0    0    0 -0.00000000000E+00 -0.00000000000E+00  0.11368683772E-12  0.17120000000E+03  0.17120000000E+03 0.  0.
         13    1    1    2    0    0 -0.19700739488E+02 -0.27511642849E+01  0.93621637905E+02  0.95711599555E+02  0.10566000000E+00 0. -1.
        994    1    1    2    0    0  0.17272352525E+02 -0.35072420591E+01  0.30739300117E+01  0.17213228621E+03  0.17120000000E+03 0.  0.
        998    1    1    2    0    0  0.24283869631E+01  0.62584063439E+01  0.14033044284E+04  0.14033561142E+04  0.10000000000E+02 0. -1.
</event>
<event>
 5    1  0.1338396E-008  0.3819222E+03  0.7957747E-01  0.3442831E+00
         13   -1    0    0    0    0  0.00000000000E+00  0.00000000000E+00  0.14999999963E+04  0.15000000000E+04  0.10566000000E+00 0.  1.
        994   -1    0    0    0    0 -0.00000000000E+00 -0.00000000000E+00  0.11368683772E-12  0.17120000000E+03  0.17120000000E+03 0.  0.
         13    1    1    2    0    0  0.24769536032E+02  0.10572660503E+02  0.11123732798E+03  0.11445114838E+03  0.10566000000E+00 0.  1.
        994    1    1    2    0    0 -0.16829763773E+02 -0.10774618979E+02  0.44936181469E+01  0.17242089771E+03  0.17120000000E+03 0.  0.
        998    1    1    2    0    0 -0.79397722596E+01  0.20195847602E+00  0.13842690502E+04  0.13843279539E+04  0.10000000000E+02 0.  1.
</event>
<event>
 5    1  0.1338396E-008  0.3777989E+03  0.7957747E-01  0.3460799E+00
         13   -1    0    0    0    0  0.00000000000E+00  0.00000000000E+00  0.14999999963E+04  0.15000000000E+04  0.10566000000E+00 0.  1.
        994   -1    0    0    0    0 -0.00000000000E+00 -0.00000000000E+00  0.11368683772E-12  0.17120000000E+03  0.17120000000E+03 0.  0.
         13    1    1    2    0    0 -0.17478810452E+02 -0.35640408542E+02  0.13612019225E+03  0.14179021630E+03  0.10566000000E+00 0.  1.
        994    1    1    2    0    0  0.25126689910E+02  0.31694457338E+02  0.10776990756E+02  0.17624265290E+03  0.17120000000E+03 0.  0.
        998    1    1    2    0    0 -0.76478794582E+01  0.39459512042E+01  0.13531028133E+04  0.13531671308E+04  0.10000000000E+02 0.  1.
</event>
<event>
 5    1  0.1338396E-008  0.3852238E+03  0.7957747E-01  0.3428723E+00
         13   -1    0    0    0    0  0.00000000000E+00  0.00000000000E+00  0.14999999963E+04  0.15000000000E+04  0.10566000000E+00 0.  1.
        994   -1    0    0    0    0 -0.00000000000E+00 -0.00000000000E+00  0.11368683772E-12  0.17120000000E+03  0.17120000000E+03 0.  0.
         13    1    1    2    0    0  0.16680101884E+02 -0.13622976175E-01  0.86601476201E+02  0.88193269747E+02  0.10566000000E+00 0.  1.
        994    1    1    2    0    0 -0.18604919830E+02  0.49267688129E+01  0.27372730790E+01  0.17230017051E+03  0.17120000000E+03 0.  0.
        998    1    1    2    0    0  0.19248179460E+01 -0.49131458367E+01  0.14106612470E+04  0.14107065597E+04  0.10000000000E+02 0.  1.
</event>
<event>
 5    1  0.1338396E-008  0.3031314E+03  0.7957747E-01  0.3873914E+00
         13   -1    0    0    0    0  0.00000000000E+00  0.00000000000E+00  0.14999999963E+04  0.15000000000E+04  0.10566000000E+00 0. -1.
        994   -1    0    0    0    0 -0.00000000000E+00 -0.00000000000E+00  0.11368683772E-12  0.17120000000E+03  0.17120000000E+03 0.  0.
         13    1    1    2    0    0 -0.15344453441E+03  0.12868173539E+03  0.59922373094E+03  0.63180163426E+03  0.10566000000E+00 0. -1.
        994    1    1    2    0    0  0.17352599358E+03 -0.13616537582E+03  0.21292135516E+03  0.35113704377E+03  0.17120000000E+03 0.  0.
        998    1    1    2    0    0 -0.20081459176E+02  0.74836404280E+01  0.68785491017E+03  0.68826132197E+03  0.10000000000E+02 0. -1.
</event>
<event>
 5    1  0.1338396E-008  0.3852715E+03  0.7957747E-01  0.3428522E+00
         13   -1    0    0    0    0  0.00000000000E+00  0.00000000000E+00  0.14999999963E+04  0.15000000000E+04  0.10566000000E+00 0. -1.
        994   -1    0    0    0    0 -0.00000000000E+00 -0.00000000000E+00  0.11368683772E-12  0.17120000000E+03  0.17120000000E+03 0.  0.
         13    1    1    2    0    0 -0.11136296339E+02  0.13998988149E+02  0.10419744308E+03  0.10572183820E+03  0.10566000000E+00 0. -1.
        994    1    1    2    0    0  0.13576681183E+02 -0.82901610304E+01  0.23273218244E+01  0.17195321884E+03  0.17120000000E+03 0.  0.
        998    1    1    2    0    0 -0.24403848433E+01 -0.57088271181E+01  0.13934752314E+04  0.13935249430E+04  0.10000000000E+02 0. -1.
</event>
<event>
 5    1  0.1338396E-008  0.3787405E+03  0.7957747E-01  0.3456661E+00
         13   -1    0    0    0    0  0.00000000000E+00  0.00000000000E+00  0.14999999963E+04  0.15000000000E+04  0.10566000000E+00 0.  1.
        994   -1    0    0    0    0 -0.00000000000E+00 -0.00000000000E+00  0.11368683772E-12  0.17120000000E+03  0.17120000000E+03 0.  0.
         13    1    1    2    0    0 -0.14538620272E+02 -0.49730549030E+01  0.21899845089E+02  0.26752890189E+02  0.10566000000E+00 0.  1.
        994    1    1    2    0    0  0.23544248563E+02  0.82775602034E+01  0.68639102089E+01  0.17314561186E+03  0.17120000000E+03 0.  0.
        998    1    1    2    0    0 -0.90056282909E+01 -0.33045053005E+01  0.14712362410E+04  0.14713014980E+04  0.10000000000E+02 0.  1.
</event>
<event>
 5    1  0.1338396E-008  0.3765731E+03  0.7957747E-01  0.3466217E+00
         13   -1    0    0    0    0  0.00000000000E+00  0.00000000000E+00  0.14999999963E+04  0.15000000000E+04  0.10566000000E+00 0.  1.
        994   -1    0    0    0    0 -0.00000000000E+00 -0.00000000000E+00  0.11368683772E-12  0.17120000000E+03  0.17120000000E+03 0.  0.
         13    1    1    2    0    0 -0.12322250104E+02  0.17902843206E+02  0.38091520809E+02  0.43855726696E+02  0.10566000000E+00 0.  1.
        994    1    1    2    0    0  0.32902307523E+01 -0.13009075680E+02  0.64821825617E+01  0.17184737519E+03  0.17120000000E+03 0.  0.
        998    1    1    2    0    0  0.90320193517E+01 -0.48937675259E+01  0.14554262929E+04  0.14554968981E+04  0.10000000000E+02 0.  1.
</event>
<event>
 5    1  0.1338396E-008  0.3781786E+03  0.7957747E-01  0.3459128E+00
         13   -1    0    0    0    0  0.00000000000E+00  0.00000000000E+00  0.14999999963E+04  0.15000000000E+04  0.10566000000E+00 0.  1.
        994   -1    0    0    0    0 -0.00000000000E+00 -0.00000000000E+00  0.11368683772E-12  0.17120000000E+03  0.17120000000E+03 0.  0.
         13    1    1    2    0    0  0.56156091130E+01 -0.36835800205E+02  0.13193742089E+03  0.13709815986E+03  0.10566000000E+00 0.  1.
        994    1    1    2    0    0 -0.64842397199E+01  0.26476361743E+02  0.75584191252E+01  0.17352121713E+03  0.17120000000E+03 0.  0.
        998    1    1    2    0    0  0.86863060695E+00  0.10359438461E+02  0.13605041563E+04  0.13605806230E+04  0.10000000000E+02 0.  1.
</event>
<event>
 5    1  0.1338396E-008  0.3808928E+03  0.7957747E-01  0.3447280E+00
         13   -1    0    0    0    0  0.00000000000E+00  0.00000000000E+00  0.14999999963E+04  0.15000000000E+04  0.10566000000E+00 0. -1.
        994   -1    0    0    0    0 -0.00000000000E+00 -0.00000000000E+00  0.11368683772E-12  0.17120000000E+03  0.17120000000E+03 0.  0.
         13    1    1    2    0    0 -0.20827132855E+02 -0.10896816542E+02  0.74148042963E+02  0.77784661167E+02  0.10566000000E+00 0. -1.
        994    1    1    2    0    0  0.12021042695E+02  0.63080821014E+01  0.42976400623E+01  0.17179117287E+03  0.17120000000E+03 0.  0.
        998    1    1    2    0    0  0.88060901597E+01  0.45887344406E+01  0.14215543133E+04  0.14216241660E+04  0.10000000000E+02 0. -1.
</event>
<event>
 5    1  0.1338396E-008  0.3730768E+03  0.7957747E-01  0.3481869E+00
         13   -1    0    0    0    0  0.00000000000E+00  0.00000000000E+00  0.14999999963E+04  0.15000000000E+04  0.10566000000E+00 0. -1.
        994   -1    0    0    0    0 -0.00000000000E+00 -0.00000000000E+00  0.11368683772E-12  0.17120000000E+03  0.17120000000E+03 0.  0.
         13    1    1    2    0    0  0.38574278837E+02 -0.38628483581E+02  0.10618524514E+03  0.11939619836E+03  0.10566000000E+00 0. -1.
        994    1    1    2    0    0 -0.42634659678E+02  0.36222729746E+02  0.23719728121E+02  0.18166415678E+03  0.17120000000E+03 0.  0.
        998    1    1    2    0    0  0.40603808404E+01  0.24057538354E+01  0.13700950230E+04  0.13701396449E+04  0.10000000000E+02 0. -1.
</event>
<event>
 5    1  0.1338396E-008  0.3839014E+03  0.7957747E-01  0.3434345E+00
         13   -1    0    0    0    0  0.00000000000E+00  0.00000000000E+00  0.14999999963E+04  0.15000000000E+04  0.10566000000E+00 0. -1.
        994   -1    0    0    0    0 -0.00000000000E+00 -0.00000000000E+00  0.11368683772E-12  0.17120000000E+03  0.17120000000E+03 0.  0.
         13    1    1    2    0    0  0.49360366224E+01 -0.15923177076E+02  0.64306194622E+02  0.66431994224E+02  0.10566000000E+00 0. -1.
        994    1    1    2    0    0  0.72970970602E+01  0.10972969059E+02  0.27498893577E+01  0.17172843552E+03  0.17120000000E+03 0.  0.
        998    1    1    2    0    0 -0.12233133683E+02  0.49502080166E+01  0.14329439123E+04  0.14330395703E+04  0.10000000000E+02 0. -1.
</event>
<event>
 5    1  0.1338396E-008  0.3846230E+03  0.7957747E-01  0.3431273E+00
         13   -1    0    0    0    0  0.00000000000E+00  0.00000000000E+00  0.14999999963E+04  0.15000000000E+04  0.10566000000E+00 0. -1.
        994   -1    0    0    0    0 -0.00000000000E+00 -0.00000000000E+00  0.11368683772E-12  0.17120000000E+03  0.17120000000E+03 0.  0.
         13    1    1    2    0    0 -0.21247503948E+01 -0.13223961104E+02  0.48969386376E+02  0.50768097046E+02  0.10566000000E+00 0. -1.
        994    1    1    2    0    0 -0.80969771372E+00  0.97800506740E+01  0.21345990939E+01  0.17149431919E+03  0.17120000000E+03 0.  0.
        998    1    1    2    0    0  0.29344481086E+01  0.34439104302E+01  0.14488960108E+04  0.14489375838E+04  0.10000000000E+02 0. -1.
</event>
<event>
 5    1  0.1338396E-008  0.3816104E+03  0.7957747E-01  0.3444176E+00
         13   -1    0    0    0    0  0.00000000000E+00  0.00000000000E+00  0.14999999963E+04  0.15000000000E+04  0.10566000000E+00 0. -1.
        994   -1    0    0    0    0 -0.00000000000E+00 -0.00000000000E+00  0.11368683772E-12  0.17120000000E+03  0.17120000000E+03 0.  0.
         13    1    1    2    0    0  0.65574707759E+01 -0.33978168629E+02  0.18646625001E+03  0.18965017776E+03  0.10566000000E+00 0. -1.
        994    1    1    2    0    0 -0.22623624634E+02  0.11659902440E+02  0.54794320371E+01  0.17316825890E+03  0.17120000000E+03 0.  0.
        998    1    1    2    0    0  0.16066153858E+02  0.22318266189E+02  0.13080543142E+04  0.13083815633E+04  0.10000000000E+02 0. -1.
</event>
<event>
 5    1  0.1338396E-008  0.3781731E+03  0.7957747E-01  0.3459152E+00
         13   -1    0    0    0    0  0.00000000000E+00  0.00000000000E+00  0.14999999963E+04  0.15000000000E+04  0.10566000000E+00 0.  1.
        994   -1    0    0    0    0 -0.00000000000E+00 -0.00000000000E+00  0.11368683772E-12  0.17120000000E+03  0.17120000000E+03 0.  0.
         13    1    1    2    0    0  0.50168501373E+02 -0.37919086599E+02  0.33906535533E+03  0.34484788241E+03  0.10566000000E+00 0.  1.
        994    1    1    2    0    0 -0.46318557285E+02  0.23664413308E+02  0.14211634630E+02  0.17949045592E+03  0.17120000000E+03 0.  0.
        998    1    1    2    0    0 -0.38499440880E+01  0.14254673291E+02  0.11467230063E+04  0.11468616617E+04  0.10000000000E+02 0.  1.
</event>
<event>
 5    1  0.1338396E-008  0.3794105E+03  0.7957747E-01  0.3453730E+00
         13   -1    0    0    0    0  0.00000000000E+00  0.00000000000E+00  0.14999999963E+04  0.15000000000E+04  0.10566000000E+00 0.  1.
        994   -1    0    0    0    0 -0.00000000000E+00 -0.00000000000E+00  0.11368683772E-12  0.17120000000E+03  0.17120000000E+03 0.  0.
         13    1    1    2    0    0 -0.95836566641E+01  0.17980668293E+02  0.47028132556E+02  0.51252388462E+02  0.10566000000E+00 0.  1.
        994    1    1    2    0    0  0.41374162054E+01 -0.82129758611E-01  0.44884021623E+01  0.17130881680E+03  0.17120000000E+03 0.  0.
        998    1    1    2    0    0  0.54462404586E+01 -0.17898538535E+02  0.14484834616E+04  0.14486387947E+04  0.10000000000E+02 0.  1.
</event>
<event>
 5    1  0.1338396E-008  0.3854494E+03  0.7957747E-01  0.3427769E+00
         13   -1    0    0    0    0  0.00000000000E+00  0.00000000000E+00  0.14999999963E+04  0.15000000000E+04  0.10566000000E+00 0.  1.
        994   -1    0    0    0    0 -0.00000000000E+00 -0.00000000000E+00  0.11368683772E-12  0.17120000000E+03  0.17120000000E+03 0.  0.
         13    1    1    2    0    0  0.16460293968E+02  0.46816211515E+01  0.10126046643E+03  0.10269640734E+03  0.10566000000E+00 0.  1.
        994    1    1    2    0    0 -0.15466788993E+02  0.59441447145E+00  0.21943327711E+01  0.17191227410E+03  0.17120000000E+03 0.  0.
        998    1    1    2    0    0 -0.99350497521E+00 -0.52760356229E+01  0.13965451971E+04  0.13965913186E+04  0.10000000000E+02 0.  1.
</event>
<event>
 5    1  0.1338396E-008  0.3807923E+03  0.7957747E-01  0.3447716E+00
         13   -1    0    0    0    0  0.00000000000E+00  0.00000000000E+00  0.14999999963E+04  0.15000000000E+04  0.10566000000E+00 0. -1.
        994   -1    0    0    0    0 -0.00000000000E+00 -0.00000000000E+00  0.11368683772E-12  0.17120000000E+03  0.17120000000E+03 0.  0.
         13    1    1    2    0    0 -0.20798217760E+02 -0.43469544886E+01  0.53552167565E+02  0.57613433244E+02  0.10566000000E+00 0. -1.
        994    1    1    2    0    0  0.38901981871E+02  0.16473265555E+01  0.88051864580E+01  0.17579263121E+03  0.17120000000E+03 0.  0.
        998    1    1    2    0    0 -0.18103764112E+02  0.26996279330E+01  0.14376426423E+04  0.14377939355E+04  0.10000000000E+02 0. -1.
</event>
<event>
 5    1  0.1338396E-008  0.3837311E+03  0.7957747E-01  0.3435072E+00
         13   -1    0    0    0    0  0.00000000000E+00  0.00000000000E+00  0.14999999963E+04  0.15000000000E+04  0.10566000000E+00 0. -1.
        994   -1    0    0    0    0 -0.00000000000E+00 -0.00000000000E+00  0.11368683772E-12  0.17120000000E+03  0.17120000000E+03 0.  0.
         13    1    1    2    0    0 -0.18690246745E+02 -0.23157185873E+01  0.75956574841E+02  0.78256631039E+02  0.10566000000E+00 0. -1.
        994    1    1    2    0    0  0.16333392989E+02  0.14258351301E+01  0.31496040576E+01  0.17201212962E+03  0.17120000000E+03 0.  0.
        998    1    1    2    0    0  0.23568537558E+01  0.88988345724E+00  0.14208938174E+04  0.14209312393E+04  0.10000000000E+02 0. -1.
</event>
<event>
 5    1  0.1338396E-008  0.3789893E+03  0.7957747E-01  0.3455571E+00
         13   -1    0    0    0    0  0.00000000000E+00  0.00000000000E+00  0.14999999963E+04  0.15000000000E+04  0.10566000000E+00 0. -1.
        994   -1    0    0    0    0 -0.00000000000E+00 -0.00000000000E+00  0.11368683772E-12  0.17120000000E+03  0.17120000000E+03 0.  0.
         13    1    1    2    0    0  0.39941781118E+02 -0.30595102662E+01  0.16398966696E+03  0.16881151772E+03  0.10566000000E+00 0. -1.
        994    1    1    2    0    0 -0.29850347246E+02  0.63497211941E+01  0.77744238307E+01  0.17407252470E+03  0.17120000000E+03 0.  0.
        998    1    1    2    0    0 -0.10091433872E+02 -0.32902109279E+01  0.13282359055E+04  0.13283159576E+04  0.10000000000E+02 0. -1.
</event>
<event>
 5    1  0.1338396E-008  0.3785380E+03  0.7957747E-01  0.3457549E+00
         13   -1    0    0    0    0  0.00000000000E+00  0.00000000000E+00  0.14999999963E+04  0.15000000000E+04  0.10566000000E+00 0. -1.
        994   -1    0    0    0    0 -0.00000000000E+00 -0.00000000000E+00  0.11368683772E-12  0.17120000000E+03  0.17120000000E+03 0.  0.
         13    1    1    2    0    0  0.51058951171E+02 -0.51090355950E+02  0.42218641539E+03  0.42832069932E+03  0.10566000000E+00 0. -1.
        994    1    1    2    0    0 -0.47146745558E+02  0.43054797907E+02  0.18690977030E+02  0.18367178298E+03  0.17120000000E+03 0.  0.
        998    1    1    2    0    0 -0.39122056130E+01  0.80355580433E+01  0.10591226039E+04  0.10592075177E+04  0.10000000000E+02 0. -1.
</event>
<event>
 5    1  0.1338396E-008  0.3840334E+03  0.7957747E-01  0.3433782E+00
         13   -1    0    0    0    0  0.00000000000E+00  0.00000000000E+00  0.14999999963E+04  0.15000000000E+04  0.10566000000E+00 0.  1.
        994   -1    0    0    0    0 -0.00000000000E+00 -0.00000000000E+00  0.11368683772E-12  0.17120000000E+03  0.17120000000E+03 0.  0.
         13    1    1    2    0    0  0.16261182589E+02 -0.84074493100E+01  0.83309083100E+02  0.85296692516E+02  0.10566000000E+00 0.  1.
        994    1    1    2    0    0 -0.54252805867E+01 -0.30521642090E+01  0.22386361535E+01  0.17132775860E+03  0.17120000000E+03 0.  0.
        998    1    1    2    0    0 -0.10835902002E+02  0.11459613519E+02  0.14144522770E+04  0.14145755489E+04  0.10000000000E+02 0.  1.
</event>
<event>
 5    1  0.1338396E-008  0.3814949E+03  0.7957747E-01  0.3444675E+00
         13   -1    0    0    0    0  0.00000000000E+00  0.00000000000E+00  0.14999999963E+04  0.15000000000E+04  0.10566000000E+00 0. -1.
        994   -1    0    0    0    0 -0.00000000000E+00 -0.00000000000E+00  0.11368683772E-12  0.17120000000E+03  0.17120000000E+03 0.  0.
         13    1    1    2    0    0 -0.37078577965E+00  0.10071714850E+02  0.13379900705E+02  0.16751412747E+02  0.10566000000E+00 0. -1.
        994    1    1    2    0    0 -0.23142087878E+01 -0.13590467102E+02  0.40128856147E+01  0.17180104659E+03  0.17120000000E+03 0.  0.
        998    1    1    2    0    0  0.26849945675E+01  0.35187522525E+01  0.14826072100E+04  0.14826475407E+04  0.10000000000E+02 0. -1.
</event>
<event>
 5    1  0.1338396E-008  0.3826709E+03  0.7957747E-01  0.3439611E+00
         13   -1    0    0    0    0  0.00000000000E+00  0.00000000000E+00  0.14999999963E+04  0.15000000000E+04  0.10566000000E+00 0. -1.
        994   -1    0    0    0    0 -0.00000000000E+00 -0.00000000000E+00  0.11368683772E-12  0.17120000000E+03  0.17120000000E+03 0.  0.
         13    1    1    2    0    0  0.48710248771E+01  0.89429515867E+01  0.17050644087E+02  0.19860485751E+02  0.10566000000E+00 0. -1.
        994    1    1    2    0    0 -0.11318834295E+02 -0.12038591619E+02  0.36962335287E+01  0.17203530405E+03  0.17120000000E+03 0.  0.
        998    1    1    2    0    0  0.64478094180E+01  0.30956400320E+01  0.14792531187E+04  0.14793042102E+04  0.10000000000E+02 0. -1.
</event>
<event>
 5    1  0.1338396E-008  0.3693381E+03  0.7957747E-01  0.3498938E+00
         13   -1    0    0    0    0  0.00000000000E+00  0.00000000000E+00  0.14999999963E+04  0.15000000000E+04  0.10566000000E+00 0. -1.
        994   -1    0    0    0    0 -0.00000000000E+00 -0.00000000000E+00  0.11368683772E-12  0.17120000000E+03  0.17120000000E+03 0.  0.
         13    1    1    2    0    0 -0.23992182048E+01  0.11189825557E+02  0.23297468148E+01  0.11679354787E+02  0.10566000000E+00 0. -1.
        994    1    1    2    0    0  0.91176892039E+00 -0.10376149599E+02  0.99915323148E+01  0.17180735293E+03  0.17120000000E+03 0.  0.
        998    1    1    2    0    0  0.14874492844E+01 -0.81367595834E+00  0.14876787171E+04  0.14877132923E+04  0.10000000000E+02 0. -1.
</event>
<event>
 5    1  0.1338396E-008  0.3847792E+03  0.7957747E-01  0.3430609E+00
         13   -1    0    0    0    0  0.00000000000E+00  0.00000000000E+00  0.14999999963E+04  0.15000000000E+04  0.10566000000E+00 0. -1.
        994   -1    0    0    0    0 -0.00000000000E+00 -0.00000000000E+00  0.11368683772E-12  0.17120000000E+03  0.17120000000E+03 0.  0.
         13    1    1    2    0    0 -0.22197700931E+02  0.56250534311E+01  0.13344707559E+03  0.13539760818E+03  0.10566000000E+00 0. -1.
        994    1    1    2    0    0  0.24801924078E+02 -0.17271956046E+02  0.47518014634E+01  0.17391226386E+03  0.17120000000E+03 0.  0.
        998    1    1    2    0    0 -0.26042231471E+01  0.11646902614E+02  0.13618011192E+04  0.13618901280E+04  0.10000000000E+02 0. -1.
</event>
<event>
 5    1  0.1338396E-008  0.3821745E+03  0.7957747E-01  0.3441745E+00
         13   -1    0    0    0    0  0.00000000000E+00  0.00000000000E+00  0.14999999963E+04  0.15000000000E+04  0.10566000000E+00 0.  1.
        994   -1    0    0    0    0 -0.00000000000E+00 -0.00000000000E+00  0.11368683772E-12  0.17120000000E+03  0.17120000000E+03 0.  0.
         13    1    1    2    0    0  0.12002543492E+02  0.83488741091E+01  0.34568342633E+02  0.37533268251E+02  0.10566000000E+00 0.  1.
        994    1    1    2    0    0 -0.60412297645E+01 -0.17828412133E+01  0.31711896506E+01  0.17134518208E+03  0.17120000000E+03 0.  0.
        998    1    1    2    0    0 -0.59613137280E+01 -0.65660328958E+01  0.14622604640E+04  0.14623215497E+04  0.10000000000E+02 0.  1.
</event>
<event>
 5    1  0.1338396E-008  0.3856220E+03  0.7957747E-01  0.3427038E+00
         13   -1    0    0    0    0  0.00000000000E+00  0.00000000000E+00  0.14999999963E+04  0.15000000000E+04  0.10566000000E+00 0. -1.
        994   -1    0    0    0    0 -0.00000000000E+00 -0.00000000000E+00  0.11368683772E-12  0.17120000000E+03  0.17120000000E+03 0.  0.
         13    1    1    2    0    0 -0.89217310743E+01 -0.50573420188E+01  0.38797067451E+02  0.40129759537E+02  0.10566000000E+00 0. -1.
        994    1    1    2    0    0  0.39122738472E+01  0.18703832897E+02  0.25209534756E+01  0.17228155577E+03  0.17120000000E+03 0.  0.
        998    1    1    2    0    0  0.50094572272E+01 -0.13646490878E+02  0.14586819754E+04  0.14587886847E+04  0.10000000000E+02 0. -1.
</event>
<event>
 5    1  0.1338396E-008  0.3836581E+03  0.7957747E-01  0.3435383E+00
         13   -1    0    0    0    0  0.00000000000E+00  0.00000000000E+00  0.14999999963E+04  0.15000000000E+04  0.10566000000E+00 0. -1.
        994   -1    0    0    0    0 -0.00000000000E+00 -0.00000000000E+00  0.11368683772E-12  0.17120000000E+03  0.17120000000E+03 0.  0.
         13    1    1    2    0    0 -0.15162192474E+02 -0.23776112210E+01  0.52035600159E+02  0.54251819912E+02  0.10566000000E+00 0. -1.
        994    1    1    2    0    0  0.46313204940E+01  0.88667532163E+00  0.23712709677E+01  0.17128134238E+03  0.17120000000E+03 0.  0.
        998    1    1    2    0    0  0.10530871980E+02  0.14909358994E+01  0.14455931252E+04  0.14456668377E+04  0.10000000000E+02 0. -1.
</event>
<event>
 5    1  0.1338396E-008  0.3829615E+03  0.7957747E-01  0.3438364E+00
         13   -1    0    0    0    0  0.00000000000E+00  0.00000000000E+00  0.14999999963E+04  0.15000000000E+04  0.10566000000E+00 0.  1.
        994   -1    0    0    0    0 -0.00000000000E+00 -0.00000000000E+00  0.11368683772E-12  0.17120000000E+03  0.17120000000E+03 0.  0.
         13    1    1    2    0    0 -0.21713413625E+02  0.42801464190E+02  0.56511614745E+02  0.74141833220E+02  0.10566000000E+00 0.  1.
        994    1    1    2    0    0  0.13072105005E+02 -0.40095275412E+02  0.24507123075E+02  0.17801278078E+03  0.17120000000E+03 0.  0.
        998    1    1    2    0    0  0.86413086198E+01 -0.27061887777E+01  0.14189812585E+04  0.14190453860E+04  0.10000000000E+02 0.  1.
</event>
<event>
 5    1  0.1338396E-008  0.3749271E+03  0.7957747E-01  0.3473549E+00
         13   -1    0    0    0    0  0.00000000000E+00  0.00000000000E+00  0.14999999963E+04  0.15000000000E+04  0.10566000000E+00 0. -1.
        994   -1    0    0    0    0 -0.00000000000E+00 -0.00000000000E+00  0.11368683772E-12  0.17120000000E+03  0.17120000000E+03 0.  0.
         13    1    1    2    0    0 -0.49517638156E+02  0.57660953538E+02  0.42195542297E+03  0.42874604627E+03  0.10566000000E+00 0. -1.
        994    1    1    2    0    0  0.18000542021E+02 -0.44377718730E+02  0.14554088247E+02  0.17836665304E+03  0.17120000000E+03 0.  0.
        998    1    1    2    0    0  0.31517096135E+02 -0.13283234808E+02  0.10634904851E+04  0.10640873007E+04  0.10000000000E+02 0. -1.
</event>
<event>
 5    1  0.1338396E-008  0.3767648E+03  0.7957747E-01  0.3465367E+00
         13   -1    0    0    0    0  0.00000000000E+00  0.00000000000E+00  0.14999999963E+04  0.15000000000E+04  0.10566000000E+00 0.  1.
        994   -1    0    0    0    0 -0.00000000000E+00 -0.00000000000E+00  0.11368683772E-12  0.17120000000E+03  0.17120000000E+03 0.  0.
         13    1    1    2    0    0 -0.15494555940E+02 -0.80528275579E+01  0.23695528261E+02  0.29434988008E+02  0.10566000000E+00 0.  1.
        994    1    1    2    0    0  0.77778588794E+01  0.20854152255E+02  0.74510160692E+01  0.17280147105E+03  0.17120000000E+03 0.  0.
        998    1    1    2    0    0  0.77166970607E+01 -0.12801324697E+02  0.14688534519E+04  0.14689635409E+04  0.10000000000E+02 0.  1.
</event>
<event>
 5    1  0.1338396E-008  0.3715723E+03  0.7957747E-01  0.3488696E+00
         13   -1    0    0    0    0  0.00000000000E+00  0.00000000000E+00  0.14999999963E+04  0.15000000000E+04  0.10566000000E+00 0.  1.
        994   -1    0    0    0    0 -0.00000000000E+00 -0.00000000000E+00  0.11368683772E-12  0.17120000000E+03  0.17120000000E+03 0.  0.
         13    1    1    2    0    0  0.55210465576E+02  0.14840153637E+01  0.19150620159E+03  0.19931140014E+03  0.10566000000E+00 0.  1.
        994    1    1    2    0    0 -0.19300735705E+02 -0.52032316665E+02  0.19116747626E+02  0.18098279039E+03  0.17120000000E+03 0.  0.
        998    1    1    2    0    0 -0.35909729871E+02  0.50548301301E+02  0.12893770471E+04  0.12909058095E+04  0.10000000000E+02 0.  1.
</event>
<event>
 5    1  0.1338396E-008  0.3832746E+03  0.7957747E-01  0.3437023E+00
         13   -1    0    0    0    0  0.00000000000E+00  0.00000000000E+00  0.14999999963E+04  0.15000000000E+04  0.10566000000E+00 0.  1.
        994   -1    0    0    0    0 -0.00000000000E+00 -0.00000000000E+00  0.11368683772E-12  0.17120000000E+03  0.17120000000E+03 0.  0.
         13    1    1    2    0    0  0.33652110319E+01 -0.19084982988E+02  0.73644216457E+02  0.76151447803E+02  0.10566000000E+00 0.  1.
        994    1    1    2    0    0 -0.12908441855E+02  0.13192454798E+02  0.36166235456E+01  0.17223004587E+03  0.17120000000E+03 0.  0.
        998    1    1    2    0    0  0.95432308230E+01  0.58925281896E+01  0.14227391563E+04  0.14228185063E+04  0.10000000000E+02 0.  1.
</event>
<event>
 5    1  0.1338396E-008  0.3836682E+03  0.7957747E-01  0.3435340E+00
         13   -1    0    0    0    0  0.00000000000E+00  0.00000000000E+00  0.14999999963E+04  0.15000000000E+04  0.10566000000E+00 0. -1.
        994   -1    0    0    0    0 -0.00000000000E+00 -0.00000000000E+00  0.11368683772E-12  0.17120000000E+03  0.17120000000E+03 0.  0.
         13    1    1    2    0    0  0.10889100148E+02  0.68847636542E+00  0.25565773116E+02  0.27796877896E+02  0.10566000000E+00 0. -1.
        994    1    1    2    0    0 -0.37977860629E+01  0.86556767665E-01  0.23404836357E+01  0.17125813421E+03  0.17120000000E+03 0.  0.
        998    1    1    2    0    0 -0.70913140849E+01 -0.77503313309E+00  0.14720937395E+04  0.14721449879E+04  0.10000000000E+02 0. -1.
</event>
<event>
 5    1  0.1338396E-008  0.3803529E+03  0.7957747E-01  0.3449623E+00
         13   -1    0    0    0    0  0.00000000000E+00  0.00000000000E+00  0.14999999963E+04  0.15000000000E+04  0.10566000000E+00 0. -1.
        994   -1    0    0    0    0 -0.00000000000E+00 -0.00000000000E+00  0.11368683772E-12  0.17120000000E+03  0.17120000000E+03 0.  0.
         13    1    1    2    0    0 -0.17525060045E+02 -0.50964431022E+02  0.77259319722E+02  0.94199334429E+02  0.10566000000E+00 0. -1.
        994    1    1    2    0    0  0.20708941121E+02  0.54078435010E+02  0.28790250348E+02  0.18300725639E+03  0.17120000000E+03 0.  0.
        998    1    1    2    0    0 -0.31838810760E+01 -0.31140039880E+01  0.13939504262E+04  0.13939934092E+04  0.10000000000E+02 0. -1.
</event>
<event>
 5    1  0.1338396E-008  0.3720752E+03  0.7957747E-01  0.3486408E+00
         13   -1    0    0    0    0  0.00000000000E+00  0.00000000000E+00  0.14999999963E+04  0.15000000000E+04  0.10566000000E+00 0.  1.
        994   -1    0    0    0    0 -0.00000000000E+00 -0.00000000000E+00  0.11368683772E-12  0.17120000000E+03  0.17120000000E+03 0.  0.
         13    1    1    2    0    0 -0.20433750257E+02 -0.60759808378E+02  0.24900774082E+03  0.25712673648E+03  0.10566000000E+00 0.  1.
        994    1    1    2    0    0  0.17159687924E+02  0.32871409019E+02  0.12923544628E+02  0.17564578682E+03  0.17120000000E+03 0.  0.
        998    1    1    2    0    0  0.32740623331E+01  0.27888399359E+02  0.12380687108E+04  0.12384274767E+04  0.10000000000E+02 0.  1.
</event>
<event>
 5    1  0.1338396E-008  0.3832078E+03  0.7957747E-01  0.3437309E+00
         13   -1    0    0    0    0  0.00000000000E+00  0.00000000000E+00  0.14999999963E+04  0.15000000000E+04  0.10566000000E+00 0. -1.
        994   -1    0    0    0    0 -0.00000000000E+00 -0.00000000000E+00  0.11368683772E-12  0.17120000000E+03  0.17120000000E+03 0.  0.
         13    1    1    2    0    0 -0.50077665618E+00 -0.10008142739E+02  0.19485700787E+02  0.21911581356E+02  0.10566000000E+00 0. -1.
        994    1    1    2    0    0 -0.57128273129E+01 -0.12358717150E+01  0.26355641889E+01  0.17132002210E+03  0.17120000000E+03 0.  0.
        998    1    1    2    0    0  0.62136039691E+01  0.11244014454E+02  0.14778787313E+04  0.14779683965E+04  0.10000000000E+02 0. -1.
</event>
<event>
 5    1  0.1338396E-008  0.4272191E+03  0.7957747E-01  0.3268237E+00
         13   -1    0    0    0    0  0.00000000000E+00  0.00000000000E+00  0.14999999963E+04  0.15000000000E+04  0.10566000000E+00 0. -1.
        994   -1    0    0    0    0 -0.00000000000E+00 -0.00000000000E+00  0.11368683772E-12  0.17120000000E+03  0.17120000000E+03 0.  0.
         13    1    1    2    0    0  0.64001023430E+02 -0.27093015161E+02  0.37713197882E+02  0.79072491608E+02  0.10566000000E+00 0. -1.
        994    1    1    2    0    0 -0.63753088508E+02  0.21738531774E+02  0.65487355661E+02  0.19528198537E+03  0.17120000000E+03 0.  0.
        998    1    1    2    0    0 -0.24793492185E+00  0.53544833876E+01  0.13967994427E+04  0.13968455230E+04  0.10000000000E+02 0. -1.
</event>
<event>
 5    1  0.1338396E-008  0.2346046E+03  0.7957747E-01  0.4512078E+00
         13   -1    0    0    0    0  0.00000000000E+00  0.00000000000E+00  0.14999999963E+04  0.15000000000E+04  0.10566000000E+00 0. -1.
        994   -1    0    0    0    0 -0.00000000000E+00 -0.00000000000E+00  0.11368683772E-12  0.17120000000E+03  0.17120000000E+03 0.  0.
         13    1    1    2    0    0  0.54948818925E+02  0.91383598170E+02  0.42024703223E+02  0.11461422931E+03  0.10566000000E+00 0. -1.
        994    1    1    2    0    0  0.58057001989E+02 -0.16821038743E+02  0.13395954163E+03  0.22562837059E+03  0.17120000000E+03 0.  0.
        998    1    1    2    0    0 -0.11300582091E+03 -0.74562559427E+02  0.13240157514E+04  0.13309574001E+04  0.10000000000E+02 0. -1.
</event>
<event>
 5    1  0.1338396E-008  0.3776769E+03  0.7957747E-01  0.3461337E+00
         13   -1    0    0    0    0  0.00000000000E+00  0.00000000000E+00  0.14999999963E+04  0.15000000000E+04  0.10566000000E+00 0. -1.
        994   -1    0    0    0    0 -0.00000000000E+00 -0.00000000000E+00  0.11368683772E-12  0.17120000000E+03  0.17120000000E+03 0.  0.
         13    1    1    2    0    0 -0.28433047628E+02  0.10782477586E+02  0.86218782428E+02  0.91424228888E+02  0.10566000000E+00 0. -1.
        994    1    1    2    0    0  0.15451442969E+02 -0.41415933359E+01  0.61730055341E+01  0.17205651944E+03  0.17120000000E+03 0.  0.
        998    1    1    2    0    0  0.12981604659E+02 -0.66408842499E+01  0.14076082083E+04  0.14077192517E+04  0.10000000000E+02 0. -1.
</event>
<event>
 5    1  0.1338396E-008  0.4200109E+03  0.7957747E-01  0.3293529E+00
         13   -1    0    0    0    0  0.00000000000E+00  0.00000000000E+00  0.14999999963E+04  0.15000000000E+04  0.10566000000E+00 0.  1.
        994   -1    0    0    0    0 -0.00000000000E+00 -0.00000000000E+00  0.11368683772E-12  0.17120000000E+03  0.17120000000E+03 0.  0.
         13    1    1    2    0    0 -0.56981481787E+02  0.74758651628E+01  0.20945051603E+02  0.61167672649E+02  0.10566000000E+00 0.  1.
        994    1    1    2    0    0  0.11167085474E+03 -0.21205021428E+01  0.95969432859E+02  0.22581950397E+03  0.17120000000E+03 0.  0.
        998    1    1    2    0    0 -0.54689372955E+02 -0.53553630200E+01  0.13830855118E+04  0.13842128234E+04  0.10000000000E+02 0.  1.
</event>
<event>
 5    1  0.1374265E-008  0.3857334E+03  0.7957747E-01  0.3426568E+00
         13   -1    0    0    0    0  0.00000000000E+00  0.00000000000E+00  0.14999999963E+04  0.15000000000E+04  0.10566000000E+00 0.  1.
        994   -1    0    0    0    0 -0.00000000000E+00 -0.00000000000E+00  0.11368683772E-12  0.17120000000E+03  0.17120000000E+03 0.  0.
         13    1    1    2    0    0  0.12522667916E+02  0.84620440082E+01  0.87959911870E+02  0.89248981287E+02  0.10566000000E+00 0.  1.
        994    1    1    2    0    0 -0.93630315362E+01 -0.10717335839E+02  0.19311973172E+01  0.17180133052E+03  0.17120000000E+03 0.  0.
        998    1    1    2    0    0 -0.31596363794E+01  0.22552918308E+01  0.14101088871E+04  0.14101496882E+04  0.10000000000E+02 0.  1.
</event>
<event>
 5    1  0.1338396E-008  0.4187839E+03  0.7957747E-01  0.3297919E+00
         13   -1    0    0    0    0  0.00000000000E+00  0.00000000000E+00  0.14999999963E+04  0.15000000000E+04  0.10566000000E+00 0.  1.
        994   -1    0    0    0    0 -0.00000000000E+00 -0.00000000000E+00  0.11368683772E-12  0.17120000000E+03  0.17120000000E+03 0.  0.
         13    1    1    2    0    0  0.21245778953E+02  0.69225438370E+02  0.51164898155E+02  0.88664549895E+02  0.10566000000E+00 0.  1.
        994    1    1    2    0    0 -0.24770551859E+02 -0.71202843842E+02  0.64074978081E+02  0.19773332553E+03  0.17120000000E+03 0.  0.
        998    1    1    2    0    0  0.35247729064E+01  0.19774054712E+01  0.13847601200E+04  0.13848021246E+04  0.10000000000E+02 0.  0.
</event>
<event>
 5    1  0.1338396E-008  0.4222738E+03  0.7957747E-01  0.3285498E+00
         13   -1    0    0    0    0  0.00000000000E+00  0.00000000000E+00  0.14999999963E+04  0.15000000000E+04  0.10566000000E+00 0.  1.
        994   -1    0    0    0    0 -0.00000000000E+00 -0.00000000000E+00  0.11368683772E-12  0.17120000000E+03  0.17120000000E+03 0.  0.
         13    1    1    2    0    0 -0.20997204557E+02 -0.12601150975E+02 -0.10536714404E+02  0.26659053238E+02  0.10566000000E+00 0.  1.
        994    1    1    2    0    0  0.20560979879E+02  0.26210450004E+02  0.46630063568E+02  0.18053682287E+03  0.17120000000E+03 0.  0.
        998    1    1    2    0    0  0.43622467788E+00 -0.13609299029E+02  0.14639066471E+04  0.14640041239E+04  0.10000000000E+02 0.  1.
</event>
<event>
 5    1  0.1338396E-008  0.3840713E+03  0.7957747E-01  0.3433621E+00
         13   -1    0    0    0    0  0.00000000000E+00  0.00000000000E+00  0.14999999963E+04  0.15000000000E+04  0.10566000000E+00 0.  1.
        994   -1    0    0    0    0 -0.00000000000E+00 -0.00000000000E+00  0.11368683772E-12  0.17120000000E+03  0.17120000000E+03 0.  0.
         13    1    1    2    0    0 -0.10628278457E+01  0.22997136921E+02  0.13490461722E+03  0.13685490427E+03  0.10566000000E+00 0.  1.
        994    1    1    2    0    0  0.96160061139E+01 -0.58328248068E+01  0.25092917795E+01  0.17158737123E+03  0.17120000000E+03 0.  0.
        998    1    1    2    0    0 -0.85531782682E+01 -0.17164312114E+02  0.13625860873E+04  0.13627577245E+04  0.10000000000E+02 0.  1.
</event>
<event>
 5    1  0.1338396E-008  0.3807255E+03  0.7957747E-01  0.3448006E+00
         13   -1    0    0    0    0  0.00000000000E+00  0.00000000000E+00  0.14999999963E+04  0.15000000000E+04  0.10566000000E+00 0. -1.
        994   -1    0    0    0    0 -0.00000000000E+00 -0.00000000000E+00  0.11368683772E-12  0.17120000000E+03  0.17120000000E+03 0.  0.
         13    1    1    2    0    0 -0.32736090525E+02  0.71492632003E+01  0.16128011938E+03  0.16472416841E+03  0.10566000000E+00 0. -1.
        994    1    1    2    0    0  0.66866156881E+01 -0.25817309844E+01  0.39387196352E+01  0.17139524403E+03  0.17120000000E+03 0.  0.
        998    1    1    2    0    0  0.26049474837E+02 -0.45675322158E+01  0.13347811573E+04  0.13350805876E+04  0.10000000000E+02 0. -1.
</event>
<event>
 5    1  0.1338396E-008  0.3712538E+03  0.7957747E-01  0.3490148E+00
         13   -1    0    0    0    0  0.00000000000E+00  0.00000000000E+00  0.14999999963E+04  0.15000000000E+04  0.10566000000E+00 0.  1.
        994   -1    0    0    0    0 -0.00000000000E+00 -0.00000000000E+00  0.11368683772E-12  0.17120000000E+03  0.17120000000E+03 0.  0.
         13    1    1    2    0    0 -0.63864823391E+02  0.60741472555E+02  0.39093246970E+03  0.40074486795E+03  0.10566000000E+00 0.  1.
        994    1    1    2    0    0  0.42632168280E+02 -0.54020230697E+02  0.25099871218E+02  0.18621259526E+03  0.17120000000E+03 0.  0.
        998    1    1    2    0    0  0.21232655112E+02 -0.67212418580E+01  0.10839676554E+04  0.10842425368E+04  0.10000000000E+02 0.  1.
</event>
<event>
 5    1  0.1338396E-008  0.3847819E+03  0.7957747E-01  0.3430598E+00
         13   -1    0    0    0    0  0.00000000000E+00  0.00000000000E+00  0.14999999963E+04  0.15000000000E+04  0.10566000000E+00 0.  1.
        994   -1    0    0    0    0 -0.00000000000E+00 -0.00000000000E+00  0.11368683772E-12  0.17120000000E+03  0.17120000000E+03 0.  0.
         13    1    1    2    0    0  0.48093167732E+01  0.14578174130E+02  0.68748190296E+02  0.70441305509E+02  0.10566000000E+00 0.  1.
        994    1    1    2    0    0 -0.11307157449E+02 -0.43821886735E+01  0.22225816609E+01  0.17164333735E+03  0.17120000000E+03 0.  0.
        998    1    1    2    0    0  0.64978406758E+01 -0.10195985457E+02  0.14290292243E+04  0.14291153571E+04  0.10000000000E+02 0.  1.
</event>
<event>
 5    1  0.1338396E-008  0.3714408E+03  0.7957747E-01  0.3489295E+00
         13   -1    0    0    0    0  0.00000000000E+00  0.00000000000E+00  0.14999999963E+04  0.15000000000E+04  0.10566000000E+00 0. -1.
        994   -1    0    0    0    0 -0.00000000000E+00 -0.00000000000E+00  0.11368683772E-12  0.17120000000E+03  0.17120000000E+03 0.  0.
         13    1    1    2    0    0 -0.12855462351E+02 -0.48040066864E+02  0.11757390702E+03  0.12765870794E+03  0.10566000000E+00 0. -1.
        994    1    1    2    0    0  0.70506152708E+01 -0.98550849241E+01  0.12218813212E+02  0.17206270157E+03  0.17120000000E+03 0.  0.
        998    1    1    2    0    0  0.58048470805E+01  0.57895151788E+02  0.13702072760E+04  0.13714785905E+04  0.10000000000E+02 0. -1.
</event>
<event>
 5    1  0.1338396E-008  0.3726140E+03  0.7957747E-01  0.3483963E+00
         13   -1    0    0    0    0  0.00000000000E+00  0.00000000000E+00  0.14999999963E+04  0.15000000000E+04  0.10566000000E+00 0.  1.
        994   -1    0    0    0    0 -0.00000000000E+00 -0.00000000000E+00  0.11368683772E-12  0.17120000000E+03  0.17120000000E+03 0.  0.
         13    1    1    2    0    0  0.30274565509E+02  0.51786217991E+02  0.26781635022E+03  0.27445212752E+03  0.10566000000E+00 0.  1.
        994    1    1    2    0    0 -0.13981260985E+02 -0.20206734926E+01  0.85932270995E+01  0.17199663465E+03  0.17120000000E+03 0.  0.
        998    1    1    2    0    0 -0.16293304524E+02 -0.49765544498E+02  0.12235904190E+04  0.12247512378E+04  0.10000000000E+02 0.  1.
</event>
<event>
 5    1  0.1338396E-008  0.3845257E+03  0.7957747E-01  0.3431686E+00
         13   -1    0    0    0    0  0.00000000000E+00  0.00000000000E+00  0.14999999963E+04  0.15000000000E+04  0.10566000000E+00 0.  1.
        994   -1    0    0    0    0 -0.00000000000E+00 -0.00000000000E+00  0.11368683772E-12  0.17120000000E+03  0.17120000000E+03 0.  0.
         13    1    1    2    0    0  0.13878408637E+02 -0.21197915666E+02  0.14919948930E+03  0.15133558942E+03  0.10566000000E+00 0.  1.
        994    1    1    2    0    0 -0.21696725060E+02  0.23246419995E+02  0.52033192766E+01  0.17420579340E+03  0.17120000000E+03 0.  0.
        998    1    1    2    0    0  0.78183164231E+01 -0.20485043295E+01  0.13455971877E+04  0.13456586172E+04  0.10000000000E+02 0.  1.
</event>
<event>
 5    1  0.1508702E-008  0.3860613E+03  0.7957747E-01  0.3425183E+00
         13   -1    0    0    0    0  0.00000000000E+00  0.00000000000E+00  0.14999999963E+04  0.15000000000E+04  0.10566000000E+00 0. -1.
        994   -1    0    0    0    0 -0.00000000000E+00 -0.00000000000E+00  0.11368683772E-12  0.17120000000E+03  0.17120000000E+03 0.  0.
         13    1    1    2    0    0 -0.40743506346E+01  0.13473191553E+02  0.70057227158E+02  0.71457354169E+02  0.10566000000E+00 0. -1.
        994    1    1    2    0    0  0.17455908322E+02 -0.40345641300E+02  0.74633348076E+01  0.17691133619E+03  0.17120000000E+03 0.  0.
        998    1    1    2    0    0 -0.13381557688E+02  0.26872449747E+02  0.14224794343E+04  0.14228313096E+04  0.10000000000E+02 0. -1.
</event>
<event>
 5    1  0.1338396E-008  0.3783647E+03  0.7957747E-01  0.3458310E+00
         13   -1    0    0    0    0  0.00000000000E+00  0.00000000000E+00  0.14999999963E+04  0.15000000000E+04  0.10566000000E+00 0. -1.
        994   -1    0    0    0    0 -0.00000000000E+00 -0.00000000000E+00  0.11368683772E-12  0.17120000000E+03  0.17120000000E+03 0.  0.
         13    1    1    2    0    0 -0.37783671961E+02  0.28084164579E+02  0.19461318041E+03  0.20022644011E+03  0.10566000000E+00 0. -1.
        994    1    1    2    0    0  0.32219990376E+02 -0.35539672914E+02  0.12734695417E+02  0.17824928779E+03  0.17120000000E+03 0.  0.
        998    1    1    2    0    0  0.55636815850E+01  0.74555083356E+01  0.12926521205E+04  0.12927242721E+04  0.10000000000E+02 0. -1.
</event>
<event>
 5    1  0.1338396E-008  0.3794351E+03  0.7957747E-01  0.3453622E+00
         13   -1    0    0    0    0  0.00000000000E+00  0.00000000000E+00  0.14999999963E+04  0.15000000000E+04  0.10566000000E+00 0. -1.
        994   -1    0    0    0    0 -0.00000000000E+00 -0.00000000000E+00  0.11368683772E-12  0.17120000000E+03  0.17120000000E+03 0.  0.
         13    1    1    2    0    0  0.11241687187E+02  0.12018332699E+02  0.28156506496E+02  0.32613124256E+02  0.10566000000E+00 0. -1.
        994    1    1    2    0    0 -0.10005325901E+02 -0.17548833706E+02  0.57864266874E+01  0.17248475540E+03  0.17120000000E+03 0.  0.
        998    1    1    2    0    0 -0.12363612863E+01  0.55305010076E+01  0.14660570631E+04  0.14661021203E+04  0.10000000000E+02 0. -1.
</event>
<event>
 5    1  0.1338396E-008  0.3833373E+03  0.7957747E-01  0.3436755E+00
         13   -1    0    0    0    0  0.00000000000E+00  0.00000000000E+00  0.14999999963E+04  0.15000000000E+04  0.10566000000E+00 0. -1.
        994   -1    0    0    0    0 -0.00000000000E+00 -0.00000000000E+00  0.11368683772E-12  0.17120000000E+03  0.17120000000E+03 0.  0.
         13    1    1    2    0    0 -0.79714682080E+00 -0.15912242567E+02  0.49163521474E+02  0.51680730590E+02  0.10566000000E+00 0. -1.
        994    1    1    2    0    0 -0.47217741460E+01  0.18569701001E+02  0.36727508880E+01  0.17230803245E+03  0.17120000000E+03 0.  0.
        998    1    1    2    0    0  0.55189209668E+01 -0.26574584345E+01  0.14471637239E+04  0.14472112370E+04  0.10000000000E+02 0. -1.
</event>
<event>
 5    1  0.1338396E-008  0.3758740E+03  0.7957747E-01  0.3469323E+00
         13   -1    0    0    0    0  0.00000000000E+00  0.00000000000E+00  0.14999999963E+04  0.15000000000E+04  0.10566000000E+00 0. -1.
        994   -1    0    0    0    0 -0.00000000000E+00 -0.00000000000E+00  0.11368683772E-12  0.17120000000E+03  0.17120000000E+03 0.  0.
         13    1    1    2    0    0  0.15706176126E+01  0.14264834400E+02  0.13890848053E+02  0.19972960817E+02  0.10566000000E+00 0. -1.
        994    1    1    2    0    0  0.51688556894E+01 -0.75666427482E+01  0.65152293526E+01  0.17156881816E+03  0.17120000000E+03 0.  0.
        998    1    1    2    0    0 -0.67394733021E+01 -0.66981916515E+01  0.14795939189E+04  0.14796582210E+04  0.10000000000E+02 0. -1.
</event>
<event>
 5    1  0.1338396E-008  0.3931489E+03  0.7957747E-01  0.3395830E+00
         13   -1    0    0    0    0  0.00000000000E+00  0.00000000000E+00  0.14999999963E+04  0.15000000000E+04  0.10566000000E+00 0.  1.
        994   -1    0    0    0    0 -0.00000000000E+00 -0.00000000000E+00  0.11368683772E-12  0.17120000000E+03  0.17120000000E+03 0.  0.
         13    1    1    2    0    0 -0.18432309671E+01 -0.26470451349E+02  0.45447681914E+01  0.26921151108E+02  0.10566000000E+00 0.  1.
        994    1    1    2    0    0  0.32270703793E+00  0.27883116999E+02  0.26712853427E+02  0.17550096550E+03  0.17120000000E+03 0.  0.
        998    1    1    2    0    0  0.15205239292E+01 -0.14126656494E+01  0.14687423747E+04  0.14687778834E+04  0.10000000000E+02 0.  1.
</event>
<event>
 5    1  0.1338396E-008  0.3789331E+03  0.7957747E-01  0.3455817E+00
         13   -1    0    0    0    0  0.00000000000E+00  0.00000000000E+00  0.14999999963E+04  0.15000000000E+04  0.10566000000E+00 0.  1.
        994   -1    0    0    0    0 -0.00000000000E+00 -0.00000000000E+00  0.11368683772E-12  0.17120000000E+03  0.17120000000E+03 0.  0.
         13    1    1    2    0    0  0.20276872906E+02 -0.44789074682E+01  0.45003334363E+02  0.49563327721E+02  0.10566000000E+00 0.  1.
        994    1    1    2    0    0 -0.97083735036E+01 -0.46264818741E+00  0.49896583566E+01  0.17154825342E+03  0.17120000000E+03 0.  0.
        998    1    1    2    0    0 -0.10568499402E+02  0.49415556556E+01  0.14500070036E+04  0.14500884189E+04  0.10000000000E+02 0.  1.
</event>
<event>
 5    1  0.1338396E-008  0.3833734E+03  0.7957747E-01  0.3436600E+00
         13   -1    0    0    0    0  0.00000000000E+00  0.00000000000E+00  0.14999999963E+04  0.15000000000E+04  0.10566000000E+00 0.  1.
        994   -1    0    0    0    0 -0.00000000000E+00 -0.00000000000E+00  0.11368683772E-12  0.17120000000E+03  0.17120000000E+03 0.  0.
         13    1    1    2    0    0  0.17943406627E+02  0.19897590438E+02  0.14073925503E+03  0.14326698509E+03  0.10566000000E+00 0.  1.
        994    1    1    2    0    0 -0.86567680330E+01 -0.20960419835E+02  0.41419742822E+01  0.17274511508E+03  0.17120000000E+03 0.  0.
        998    1    1    2    0    0 -0.92866385943E+01  0.10628293968E+01  0.13551187670E+04  0.13551878998E+04  0.10000000000E+02 0.  1.
</event>
<event>
 5    1  0.1338396E-008  0.3725223E+03  0.7957747E-01  0.3484379E+00
         13   -1    0    0    0    0  0.00000000000E+00  0.00000000000E+00  0.14999999963E+04  0.15000000000E+04  0.10566000000E+00 0.  1.
        994   -1    0    0    0    0 -0.00000000000E+00 -0.00000000000E+00  0.11368683772E-12  0.17120000000E+03  0.17120000000E+03 0.  0.
         13    1    1    2    0    0  0.28907977784E+02 -0.51815617389E+01  0.31474942784E+02  0.43048843758E+02  0.10566000000E+00 0.  1.
        994    1    1    2    0    0  0.69102411861E+01  0.46200773934E+02  0.20015943557E+02  0.17858426846E+03  0.17120000000E+03 0.  0.
        998    1    1    2    0    0 -0.35818218970E+02 -0.41019212195E+02  0.14485091099E+04  0.14495668878E+04  0.10000000000E+02 0.  1.
</event>
<event>
 5    1  0.1338396E-008  0.3803617E+03  0.7957747E-01  0.3449585E+00
         13   -1    0    0    0    0  0.00000000000E+00  0.00000000000E+00  0.14999999963E+04  0.15000000000E+04  0.10566000000E+00 0. -1.
        994   -1    0    0    0    0 -0.00000000000E+00 -0.00000000000E+00  0.11368683772E-12  0.17120000000E+03  0.17120000000E+03 0.  0.
         13    1    1    2    0    0 -0.28099447107E+02 -0.22925551704E+02  0.18625599930E+03  0.18975370428E+03  0.10566000000E+00 0. -1.
        994    1    1    2    0    0  0.98274522544E+01 -0.41950422698E+01  0.43319883098E+01  0.17158782976E+03  0.17120000000E+03 0.  0.
        998    1    1    2    0    0  0.18271994852E+02  0.27120593974E+02  0.13094120087E+04  0.13098584660E+04  0.10000000000E+02 0. -1.
</event>
<event>
 5    1  0.1338396E-008  0.3837418E+03  0.7957747E-01  0.3435026E+00
         13   -1    0    0    0    0  0.00000000000E+00  0.00000000000E+00  0.14999999963E+04  0.15000000000E+04  0.10566000000E+00 0. -1.
        994   -1    0    0    0    0 -0.00000000000E+00 -0.00000000000E+00  0.11368683772E-12  0.17120000000E+03  0.17120000000E+03 0.  0.
         13    1    1    2    0    0  0.19834555493E+02 -0.22887848357E+01  0.82641449119E+02  0.85019223733E+02  0.10566000000E+00 0. -1.
        994    1    1    2    0    0 -0.22248481390E+02  0.53335674075E+01  0.39864644031E+01  0.17276797667E+03  0.17120000000E+03 0.  0.
        998    1    1    2    0    0  0.24139258975E+01 -0.30447825718E+01  0.14133720828E+04  0.14134127996E+04  0.10000000000E+02 0. -1.
</event>
<event>
 5    1  0.1338396E-008  0.3838419E+03  0.7957747E-01  0.3434599E+00
         13   -1    0    0    0    0  0.00000000000E+00  0.00000000000E+00  0.14999999963E+04  0.15000000000E+04  0.10566000000E+00 0. -1.
        994   -1    0    0    0    0 -0.00000000000E+00 -0.00000000000E+00  0.11368683772E-12  0.17120000000E+03  0.17120000000E+03 0.  0.
         13    1    1    2    0    0 -0.23213291704E+01 -0.11596483190E+02  0.30405396961E+02  0.32624627506E+02  0.10566000000E+00 0. -1.
        994    1    1    2    0    0  0.43924319199E+01  0.12970797310E+02  0.28254953812E+01  0.17177007442E+03  0.17120000000E+03 0.  0.
        998    1    1    2    0    0 -0.20711027494E+01 -0.13743141197E+01  0.14667691039E+04  0.14668052981E+04  0.10000000000E+02 0. -1.
</event>
<event>
 5    1  0.1338396E-008  0.3748042E+03  0.7957747E-01  0.3474099E+00
         13   -1    0    0    0    0  0.00000000000E+00  0.00000000000E+00  0.14999999963E+04  0.15000000000E+04  0.10566000000E+00 0.  1.
        994   -1    0    0    0    0 -0.00000000000E+00 -0.00000000000E+00  0.11368683772E-12  0.17120000000E+03  0.17120000000E+03 0.  0.
         13    1    1    2    0    0  0.16907501103E+02  0.51154840311E+02  0.95368585973E+02  0.10953474168E+03  0.10566000000E+00 0.  1.
        994    1    1    2    0    0 -0.16198707290E+02 -0.55800112646E+02  0.25606032415E+02  0.18259561765E+03  0.17120000000E+03 0.  0.
        998    1    1    2    0    0 -0.70879381354E+00  0.46452723353E+01  0.13790253779E+04  0.13790696407E+04  0.10000000000E+02 0.  1.
</event>
<event>
 5    1  0.1451598E-008  0.3854348E+03  0.7957747E-01  0.3427830E+00
         13   -1    0    0    0    0  0.00000000000E+00  0.00000000000E+00  0.14999999963E+04  0.15000000000E+04  0.10566000000E+00 0. -1.
        994   -1    0    0    0    0 -0.00000000000E+00 -0.00000000000E+00  0.11368683772E-12  0.17120000000E+03  0.17120000000E+03 0.  0.
         13    1    1    2    0    0 -0.98182555780E+01 -0.29354953584E+01  0.36833848528E+02  0.38232954856E+02  0.10566000000E+00 0. -1.
        994    1    1    2    0    0  0.91363382619E+01 -0.11551104255E+00  0.16886262631E+01  0.17145196843E+03  0.17120000000E+03 0.  0.
        998    1    1    2    0    0  0.68191731618E+00  0.30510064009E+01  0.14614775215E+04  0.14615150767E+04  0.10000000000E+02 0. -1.
</event>
<event>
 5    1  0.1338396E-008  0.3754246E+03  0.7957747E-01  0.3471326E+00
         13   -1    0    0    0    0  0.00000000000E+00  0.00000000000E+00  0.14999999963E+04  0.15000000000E+04  0.10566000000E+00 0.  1.
        994   -1    0    0    0    0 -0.00000000000E+00 -0.00000000000E+00  0.11368683772E-12  0.17120000000E+03  0.17120000000E+03 0.  0.
         13    1    1    2    0    0  0.51775906581E+01 -0.14369301053E+02  0.15090869612E+02  0.21471603747E+02  0.10566000000E+00 0.  1.
        994    1    1    2    0    0 -0.11876489284E+02  0.11346772105E+02  0.73771547457E+01  0.17214430762E+03  0.17120000000E+03 0.  0.
        998    1    1    2    0    0  0.66988986263E+01  0.30225289482E+01  0.14775319719E+04  0.14775840886E+04  0.10000000000E+02 0.  1.
</event>
<event>
 5    1  0.1338396E-008  0.3836287E+03  0.7957747E-01  0.3435509E+00
         13   -1    0    0    0    0  0.00000000000E+00  0.00000000000E+00  0.14999999963E+04  0.15000000000E+04  0.10566000000E+00 0.  1.
        994   -1    0    0    0    0 -0.00000000000E+00 -0.00000000000E+00  0.11368683772E-12  0.17120000000E+03  0.17120000000E+03 0.  0.
         13    1    1    2    0    0 -0.16524601333E+02  0.36866108068E+01  0.62175269745E+02  0.64439342644E+02  0.10566000000E+00 0.  1.
        994    1    1    2    0    0  0.98309661586E+01  0.39658475205E+01  0.26838004698E+01  0.17154888116E+03  0.17120000000E+03 0.  0.
        998    1    1    2    0    0  0.66936351742E+01 -0.76524583272E+01  0.14351409261E+04  0.14352117762E+04  0.10000000000E+02 0.  1.
</event>
<event>
 5    1  0.1338396E-008  0.3835602E+03  0.7957747E-01  0.3435802E+00
         13   -1    0    0    0    0  0.00000000000E+00  0.00000000000E+00  0.14999999963E+04  0.15000000000E+04  0.10566000000E+00 0. -1.
        994   -1    0    0    0    0 -0.00000000000E+00 -0.00000000000E+00  0.11368683772E-12  0.17120000000E+03  0.17120000000E+03 0.  0.
         13    1    1    2    0    0 -0.13516269327E+02 -0.10155032524E+02  0.55779222710E+02  0.58285050161E+02  0.10566000000E+00 0. -1.
        994    1    1    2    0    0  0.20629130748E+02  0.17235920398E+02  0.47379586085E+01  0.17336241299E+03  0.17120000000E+03 0.  0.
        998    1    1    2    0    0 -0.71128614207E+01 -0.70808878739E+01  0.14394828150E+04  0.14395525368E+04  0.10000000000E+02 0. -1.
</event>
<event>
 5    1  0.1338396E-008  0.3807175E+03  0.7957747E-01  0.3448040E+00
         13   -1    0    0    0    0  0.00000000000E+00  0.00000000000E+00  0.14999999963E+04  0.15000000000E+04  0.10566000000E+00 0.  1.
        994   -1    0    0    0    0 -0.00000000000E+00 -0.00000000000E+00  0.11368683772E-12  0.17120000000E+03  0.17120000000E+03 0.  0.
         13    1    1    2    0    0 -0.10789116236E+02 -0.39737335290E+02  0.23148221041E+03  0.23511589854E+03  0.10566000000E+00 0.  1.
        994    1    1    2    0    0  0.14869552422E+02  0.16331419324E+02  0.53999583129E+01  0.17270326689E+03  0.17120000000E+03 0.  0.
        998    1    1    2    0    0 -0.40804361865E+01  0.23405915966E+02  0.12631178276E+04  0.12633808346E+04  0.10000000000E+02 0.  1.
</event>
<event>
 5    1  0.1338396E-008  0.2562480E+03  0.7957747E-01  0.4268196E+00
         13   -1    0    0    0    0  0.00000000000E+00  0.00000000000E+00  0.14999999963E+04  0.15000000000E+04  0.10566000000E+00 0.  1.
        994   -1    0    0    0    0 -0.00000000000E+00 -0.00000000000E+00  0.11368683772E-12  0.17120000000E+03  0.17120000000E+03 0.  0.
         13    1    1    2    0    0  0.70805108592E+02 -0.49107834361E+02 -0.16920547496E+02  0.87813773920E+02  0.10566000000E+00 0.  1.
        994    1    1    2    0    0 -0.72861754922E+02  0.62332948166E+02  0.25695681986E+03  0.32331173661E+03  0.17120000000E+03 0.  0.
        998    1    1    2    0    0  0.20566463299E+01 -0.13225113805E+02  0.12599637239E+04  0.12600744895E+04  0.10000000000E+02 0.  1.
</event>
<event>
 5    1  0.1338396E-008  0.3845576E+03  0.7957747E-01  0.3431551E+00
         13   -1    0    0    0    0  0.00000000000E+00  0.00000000000E+00  0.14999999963E+04  0.15000000000E+04  0.10566000000E+00 0. -1.
        994   -1    0    0    0    0 -0.00000000000E+00 -0.00000000000E+00  0.11368683772E-12  0.17120000000E+03  0.17120000000E+03 0.  0.
         13    1    1    2    0    0 -0.11833095112E+02  0.56757618861E+01  0.47948549406E+02  0.49712281853E+02  0.10566000000E+00 0. -1.
        994    1    1    2    0    0  0.31174066940E+01  0.19620969042E+01  0.18946133874E+01  0.17125010251E+03  0.17120000000E+03 0.  0.
        998    1    1    2    0    0  0.87156884180E+01 -0.76378587903E+01  0.14501568335E+04  0.14502376156E+04  0.10000000000E+02 0. -1.
</event>
<event>
 5    1  0.1338396E-008  0.3840957E+03  0.7957747E-01  0.3433516E+00
         13   -1    0    0    0    0  0.00000000000E+00  0.00000000000E+00  0.14999999963E+04  0.15000000000E+04  0.10566000000E+00 0.  1.
        994   -1    0    0    0    0 -0.00000000000E+00 -0.00000000000E+00  0.11368683772E-12  0.17120000000E+03  0.17120000000E+03 0.  0.
         13    1    1    2    0    0  0.13986545592E+02 -0.36160165219E+01  0.47186907310E+02  0.49348904938E+02  0.10566000000E+00 0.  1.
        994    1    1    2    0    0 -0.10018199597E+02  0.48504732291E+02  0.10213117296E+02  0.17851280386E+03  0.17120000000E+03 0.  0.
        998    1    1    2    0    0 -0.39683459949E+01 -0.44888715769E+02  0.14425999717E+04  0.14433382912E+04  0.10000000000E+02 0.  1.
</event>
<event>
 5    1  0.1338396E-008  0.3752269E+03  0.7957747E-01  0.3472209E+00
         13   -1    0    0    0    0  0.00000000000E+00  0.00000000000E+00  0.14999999963E+04  0.15000000000E+04  0.10566000000E+00 0. -1.
        994   -1    0    0    0    0 -0.00000000000E+00 -0.00000000000E+00  0.11368683772E-12  0.17120000000E+03  0.17120000000E+03 0.  0.
         13    1    1    2    0    0 -0.79569633080E+00 -0.45818108780E+02  0.11575930105E+03  0.12449963521E+03  0.10566000000E+00 0. -1.
        994    1    1    2    0    0  0.38033098914E+02  0.95800170497E+02  0.43550028851E+02  0.20452441002E+03  0.17120000000E+03 0.  0.
        998    1    1    2    0    0 -0.37237402583E+02 -0.49982061716E+02  0.13406906664E+04  0.13421759548E+04  0.10000000000E+02 0. -1.
</event>
<event>
 5    1  0.1338396E-008  0.3793197E+03  0.7957747E-01  0.3454126E+00
         13   -1    0    0    0    0  0.00000000000E+00  0.00000000000E+00  0.14999999963E+04  0.15000000000E+04  0.10566000000E+00 0. -1.
        994   -1    0    0    0    0 -0.00000000000E+00 -0.00000000000E+00  0.11368683772E-12  0.17120000000E+03  0.17120000000E+03 0.  0.
         13    1    1    2    0    0 -0.35850413836E+01 -0.11199798889E+02  0.13387080265E+02  0.17818897243E+02  0.10566000000E+00 0. -1.
        994    1    1    2    0    0  0.20552421764E+00  0.12225768087E+02  0.49780463139E+01  0.17170827758E+03  0.17120000000E+03 0.  0.
        998    1    1    2    0    0  0.33795171660E+01 -0.10259691976E+01  0.14816348697E+04  0.14816728252E+04  0.10000000000E+02 0. -1.
</event>
<event>
 5    1  0.1338396E-008  0.3729070E+03  0.7957747E-01  0.3482636E+00
         13   -1    0    0    0    0  0.00000000000E+00  0.00000000000E+00  0.14999999963E+04  0.15000000000E+04  0.10566000000E+00 0. -1.
        994   -1    0    0    0    0 -0.00000000000E+00 -0.00000000000E+00  0.11368683772E-12  0.17120000000E+03  0.17120000000E+03 0.  0.
         13    1    1    2    0    0 -0.30291284003E+02 -0.17811201245E+02  0.43871318981E+02  0.56209470461E+02  0.10566000000E+00 0. -1.
        994    1    1    2    0    0  0.35998726801E+02 -0.45494785699E+00  0.17075963693E+02  0.17577583408E+03  0.17120000000E+03 0.  0.
        998    1    1    2    0    0 -0.57074427976E+01  0.18266149102E+02  0.14390527136E+04  0.14392146955E+04  0.10000000000E+02 0. -1.
</event>
<event>
 5    1  0.1338396E-008  0.3725646E+03  0.7957747E-01  0.3484187E+00
         13   -1    0    0    0    0  0.00000000000E+00  0.00000000000E+00  0.14999999963E+04  0.15000000000E+04  0.10566000000E+00 0. -1.
        994   -1    0    0    0    0 -0.00000000000E+00 -0.00000000000E+00  0.11368683772E-12  0.17120000000E+03  0.17120000000E+03 0.  0.
         13    1    1    2    0    0  0.29535268569E+02  0.30223933340E+02  0.64923641528E+02  0.77465531879E+02  0.10566000000E+00 0. -1.
        994    1    1    2    0    0 -0.31604957008E+02 -0.31332372299E+02  0.19321094012E+02  0.17794194428E+03  0.17120000000E+03 0.  0.
        998    1    1    2    0    0  0.20696884389E+01  0.11084389591E+01  0.14157552607E+04  0.14157925238E+04  0.10000000000E+02 0. -1.
</event>
<event>
 5    1  0.1338396E-008  0.3825628E+03  0.7957747E-01  0.3440075E+00
         13   -1    0    0    0    0  0.00000000000E+00  0.00000000000E+00  0.14999999963E+04  0.15000000000E+04  0.10566000000E+00 0. -1.
        994   -1    0    0    0    0 -0.00000000000E+00 -0.00000000000E+00  0.11368683772E-12  0.17120000000E+03  0.17120000000E+03 0.  0.
         13    1    1    2    0    0  0.56192205055E+02 -0.51399572526E+02  0.42211340837E+03  0.42892799006E+03  0.10566000000E+00 0. -1.
        994    1    1    2    0    0 -0.85458375151E+02  0.81969269813E+02  0.50807878348E+02  0.21427313313E+03  0.17120000000E+03 0.  0.
        998    1    1    2    0    0  0.29266170096E+02 -0.30569697287E+02  0.10270787096E+04  0.10279988768E+04  0.10000000000E+02 0. -1.
</event>
<event>
 5    1  0.1338396E-008  0.3839195E+03  0.7957747E-01  0.3434268E+00
         13   -1    0    0    0    0  0.00000000000E+00  0.00000000000E+00  0.14999999963E+04  0.15000000000E+04  0.10566000000E+00 0. -1.
        994   -1    0    0    0    0 -0.00000000000E+00 -0.00000000000E+00  0.11368683772E-12  0.17120000000E+03  0.17120000000E+03 0.  0.
         13    1    1    2    0    0 -0.10051697258E+01  0.13715051031E+02  0.42192833409E+02  0.44377464394E+02  0.10566000000E+00 0. -1.
        994    1    1    2    0    0  0.30441129476E+01 -0.13698675466E+02  0.28176833437E+01  0.17179726329E+03  0.17120000000E+03 0.  0.
        998    1    1    2    0    0 -0.20389432218E+01 -0.16375564930E-01  0.14549894795E+04  0.14550252723E+04  0.10000000000E+02 0. -1.
</event>
<event>
 5    1  0.1338396E-008  0.3790393E+03  0.7957747E-01  0.3455352E+00
         13   -1    0    0    0    0  0.00000000000E+00  0.00000000000E+00  0.14999999963E+04  0.15000000000E+04  0.10566000000E+00 0.  1.
        994   -1    0    0    0    0 -0.00000000000E+00 -0.00000000000E+00  0.11368683772E-12  0.17120000000E+03  0.17120000000E+03 0.  0.
         13    1    1    2    0    0 -0.65476763399E+00 -0.11925594281E+02  0.13844689685E+02  0.18284832953E+02  0.10566000000E+00 0.  1.
        994    1    1    2    0    0  0.67973780810E+01 -0.47187442484E+01  0.48485537673E+01  0.17146842091E+03  0.17120000000E+03 0.  0.
        998    1    1    2    0    0 -0.61426104470E+01  0.16644338529E+02  0.14813067528E+04  0.14814467461E+04  0.10000000000E+02 0.  1.
</event>
<event>
 5    1  0.1338396E-008  0.3823056E+03  0.7957747E-01  0.3441180E+00
         13   -1    0    0    0    0  0.00000000000E+00  0.00000000000E+00  0.14999999963E+04  0.15000000000E+04  0.10566000000E+00 0. -1.
        994   -1    0    0    0    0 -0.00000000000E+00 -0.00000000000E+00  0.11368683772E-12  0.17120000000E+03  0.17120000000E+03 0.  0.
         13    1    1    2    0    0  0.43956935090E+01 -0.17903572497E+02  0.54570569947E+02  0.57600506057E+02  0.10566000000E+00 0. -1.
        994    1    1    2    0    0 -0.81789889524E+01  0.17070585224E+02  0.41634009258E+01  0.17229357111E+03  0.17120000000E+03 0.  0.
        998    1    1    2    0    0  0.37832954434E+01  0.83298727346E+00  0.14412660254E+04  0.14413059228E+04  0.10000000000E+02 0. -1.
</event>
<event>
 5    1  0.1338396E-008  0.3844636E+03  0.7957747E-01  0.3431950E+00
         13   -1    0    0    0    0  0.00000000000E+00  0.00000000000E+00  0.14999999963E+04  0.15000000000E+04  0.10566000000E+00 0.  1.
        994   -1    0    0    0    0 -0.00000000000E+00 -0.00000000000E+00  0.11368683772E-12  0.17120000000E+03  0.17120000000E+03 0.  0.
         13    1    1    2    0    0 -0.12020471427E+02 -0.86672071727E+01  0.62410636081E+02  0.64146012141E+02  0.10566000000E+00 0.  1.
        994    1    1    2    0    0  0.10351187138E+00 -0.66062910950E+01  0.20405038917E+01  0.17133959686E+03  0.17120000000E+03 0.  0.
        998    1    1    2    0    0  0.11916959556E+02  0.15273498268E+02  0.14355488563E+04  0.14357143910E+04  0.10000000000E+02 0.  1.
</event>
<event>
 5    1  0.1338396E-008  0.3844884E+03  0.7957747E-01  0.3431845E+00
         13   -1    0    0    0    0  0.00000000000E+00  0.00000000000E+00  0.14999999963E+04  0.15000000000E+04  0.10566000000E+00 0. -1.
        994   -1    0    0    0    0 -0.00000000000E+00 -0.00000000000E+00  0.11368683772E-12  0.17120000000E+03  0.17120000000E+03 0.  0.
         13    1    1    2    0    0 -0.81673440965E+01  0.74981352381E+01  0.31620984400E+02  0.33508586364E+02  0.10566000000E+00 0. -1.
        994    1    1    2    0    0  0.60248436629E+01 -0.11070903460E+02  0.24078541539E+01  0.17168023010E+03  0.17120000000E+03 0.  0.
        998    1    1    2    0    0  0.21425004336E+01  0.35727682215E+01  0.14659711577E+04  0.14660111835E+04  0.10000000000E+02 0. -1.
</event>
<event>
 5    1  0.1338396E-008  0.3981531E+03  0.7957747E-01  0.3375735E+00
         13   -1    0    0    0    0  0.00000000000E+00  0.00000000000E+00  0.14999999963E+04  0.15000000000E+04  0.10566000000E+00 0. -1.
        994   -1    0    0    0    0 -0.00000000000E+00 -0.00000000000E+00  0.11368683772E-12  0.17120000000E+03  0.17120000000E+03 0.  0.
         13    1    1    2    0    0  0.93120363387E+02 -0.10912409674E+03  0.26956005037E+03  0.30535569830E+03  0.10566000000E+00 0. -1.
        994    1    1    2    0    0 -0.11280003694E+03  0.11664080536E+03  0.13825330939E+03  0.27340874779E+03  0.17120000000E+03 0.  0.
        998    1    1    2    0    0  0.19679673551E+02 -0.75167086248E+01  0.10921866365E+04  0.10924355539E+04  0.10000000000E+02 0. -1.
</event>
<event>
 5    1  0.1338396E-008  0.3833097E+03  0.7957747E-01  0.3436873E+00
         13   -1    0    0    0    0  0.00000000000E+00  0.00000000000E+00  0.14999999963E+04  0.15000000000E+04  0.10566000000E+00 0. -1.
        994   -1    0    0    0    0 -0.00000000000E+00 -0.00000000000E+00  0.11368683772E-12  0.17120000000E+03  0.17120000000E+03 0.  0.
         13    1    1    2    0    0 -0.28768970856E+02  0.32944106922E+00  0.16353112618E+03  0.16604277344E+03  0.10566000000E+00 0. -1.
        994    1    1    2    0    0  0.19717585947E+02  0.96226981595E+01  0.40651145884E+01  0.17264803698E+03  0.17120000000E+03 0.  0.
        998    1    1    2    0    0  0.90513849088E+01 -0.99521392287E+01  0.13324037555E+04  0.13325091896E+04  0.10000000000E+02 0. -1.
</event>
<event>
 5    1  0.1338396E-008  0.3765409E+03  0.7957747E-01  0.3466360E+00
         13   -1    0    0    0    0  0.00000000000E+00  0.00000000000E+00  0.14999999963E+04  0.15000000000E+04  0.10566000000E+00 0. -1.
        994   -1    0    0    0    0 -0.00000000000E+00 -0.00000000000E+00  0.11368683772E-12  0.17120000000E+03  0.17120000000E+03 0.  0.
         13    1    1    2    0    0  0.29789521268E+02 -0.60597125507E+02  0.15239573251E+03  0.16668502527E+03  0.10566000000E+00 0. -1.
        994    1    1    2    0    0 -0.30881325830E+02  0.33663255493E+02  0.21944825443E+02  0.17854379412E+03  0.17120000000E+03 0.  0.
        998    1    1    2    0    0  0.10918045613E+01  0.26933870014E+02  0.13256594383E+04  0.13259711806E+04  0.10000000000E+02 0. -1.
</event>
<event>
 5    1  0.1338396E-008  0.3741864E+03  0.7957747E-01  0.3476870E+00
         13   -1    0    0    0    0  0.00000000000E+00  0.00000000000E+00  0.14999999963E+04  0.15000000000E+04  0.10566000000E+00 0.  1.
        994   -1    0    0    0    0 -0.00000000000E+00 -0.00000000000E+00  0.11368683772E-12  0.17120000000E+03  0.17120000000E+03 0.  0.
         13    1    1    2    0    0 -0.21090779789E+02 -0.42934225804E+02  0.14905989917E+03  0.15654722432E+03  0.10566000000E+00 0.  1.
        994    1    1    2    0    0  0.11660613941E+02  0.40082766618E+02  0.13060161475E+02  0.17669919614E+03  0.17120000000E+03 0.  0.
        998    1    1    2    0    0  0.94301658483E+01  0.28514591858E+01  0.13378799356E+04  0.13379535795E+04  0.10000000000E+02 0.  1.
</event>
<event>
 5    1  0.1338396E-008  0.3811200E+03  0.7957747E-01  0.3446296E+00
         13   -1    0    0    0    0  0.00000000000E+00  0.00000000000E+00  0.14999999963E+04  0.15000000000E+04  0.10566000000E+00 0. -1.
        994   -1    0    0    0    0 -0.00000000000E+00 -0.00000000000E+00  0.11368683772E-12  0.17120000000E+03  0.17120000000E+03 0.  0.
         13    1    1    2    0    0  0.12464448169E+02 -0.57779758398E+01  0.23990464030E+02  0.27645994309E+02  0.10566000000E+00 0. -1.
        994    1    1    2    0    0 -0.16099242938E+02  0.21481839971E+02  0.59727419549E+01  0.17339483475E+03  0.17120000000E+03 0.  0.
        998    1    1    2    0    0  0.36347947689E+01 -0.15703864131E+02  0.14700367903E+04  0.14701591709E+04  0.10000000000E+02 0. -1.
</event>
<event>
 5    1  0.1338396E-008  0.3772765E+03  0.7957747E-01  0.3463103E+00
         13   -1    0    0    0    0  0.00000000000E+00  0.00000000000E+00  0.14999999963E+04  0.15000000000E+04  0.10566000000E+00 0.  1.
        994   -1    0    0    0    0 -0.00000000000E+00 -0.00000000000E+00  0.11368683772E-12  0.17120000000E+03  0.17120000000E+03 0.  0.
         13    1    1    2    0    0  0.62652929341E+02 -0.23851278909E+02  0.11175495044E+03  0.13032057847E+03  0.10566000000E+00 0.  1.
        994    1    1    2    0    0 -0.85998988356E+02  0.10614053130E+03  0.85230335818E+02  0.23502188946E+03  0.17120000000E+03 0.  0.
        998    1    1    2    0    0  0.23346059015E+02 -0.82289252390E+02  0.13030147100E+04  0.13058575321E+04  0.10000000000E+02 0.  1.
</event>
<event>
 5    1  0.2687853E-008  0.3863412E+03  0.7957747E-01  0.3424004E+00
         13   -1    0    0    0    0  0.00000000000E+00  0.00000000000E+00  0.14999999963E+04  0.15000000000E+04  0.10566000000E+00 0.  1.
        994   -1    0    0    0    0 -0.00000000000E+00 -0.00000000000E+00  0.11368683772E-12  0.17120000000E+03  0.17120000000E+03 0.  0.
         13    1    1    2    0    0  0.82820205028E+01 -0.65901808328E+01  0.59612589688E+02  0.60544977995E+02  0.10566000000E+00 0.  1.
        994    1    1    2    0    0 -0.48798058672E+01  0.33625143748E+01  0.10807084372E+01  0.17130594543E+03  0.17120000000E+03 0.  0.
        998    1    1    2    0    0 -0.34022146356E+01  0.32276664580E+01  0.14393066982E+04  0.14393490766E+04  0.10000000000E+02 0.  1.
</event>
<event>
 5    1  0.1338396E-008  0.3764543E+03  0.7957747E-01  0.3466744E+00
         13   -1    0    0    0    0  0.00000000000E+00  0.00000000000E+00  0.14999999963E+04  0.15000000000E+04  0.10566000000E+00 0.  1.
        994   -1    0    0    0    0 -0.00000000000E+00 -0.00000000000E+00  0.11368683772E-12  0.17120000000E+03  0.17120000000E+03 0.  0.
         13    1    1    2    0    0  0.71477535771E+01  0.12414506772E+02  0.14855315671E+02  0.20637391486E+02  0.10566000000E+00 0.  1.
        994    1    1    2    0    0  0.98735475062E+01 -0.11905786849E+02  0.67434601138E+01  0.17202950025E+03  0.17120000000E+03 0.  0.
        998    1    1    2    0    0 -0.17021301083E+02 -0.50871992346E+00  0.14784012205E+04  0.14785331083E+04  0.10000000000E+02 0.  1.
</event>
<event>
 5    1  0.1338396E-008  0.3719838E+03  0.7957747E-01  0.3486823E+00
         13   -1    0    0    0    0  0.00000000000E+00  0.00000000000E+00  0.14999999963E+04  0.15000000000E+04  0.10566000000E+00 0. -1.
        994   -1    0    0    0    0 -0.00000000000E+00 -0.00000000000E+00  0.11368683772E-12  0.17120000000E+03  0.17120000000E+03 0.  0.
         13    1    1    2    0    0  0.14735105139E+02  0.15558835812E+02  0.24229773941E+02  0.32346465101E+02  0.10566000000E+00 0. -1.
        994    1    1    2    0    0 -0.11522602025E+02 -0.14139178438E+02  0.93791633494E+01  0.17242417298E+03  0.17120000000E+03 0.  0.
        998    1    1    2    0    0 -0.32125031135E+01 -0.14196573734E+01  0.14663910590E+04  0.14664293619E+04  0.10000000000E+02 0. -1.
</event>
<event>
 5    1  0.1338396E-008  0.3820815E+03  0.7957747E-01  0.3442145E+00
         13   -1    0    0    0    0  0.00000000000E+00  0.00000000000E+00  0.14999999963E+04  0.15000000000E+04  0.10566000000E+00 0. -1.
        994   -1    0    0    0    0 -0.00000000000E+00 -0.00000000000E+00  0.11368683772E-12  0.17120000000E+03  0.17120000000E+03 0.  0.
         13    1    1    2    0    0  0.10678634522E+02  0.55822387251E+01  0.21940575169E+02  0.25031872228E+02  0.10566000000E+00 0. -1.
        994    1    1    2    0    0 -0.15276033049E+02 -0.13828630958E+01  0.38676119891E+01  0.17192925266E+03  0.17120000000E+03 0.  0.
        998    1    1    2    0    0  0.45973985264E+01 -0.41993756293E+01  0.14741918091E+04  0.14742388751E+04  0.10000000000E+02 0. -1.
</event>
<event>
 5    1  0.1338396E-008  0.3823442E+03  0.7957747E-01  0.3441014E+00
         13   -1    0    0    0    0  0.00000000000E+00  0.00000000000E+00  0.14999999963E+04  0.15000000000E+04  0.10566000000E+00 0.  1.
        994   -1    0    0    0    0 -0.00000000000E+00 -0.00000000000E+00  0.11368683772E-12  0.17120000000E+03  0.17120000000E+03 0.  0.
         13    1    1    2    0    0 -0.33005091808E+02 -0.14321477859E+00  0.15192087415E+03  0.15546485056E+03  0.10566000000E+00 0.  1.
        994    1    1    2    0    0  0.45759649108E+02 -0.56792511382E+01  0.10039808195E+02  0.17758501381E+03  0.17120000000E+03 0.  0.
        998    1    1    2    0    0 -0.12754557300E+02  0.58224659168E+01  0.13380393139E+04  0.13381501356E+04  0.10000000000E+02 0.  1.
</event>
<event>
 5    1  0.1338396E-008  0.3719022E+03  0.7957747E-01  0.3487194E+00
         13   -1    0    0    0    0  0.00000000000E+00  0.00000000000E+00  0.14999999963E+04  0.15000000000E+04  0.10566000000E+00 0. -1.
        994   -1    0    0    0    0 -0.00000000000E+00 -0.00000000000E+00  0.11368683772E-12  0.17120000000E+03  0.17120000000E+03 0.  0.
         13    1    1    2    0    0  0.13988554561E+02 -0.20728295401E+02  0.20656147671E+02  0.32435004079E+02  0.10566000000E+00 0. -1.
        994    1    1    2    0    0 -0.18848020772E+02  0.21113329114E+02  0.14772433082E+02  0.17415132883E+03  0.17120000000E+03 0.  0.
        998    1    1    2    0    0  0.48594662111E+01 -0.38503371299E+00  0.14645714155E+04  0.14646136671E+04  0.10000000000E+02 0. -1.
</event>
<event>
 5    1  0.1338396E-008  0.3868855E+03  0.7957747E-01  0.3421715E+00
         13   -1    0    0    0    0  0.00000000000E+00  0.00000000000E+00  0.14999999963E+04  0.15000000000E+04  0.10566000000E+00 0. -1.
        994   -1    0    0    0    0 -0.00000000000E+00 -0.00000000000E+00  0.11368683772E-12  0.17120000000E+03  0.17120000000E+03 0.  0.
         13    1    1    2    0    0 -0.14517916978E+02  0.97355717368E+01 -0.15889471580E+01  0.17552412584E+02  0.10566000000E+00 0. -1.
        994    1    1    2    0    0  0.23090459941E+02 -0.71712937963E+01  0.22338191318E+02  0.17433597330E+03  0.17120000000E+03 0.  0.
        998    1    1    2    0    0 -0.85725429627E+01 -0.25642779405E+01  0.14792507521E+04  0.14793116141E+04  0.10000000000E+02 0. -1.
</event>
<event>
 5    1  0.1338396E-008  0.3052056E+03  0.7957747E-01  0.3859542E+00
         13   -1    0    0    0    0  0.00000000000E+00  0.00000000000E+00  0.14999999963E+04  0.15000000000E+04  0.10566000000E+00 0. -1.
        994   -1    0    0    0    0 -0.00000000000E+00 -0.00000000000E+00  0.11368683772E-12  0.17120000000E+03  0.17120000000E+03 0.  0.
         13    1    1    2    0    0  0.10215527969E+03  0.11364614158E+03  0.83925284487E+03  0.85305128536E+03  0.10566000000E+00 0. -1.
        994    1    1    2    0    0 -0.58737978569E+02 -0.43141418995E+02  0.38083204556E+02  0.18992393906E+03  0.17120000000E+03 0.  0.
        998    1    1    2    0    0 -0.43417301124E+02 -0.70504722582E+02  0.62266394685E+03  0.62822477558E+03  0.10000000000E+02 0. -1.
</event>
<event>
 5    1  0.1338396E-008  0.3791575E+03  0.7957747E-01  0.3454835E+00
         13   -1    0    0    0    0  0.00000000000E+00  0.00000000000E+00  0.14999999963E+04  0.15000000000E+04  0.10566000000E+00 0. -1.
        994   -1    0    0    0    0 -0.00000000000E+00 -0.00000000000E+00  0.11368683772E-12  0.17120000000E+03  0.17120000000E+03 0.  0.
         13    1    1    2    0    0 -0.16893996755E+02 -0.93631116120E+00  0.28435038823E+02  0.33088463274E+02  0.10566000000E+00 0. -1.
        994    1    1    2    0    0  0.24755542575E+02 -0.18914319752E+00  0.66162323338E+01  0.17310715524E+03  0.17120000000E+03 0.  0.
        998    1    1    2    0    0 -0.78615458203E+01  0.11254543587E+01  0.14649487251E+04  0.14650043815E+04  0.10000000000E+02 0. -1.
</event>
<event>
 5    1  0.1338396E-008  0.3852211E+03  0.7957747E-01  0.3428735E+00
         13   -1    0    0    0    0  0.00000000000E+00  0.00000000000E+00  0.14999999963E+04  0.15000000000E+04  0.10566000000E+00 0. -1.
        994   -1    0    0    0    0 -0.00000000000E+00 -0.00000000000E+00  0.11368683772E-12  0.17120000000E+03  0.17120000000E+03 0.  0.
         13    1    1    2    0    0  0.53094528023E+01  0.85944663824E+01  0.34233690701E+02  0.35693303076E+02  0.10566000000E+00 0. -1.
        994    1    1    2    0    0  0.44473311101E+01 -0.53382626308E+01  0.16790499796E+01  0.17134916110E+03  0.17120000000E+03 0.  0.
        998    1    1    2    0    0 -0.97567839124E+01 -0.32562037516E+01  0.14640872556E+04  0.14641575358E+04  0.10000000000E+02 0. -1.
</event>
<event>
 5    1  0.1338396E-008  0.3814945E+03  0.7957747E-01  0.3444677E+00
         13   -1    0    0    0    0  0.00000000000E+00  0.00000000000E+00  0.14999999963E+04  0.15000000000E+04  0.10566000000E+00 0.  1.
        994   -1    0    0    0    0 -0.00000000000E+00 -0.00000000000E+00  0.11368683772E-12  0.17120000000E+03  0.17120000000E+03 0.  0.
         13    1    1    2    0    0  0.11403695603E+02  0.17630250535E+02  0.64280034808E+02  0.67622511387E+02  0.10566000000E+00 0.  1.
        994    1    1    2    0    0 -0.71358222182E+01 -0.10443481482E+02  0.39129944309E+01  0.17171120461E+03  0.17120000000E+03 0.  0.
        998    1    1    2    0    0 -0.42678733844E+01 -0.71867690529E+01  0.14318069670E+04  0.14318662840E+04  0.10000000000E+02 0.  1.
</event>
<event>
 5    1  0.1338396E-008  0.3753397E+03  0.7957747E-01  0.3471705E+00
         13   -1    0    0    0    0  0.00000000000E+00  0.00000000000E+00  0.14999999963E+04  0.15000000000E+04  0.10566000000E+00 0. -1.
        994   -1    0    0    0    0 -0.00000000000E+00 -0.00000000000E+00  0.11368683772E-12  0.17120000000E+03  0.17120000000E+03 0.  0.
         13    1    1    2    0    0 -0.19392725134E+02 -0.12635755504E+03  0.68950507670E+03  0.70125571047E+03  0.10566000000E+00 0. -1.
        994    1    1    2    0    0  0.23003178336E+02  0.12095082562E+03  0.59847015566E+02  0.21920162797E+03  0.17120000000E+03 0.  0.
        998    1    1    2    0    0 -0.36104532015E+01  0.54067294214E+01  0.75064790401E+03  0.75074266156E+03  0.10000000000E+02 0. -1.
</event>
<event>
 5    1  0.1338396E-008  0.3746944E+03  0.7957747E-01  0.3474591E+00
         13   -1    0    0    0    0  0.00000000000E+00  0.00000000000E+00  0.14999999963E+04  0.15000000000E+04  0.10566000000E+00 0.  1.
        994   -1    0    0    0    0 -0.00000000000E+00 -0.00000000000E+00  0.11368683772E-12  0.17120000000E+03  0.17120000000E+03 0.  0.
         13    1    1    2    0    0  0.43432490459E+02 -0.13442119505E+02  0.64954784965E+02  0.79285604357E+02  0.10566000000E+00 0.  1.
        994    1    1    2    0    0 -0.66152142294E+02  0.90190334579E+01  0.29461386690E+02  0.18610443896E+03  0.17120000000E+03 0.  0.
        998    1    1    2    0    0  0.22719651835E+02  0.44230860475E+01  0.14055838246E+04  0.14058099567E+04  0.10000000000E+02 0.  1.
</event>
<event>
 5    1  0.1338396E-008  0.3785781E+03  0.7957747E-01  0.3457373E+00
         13   -1    0    0    0    0  0.00000000000E+00  0.00000000000E+00  0.14999999963E+04  0.15000000000E+04  0.10566000000E+00 0.  1.
        994   -1    0    0    0    0 -0.00000000000E+00 -0.00000000000E+00  0.11368683772E-12  0.17120000000E+03  0.17120000000E+03 0.  0.
         13    1    1    2    0    0 -0.25028714883E+02 -0.20800123075E+02  0.12027034973E+03  0.12459554517E+03  0.10566000000E+00 0.  1.
        994    1    1    2    0    0 -0.50164294761E+01  0.36253587798E+01  0.49813328675E+01  0.17138425093E+03  0.17120000000E+03 0.  0.
        998    1    1    2    0    0  0.30045144359E+02  0.17174764296E+02  0.13747483137E+04  0.13752202039E+04  0.10000000000E+02 0.  1.
</event>
<event>
 5    1  0.1338396E-008  0.3975161E+03  0.7957747E-01  0.3378265E+00
         13   -1    0    0    0    0  0.00000000000E+00  0.00000000000E+00  0.14999999963E+04  0.15000000000E+04  0.10566000000E+00 0. -1.
        994   -1    0    0    0    0 -0.00000000000E+00 -0.00000000000E+00  0.11368683772E-12  0.17120000000E+03  0.17120000000E+03 0.  0.
         13    1    1    2    0    0 -0.73473755197E+02 -0.10015637533E+03  0.49028799338E+03  0.50577862731E+03  0.10566000000E+00 0. -1.
        994    1    1    2    0    0 -0.35634780986E+02  0.19136598918E+02  0.32668414200E+02  0.17892096669E+03  0.17120000000E+03 0.  0.
        998    1    1    2    0    0  0.10910853618E+03  0.81019776409E+02  0.97704358870E+03  0.98650040601E+03  0.10000000000E+02 0. -1.
</event>
<event>
 5    1  0.1338396E-008  0.3855589E+03  0.7957747E-01  0.3427305E+00
         13   -1    0    0    0    0  0.00000000000E+00  0.00000000000E+00  0.14999999963E+04  0.15000000000E+04  0.10566000000E+00 0.  1.
        994   -1    0    0    0    0 -0.00000000000E+00 -0.00000000000E+00  0.11368683772E-12  0.17120000000E+03  0.17120000000E+03 0.  0.
         13    1    1    2    0    0 -0.95444534638E+01  0.63513671022E+01  0.44879328946E+02  0.46320641043E+02  0.10566000000E+00 0.  1.
        994    1    1    2    0    0  0.19830646925E+02 -0.10743695235E+02  0.30245450761E+01  0.17270573070E+03  0.17120000000E+03 0.  0.
        998    1    1    2    0    0 -0.10286193461E+02  0.43923281331E+01  0.14520961223E+04  0.14521736283E+04  0.10000000000E+02 0.  1.
</event>
<event>
 5    1  0.1338396E-008  0.3850249E+03  0.7957747E-01  0.3429567E+00
         13   -1    0    0    0    0  0.00000000000E+00  0.00000000000E+00  0.14999999963E+04  0.15000000000E+04  0.10566000000E+00 0.  1.
        994   -1    0    0    0    0 -0.00000000000E+00 -0.00000000000E+00  0.11368683772E-12  0.17120000000E+03  0.17120000000E+03 0.  0.
         13    1    1    2    0    0  0.17320868749E+01 -0.12211394393E+02  0.47236342054E+02  0.48820092714E+02  0.10566000000E+00 0.  1.
        994    1    1    2    0    0 -0.10640739123E+02  0.58129323056E+01  0.21013717570E+01  0.17164169445E+03  0.17120000000E+03 0.  0.
        998    1    1    2    0    0  0.89086522483E+01  0.63984620870E+01  0.14506622825E+04  0.14507382128E+04  0.10000000000E+02 0.  1.
</event>
<event>
 5    1  0.1338396E-008  0.3790237E+03  0.7957747E-01  0.3455421E+00
         13   -1    0    0    0    0  0.00000000000E+00  0.00000000000E+00  0.14999999963E+04  0.15000000000E+04  0.10566000000E+00 0. -1.
        994   -1    0    0    0    0 -0.00000000000E+00 -0.00000000000E+00  0.11368683772E-12  0.17120000000E+03  0.17120000000E+03 0.  0.
         13    1    1    2    0    0  0.27567837721E+02 -0.35692178042E+02  0.17827482479E+03  0.18389084145E+03  0.10566000000E+00 0. -1.
        994    1    1    2    0    0 -0.42693214369E+02  0.39996437286E+02  0.16191618068E+02  0.18164259975E+03  0.17120000000E+03 0.  0.
        998    1    1    2    0    0  0.15125376648E+02 -0.43042592445E+01  0.13055335534E+04  0.13056665588E+04  0.10000000000E+02 0. -1.
</event>
<event>
 5    1  0.1338396E-008  0.3756226E+03  0.7957747E-01  0.3470443E+00
         13   -1    0    0    0    0  0.00000000000E+00  0.00000000000E+00  0.14999999963E+04  0.15000000000E+04  0.10566000000E+00 0. -1.
        994   -1    0    0    0    0 -0.00000000000E+00 -0.00000000000E+00  0.11368683772E-12  0.17120000000E+03  0.17120000000E+03 0.  0.
         13    1    1    2    0    0  0.38100188877E+02  0.15823827584E+02  0.19589820159E+03  0.20019524085E+03  0.10566000000E+00 0. -1.
        994    1    1    2    0    0  0.54153591933E+02 -0.45265302964E+02  0.23449047468E+02  0.18665705719E+03  0.17120000000E+03 0.  0.
        998    1    1    2    0    0 -0.92253780810E+02  0.29441475381E+02  0.12806527472E+04  0.12843477020E+04  0.10000000000E+02 0. -1.
</event>
<event>
 5    1  0.1338396E-008  0.3025719E+03  0.7957747E-01  0.3877827E+00
         13   -1    0    0    0    0  0.00000000000E+00  0.00000000000E+00  0.14999999963E+04  0.15000000000E+04  0.10566000000E+00 0. -1.
        994   -1    0    0    0    0 -0.00000000000E+00 -0.00000000000E+00  0.11368683772E-12  0.17120000000E+03  0.17120000000E+03 0.  0.
         13    1    1    2    0    0  0.79853249822E+02  0.17571018720E+03  0.63121695982E+03  0.66006474903E+03  0.10566000000E+00 0. -1.
        994    1    1    2    0    0 -0.20584028083E+02 -0.22054910429E+03  0.21479638595E+03  0.35286334045E+03  0.17120000000E+03 0.  0.
        998    1    1    2    0    0 -0.59269221739E+02  0.44838917093E+02  0.65398665051E+03  0.65827191052E+03  0.10000000000E+02 0.  1.
</event>
<event>
 5    1  0.1338396E-008  0.3820835E+03  0.7957747E-01  0.3442136E+00
         13   -1    0    0    0    0  0.00000000000E+00  0.00000000000E+00  0.14999999963E+04  0.15000000000E+04  0.10566000000E+00 0.  1.
        994   -1    0    0    0    0 -0.00000000000E+00 -0.00000000000E+00  0.11368683772E-12  0.17120000000E+03  0.17120000000E+03 0.  0.
         13    1    1    2    0    0 -0.49029168393E+01  0.20535705750E+02  0.68165068730E+02  0.71359943689E+02  0.10566000000E+00 0.  1.
        994    1    1    2    0    0  0.10117731063E+02 -0.20798554614E+02  0.48631847596E+01  0.17282372210E+03  0.17120000000E+03 0.  0.
        998    1    1    2    0    0 -0.52148142241E+01  0.26284886410E+00  0.14269717428E+04  0.14270163342E+04  0.10000000000E+02 0.  1.
</event>
<event>
 5    1  0.1338396E-008  0.3806762E+03  0.7957747E-01  0.3448219E+00
         13   -1    0    0    0    0  0.00000000000E+00  0.00000000000E+00  0.14999999963E+04  0.15000000000E+04  0.10566000000E+00 0.  1.
        994   -1    0    0    0    0 -0.00000000000E+00 -0.00000000000E+00  0.11368683772E-12  0.17120000000E+03  0.17120000000E+03 0.  0.
         13    1    1    2    0    0 -0.18731071471E+02 -0.33890023644E+01  0.44795227770E+02  0.48671983424E+02  0.10566000000E+00 0.  1.
        994    1    1    2    0    0  0.21575667526E+02  0.36840240692E+01  0.53917725981E+01  0.17267771331E+03  0.17120000000E+03 0.  0.
        998    1    1    2    0    0 -0.28445960550E+01 -0.29502170483E+00  0.14498129959E+04  0.14498503033E+04  0.10000000000E+02 0.  1.
</event>
<event>
 5    1  0.1338396E-008  0.3695965E+03  0.7957747E-01  0.3497747E+00
         13   -1    0    0    0    0  0.00000000000E+00  0.00000000000E+00  0.14999999963E+04  0.15000000000E+04  0.10566000000E+00 0. -1.
        994   -1    0    0    0    0 -0.00000000000E+00 -0.00000000000E+00  0.11368683772E-12  0.17120000000E+03  0.17120000000E+03 0.  0.
         13    1    1    2    0    0  0.26787676460E+02  0.41628606522E+02  0.10964934271E+03  0.12030590182E+03  0.10566000000E+00 0. -1.
        994    1    1    2    0    0 -0.70371473570E+01 -0.35119726771E+02  0.15217597741E+02  0.17556745693E+03  0.17120000000E+03 0.  0.
        998    1    1    2    0    0 -0.19750529103E+02 -0.65088797513E+01  0.13751330558E+04  0.13753266413E+04  0.10000000000E+02 0. -1.
</event>
<event>
 5    1  0.1338396E-008  0.3791620E+03  0.7957747E-01  0.3454815E+00
         13   -1    0    0    0    0  0.00000000000E+00  0.00000000000E+00  0.14999999963E+04  0.15000000000E+04  0.10566000000E+00 0.  1.
        994   -1    0    0    0    0 -0.00000000000E+00 -0.00000000000E+00  0.11368683772E-12  0.17120000000E+03  0.17120000000E+03 0.  0.
         13    1    1    2    0    0  0.27019724547E+02  0.82595053422E+01  0.81546597062E+02  0.86302627999E+02  0.10566000000E+00 0.  1.
        994    1    1    2    0    0 -0.21162561958E+02 -0.32092019384E+02  0.95264494456E+01  0.17572121379E+03  0.17120000000E+03 0.  0.
        998    1    1    2    0    0 -0.58571625898E+01  0.23832514042E+02  0.14089269498E+04  0.14091761582E+04  0.10000000000E+02 0.  1.
</event>
<event>
 5    1  0.1711795E-008  0.3861775E+03  0.7957747E-01  0.3424694E+00
         13   -1    0    0    0    0  0.00000000000E+00  0.00000000000E+00  0.14999999963E+04  0.15000000000E+04  0.10566000000E+00 0.  1.
        994   -1    0    0    0    0 -0.00000000000E+00 -0.00000000000E+00  0.11368683772E-12  0.17120000000E+03  0.17120000000E+03 0.  0.
         13    1    1    2    0    0  0.10317768734E+02  0.48576391404E+01  0.64673959520E+02  0.65671799227E+02  0.10566000000E+00 0.  1.
        994    1    1    2    0    0 -0.56822058900E+01  0.17212126112E+01  0.11621403068E+01  0.17130686094E+03  0.17120000000E+03 0.  0.
        998    1    1    2    0    0 -0.46355628438E+01 -0.65788517515E+01  0.14341638965E+04  0.14342213398E+04  0.10000000000E+02 0.  1.
</event>
<event>
 5    1  0.1338396E-008  0.3846585E+03  0.7957747E-01  0.3431122E+00
         13   -1    0    0    0    0  0.00000000000E+00  0.00000000000E+00  0.14999999963E+04  0.15000000000E+04  0.10566000000E+00 0.  1.
        994   -1    0    0    0    0 -0.00000000000E+00 -0.00000000000E+00  0.11368683772E-12  0.17120000000E+03  0.17120000000E+03 0.  0.
         13    1    1    2    0    0  0.21932531947E+02  0.18821309089E+01  0.53814956159E+01  0.22661642338E+02  0.10566000000E+00 0.  1.
        994    1    1    2    0    0  0.29030856417E+02  0.39723657533E+02  0.27888635216E+02  0.18029968266E+03  0.17120000000E+03 0.  0.
        998    1    1    2    0    0 -0.50963388364E+02 -0.41605788442E+02  0.14667298654E+04  0.14682386750E+04  0.10000000000E+02 0.  1.
</event>
<event>
 5    1  0.1338396E-008  0.3915159E+03  0.7957747E-01  0.3402499E+00
         13   -1    0    0    0    0  0.00000000000E+00  0.00000000000E+00  0.14999999963E+04  0.15000000000E+04  0.10566000000E+00 0. -1.
        994   -1    0    0    0    0 -0.00000000000E+00 -0.00000000000E+00  0.11368683772E-12  0.17120000000E+03  0.17120000000E+03 0.  0.
         13    1    1    2    0    0 -0.45308830691E+02 -0.59939127777E+02  0.15001437443E+03  0.16777935772E+03  0.10566000000E+00 0. -1.
        994    1    1    2    0    0 -0.78225876893E+02  0.28616086390E+02  0.49568075214E+02  0.19673485278E+03  0.17120000000E+03 0.  0.
        998    1    1    2    0    0  0.12353470758E+03  0.31323041386E+02  0.13004175466E+04  0.13066857895E+04  0.10000000000E+02 0. -1.
</event>
<event>
 5    1  0.1338396E-008  0.3720985E+03  0.7957747E-01  0.3486302E+00
         13   -1    0    0    0    0  0.00000000000E+00  0.00000000000E+00  0.14999999963E+04  0.15000000000E+04  0.10566000000E+00 0. -1.
        994   -1    0    0    0    0 -0.00000000000E+00 -0.00000000000E+00  0.11368683772E-12  0.17120000000E+03  0.17120000000E+03 0.  0.
         13    1    1    2    0    0 -0.13773244527E+03 -0.33498743642E+02  0.60978926171E+03  0.62604740009E+03  0.10566000000E+00 0. -1.
        994    1    1    2    0    0  0.14853753432E+03  0.25500958229E+02  0.90686777028E+02  0.24545311060E+03  0.17120000000E+03 0.  0.
        998    1    1    2    0    0 -0.10805089057E+02  0.79977854129E+01  0.79952395754E+03  0.79969948931E+03  0.10000000000E+02 0. -1.
</event>
<event>
 5    1  0.1338396E-008  0.3740925E+03  0.7957747E-01  0.3477292E+00
         13   -1    0    0    0    0  0.00000000000E+00  0.00000000000E+00  0.14999999963E+04  0.15000000000E+04  0.10566000000E+00 0.  1.
        994   -1    0    0    0    0 -0.00000000000E+00 -0.00000000000E+00  0.11368683772E-12  0.17120000000E+03  0.17120000000E+03 0.  0.
         13    1    1    2    0    0  0.39729309721E+02 -0.10734146353E+02  0.10734934467E+03  0.11496752982E+03  0.10566000000E+00 0.  1.
        994    1    1    2    0    0 -0.41088877469E+02  0.14207878946E+02  0.13617723600E+02  0.17715824020E+03  0.17120000000E+03 0.  0.
        998    1    1    2    0    0  0.13595677484E+01 -0.34737325923E+01  0.13790329280E+04  0.13790742300E+04  0.10000000000E+02 0.  1.
</event>
<event>
 5    1  0.1338396E-008  0.3699241E+03  0.7957747E-01  0.3496240E+00
         13   -1    0    0    0    0  0.00000000000E+00  0.00000000000E+00  0.14999999963E+04  0.15000000000E+04  0.10566000000E+00 0.  1.
        994   -1    0    0    0    0 -0.00000000000E+00 -0.00000000000E+00  0.11368683772E-12  0.17120000000E+03  0.17120000000E+03 0.  0.
         13    1    1    2    0    0 -0.30157574659E+02  0.76916931281E+02  0.48728387283E+03  0.49423807777E+03  0.10566000000E+00 0.  1.
        994    1    1    2    0    0  0.52284639194E+02 -0.24901038649E+01  0.18845217225E+02  0.18001240603E+03  0.17120000000E+03 0.  0.
        998    1    1    2    0    0 -0.22127064535E+02 -0.74426827416E+02  0.99387090622E+03  0.99694951620E+03  0.10000000000E+02 0.  1.
</event>
<event>
 5    1  0.1338396E-008  0.3854581E+03  0.7957747E-01  0.3427732E+00
         13   -1    0    0    0    0  0.00000000000E+00  0.00000000000E+00  0.14999999963E+04  0.15000000000E+04  0.10566000000E+00 0. -1.
        994   -1    0    0    0    0 -0.00000000000E+00 -0.00000000000E+00  0.11368683772E-12  0.17120000000E+03  0.17120000000E+03 0.  0.
         13    1    1    2    0    0 -0.13901625902E+02  0.29849443350E+01  0.69857988148E+02  0.71290355361E+02  0.10566000000E+00 0. -1.
        994    1    1    2    0    0  0.13529053325E+02 -0.58738666520E+01  0.21175514448E+01  0.17184720428E+03  0.17120000000E+03 0.  0.
        998    1    1    2    0    0  0.37257257694E+00  0.28889223170E+01  0.14280244567E+04  0.14280624404E+04  0.10000000000E+02 0. -1.
</event>
<event>
 5    1  0.1338396E-008  0.3785558E+03  0.7957747E-01  0.3457471E+00
         13   -1    0    0    0    0  0.00000000000E+00  0.00000000000E+00  0.14999999963E+04  0.15000000000E+04  0.10566000000E+00 0.  1.
        994   -1    0    0    0    0 -0.00000000000E+00 -0.00000000000E+00  0.11368683772E-12  0.17120000000E+03  0.17120000000E+03 0.  0.
         13    1    1    2    0    0 -0.11049164378E+02 -0.12433529031E+02  0.26374238601E+02  0.31181537862E+02  0.10566000000E+00 0.  1.
        994    1    1    2    0    0  0.12632859305E+02  0.53078560368E+01  0.54948731663E+01  0.17183537500E+03  0.17120000000E+03 0.  0.
        998    1    1    2    0    0 -0.15836949267E+01  0.71256729938E+01  0.14681308845E+04  0.14681830871E+04  0.10000000000E+02 0.  1.
</event>
<event>
 5    1  0.1338396E-008  0.3847339E+03  0.7957747E-01  0.3430802E+00
         13   -1    0    0    0    0  0.00000000000E+00  0.00000000000E+00  0.14999999963E+04  0.15000000000E+04  0.10566000000E+00 0.  1.
        994   -1    0    0    0    0 -0.00000000000E+00 -0.00000000000E+00  0.11368683772E-12  0.17120000000E+03  0.17120000000E+03 0.  0.
         13    1    1    2    0    0 -0.65728116135E-01  0.14098417457E+02  0.57674285289E+02  0.59372586625E+02  0.10566000000E+00 0.  1.
        994    1    1    2    0    0 -0.74209980567E+01 -0.50967454442E+01  0.20291486699E+01  0.17144855051E+03  0.17120000000E+03 0.  0.
        998    1    1    2    0    0  0.74867261729E+01 -0.90016720132E+01  0.14402965623E+04  0.14403788629E+04  0.10000000000E+02 0.  1.
</event>
<event>
 5    1  0.1338396E-008  0.3830992E+03  0.7957747E-01  0.3437774E+00
         13   -1    0    0    0    0  0.00000000000E+00  0.00000000000E+00  0.14999999963E+04  0.15000000000E+04  0.10566000000E+00 0. -1.
        994   -1    0    0    0    0 -0.00000000000E+00 -0.00000000000E+00  0.11368683772E-12  0.17120000000E+03  0.17120000000E+03 0.  0.
         13    1    1    2    0    0  0.14947866688E+02 -0.11729659995E+02  0.72160205214E+02  0.74619903663E+02  0.10566000000E+00 0. -1.
        994    1    1    2    0    0 -0.46556599834E+01  0.18836748502E+01  0.26602578112E+01  0.17129430922E+03  0.17120000000E+03 0.  0.
        998    1    1    2    0    0 -0.10292206705E+02  0.98459851446E+01  0.14251795333E+04  0.14252857871E+04  0.10000000000E+02 0. -1.
</event>
<event>
 5    1  0.1338396E-008  0.3838006E+03  0.7957747E-01  0.3434775E+00
         13   -1    0    0    0    0  0.00000000000E+00  0.00000000000E+00  0.14999999963E+04  0.15000000000E+04  0.10566000000E+00 0.  1.
        994   -1    0    0    0    0 -0.00000000000E+00 -0.00000000000E+00  0.11368683772E-12  0.17120000000E+03  0.17120000000E+03 0.  0.
         13    1    1    2    0    0 -0.67211275287E+01  0.10321685069E+02  0.33710063471E+02  0.35889974661E+02  0.10566000000E+00 0.  1.
        994    1    1    2    0    0  0.24657688386E+01 -0.60104301118E+01  0.23661520975E+01  0.17133955749E+03  0.17120000000E+03 0.  0.
        998    1    1    2    0    0  0.42553586901E+01 -0.43112549569E+01  0.14639237807E+04  0.14639704678E+04  0.10000000000E+02 0.  1.
</event>
<event>
 5    1  0.1338396E-008  0.3742384E+03  0.7957747E-01  0.3476636E+00
         13   -1    0    0    0    0  0.00000000000E+00  0.00000000000E+00  0.14999999963E+04  0.15000000000E+04  0.10566000000E+00 0. -1.
        994   -1    0    0    0    0 -0.00000000000E+00 -0.00000000000E+00  0.11368683772E-12  0.17120000000E+03  0.17120000000E+03 0.  0.
         13    1    1    2    0    0 -0.55092614961E+02 -0.16232494570E+02  0.12761144490E+03  0.13994063790E+03  0.10566000000E+00 0. -1.
        994    1    1    2    0    0  0.82224053319E+01  0.47611079922E+02  0.21528414014E+02  0.17918519886E+03  0.17120000000E+03 0.  0.
        998    1    1    2    0    0  0.46870209629E+02 -0.31378585351E+02  0.13508601374E+04  0.13520741632E+04  0.10000000000E+02 0. -1.
</event>
<event>
 5    1  0.1338396E-008  0.3775445E+03  0.7957747E-01  0.3461920E+00
         13   -1    0    0    0    0  0.00000000000E+00  0.00000000000E+00  0.14999999963E+04  0.15000000000E+04  0.10566000000E+00 0.  1.
        994   -1    0    0    0    0 -0.00000000000E+00 -0.00000000000E+00  0.11368683772E-12  0.17120000000E+03  0.17120000000E+03 0.  0.
         13    1    1    2    0    0  0.34280180119E+01  0.14347752521E+02  0.17683146302E+02  0.23028550477E+02  0.10566000000E+00 0.  1.
        994    1    1    2    0    0 -0.11888375196E+02 -0.13359083057E+02  0.64563565589E+01  0.17225249811E+03  0.17120000000E+03 0.  0.
        998    1    1    2    0    0  0.84603571845E+01 -0.98866946349E+00  0.14758604934E+04  0.14759189514E+04  0.10000000000E+02 0.  1.
</event>
<event>
 5    1  0.1338396E-008  0.3777471E+03  0.7957747E-01  0.3461027E+00
         13   -1    0    0    0    0  0.00000000000E+00  0.00000000000E+00  0.14999999963E+04  0.15000000000E+04  0.10566000000E+00 0.  1.
        994   -1    0    0    0    0 -0.00000000000E+00 -0.00000000000E+00  0.11368683772E-12  0.17120000000E+03  0.17120000000E+03 0.  0.
         13    1    1    2    0    0 -0.10500908820E+03  0.24157434938E+02  0.61636256308E+03  0.62571024492E+03  0.10566000000E+00 0.  1.
        994    1    1    2    0    0  0.10572239280E+03 -0.26836681272E+02  0.46454344688E+02  0.20824235386E+03  0.17120000000E+03 0.  0.
        998    1    1    2    0    0 -0.71330459772E+00  0.26792463338E+01  0.83718308851E+03  0.83724740122E+03  0.10000000000E+02 0.  0.
</event>
<event>
 5    1  0.1338396E-008  0.3780374E+03  0.7957747E-01  0.3459749E+00
         13   -1    0    0    0    0  0.00000000000E+00  0.00000000000E+00  0.14999999963E+04  0.15000000000E+04  0.10566000000E+00 0.  1.
        994   -1    0    0    0    0 -0.00000000000E+00 -0.00000000000E+00  0.11368683772E-12  0.17120000000E+03  0.17120000000E+03 0.  0.
         13    1    1    2    0    0 -0.82448727471E+01 -0.30007730619E+02  0.94364271983E+02  0.99363317248E+02  0.10566000000E+00 0.  1.
        994    1    1    2    0    0  0.14125244751E+02  0.11720003519E+02  0.62614984280E+01  0.17229488496E+03  0.17120000000E+03 0.  0.
        998    1    1    2    0    0 -0.58803720044E+01  0.18287727100E+02  0.13993742259E+04  0.13995417978E+04  0.10000000000E+02 0.  1.
</event>
<event>
 5    1  0.1338396E-008  0.3833712E+03  0.7957747E-01  0.3436610E+00
         13   -1    0    0    0    0  0.00000000000E+00  0.00000000000E+00  0.14999999963E+04  0.15000000000E+04  0.10566000000E+00 0.  1.
        994   -1    0    0    0    0 -0.00000000000E+00 -0.00000000000E+00  0.11368683772E-12  0.17120000000E+03  0.17120000000E+03 0.  0.
         13    1    1    2    0    0 -0.66320373063E+01  0.10359754839E+02  0.30066261246E+02  0.32485376225E+02  0.10566000000E+00 0.  1.
        994    1    1    2    0    0  0.78764235467E+01 -0.64835086090E+01  0.27851367660E+01  0.17152629804E+03  0.17120000000E+03 0.  0.
        998    1    1    2    0    0 -0.12443862404E+01 -0.38762462305E+01  0.14671485983E+04  0.14671883257E+04  0.10000000000E+02 0.  1.
</event>
<event>
 5    1  0.1338396E-008  0.3800747E+03  0.7957747E-01  0.3450833E+00
         13   -1    0    0    0    0  0.00000000000E+00  0.00000000000E+00  0.14999999963E+04  0.15000000000E+04  0.10566000000E+00 0.  1.
        994   -1    0    0    0    0 -0.00000000000E+00 -0.00000000000E+00  0.11368683772E-12  0.17120000000E+03  0.17120000000E+03 0.  0.
         13    1    1    2    0    0 -0.85115012135E+01 -0.32090978908E+02  0.14690841920E+03  0.15061331739E+03  0.10566000000E+00 0.  1.
        994    1    1    2    0    0 -0.39251614620E+01  0.54691782356E+01  0.42468962956E+01  0.17138493204E+03  0.17120000000E+03 0.  0.
        998    1    1    2    0    0  0.12436662675E+02  0.26621800673E+02  0.13488446808E+04  0.13492017506E+04  0.10000000000E+02 0.  1.
</event>
<event>
 5    1  0.1338396E-008  0.3775463E+03  0.7957747E-01  0.3461913E+00
         13   -1    0    0    0    0  0.00000000000E+00  0.00000000000E+00  0.14999999963E+04  0.15000000000E+04  0.10566000000E+00 0.  1.
        994   -1    0    0    0    0 -0.00000000000E+00 -0.00000000000E+00  0.11368683772E-12  0.17120000000E+03  0.17120000000E+03 0.  0.
         13    1    1    2    0    0 -0.23883997509E+02  0.18362576808E+01  0.53995938013E+02  0.59071056070E+02  0.10566000000E+00 0.  1.
        994    1    1    2    0    0  0.71517239848E+00 -0.36301241359E+01  0.54230607192E+01  0.17132582660E+03  0.17120000000E+03 0.  0.
        998    1    1    2    0    0  0.23168825111E+02  0.17938664551E+01  0.14405809975E+04  0.14408031173E+04  0.10000000000E+02 0.  1.
</event>
<event>
 5    1  0.1338396E-008  0.3826972E+03  0.7957747E-01  0.3439498E+00
         13   -1    0    0    0    0  0.00000000000E+00  0.00000000000E+00  0.14999999963E+04  0.15000000000E+04  0.10566000000E+00 0. -1.
        994   -1    0    0    0    0 -0.00000000000E+00 -0.00000000000E+00  0.11368683772E-12  0.17120000000E+03  0.17120000000E+03 0.  0.
         13    1    1    2    0    0  0.95668670906E+01  0.57024117679E+01  0.22076844247E+02  0.24727326217E+02  0.10566000000E+00 0. -1.
        994    1    1    2    0    0  0.27976926497E+01  0.27611639219E+01  0.28289574789E+01  0.17126848546E+03  0.17120000000E+03 0.  0.
        998    1    1    2    0    0 -0.12364559740E+02 -0.84635756898E+01  0.14750941946E+04  0.14752041883E+04  0.10000000000E+02 0. -1.
</event>
<event>
 5    1  0.1609346E-008  0.3849870E+03  0.7957747E-01  0.3429727E+00
         13   -1    0    0    0    0  0.00000000000E+00  0.00000000000E+00  0.14999999963E+04  0.15000000000E+04  0.10566000000E+00 0. -1.
        994   -1    0    0    0    0 -0.00000000000E+00 -0.00000000000E+00  0.11368683772E-12  0.17120000000E+03  0.17120000000E+03 0.  0.
         13    1    1    2    0    0  0.28426093572E+01  0.10062927756E+02  0.34166519245E+02  0.35731010961E+02  0.10566000000E+00 0. -1.
        994    1    1    2    0    0  0.32239852533E+01 -0.19678245625E+01  0.16835187237E+01  0.17124993620E+03  0.17120000000E+03 0.  0.
        998    1    1    2    0    0 -0.60665946104E+01 -0.80951031932E+01  0.14641499583E+04  0.14642190528E+04  0.10000000000E+02 0. -1.
</event>
<event>
 5    1  0.1338396E-008  0.3784802E+03  0.7957747E-01  0.3457803E+00
         13   -1    0    0    0    0  0.00000000000E+00  0.00000000000E+00  0.14999999963E+04  0.15000000000E+04  0.10566000000E+00 0. -1.
        994   -1    0    0    0    0 -0.00000000000E+00 -0.00000000000E+00  0.11368683772E-12  0.17120000000E+03  0.17120000000E+03 0.  0.
         13    1    1    2    0    0  0.68328722213E+01 -0.10011589503E+02  0.12964871784E+02  0.17748778313E+02  0.10566000000E+00 0. -1.
        994    1    1    2    0    0  0.41209469871E+00  0.54409540348E+01  0.50023601534E+01  0.17135996443E+03  0.17120000000E+03 0.  0.
        998    1    1    2    0    0 -0.72449669200E+01  0.45706354683E+01  0.14820327643E+04  0.14820912573E+04  0.10000000000E+02 0. -1.
</event>
<event>
 5    1  0.1338396E-008  0.3822922E+03  0.7957747E-01  0.3441238E+00
         13   -1    0    0    0    0  0.00000000000E+00  0.00000000000E+00  0.14999999963E+04  0.15000000000E+04  0.10566000000E+00 0.  1.
        994   -1    0    0    0    0 -0.00000000000E+00 -0.00000000000E+00  0.11368683772E-12  0.17120000000E+03  0.17120000000E+03 0.  0.
         13    1    1    2    0    0  0.12708201643E+02  0.14350234111E+02  0.64132781577E+02  0.66936181881E+02  0.10566000000E+00 0.  1.
        994    1    1    2    0    0 -0.40685403596E+01  0.23895638823E+01  0.30543610896E+01  0.17129224197E+03  0.17120000000E+03 0.  0.
        998    1    1    2    0    0 -0.86396612839E+01 -0.16739797993E+02  0.14328128536E+04  0.14329715762E+04  0.10000000000E+02 0.  1.
</event>
<event>
 5    1  0.1338396E-008  0.3805485E+03  0.7957747E-01  0.3448774E+00
         13   -1    0    0    0    0  0.00000000000E+00  0.00000000000E+00  0.14999999963E+04  0.15000000000E+04  0.10566000000E+00 0.  1.
        994   -1    0    0    0    0 -0.00000000000E+00 -0.00000000000E+00  0.11368683772E-12  0.17120000000E+03  0.17120000000E+03 0.  0.
         13    1    1    2    0    0 -0.68206374871E+01  0.16266723576E+02  0.39816196191E+02  0.43548456170E+02  0.10566000000E+00 0.  1.
        994    1    1    2    0    0 -0.15380905720E+02 -0.11903147325E+02  0.51197525709E+01  0.17237722890E+03  0.17120000000E+03 0.  0.
        998    1    1    2    0    0  0.22201543207E+02 -0.43635762510E+01  0.14550640475E+04  0.14552743149E+04  0.10000000000E+02 0.  1.
</event>
<event>
 5    1  0.1338396E-008  0.3795808E+03  0.7957747E-01  0.3452986E+00
         13   -1    0    0    0    0  0.00000000000E+00  0.00000000000E+00  0.14999999963E+04  0.15000000000E+04  0.10566000000E+00 0.  1.
        994   -1    0    0    0    0 -0.00000000000E+00 -0.00000000000E+00  0.11368683772E-12  0.17120000000E+03  0.17120000000E+03 0.  0.
         13    1    1    2    0    0  0.13687003180E+02  0.16442539765E+02  0.50589960002E+02  0.54927646837E+02  0.10566000000E+00 0.  1.
        994    1    1    2    0    0 -0.94881637914E+01 -0.13340809082E+02  0.52425625686E+01  0.17206082326E+03  0.17120000000E+03 0.  0.
        998    1    1    2    0    0 -0.41988393881E+01 -0.31017306837E+01  0.14441674737E+04  0.14442115299E+04  0.10000000000E+02 0.  1.
</event>
<event>
 5    1  0.1338396E-008  0.3828910E+03  0.7957747E-01  0.3438666E+00
         13   -1    0    0    0    0  0.00000000000E+00  0.00000000000E+00  0.14999999963E+04  0.15000000000E+04  0.10566000000E+00 0.  1.
        994   -1    0    0    0    0 -0.00000000000E+00 -0.00000000000E+00  0.11368683772E-12  0.17120000000E+03  0.17120000000E+03 0.  0.
         13    1    1    2    0    0 -0.32636021438E+02  0.15907131319E+02  0.21039293191E+03  0.21350256131E+03  0.10566000000E+00 0.  1.
        994    1    1    2    0    0  0.32234862952E+02 -0.20543759834E+02  0.75342251029E+01  0.17557715400E+03  0.17120000000E+03 0.  0.
        998    1    1    2    0    0  0.40115848570E+00  0.46366285150E+01  0.12820728393E+04  0.12821202847E+04  0.10000000000E+02 0.  1.
</event>
<event>
 5    1  0.1338396E-008  0.3698845E+03  0.7957747E-01  0.3496422E+00
         13   -1    0    0    0    0  0.00000000000E+00  0.00000000000E+00  0.14999999963E+04  0.15000000000E+04  0.10566000000E+00 0. -1.
        994   -1    0    0    0    0 -0.00000000000E+00 -0.00000000000E+00  0.11368683772E-12  0.17120000000E+03  0.17120000000E+03 0.  0.
         13    1    1    2    0    0  0.13409901652E+02 -0.36886075046E+02  0.96116225875E+02  0.10382074954E+03  0.10566000000E+00 0. -1.
        994    1    1    2    0    0 -0.22682232544E+02 -0.37339460949E+02  0.15960830399E+02  0.17740605154E+03  0.17120000000E+03 0.  0.
        998    1    1    2    0    0  0.92723308921E+01  0.74225535995E+02  0.13879229400E+04  0.13899731989E+04  0.10000000000E+02 0. -1.
</event>
<event>
 5    1  0.1338396E-008  0.3769405E+03  0.7957747E-01  0.3464589E+00
         13   -1    0    0    0    0  0.00000000000E+00  0.00000000000E+00  0.14999999963E+04  0.15000000000E+04  0.10566000000E+00 0.  1.
        994   -1    0    0    0    0 -0.00000000000E+00 -0.00000000000E+00  0.11368683772E-12  0.17120000000E+03  0.17120000000E+03 0.  0.
         13    1    1    2    0    0  0.23386559017E+02  0.52380898545E+01  0.53025049156E+02  0.58189653118E+02  0.10566000000E+00 0.  1.
        994    1    1    2    0    0  0.19780092774E+02 -0.36156907905E+02  0.11443416826E+02  0.17646236383E+03  0.17120000000E+03 0.  0.
        998    1    1    2    0    0 -0.43166651791E+02  0.30918818051E+02  0.14355315303E+04  0.14365479831E+04  0.10000000000E+02 0.  1.
</event>
<event>
 5    1  0.1338396E-008  0.3775664E+03  0.7957747E-01  0.3461824E+00
         13   -1    0    0    0    0  0.00000000000E+00  0.00000000000E+00  0.14999999963E+04  0.15000000000E+04  0.10566000000E+00 0.  1.
        994   -1    0    0    0    0 -0.00000000000E+00 -0.00000000000E+00  0.11368683772E-12  0.17120000000E+03  0.17120000000E+03 0.  0.
         13    1    1    2    0    0 -0.23467964963E+02  0.18242554585E+02  0.79602085678E+02  0.84970814905E+02  0.10566000000E+00 0.  1.
        994    1    1    2    0    0  0.17069474904E+02 -0.11946372902E+02  0.68309314708E+01  0.17259833262E+03  0.17120000000E+03 0.  0.
        998    1    1    2    0    0  0.63984900590E+01 -0.62961816825E+01  0.14135669791E+04  0.14136308525E+04  0.10000000000E+02 0.  1.
</event>
<event>
 5    1  0.1338396E-008  0.3829947E+03  0.7957747E-01  0.3438222E+00
         13   -1    0    0    0    0  0.00000000000E+00  0.00000000000E+00  0.14999999963E+04  0.15000000000E+04  0.10566000000E+00 0.  1.
        994   -1    0    0    0    0 -0.00000000000E+00 -0.00000000000E+00  0.11368683772E-12  0.17120000000E+03  0.17120000000E+03 0.  0.
         13    1    1    2    0    0  0.35843492782E+01  0.96547212352E+01  0.17337729838E+02  0.20166041799E+02  0.10566000000E+00 0.  1.
        994    1    1    2    0    0 -0.33576326092E+02 -0.31294528616E+02  0.96341209788E+01  0.17750767161E+03  0.17120000000E+03 0.  0.
        998    1    1    2    0    0  0.29991976814E+02  0.21639807381E+02  0.14730281455E+04  0.14735262866E+04  0.10000000000E+02 0.  1.
</event>
<event>
 5    1  0.1338396E-008  0.3977035E+03  0.7957747E-01  0.3377519E+00
         13   -1    0    0    0    0  0.00000000000E+00  0.00000000000E+00  0.14999999963E+04  0.15000000000E+04  0.10566000000E+00 0.  1.
        994   -1    0    0    0    0 -0.00000000000E+00 -0.00000000000E+00  0.11368683772E-12  0.17120000000E+03  0.17120000000E+03 0.  0.
         13    1    1    2    0    0  0.21494137784E+02 -0.63428062172E+02  0.78000450108E+02  0.10280660685E+03  0.10566000000E+00 0.  1.
        994    1    1    2    0    0 -0.24189067220E+02  0.35495701774E+02  0.33602086643E+02  0.17967636473E+03  0.17120000000E+03 0.  0.
        998    1    1    2    0    0  0.26949294362E+01  0.27932360397E+02  0.13883974595E+04  0.13887170284E+04  0.10000000000E+02 0.  1.
</event>
<event>
 5    1  0.1338396E-008  0.3792078E+03  0.7957747E-01  0.3454615E+00
         13   -1    0    0    0    0  0.00000000000E+00  0.00000000000E+00  0.14999999963E+04  0.15000000000E+04  0.10566000000E+00 0. -1.
        994   -1    0    0    0    0 -0.00000000000E+00 -0.00000000000E+00  0.11368683772E-12  0.17120000000E+03  0.17120000000E+03 0.  0.
         13    1    1    2    0    0 -0.40882130982E+02 -0.10010555615E+02  0.17876079844E+03  0.18364910586E+03  0.10566000000E+00 0. -1.
        994    1    1    2    0    0  0.35410906077E+02  0.97085729310E+01  0.90655799993E+01  0.17532773140E+03  0.17120000000E+03 0.  0.
        998    1    1    2    0    0  0.54712249046E+01  0.30198268356E+00  0.13121736178E+04  0.13122231627E+04  0.10000000000E+02 0. -1.
</event>
<event>
 5    1  0.1338396E-008  0.3832372E+03  0.7957747E-01  0.3437183E+00
         13   -1    0    0    0    0  0.00000000000E+00  0.00000000000E+00  0.14999999963E+04  0.15000000000E+04  0.10566000000E+00 0. -1.
        994   -1    0    0    0    0 -0.00000000000E+00 -0.00000000000E+00  0.11368683772E-12  0.17120000000E+03  0.17120000000E+03 0.  0.
         13    1    1    2    0    0 -0.24288977730E+02  0.42258783831E+01  0.13880712932E+03  0.14097958293E+03  0.10566000000E+00 0. -1.
        994    1    1    2    0    0 -0.28455369573E+01  0.17406806822E+01  0.25446769337E+01  0.17125140125E+03  0.17120000000E+03 0.  0.
        998    1    1    2    0    0  0.27134514687E+02 -0.59665590653E+01  0.13586481900E+04  0.13589690158E+04  0.10000000000E+02 0. -1.
</event>
<event>
 5    1  0.1338396E-008  0.3804298E+03  0.7957747E-01  0.3449289E+00
         13   -1    0    0    0    0  0.00000000000E+00  0.00000000000E+00  0.14999999963E+04  0.15000000000E+04  0.10566000000E+00 0.  1.
        994   -1    0    0    0    0 -0.00000000000E+00 -0.00000000000E+00  0.11368683772E-12  0.17120000000E+03  0.17120000000E+03 0.  0.
         13    1    1    2    0    0  0.24000860116E+01  0.35703368468E+02  0.14579142684E+03  0.15011876044E+03  0.10566000000E+00 0.  1.
        994    1    1    2    0    0 -0.73605569665E+01 -0.37593050725E+02  0.88303983027E+01  0.17565543315E+03  0.17120000000E+03 0.  0.
        998    1    1    2    0    0  0.49604709549E+01  0.18896822567E+01  0.13453781711E+04  0.13454258064E+04  0.10000000000E+02 0.  1.
</event>
<event>
 5    1  0.1338396E-008  0.3704129E+03  0.7957747E-01  0.3493995E+00
         13   -1    0    0    0    0  0.00000000000E+00  0.00000000000E+00  0.14999999963E+04  0.15000000000E+04  0.10566000000E+00 0.  1.
        994   -1    0    0    0    0 -0.00000000000E+00 -0.00000000000E+00  0.11368683772E-12  0.17120000000E+03  0.17120000000E+03 0.  0.
         13    1    1    2    0    0 -0.13837530772E+03  0.22551178593E+02  0.36901498552E+03  0.39475100019E+03  0.10566000000E+00 0.  1.
        994    1    1    2    0    0  0.22039764044E+03 -0.56614127418E+02  0.21678429188E+03  0.35788985532E+03  0.17120000000E+03 0.  0.
        998    1    1    2    0    0 -0.82022332714E+02  0.34062948825E+02  0.91420071887E+03  0.91855914449E+03  0.10000000000E+02 0. -1.
</event>
<event>
 5    1  0.1338396E-008  0.3776837E+03  0.7957747E-01  0.3461307E+00
         13   -1    0    0    0    0  0.00000000000E+00  0.00000000000E+00  0.14999999963E+04  0.15000000000E+04  0.10566000000E+00 0.  1.
        994   -1    0    0    0    0 -0.00000000000E+00 -0.00000000000E+00  0.11368683772E-12  0.17120000000E+03  0.17120000000E+03 0.  0.
         13    1    1    2    0    0 -0.45772470145E+02 -0.47353609304E+02  0.34304995298E+03  0.34931470731E+03  0.10566000000E+00 0.  1.
        994    1    1    2    0    0  0.42469494993E+02  0.37944919005E+02  0.16312339291E+02  0.18116017028E+03  0.17120000000E+03 0.  0.
        998    1    1    2    0    0  0.33029751521E+01  0.94086902991E+01  0.11406377040E+04  0.11407251224E+04  0.10000000000E+02 0.  1.
</event>
<event>
 5    1  0.1338396E-008  0.3330358E+03  0.7957747E-01  0.3685176E+00
         13   -1    0    0    0    0  0.00000000000E+00  0.00000000000E+00  0.14999999963E+04  0.15000000000E+04  0.10566000000E+00 0. -1.
        994   -1    0    0    0    0 -0.00000000000E+00 -0.00000000000E+00  0.11368683772E-12  0.17120000000E+03  0.17120000000E+03 0.  0.
         13    1    1    2    0    0  0.18365007445E+03 -0.98450020334E+02  0.91724662702E+03  0.94061742611E+03  0.10566000000E+00 0. -1.
        994    1    1    2    0    0 -0.16687351427E+03  0.59559982848E+02  0.13543378808E+03  0.28115104886E+03  0.17120000000E+03 0.  0.
        998    1    1    2    0    0 -0.16776560176E+02  0.38890037486E+02  0.44731958118E+03  0.44943152503E+03  0.10000000000E+02 0. -1.
</event>
<event>
 5    1  0.1338396E-008  0.3844076E+03  0.7957747E-01  0.3432189E+00
         13   -1    0    0    0    0  0.00000000000E+00  0.00000000000E+00  0.14999999963E+04  0.15000000000E+04  0.10566000000E+00 0. -1.
        994   -1    0    0    0    0 -0.00000000000E+00 -0.00000000000E+00  0.11368683772E-12  0.17120000000E+03  0.17120000000E+03 0.  0.
         13    1    1    2    0    0 -0.19736481041E+02  0.86046465744E+01  0.11794739039E+03  0.11989648323E+03  0.10566000000E+00 0. -1.
        994    1    1    2    0    0  0.16378841783E+02 -0.19268468841E+01  0.28212274163E+01  0.17201563453E+03  0.17120000000E+03 0.  0.
        998    1    1    2    0    0  0.33576392585E+01 -0.66777996903E+01  0.13792313785E+04  0.13792878822E+04  0.10000000000E+02 0. -1.
</event>
<event>
 5    1  0.1338396E-008  0.4045678E+03  0.7957747E-01  0.3350698E+00
         13   -1    0    0    0    0  0.00000000000E+00  0.00000000000E+00  0.14999999963E+04  0.15000000000E+04  0.10566000000E+00 0.  1.
        994   -1    0    0    0    0 -0.00000000000E+00 -0.00000000000E+00  0.11368683772E-12  0.17120000000E+03  0.17120000000E+03 0.  0.
         13    1    1    2    0    0 -0.12928671533E+02  0.62479158531E+01 -0.10237274598E+02  0.17635190823E+02  0.10566000000E+00 0.  1.
        994    1    1    2    0    0  0.11995301666E+02 -0.49019976115E+01  0.31210644610E+02  0.17450347039E+03  0.17120000000E+03 0.  0.
        998    1    1    2    0    0  0.93336986679E+00 -0.13459182416E+01  0.14790266263E+04  0.14790613388E+04  0.10000000000E+02 0.  1.
</event>
<event>
 5    1  0.1338396E-008  0.3758958E+03  0.7957747E-01  0.3469226E+00
         13   -1    0    0    0    0  0.00000000000E+00  0.00000000000E+00  0.14999999963E+04  0.15000000000E+04  0.10566000000E+00 0.  1.
        994   -1    0    0    0    0 -0.00000000000E+00 -0.00000000000E+00  0.11368683772E-12  0.17120000000E+03  0.17120000000E+03 0.  0.
         13    1    1    2    0    0  0.12237895820E+02 -0.16135253872E+02  0.30324328908E+02  0.36464895439E+02  0.10566000000E+00 0.  1.
        994    1    1    2    0    0 -0.24167350080E+01  0.16915140508E+02  0.72095014033E+01  0.17220156648E+03  0.17120000000E+03 0.  0.
        998    1    1    2    0    0 -0.98211608116E+01 -0.77988663613E+00  0.14624661660E+04  0.14625335381E+04  0.10000000000E+02 0.  1.
</event>
<event>
 5    1  0.1338396E-008  0.3763269E+03  0.7957747E-01  0.3467309E+00
         13   -1    0    0    0    0  0.00000000000E+00  0.00000000000E+00  0.14999999963E+04  0.15000000000E+04  0.10566000000E+00 0.  1.
        994   -1    0    0    0    0 -0.00000000000E+00 -0.00000000000E+00  0.11368683772E-12  0.17120000000E+03  0.17120000000E+03 0.  0.
         13    1    1    2    0    0 -0.63446619981E+02  0.32792103787E+02  0.23939426935E+03  0.24982078180E+03  0.10566000000E+00 0.  1.
        994    1    1    2    0    0 -0.26400953255E+02 -0.60280665568E+01  0.16950499857E+02  0.17415541153E+03  0.17120000000E+03 0.  0.
        998    1    1    2    0    0  0.89847573235E+02 -0.26764037230E+02  0.12436552271E+04  0.12472238067E+04  0.10000000000E+02 0.  1.
</event>
<event>
 5    1  0.1338396E-008  0.3729356E+03  0.7957747E-01  0.3482507E+00
         13   -1    0    0    0    0  0.00000000000E+00  0.00000000000E+00  0.14999999963E+04  0.15000000000E+04  0.10566000000E+00 0. -1.
        994   -1    0    0    0    0 -0.00000000000E+00 -0.00000000000E+00  0.11368683772E-12  0.17120000000E+03  0.17120000000E+03 0.  0.
         13    1    1    2    0    0 -0.11346535350E+03  0.91526673813E+02  0.54948608354E+03  0.56849493017E+03  0.10566000000E+00 0. -1.
        994    1    1    2    0    0  0.13400207506E+03 -0.55245263760E+02  0.90919452652E+02  0.24204210823E+03  0.17120000000E+03 0.  0.
        998    1    1    2    0    0 -0.20536721552E+02 -0.36281410054E+02  0.85959446009E+03  0.86066296160E+03  0.10000000000E+02 0.  1.
</event>
<event>
 5    1  0.1338396E-008  0.3786946E+03  0.7957747E-01  0.3456862E+00
         13   -1    0    0    0    0  0.00000000000E+00  0.00000000000E+00  0.14999999963E+04  0.15000000000E+04  0.10566000000E+00 0.  1.
        994   -1    0    0    0    0 -0.00000000000E+00 -0.00000000000E+00  0.11368683772E-12  0.17120000000E+03  0.17120000000E+03 0.  0.
         13    1    1    2    0    0  0.40474482348E+02 -0.29394221104E+02  0.74389662053E+02  0.89643945362E+02  0.10566000000E+00 0.  1.
        994    1    1    2    0    0 -0.28426785530E+02  0.21086338178E+02  0.20143020275E+02  0.17597697878E+03  0.17120000000E+03 0.  0.
        998    1    1    2    0    0 -0.12047696818E+02  0.83078829262E+01  0.14054673140E+04  0.14055790759E+04  0.10000000000E+02 0.  1.
</event>
<event>
 5    1  0.1338396E-008  0.3749121E+03  0.7957747E-01  0.3473616E+00
         13   -1    0    0    0    0  0.00000000000E+00  0.00000000000E+00  0.14999999963E+04  0.15000000000E+04  0.10566000000E+00 0. -1.
        994   -1    0    0    0    0 -0.00000000000E+00 -0.00000000000E+00  0.11368683772E-12  0.17120000000E+03  0.17120000000E+03 0.  0.
         13    1    1    2    0    0 -0.57946883700E+02  0.66834436542E+02  0.40075488937E+03  0.41040123752E+03  0.10566000000E+00 0. -1.
        994    1    1    2    0    0  0.46032443537E+02 -0.84960672699E+02  0.39166851471E+02  0.20045145053E+03  0.17120000000E+03 0.  0.
        998    1    1    2    0    0  0.11914440162E+02  0.18126236157E+02  0.10600782554E+04  0.10603473120E+04  0.10000000000E+02 0. -1.
</event>
<event>
 5    1  0.1338396E-008  0.3867387E+03  0.7957747E-01  0.3422332E+00
         13   -1    0    0    0    0  0.00000000000E+00  0.00000000000E+00  0.14999999963E+04  0.15000000000E+04  0.10566000000E+00 0.  1.
        994   -1    0    0    0    0 -0.00000000000E+00 -0.00000000000E+00  0.11368683772E-12  0.17120000000E+03  0.17120000000E+03 0.  0.
         13    1    1    2    0    0 -0.89804822721E+02 -0.37152024974E+02  0.35983922588E+03  0.37273242251E+03  0.10566000000E+00 0.  1.
        994    1    1    2    0    0 -0.55160901530E+02  0.14794613925E+03  0.11985195776E+03  0.26192502163E+03  0.17120000000E+03 0.  0.
        998    1    1    2    0    0  0.14496572425E+03 -0.11079411428E+03  0.10203088126E+04  0.10365425559E+04  0.10000000000E+02 0. -1.
</event>
<event>
 5    1  0.1338396E-008  0.3856448E+03  0.7957747E-01  0.3426942E+00
         13   -1    0    0    0    0  0.00000000000E+00  0.00000000000E+00  0.14999999963E+04  0.15000000000E+04  0.10566000000E+00 0. -1.
        994   -1    0    0    0    0 -0.00000000000E+00 -0.00000000000E+00  0.11368683772E-12  0.17120000000E+03  0.17120000000E+03 0.  0.
         13    1    1    2    0    0  0.20939876233E+02  0.70865883697E+01  0.13189372640E+03  0.13373355742E+03  0.10566000000E+00 0. -1.
        994    1    1    2    0    0 -0.62667972554E+02  0.17168478837E+02  0.15290800187E+02  0.18375331295E+03  0.17120000000E+03 0.  0.
        998    1    1    2    0    0  0.41728096321E+02 -0.24255067207E+02  0.13528154697E+04  0.13537131296E+04  0.10000000000E+02 0. -1.
</event>
<event>
 5    1  0.1338396E-008  0.3813146E+03  0.7957747E-01  0.3445454E+00
         13   -1    0    0    0    0  0.00000000000E+00  0.00000000000E+00  0.14999999963E+04  0.15000000000E+04  0.10566000000E+00 0. -1.
        994   -1    0    0    0    0 -0.00000000000E+00 -0.00000000000E+00  0.11368683772E-12  0.17120000000E+03  0.17120000000E+03 0.  0.
         13    1    1    2    0    0  0.31679042646E+02  0.29574921410E+02  0.21002030008E+03  0.21444527351E+03  0.10566000000E+00 0. -1.
        994    1    1    2    0    0 -0.50087949457E+02 -0.29528622426E+02  0.14806576691E+02  0.18140952824E+03  0.17120000000E+03 0.  0.
        998    1    1    2    0    0  0.18408906811E+02 -0.46298983840E-01  0.12751731195E+04  0.12753451982E+04  0.10000000000E+02 0. -1.
</event>
<event>
 5    1  0.1338396E-008  0.3847860E+03  0.7957747E-01  0.3430580E+00
         13   -1    0    0    0    0  0.00000000000E+00  0.00000000000E+00  0.14999999963E+04  0.15000000000E+04  0.10566000000E+00 0. -1.
        994   -1    0    0    0    0 -0.00000000000E+00 -0.00000000000E+00  0.11368683772E-12  0.17120000000E+03  0.17120000000E+03 0.  0.
         13    1    1    2    0    0  0.99817833688E+01 -0.11115981240E+02  0.66748214667E+02  0.68399827217E+02  0.10566000000E+00 0. -1.
        994    1    1    2    0    0  0.35584730267E+01  0.80662845552E+01  0.19922710225E+01  0.17143843449E+03  0.17120000000E+03 0.  0.
        998    1    1    2    0    0 -0.13540256396E+02  0.30496966845E+01  0.14312595106E+04  0.14313617383E+04  0.10000000000E+02 0. -1.
</event>
<event>
 5    1  0.1338396E-008  0.3763514E+03  0.7957747E-01  0.3467201E+00
         13   -1    0    0    0    0  0.00000000000E+00  0.00000000000E+00  0.14999999963E+04  0.15000000000E+04  0.10566000000E+00 0.  1.
        994   -1    0    0    0    0 -0.00000000000E+00 -0.00000000000E+00  0.11368683772E-12  0.17120000000E+03  0.17120000000E+03 0.  0.
         13    1    1    2    0    0 -0.38728760049E+01  0.21244123964E+02  0.35632396450E+02  0.41665223057E+02  0.10566000000E+00 0.  1.
        994    1    1    2    0    0  0.52505596148E+01 -0.22591103172E+02  0.78087095478E+01  0.17294028525E+03  0.17120000000E+03 0.  0.
        998    1    1    2    0    0 -0.13776836100E+01  0.13469792085E+01  0.14565588903E+04  0.14565944917E+04  0.10000000000E+02 0.  1.
</event>
<event>
 5    1  0.1338396E-008  0.3809984E+03  0.7957747E-01  0.3446823E+00
         13   -1    0    0    0    0  0.00000000000E+00  0.00000000000E+00  0.14999999963E+04  0.15000000000E+04  0.10566000000E+00 0. -1.
        994   -1    0    0    0    0 -0.00000000000E+00 -0.00000000000E+00  0.11368683772E-12  0.17120000000E+03  0.17120000000E+03 0.  0.
         13    1    1    2    0    0 -0.24495505447E+02  0.37536992574E+02  0.25225471257E+03  0.25620598505E+03  0.10566000000E+00 0. -1.
        994    1    1    2    0    0  0.37416459907E+02 -0.19103505547E+02  0.95330909534E+01  0.17653683814E+03  0.17120000000E+03 0.  0.
        998    1    1    2    0    0 -0.12920954460E+02 -0.18433487027E+02  0.12382121928E+04  0.12384571768E+04  0.10000000000E+02 0. -1.
</event>
<event>
 5    1  0.1338396E-008  0.3793641E+03  0.7957747E-01  0.3453932E+00
         13   -1    0    0    0    0  0.00000000000E+00  0.00000000000E+00  0.14999999963E+04  0.15000000000E+04  0.10566000000E+00 0.  1.
        994   -1    0    0    0    0 -0.00000000000E+00 -0.00000000000E+00  0.11368683772E-12  0.17120000000E+03  0.17120000000E+03 0.  0.
         13    1    1    2    0    0 -0.21016145762E+02  0.86405818942E+01  0.58645575816E+02  0.62893980356E+02  0.10566000000E+00 0.  1.
        994    1    1    2    0    0  0.49171238557E+01  0.91251716875E+00  0.45382874897E+01  0.17133314579E+03  0.17120000000E+03 0.  0.
        998    1    1    2    0    0  0.16099021906E+02 -0.95530990629E+01  0.14368161330E+04  0.14369728738E+04  0.10000000000E+02 0.  1.
</event>
<event>
 5    1  0.1338396E-008  0.3795724E+03  0.7957747E-01  0.3453023E+00
         13   -1    0    0    0    0  0.00000000000E+00  0.00000000000E+00  0.14999999963E+04  0.15000000000E+04  0.10566000000E+00 0.  1.
        994   -1    0    0    0    0 -0.00000000000E+00 -0.00000000000E+00  0.11368683772E-12  0.17120000000E+03  0.17120000000E+03 0.  0.
         13    1    1    2    0    0 -0.11247853226E+02  0.37727436171E+01  0.14362342014E+02  0.18628897679E+02  0.10566000000E+00 0.  1.
        994    1    1    2    0    0  0.61227213177E+01 -0.28076339284E+01  0.45010602007E+01  0.17139156942E+03  0.17120000000E+03 0.  0.
        998    1    1    2    0    0  0.51251319082E+01 -0.96510968868E+00  0.14811365941E+04  0.14811795329E+04  0.10000000000E+02 0.  1.
</event>
<event>
 5    1  0.1338396E-008  0.3846007E+03  0.7957747E-01  0.3431367E+00
         13   -1    0    0    0    0  0.00000000000E+00  0.00000000000E+00  0.14999999963E+04  0.15000000000E+04  0.10566000000E+00 0. -1.
        994   -1    0    0    0    0 -0.00000000000E+00 -0.00000000000E+00  0.11368683772E-12  0.17120000000E+03  0.17120000000E+03 0.  0.
         13    1    1    2    0    0 -0.57688871270E+01  0.19343508414E+02  0.10587001644E+03  0.10777719110E+03  0.10566000000E+00 0. -1.
        994    1    1    2    0    0  0.72036522186E+01 -0.17914210575E+02  0.30570871635E+01  0.17231249905E+03  0.17120000000E+03 0.  0.
        998    1    1    2    0    0 -0.14347650916E+01 -0.14292978393E+01  0.13910728927E+04  0.13911103099E+04  0.10000000000E+02 0.  0.
</event>
<event>
 5    1  0.1338396E-008  0.3693165E+03  0.7957747E-01  0.3499038E+00
         13   -1    0    0    0    0  0.00000000000E+00  0.00000000000E+00  0.14999999963E+04  0.15000000000E+04  0.10566000000E+00 0.  1.
        994   -1    0    0    0    0 -0.00000000000E+00 -0.00000000000E+00  0.11368683772E-12  0.17120000000E+03  0.17120000000E+03 0.  0.
         13    1    1    2    0    0 -0.11393233077E+03  0.13967085592E+02  0.51849328881E+03  0.53104703858E+03  0.10566000000E+00 0.  1.
        994    1    1    2    0    0  0.86632897181E+02 -0.92064898073E+01  0.37539336985E+02  0.19572598231E+03  0.17120000000E+03 0.  0.
        998    1    1    2    0    0  0.27299433594E+02 -0.47605957849E+01  0.94396737048E+03  0.94442697911E+03  0.10000000000E+02 0.  1.
</event>
<event>
 5    1  0.1338396E-008  0.3793837E+03  0.7957747E-01  0.3453847E+00
         13   -1    0    0    0    0  0.00000000000E+00  0.00000000000E+00  0.14999999963E+04  0.15000000000E+04  0.10566000000E+00 0.  1.
        994   -1    0    0    0    0 -0.00000000000E+00 -0.00000000000E+00  0.11368683772E-12  0.17120000000E+03  0.17120000000E+03 0.  0.
         13    1    1    2    0    0  0.14048571514E+02  0.88655423667E+01  0.29717592217E+02  0.34045655439E+02  0.10566000000E+00 0.  1.
        994    1    1    2    0    0 -0.67478035828E+00 -0.10369728577E+02  0.48063943018E+01  0.17158242342E+03  0.17120000000E+03 0.  0.
        998    1    1    2    0    0 -0.13373791156E+02  0.15041862104E+01  0.14654760098E+04  0.14655719211E+04  0.10000000000E+02 0.  1.
</event>
<event>
 5    1  0.1338396E-008  0.3827958E+03  0.7957747E-01  0.3439074E+00
         13   -1    0    0    0    0  0.00000000000E+00  0.00000000000E+00  0.14999999963E+04  0.15000000000E+04  0.10566000000E+00 0.  1.
        994   -1    0    0    0    0 -0.00000000000E+00 -0.00000000000E+00  0.11368683772E-12  0.17120000000E+03  0.17120000000E+03 0.  0.
         13    1    1    2    0    0 -0.60469305071E+02 -0.40178216395E+02  0.13180921579E+03  0.15048091726E+03  0.10566000000E+00 0.  1.
        994    1    1    2    0    0  0.60743964573E+02  0.32107417887E+02  0.35365760988E+02  0.18783208609E+03  0.17120000000E+03 0.  0.
        998    1    1    2    0    0 -0.27465950208E+00  0.80707985074E+01  0.13328250195E+04  0.13328869966E+04  0.10000000000E+02 0.  1.
</event>
<event>
 5    1  0.1338396E-008  0.3780431E+03  0.7957747E-01  0.3459724E+00
         13   -1    0    0    0    0  0.00000000000E+00  0.00000000000E+00  0.14999999963E+04  0.15000000000E+04  0.10566000000E+00 0. -1.
        994   -1    0    0    0    0 -0.00000000000E+00 -0.00000000000E+00  0.11368683772E-12  0.17120000000E+03  0.17120000000E+03 0.  0.
         13    1    1    2    0    0  0.29275753756E+02  0.26544292265E+02  0.17405860955E+03  0.17848831876E+03  0.10566000000E+00 0. -1.
        994    1    1    2    0    0 -0.18402017185E+02  0.18546559164E+02  0.74243977763E+01  0.17334119757E+03  0.17120000000E+03 0.  0.
        998    1    1    2    0    0 -0.10873736571E+02 -0.45090851429E+02  0.13185169890E+04  0.13193704837E+04  0.10000000000E+02 0. -1.
</event>
<event>
 5    1  0.1338396E-008  0.3850390E+03  0.7957747E-01  0.3429507E+00
         13   -1    0    0    0    0  0.00000000000E+00  0.00000000000E+00  0.14999999963E+04  0.15000000000E+04  0.10566000000E+00 0. -1.
        994   -1    0    0    0    0 -0.00000000000E+00 -0.00000000000E+00  0.11368683772E-12  0.17120000000E+03  0.17120000000E+03 0.  0.
         13    1    1    2    0    0 -0.16358025484E+02  0.84662708511E+01  0.10232565156E+03  0.10397024993E+03  0.10566000000E+00 0. -1.
        994    1    1    2    0    0  0.12389028187E+02 -0.96930832665E+01  0.24248704730E+01  0.17193825601E+03  0.17120000000E+03 0.  0.
        998    1    1    2    0    0  0.39689972974E+01  0.12268124154E+01  0.13952494742E+04  0.13952914941E+04  0.10000000000E+02 0. -1.
</event>
<event>
 5    1  0.1338396E-008  0.3852453E+03  0.7957747E-01  0.3428632E+00
         13   -1    0    0    0    0  0.00000000000E+00  0.00000000000E+00  0.14999999963E+04  0.15000000000E+04  0.10566000000E+00 0.  1.
        994   -1    0    0    0    0 -0.00000000000E+00 -0.00000000000E+00  0.11368683772E-12  0.17120000000E+03  0.17120000000E+03 0.  0.
         13    1    1    2    0    0 -0.75019961265E+01 -0.97543506441E+01  0.50666811605E+02  0.52139852940E+02  0.10566000000E+00 0.  1.
        994    1    1    2    0    0  0.19578661733E+01  0.71950942527E+01  0.16911125226E+01  0.17137065817E+03  0.17120000000E+03 0.  0.
        998    1    1    2    0    0  0.55441299532E+01  0.25592563914E+01  0.14476420722E+04  0.14476894889E+04  0.10000000000E+02 0.  1.
</event>
<event>
 5    1  0.1338396E-008  0.3812699E+03  0.7957747E-01  0.3445647E+00
         13   -1    0    0    0    0  0.00000000000E+00  0.00000000000E+00  0.14999999963E+04  0.15000000000E+04  0.10566000000E+00 0.  1.
        994   -1    0    0    0    0 -0.00000000000E+00 -0.00000000000E+00  0.11368683772E-12  0.17120000000E+03  0.17120000000E+03 0.  0.
         13    1    1    2    0    0 -0.11481289998E+02  0.22178749352E+02  0.84351019883E+02  0.87970578390E+02  0.10566000000E+00 0.  1.
        994    1    1    2    0    0  0.72803552200E+01 -0.23327526411E+02  0.54839629248E+01  0.17302222664E+03  0.17120000000E+03 0.  0.
        998    1    1    2    0    0  0.42009347779E+01  0.11487770588E+01  0.14101650135E+04  0.14102071950E+04  0.10000000000E+02 0.  1.
</event>
<event>
 5    1  0.1338396E-008  0.3701714E+03  0.7957747E-01  0.3495103E+00
         13   -1    0    0    0    0  0.00000000000E+00  0.00000000000E+00  0.14999999963E+04  0.15000000000E+04  0.10566000000E+00 0.  1.
        994   -1    0    0    0    0 -0.00000000000E+00 -0.00000000000E+00  0.11368683772E-12  0.17120000000E+03  0.17120000000E+03 0.  0.
         13    1    1    2    0    0 -0.72764910609E+01 -0.10052249453E+02  0.18671539277E+01  0.12549600354E+02  0.10566000000E+00 0.  1.
        994    1    1    2    0    0  0.91889010658E+01  0.67182892884E+01  0.11482863056E+02  0.17196181977E+03  0.17120000000E+03 0.  0.
        998    1    1    2    0    0 -0.19124100049E+01  0.33339601649E+01  0.14866499793E+04  0.14866885799E+04  0.10000000000E+02 0.  1.
</event>
<event>
 5    1  0.1338396E-008  0.3692018E+03  0.7957747E-01  0.3499567E+00
         13   -1    0    0    0    0  0.00000000000E+00  0.00000000000E+00  0.14999999963E+04  0.15000000000E+04  0.10566000000E+00 0. -1.
        994   -1    0    0    0    0 -0.00000000000E+00 -0.00000000000E+00  0.11368683772E-12  0.17120000000E+03  0.17120000000E+03 0.  0.
         13    1    1    2    0    0  0.31696547902E+02  0.17507127966E+02  0.55915608634E+02  0.66616342826E+02  0.10566000000E+00 0. -1.
        994    1    1    2    0    0 -0.32803989093E+02 -0.21166266894E+02  0.15849564987E+02  0.17630871012E+03  0.17120000000E+03 0.  0.
        998    1    1    2    0    0  0.11074411902E+01  0.36591389283E+01  0.14282348227E+04  0.14282749471E+04  0.10000000000E+02 0. -1.
</event>
<event>
 5    1  0.1338396E-008  0.3715071E+03  0.7957747E-01  0.3488993E+00
         13   -1    0    0    0    0  0.00000000000E+00  0.00000000000E+00  0.14999999963E+04  0.15000000000E+04  0.10566000000E+00 0. -1.
        994   -1    0    0    0    0 -0.00000000000E+00 -0.00000000000E+00  0.11368683772E-12  0.17120000000E+03  0.17120000000E+03 0.  0.
         13    1    1    2    0    0  0.17724034216E+02  0.74645049726E+02  0.24266451280E+03  0.25450363804E+03  0.10566000000E+00 0. -1.
        994    1    1    2    0    0  0.49944425449E+01 -0.51479029587E+02  0.21199440430E+02  0.18009411767E+03  0.17120000000E+03 0.  0.
        998    1    1    2    0    0 -0.22718476761E+02 -0.23166020139E+02  0.12361360430E+04  0.12366022443E+04  0.10000000000E+02 0. -1.
</event>
<event>
 5    1  0.1338396E-008  0.3743111E+03  0.7957747E-01  0.3476309E+00
         13   -1    0    0    0    0  0.00000000000E+00  0.00000000000E+00  0.14999999963E+04  0.15000000000E+04  0.10566000000E+00 0.  1.
        994   -1    0    0    0    0 -0.00000000000E+00 -0.00000000000E+00  0.11368683772E-12  0.17120000000E+03  0.17120000000E+03 0.  0.
         13    1    1    2    0    0  0.15127478916E+02  0.23533743058E+02  0.23219401862E+02  0.36356972750E+02  0.10566000000E+00 0.  1.
        994    1    1    2    0    0 -0.37048514937E+02 -0.18112781125E+02  0.19297894209E+02  0.17715110505E+03  0.17120000000E+03 0.  0.
        998    1    1    2    0    0  0.21921036022E+02 -0.54209619323E+01  0.14574827002E+04  0.14576919222E+04  0.10000000000E+02 0.  1.
</event>
<event>
 5    1  0.1338396E-008  0.3978847E+03  0.7957747E-01  0.3376800E+00
         13   -1    0    0    0    0  0.00000000000E+00  0.00000000000E+00  0.14999999963E+04  0.15000000000E+04  0.10566000000E+00 0. -1.
        994   -1    0    0    0    0 -0.00000000000E+00 -0.00000000000E+00  0.11368683772E-12  0.17120000000E+03  0.17120000000E+03 0.  0.
         13    1    1    2    0    0 -0.32099757504E+02 -0.25635376470E+02  0.20956995123E+02  0.46116957480E+02  0.10566000000E+00 0. -1.
        994    1    1    2    0    0  0.42096010826E+02  0.14488893353E+02  0.34251518993E+02  0.18017937926E+03  0.17120000000E+03 0.  0.
        998    1    1    2    0    0 -0.99962533223E+01  0.11146483118E+02  0.14447914822E+04  0.14449036633E+04  0.10000000000E+02 0. -1.
</event>
<event>
 5    1  0.1338396E-008  0.3792893E+03  0.7957747E-01  0.3454259E+00
         13   -1    0    0    0    0  0.00000000000E+00  0.00000000000E+00  0.14999999963E+04  0.15000000000E+04  0.10566000000E+00 0.  1.
        994   -1    0    0    0    0 -0.00000000000E+00 -0.00000000000E+00  0.11368683772E-12  0.17120000000E+03  0.17120000000E+03 0.  0.
         13    1    1    2    0    0  0.18772866630E+02  0.10649923629E+02  0.52226050140E+02  0.56510289967E+02  0.10566000000E+00 0.  1.
        994    1    1    2    0    0 -0.60086493535E+01  0.42202763028E+01  0.46730325242E+01  0.17142109506E+03  0.17120000000E+03 0.  0.
        998    1    1    2    0    0 -0.12764217277E+02 -0.14870199932E+02  0.14431009136E+04  0.14432686150E+04  0.10000000000E+02 0.  1.
</event>
<event>
 5    1  0.1338396E-008  0.3834856E+03  0.7957747E-01  0.3436120E+00
         13   -1    0    0    0    0  0.00000000000E+00  0.00000000000E+00  0.14999999963E+04  0.15000000000E+04  0.10566000000E+00 0.  1.
        994   -1    0    0    0    0 -0.00000000000E+00 -0.00000000000E+00  0.11368683772E-12  0.17120000000E+03  0.17120000000E+03 0.  0.
         13    1    1    2    0    0  0.64116538701E+01  0.79926574319E+01  0.21548930787E+02  0.23861254373E+02  0.10566000000E+00 0.  1.
        994    1    1    2    0    0  0.12334078317E+01 -0.36637064592E+01  0.24332666974E+01  0.17126092615E+03  0.17120000000E+03 0.  0.
        998    1    1    2    0    0 -0.76450617017E+01 -0.43289509727E+01  0.14760177988E+04  0.14760778195E+04  0.10000000000E+02 0.  1.
</event>
<event>
 5    1  0.1338396E-008  0.3712102E+03  0.7957747E-01  0.3490348E+00
         13   -1    0    0    0    0  0.00000000000E+00  0.00000000000E+00  0.14999999963E+04  0.15000000000E+04  0.10566000000E+00 0. -1.
        994   -1    0    0    0    0 -0.00000000000E+00 -0.00000000000E+00  0.11368683772E-12  0.17120000000E+03  0.17120000000E+03 0.  0.
         13    1    1    2    0    0  0.27145270442E+02 -0.16710454999E+02  0.38056469485E+02  0.49642834804E+02  0.10566000000E+00 0. -1.
        994    1    1    2    0    0 -0.25675871467E+02  0.24448258492E+02  0.16006059219E+02  0.17556366837E+03  0.17120000000E+03 0.  0.
        998    1    1    2    0    0 -0.14693989755E+01 -0.77378034934E+01  0.14459374676E+04  0.14459934968E+04  0.10000000000E+02 0. -1.
</event>
<event>
 5    1  0.1338396E-008  0.3764115E+03  0.7957747E-01  0.3466934E+00
         13   -1    0    0    0    0  0.00000000000E+00  0.00000000000E+00  0.14999999963E+04  0.15000000000E+04  0.10566000000E+00 0.  1.
        994   -1    0    0    0    0 -0.00000000000E+00 -0.00000000000E+00  0.11368683772E-12  0.17120000000E+03  0.17120000000E+03 0.  0.
         13    1    1    2    0    0  0.72045131206E+01 -0.11160102041E+02  0.12910944210E+02  0.18524484643E+02  0.10566000000E+00 0.  1.
        994    1    1    2    0    0 -0.13307032812E+01 -0.20621275110E+02  0.74016087906E+01  0.17260136608E+03  0.17120000000E+03 0.  0.
        998    1    1    2    0    0 -0.58738098394E+01  0.31781377151E+02  0.14796874433E+04  0.14800741493E+04  0.10000000000E+02 0.  1.
</event>
<event>
 5    1  0.1338396E-008  0.3836736E+03  0.7957747E-01  0.3435317E+00
         13   -1    0    0    0    0  0.00000000000E+00  0.00000000000E+00  0.14999999963E+04  0.15000000000E+04  0.10566000000E+00 0.  1.
        994   -1    0    0    0    0 -0.00000000000E+00 -0.00000000000E+00  0.11368683772E-12  0.17120000000E+03  0.17120000000E+03 0.  0.
         13    1    1    2    0    0 -0.11157707733E+02 -0.10155393080E+02  0.49446121977E+02  0.51696775461E+02  0.10566000000E+00 0.  1.
        994    1    1    2    0    0  0.50376704774E+01  0.72324942712E+01  0.25467181116E+01  0.17144565573E+03  0.17120000000E+03 0.  0.
        998    1    1    2    0    0  0.61200372553E+01  0.29228988089E+01  0.14480071562E+04  0.14480575688E+04  0.10000000000E+02 0.  1.
</event>
<event>
 5    1  0.1338396E-008  0.3793892E+03  0.7957747E-01  0.3453822E+00
         13   -1    0    0    0    0  0.00000000000E+00  0.00000000000E+00  0.14999999963E+04  0.15000000000E+04  0.10566000000E+00 0. -1.
        994   -1    0    0    0    0 -0.00000000000E+00 -0.00000000000E+00  0.11368683772E-12  0.17120000000E+03  0.17120000000E+03 0.  0.
         13    1    1    2    0    0 -0.49045592467E+01  0.95624903691E+01  0.10886223814E+02  0.15297612769E+02  0.10566000000E+00 0. -1.
        994    1    1    2    0    0  0.25206280685E+02 -0.19258518661E+01  0.65853913271E+01  0.17318161817E+03  0.17120000000E+03 0.  0.
        998    1    1    2    0    0 -0.20301721438E+02 -0.76366385030E+01  0.14825283811E+04  0.14827207691E+04  0.10000000000E+02 0. -1.
</event>
<event>
 5    1  0.1338396E-008  0.3846594E+03  0.7957747E-01  0.3431118E+00
         13   -1    0    0    0    0  0.00000000000E+00  0.00000000000E+00  0.14999999963E+04  0.15000000000E+04  0.10566000000E+00 0.  1.
        994   -1    0    0    0    0 -0.00000000000E+00 -0.00000000000E+00  0.11368683772E-12  0.17120000000E+03  0.17120000000E+03 0.  0.
         13    1    1    2    0    0  0.48227211808E+01 -0.18364361801E+02  0.99974562069E+02  0.10176164626E+03  0.10566000000E+00 0.  1.
        994    1    1    2    0    0 -0.74521808279E+01  0.10630280801E+02  0.23543863287E+01  0.17170766146E+03  0.17120000000E+03 0.  0.
        998    1    1    2    0    0  0.26294596471E+01  0.77340809998E+01  0.13976710479E+04  0.13977306923E+04  0.10000000000E+02 0.  1.
</event>
<event>
 5    1  0.1338396E-008  0.3957435E+03  0.7957747E-01  0.3385348E+00
         13   -1    0    0    0    0  0.00000000000E+00  0.00000000000E+00  0.14999999963E+04  0.15000000000E+04  0.10566000000E+00 0. -1.
        994   -1    0    0    0    0 -0.00000000000E+00 -0.00000000000E+00  0.11368683772E-12  0.17120000000E+03  0.17120000000E+03 0.  0.
         13    1    1    2    0    0  0.16121529654E+02  0.46183067620E+02  0.45224766574E+02  0.66618842146E+02  0.10566000000E+00 0. -1.
        994    1    1    2    0    0 -0.47287237598E+02  0.58908605539E+02  0.47568854865E+02  0.19307652006E+03  0.17120000000E+03 0.  0.
        998    1    1    2    0    0  0.31165707944E+02 -0.10509167316E+03  0.14072063748E+04  0.14115046378E+04  0.10000000000E+02 0. -1.
</event>
<event>
 5    1  0.1338396E-008  0.3848376E+03  0.7957747E-01  0.3430361E+00
         13   -1    0    0    0    0  0.00000000000E+00  0.00000000000E+00  0.14999999963E+04  0.15000000000E+04  0.10566000000E+00 0. -1.
        994   -1    0    0    0    0 -0.00000000000E+00 -0.00000000000E+00  0.11368683772E-12  0.17120000000E+03  0.17120000000E+03 0.  0.
         13    1    1    2    0    0  0.42277583807E+01  0.10440411074E+02  0.38203129284E+02  0.39829215099E+02  0.10566000000E+00 0. -1.
        994    1    1    2    0    0 -0.58412291871E+01  0.21216395871E+01  0.18378798939E+01  0.17132261706E+03  0.17120000000E+03 0.  0.
        998    1    1    2    0    0  0.16134708064E+01 -0.12562050662E+02  0.14599589871E+04  0.14600481678E+04  0.10000000000E+02 0. -1.
</event>
<event>
 5    1  0.1338396E-008  0.3702647E+03  0.7957747E-01  0.3494675E+00
         13   -1    0    0    0    0  0.00000000000E+00  0.00000000000E+00  0.14999999963E+04  0.15000000000E+04  0.10566000000E+00 0. -1.
        994   -1    0    0    0    0 -0.00000000000E+00 -0.00000000000E+00  0.11368683772E-12  0.17120000000E+03  0.17120000000E+03 0.  0.
         13    1    1    2    0    0  0.19711854906E+02  0.23636332380E+02  0.47881149309E+02  0.56919671954E+02  0.10566000000E+00 0. -1.
        994    1    1    2    0    0 -0.16137824742E+02 -0.17645242671E+02  0.11108529075E+02  0.17321842683E+03  0.17120000000E+03 0.  0.
        998    1    1    2    0    0 -0.35740301641E+01 -0.59910897094E+01  0.14410103179E+04  0.14410619012E+04  0.10000000000E+02 0. -1.
</event>
<event>
 5    1  0.1338396E-008  0.3846709E+03  0.7957747E-01  0.3431069E+00
         13   -1    0    0    0    0  0.00000000000E+00  0.00000000000E+00  0.14999999963E+04  0.15000000000E+04  0.10566000000E+00 0.  1.
        994   -1    0    0    0    0 -0.00000000000E+00 -0.00000000000E+00  0.11368683772E-12  0.17120000000E+03  0.17120000000E+03 0.  0.
         13    1    1    2    0    0  0.71093942907E+01  0.85641629227E+01  0.33609549168E+02  0.35404820760E+02  0.10566000000E+00 0.  1.
        994    1    1    2    0    0 -0.48813868369E+01 -0.11010633825E+02  0.22713253771E+01  0.17163816858E+03  0.17120000000E+03 0.  0.
        998    1    1    2    0    0 -0.22280074539E+01  0.24464709028E+01  0.14641191217E+04  0.14641570107E+04  0.10000000000E+02 0.  1.
</event>
<event>
 5    1  0.1338396E-008  0.3849042E+03  0.7957747E-01  0.3430078E+00
         13   -1    0    0    0    0  0.00000000000E+00  0.00000000000E+00  0.14999999963E+04  0.15000000000E+04  0.10566000000E+00 0.  1.
        994   -1    0    0    0    0 -0.00000000000E+00 -0.00000000000E+00  0.11368683772E-12  0.17120000000E+03  0.17120000000E+03 0.  0.
         13    1    1    2    0    0 -0.83183059655E+01  0.13289047113E+02  0.74983426749E+02  0.76604950482E+02  0.10566000000E+00 0.  1.
        994    1    1    2    0    0  0.23444929583E+01 -0.64806361311E+01  0.18339455326E+01  0.17134847139E+03  0.17120000000E+03 0.  0.
        998    1    1    2    0    0  0.59738130072E+01 -0.68084109822E+01  0.14231826240E+04  0.14232465781E+04  0.10000000000E+02 0.  1.
</event>
<event>
 5    1  0.1338396E-008  0.3808627E+03  0.7957747E-01  0.3447411E+00
         13   -1    0    0    0    0  0.00000000000E+00  0.00000000000E+00  0.14999999963E+04  0.15000000000E+04  0.10566000000E+00 0.  1.
        994   -1    0    0    0    0 -0.00000000000E+00 -0.00000000000E+00  0.11368683772E-12  0.17120000000E+03  0.17120000000E+03 0.  0.
         13    1    1    2    0    0  0.74784445759E+01  0.15731207749E+02  0.39106333613E+02  0.42810215173E+02  0.10566000000E+00 0.  1.
        994    1    1    2    0    0 -0.77443067270E+01 -0.13389583403E+02  0.44962478122E+01  0.17195613241E+03  0.17120000000E+03 0.  0.
        998    1    1    2    0    0  0.26586215110E+00 -0.23416243467E+01  0.14563974149E+04  0.14564336524E+04  0.10000000000E+02 0.  1.
</event>
<event>
 5    1  0.1338396E-008  0.3764948E+03  0.7957747E-01  0.3466565E+00
         13   -1    0    0    0    0  0.00000000000E+00  0.00000000000E+00  0.14999999963E+04  0.15000000000E+04  0.10566000000E+00 0. -1.
        994   -1    0    0    0    0 -0.00000000000E+00 -0.00000000000E+00  0.11368683772E-12  0.17120000000E+03  0.17120000000E+03 0.  0.
         13    1    1    2    0    0 -0.83055721714E+01 -0.19805807501E+02  0.36539374658E+02  0.42383836593E+02  0.10566000000E+00 0. -1.
        994    1    1    2    0    0  0.95255244124E+01  0.12568650317E+02  0.67547401565E+01  0.17205747034E+03  0.17120000000E+03 0.  0.
        998    1    1    2    0    0 -0.12199522411E+01  0.72371571841E+01  0.14567058815E+04  0.14567586931E+04  0.10000000000E+02 0. -1.
</event>
<event>
 5    1  0.1338396E-008  0.3759850E+03  0.7957747E-01  0.3468829E+00
         13   -1    0    0    0    0  0.00000000000E+00  0.00000000000E+00  0.14999999963E+04  0.15000000000E+04  0.10566000000E+00 0. -1.
        994   -1    0    0    0    0 -0.00000000000E+00 -0.00000000000E+00  0.11368683772E-12  0.17120000000E+03  0.17120000000E+03 0.  0.
         13    1    1    2    0    0  0.79000943941E+02 -0.82810406321E+02  0.61691256341E+03  0.62743910828E+03  0.10566000000E+00 0. -1.
        994    1    1    2    0    0 -0.82926099419E+02  0.76602267106E+02  0.50653033716E+02  0.21123402926E+03  0.17120000000E+03 0.  0.
        998    1    1    2    0    0  0.39251554786E+01  0.62081392146E+01  0.83243439915E+03  0.83252686247E+03  0.10000000000E+02 0.  0.
</event>
<event>
 5    1  0.1338396E-008  0.3846166E+03  0.7957747E-01  0.3431300E+00
         13   -1    0    0    0    0  0.00000000000E+00  0.00000000000E+00  0.14999999963E+04  0.15000000000E+04  0.10566000000E+00 0. -1.
        994   -1    0    0    0    0 -0.00000000000E+00 -0.00000000000E+00  0.11368683772E-12  0.17120000000E+03  0.17120000000E+03 0.  0.
         13    1    1    2    0    0  0.10002333282E+02  0.64505638683E+01  0.39752415283E+02  0.41496049574E+02  0.10566000000E+00 0. -1.
        994    1    1    2    0    0 -0.32388408654E+01  0.14894974571E+01  0.18624518271E+01  0.17124724062E+03  0.17120000000E+03 0.  0.
        998    1    1    2    0    0 -0.67634924167E+01 -0.79400613255E+01  0.14583851292E+04  0.14584567098E+04  0.10000000000E+02 0. -1.
</event>
<event>
 5    1  0.1338396E-008  0.3814324E+03  0.7957747E-01  0.3444945E+00
         13   -1    0    0    0    0  0.00000000000E+00  0.00000000000E+00  0.14999999963E+04  0.15000000000E+04  0.10566000000E+00 0. -1.
        994   -1    0    0    0    0 -0.00000000000E+00 -0.00000000000E+00  0.11368683772E-12  0.17120000000E+03  0.17120000000E+03 0.  0.
         13    1    1    2    0    0 -0.21160578092E+02 -0.20443400029E+02  0.11937848418E+03  0.12295095086E+03  0.10566000000E+00 0. -1.
        994    1    1    2    0    0  0.17764561092E+02  0.19358506473E+02  0.57120330639E+01  0.17329858258E+03  0.17120000000E+03 0.  0.
        998    1    1    2    0    0  0.33960169993E+01  0.10848935556E+01  0.13749094790E+04  0.13749504666E+04  0.10000000000E+02 0. -1.
</event>
<event>
 5    1  0.1338396E-008  0.3768868E+03  0.7957747E-01  0.3464827E+00
         13   -1    0    0    0    0  0.00000000000E+00  0.00000000000E+00  0.14999999963E+04  0.15000000000E+04  0.10566000000E+00 0. -1.
        994   -1    0    0    0    0 -0.00000000000E+00 -0.00000000000E+00  0.11368683772E-12  0.17120000000E+03  0.17120000000E+03 0.  0.
         13    1    1    2    0    0  0.74564584119E+01  0.23800810509E+02  0.50338508194E+02  0.56178767556E+02  0.10566000000E+00 0. -1.
        994    1    1    2    0    0 -0.98717079550E+01 -0.25568034343E+02  0.82544028879E+01  0.17357635255E+03  0.17120000000E+03 0.  0.
        998    1    1    2    0    0  0.24152495431E+01  0.17672238344E+01  0.14414070852E+04  0.14414448799E+04  0.10000000000E+02 0. -1.
</event>
<event>
 5    1  0.1338396E-008  0.3857640E+03  0.7957747E-01  0.3426438E+00
         13   -1    0    0    0    0  0.00000000000E+00  0.00000000000E+00  0.14999999963E+04  0.15000000000E+04  0.10566000000E+00 0.  1.
        994   -1    0    0    0    0 -0.00000000000E+00 -0.00000000000E+00  0.11368683772E-12  0.17120000000E+03  0.17120000000E+03 0.  0.
         13    1    1    2    0    0 -0.60173013578E+01  0.10092586052E+02  0.61223137860E+02  0.62340612624E+02  0.10566000000E+00 0.  1.
        994    1    1    2    0    0 -0.23570703753E+01  0.51539588363E+01  0.13566546534E+01  0.17129915232E+03  0.17120000000E+03 0.  0.
        998    1    1    2    0    0  0.83743717331E+01 -0.15246544888E+02  0.14374202038E+04  0.14375602351E+04  0.10000000000E+02 0.  1.
</event>
<event>
 5    1  0.1338396E-008  0.3716134E+03  0.7957747E-01  0.3488509E+00
         13   -1    0    0    0    0  0.00000000000E+00  0.00000000000E+00  0.14999999963E+04  0.15000000000E+04  0.10566000000E+00 0. -1.
        994   -1    0    0    0    0 -0.00000000000E+00 -0.00000000000E+00  0.11368683772E-12  0.17120000000E+03  0.17120000000E+03 0.  0.
         13    1    1    2    0    0 -0.16046550300E+02  0.23162541384E+01  0.11589554542E+02  0.19929519520E+02  0.10566000000E+00 0. -1.
        994    1    1    2    0    0  0.21236068316E+02 -0.29925842075E+01  0.10011257547E+02  0.17282821366E+03  0.17120000000E+03 0.  0.
        998    1    1    2    0    0 -0.51895180164E+01  0.67633006908E+00  0.14783991842E+04  0.14784422668E+04  0.10000000000E+02 0. -1.
</event>
<event>
 5    1  0.1338396E-008  0.3804102E+03  0.7957747E-01  0.3449375E+00
         13   -1    0    0    0    0  0.00000000000E+00  0.00000000000E+00  0.14999999963E+04  0.15000000000E+04  0.10566000000E+00 0.  1.
        994   -1    0    0    0    0 -0.00000000000E+00 -0.00000000000E+00  0.11368683772E-12  0.17120000000E+03  0.17120000000E+03 0.  0.
         13    1    1    2    0    0 -0.22068624439E+01 -0.18419957977E+02  0.42587907280E+02  0.46453267961E+02  0.10566000000E+00 0.  1.
        994    1    1    2    0    0  0.62480117048E+00  0.10747710128E+02  0.43132697383E+01  0.17159238895E+03  0.17120000000E+03 0.  0.
        998    1    1    2    0    0  0.15820612734E+01  0.76722478493E+01  0.14530988193E+04  0.14531543431E+04  0.10000000000E+02 0.  1.
</event>
<event>
 5    1  0.1338396E-008  0.3847569E+03  0.7957747E-01  0.3430704E+00
         13   -1    0    0    0    0  0.00000000000E+00  0.00000000000E+00  0.14999999963E+04  0.15000000000E+04  0.10566000000E+00 0. -1.
        994   -1    0    0    0    0 -0.00000000000E+00 -0.00000000000E+00  0.11368683772E-12  0.17120000000E+03  0.17120000000E+03 0.  0.
         13    1    1    2    0    0 -0.68275670047E+01 -0.11969168518E+02  0.54288325712E+02  0.56009911078E+02  0.10566000000E+00 0. -1.
        994    1    1    2    0    0  0.79265137231E+00  0.92977334291E+01  0.20375289727E+01  0.17146622894E+03  0.17120000000E+03 0.  0.
        998    1    1    2    0    0  0.60349156324E+01  0.26714350894E+01  0.14436741416E+04  0.14437238600E+04  0.10000000000E+02 0. -1.
</event>
<event>
 5    1  0.1338396E-008  0.3703116E+03  0.7957747E-01  0.3494460E+00
         13   -1    0    0    0    0  0.00000000000E+00  0.00000000000E+00  0.14999999963E+04  0.15000000000E+04  0.10566000000E+00 0.  1.
        994   -1    0    0    0    0 -0.00000000000E+00 -0.00000000000E+00  0.11368683772E-12  0.17120000000E+03  0.17120000000E+03 0.  0.
         13    1    1    2    0    0  0.28476307591E+02  0.37149020090E+00  0.32674693091E+02  0.43343798076E+02  0.10566000000E+00 0.  1.
        994    1    1    2    0    0 -0.12084161979E+02  0.14234780508E+02  0.12324821752E+02  0.17265571864E+03  0.17120000000E+03 0.  0.
        998    1    1    2    0    0 -0.16392145612E+02 -0.14606270709E+02  0.14550004814E+04  0.14552004833E+04  0.10000000000E+02 0.  1.
</event>
<event>
 5    1  0.1338396E-008  0.3837564E+03  0.7957747E-01  0.3434964E+00
         13   -1    0    0    0    0  0.00000000000E+00  0.00000000000E+00  0.14999999963E+04  0.15000000000E+04  0.10566000000E+00 0.  1.
        994   -1    0    0    0    0 -0.00000000000E+00 -0.00000000000E+00  0.11368683772E-12  0.17120000000E+03  0.17120000000E+03 0.  0.
         13    1    1    2    0    0 -0.10680801487E+02 -0.16748801892E+00  0.24398350008E+02  0.26634530591E+02  0.10566000000E+00 0.  1.
        994    1    1    2    0    0  0.10397989184E+02 -0.39664653777E+01  0.26578703531E+01  0.17158192009E+03  0.17120000000E+03 0.  0.
        998    1    1    2    0    0  0.28281230339E+00  0.41339533966E+01  0.14729437759E+04  0.14729835493E+04  0.10000000000E+02 0.  1.
</event>
<event>
 5    1  0.1338396E-008  0.3848628E+03  0.7957747E-01  0.3430254E+00
         13   -1    0    0    0    0  0.00000000000E+00  0.00000000000E+00  0.14999999963E+04  0.15000000000E+04  0.10566000000E+00 0.  1.
        994   -1    0    0    0    0 -0.00000000000E+00 -0.00000000000E+00  0.11368683772E-12  0.17120000000E+03  0.17120000000E+03 0.  0.
         13    1    1    2    0    0 -0.14831007521E+01  0.18409144670E+02  0.10027059156E+03  0.10195733858E+03  0.10566000000E+00 0.  1.
        994    1    1    2    0    0 -0.33224623567E+01 -0.12263032773E+02  0.22295671163E+01  0.17168526931E+03  0.17120000000E+03 0.  0.
        998    1    1    2    0    0  0.48055631088E+01 -0.61461118967E+01  0.13974998376E+04  0.13975573921E+04  0.10000000000E+02 0.  1.
</event>
<event>
 5    1  0.1338396E-008  0.3823936E+03  0.7957747E-01  0.3440802E+00
         13   -1    0    0    0    0  0.00000000000E+00  0.00000000000E+00  0.14999999963E+04  0.15000000000E+04  0.10566000000E+00 0. -1.
        994   -1    0    0    0    0 -0.00000000000E+00 -0.00000000000E+00  0.11368683772E-12  0.17120000000E+03  0.17120000000E+03 0.  0.
         13    1    1    2    0    0  0.10126342531E+02 -0.19969729441E+02  0.94425847973E+02  0.97044241645E+02  0.10566000000E+00 0. -1.
        994    1    1    2    0    0  0.34694010459E+01 -0.32668062951E+01  0.30050551235E+01  0.17129267096E+03  0.17120000000E+03 0.  0.
        998    1    1    2    0    0 -0.13595743577E+02  0.23236535736E+02  0.14025690932E+04  0.14028630874E+04  0.10000000000E+02 0. -1.
</event>
<event>
 5    1  0.1338396E-008  0.3847649E+03  0.7957747E-01  0.3430670E+00
         13   -1    0    0    0    0  0.00000000000E+00  0.00000000000E+00  0.14999999963E+04  0.15000000000E+04  0.10566000000E+00 0. -1.
        994   -1    0    0    0    0 -0.00000000000E+00 -0.00000000000E+00  0.11368683772E-12  0.17120000000E+03  0.17120000000E+03 0.  0.
         13    1    1    2    0    0 -0.11622123630E+02  0.11953100908E+02  0.83821195126E+02  0.85463175084E+02  0.10566000000E+00 0. -1.
        994    1    1    2    0    0  0.70284300324E+00 -0.37919663673E+01  0.17958669369E+01  0.17125284855E+03  0.17120000000E+03 0.  0.
        998    1    1    2    0    0  0.10919280627E+02 -0.81611345411E+01  0.14143829342E+04  0.14144839764E+04  0.10000000000E+02 0. -1.
</event>
<event>
 5    1  0.1338396E-008  0.3798970E+03  0.7957747E-01  0.3451607E+00
         13   -1    0    0    0    0  0.00000000000E+00  0.00000000000E+00  0.14999999963E+04  0.15000000000E+04  0.10566000000E+00 0. -1.
        994   -1    0    0    0    0 -0.00000000000E+00 -0.00000000000E+00  0.11368683772E-12  0.17120000000E+03  0.17120000000E+03 0.  0.
         13    1    1    2    0    0 -0.38411544646E+02  0.19373976622E+02  0.19853764248E+03  0.20314527899E+03  0.10566000000E+00 0. -1.
        994    1    1    2    0    0  0.34991759453E+02 -0.16917684555E+02  0.92533433679E+01  0.17580015826E+03  0.17120000000E+03 0.  0.
        998    1    1    2    0    0  0.34197851929E+01 -0.24562920671E+01  0.12922090104E+04  0.12922545627E+04  0.10000000000E+02 0. -1.
</event>
<event>
 5    1  0.1338396E-008  0.3847287E+03  0.7957747E-01  0.3430823E+00
         13   -1    0    0    0    0  0.00000000000E+00  0.00000000000E+00  0.14999999963E+04  0.15000000000E+04  0.10566000000E+00 0. -1.
        994   -1    0    0    0    0 -0.00000000000E+00 -0.00000000000E+00  0.11368683772E-12  0.17120000000E+03  0.17120000000E+03 0.  0.
         13    1    1    2    0    0  0.18512762611E+02 -0.60405233029E+01  0.11341005426E+03  0.11506981303E+03  0.10566000000E+00 0. -1.
        994    1    1    2    0    0 -0.47214218379E+01  0.33669721527E+01  0.18755723120E+01  0.17130845308E+03  0.17120000000E+03 0.  0.
        998    1    1    2    0    0 -0.13791340773E+02  0.26735511502E+01  0.13847143697E+04  0.13848217339E+04  0.10000000000E+02 0. -1.
</event>
<event>
 5    1  0.1338396E-008  0.3851659E+03  0.7957747E-01  0.3428969E+00
         13   -1    0    0    0    0  0.00000000000E+00  0.00000000000E+00  0.14999999963E+04  0.15000000000E+04  0.10566000000E+00 0.  1.
        994   -1    0    0    0    0 -0.00000000000E+00 -0.00000000000E+00  0.11368683772E-12  0.17120000000E+03  0.17120000000E+03 0.  0.
         13    1    1    2    0    0  0.11761450502E+02  0.46675373813E+01  0.50617544352E+02  0.52175325427E+02  0.10566000000E+00 0.  1.
        994    1    1    2    0    0 -0.87263271034E+01 -0.11703179978E+02  0.22486088538E+01  0.17183599579E+03  0.17120000000E+03 0.  0.
        998    1    1    2    0    0 -0.30351233982E+01  0.70356425972E+01  0.14471338431E+04  0.14471886788E+04  0.10000000000E+02 0.  1.
</event>
<event>
 5    1  0.1338396E-008  0.3852832E+03  0.7957747E-01  0.3428472E+00
         13   -1    0    0    0    0  0.00000000000E+00  0.00000000000E+00  0.14999999963E+04  0.15000000000E+04  0.10566000000E+00 0.  1.
        994   -1    0    0    0    0 -0.00000000000E+00 -0.00000000000E+00  0.11368683772E-12  0.17120000000E+03  0.17120000000E+03 0.  0.
         13    1    1    2    0    0 -0.60911168129E+01 -0.17050871060E+02  0.10483462895E+03  0.10638676844E+03  0.10566000000E+00 0.  1.
        994    1    1    2    0    0 -0.56676970325E+00  0.19043329826E+02  0.26830918720E+01  0.17227770785E+03  0.17120000000E+03 0.  0.
        998    1    1    2    0    0  0.66578865162E+01 -0.19924587664E+01  0.13924822755E+04  0.13925355237E+04  0.10000000000E+02 0.  1.
</event>
<event>
 5    1  0.1338396E-008  0.3804910E+03  0.7957747E-01  0.3449023E+00
         13   -1    0    0    0    0  0.00000000000E+00  0.00000000000E+00  0.14999999963E+04  0.15000000000E+04  0.10566000000E+00 0. -1.
        994   -1    0    0    0    0 -0.00000000000E+00 -0.00000000000E+00  0.11368683772E-12  0.17120000000E+03  0.17120000000E+03 0.  0.
         13    1    1    2    0    0 -0.13418498340E+03  0.10450873564E+03  0.94010902583E+03  0.95537043978E+03  0.10566000000E+00 0. -1.
        994    1    1    2    0    0  0.14238292612E+03 -0.10578353997E+03  0.11722491572E+03  0.27297284818E+03  0.17120000000E+03 0.  0.
        998    1    1    2    0    0 -0.81979427237E+01  0.12748043263E+01  0.44266605473E+03  0.44285671204E+03  0.10000000000E+02 0. -1.
</event>
<event>
 5    1  0.1338396E-008  0.3689690E+03  0.7957747E-01  0.3500643E+00
         13   -1    0    0    0    0  0.00000000000E+00  0.00000000000E+00  0.14999999963E+04  0.15000000000E+04  0.10566000000E+00 0. -1.
        994   -1    0    0    0    0 -0.00000000000E+00 -0.00000000000E+00  0.11368683772E-12  0.17120000000E+03  0.17120000000E+03 0.  0.
         13    1    1    2    0    0  0.21041876072E+02 -0.33246491225E+02  0.77882368434E+02  0.87256886286E+02  0.10566000000E+00 0. -1.
        994    1    1    2    0    0 -0.14047131881E+02  0.93519007222E+01  0.10797773159E+02  0.17236824495E+03  0.17120000000E+03 0.  0.
        998    1    1    2    0    0 -0.69947441917E+01  0.23894590502E+02  0.14113198547E+04  0.14115748688E+04  0.10000000000E+02 0. -1.
</event>
<event>
 5    1  0.1338396E-008  0.3792084E+03  0.7957747E-01  0.3454613E+00
         13   -1    0    0    0    0  0.00000000000E+00  0.00000000000E+00  0.14999999963E+04  0.15000000000E+04  0.10566000000E+00 0. -1.
        994   -1    0    0    0    0 -0.00000000000E+00 -0.00000000000E+00  0.11368683772E-12  0.17120000000E+03  0.17120000000E+03 0.  0.
         13    1    1    2    0    0 -0.24731537874E+02 -0.15754237263E+02  0.94232675627E+02  0.98689681716E+02  0.10566000000E+00 0. -1.
        994    1    1    2    0    0  0.17751429181E+02  0.15316408702E+01  0.55980098898E+01  0.17221566966E+03  0.17120000000E+03 0.  0.
        998    1    1    2    0    0  0.69801086929E+01  0.14222596393E+02  0.14001693108E+04  0.14002946486E+04  0.10000000000E+02 0. -1.
</event>
<event>
 5    1  0.1338396E-008  0.3698962E+03  0.7957747E-01  0.3496368E+00
         13   -1    0    0    0    0  0.00000000000E+00  0.00000000000E+00  0.14999999963E+04  0.15000000000E+04  0.10566000000E+00 0.  1.
        994   -1    0    0    0    0 -0.00000000000E+00 -0.00000000000E+00  0.11368683772E-12  0.17120000000E+03  0.17120000000E+03 0.  0.
         13    1    1    2    0    0  0.53496700733E+02  0.12556117181E+01  0.15684460326E+03  0.16572179786E+03  0.10566000000E+00 0.  1.
        994    1    1    2    0    0 -0.23208239945E+02  0.11472433241E+01  0.11193146964E+02  0.17313192977E+03  0.17120000000E+03 0.  0.
        998    1    1    2    0    0 -0.30288460788E+02 -0.24028550423E+01  0.13319622461E+04  0.13323462724E+04  0.10000000000E+02 0.  1.
</event>
<event>
 5    1  0.1338396E-008  0.3824170E+03  0.7957747E-01  0.3440701E+00
         13   -1    0    0    0    0  0.00000000000E+00  0.00000000000E+00  0.14999999963E+04  0.15000000000E+04  0.10566000000E+00 0.  1.
        994   -1    0    0    0    0 -0.00000000000E+00 -0.00000000000E+00  0.11368683772E-12  0.17120000000E+03  0.17120000000E+03 0.  0.
         13    1    1    2    0    0 -0.34469275858E+01  0.23962868775E+02  0.90944241964E+02  0.94111458921E+02  0.10566000000E+00 0.  1.
        994    1    1    2    0    0  0.10290501436E+02 -0.29808843247E+02  0.62230830791E+01  0.17419135546E+03  0.17120000000E+03 0.  0.
        998    1    1    2    0    0 -0.68435738506E+01  0.58459744715E+01  0.14028326712E+04  0.14028971856E+04  0.10000000000E+02 0.  1.
</event>
<event>
 5    1  0.1338396E-008  0.3750709E+03  0.7957747E-01  0.3472906E+00
         13   -1    0    0    0    0  0.00000000000E+00  0.00000000000E+00  0.14999999963E+04  0.15000000000E+04  0.10566000000E+00 0.  1.
        994   -1    0    0    0    0 -0.00000000000E+00 -0.00000000000E+00  0.11368683772E-12  0.17120000000E+03  0.17120000000E+03 0.  0.
         13    1    1    2    0    0 -0.13055553096E+02 -0.23500122234E+01  0.10161479551E+02  0.16710381647E+02  0.10566000000E+00 0.  1.
        994    1    1    2    0    0  0.14138171422E+02  0.10995789348E+01  0.73260004384E+01  0.17194245330E+03  0.17120000000E+03 0.  0.
        998    1    1    2    0    0 -0.10826183254E+01  0.12504332886E+01  0.14825125163E+04  0.14825471651E+04  0.10000000000E+02 0.  1.
</event>
<event>
 5    1  0.1338396E-008  0.3813175E+03  0.7957747E-01  0.3445442E+00
         13   -1    0    0    0    0  0.00000000000E+00  0.00000000000E+00  0.14999999963E+04  0.15000000000E+04  0.10566000000E+00 0. -1.
        994   -1    0    0    0    0 -0.00000000000E+00 -0.00000000000E+00  0.11368683772E-12  0.17120000000E+03  0.17120000000E+03 0.  0.
         13    1    1    2    0    0 -0.27691277183E+02  0.19438574676E+01  0.10644830362E+03  0.11000835388E+03  0.10566000000E+00 0. -1.
        994    1    1    2    0    0  0.22330751713E+02 -0.23285110835E+01  0.51491536340E+01  0.17274269368E+03  0.17120000000E+03 0.  0.
        998    1    1    2    0    0  0.53605254698E+01  0.38465361592E+00  0.13884025390E+04  0.13884489524E+04  0.10000000000E+02 0. -1.
</event>
<event>
 5    1  0.1338396E-008  0.3739793E+03  0.7957747E-01  0.3477800E+00
         13   -1    0    0    0    0  0.00000000000E+00  0.00000000000E+00  0.14999999963E+04  0.15000000000E+04  0.10566000000E+00 0.  1.
        994   -1    0    0    0    0 -0.00000000000E+00 -0.00000000000E+00  0.11368683772E-12  0.17120000000E+03  0.17120000000E+03 0.  0.
         13    1    1    2    0    0 -0.67442870005E+02  0.25279151479E+02  0.29251805723E+03  0.30125471147E+03  0.10566000000E+00 0.  1.
        994    1    1    2    0    0  0.66050199475E+02 -0.23060721554E+02  0.24086567785E+02  0.18650476797E+03  0.17120000000E+03 0.  0.
        998    1    1    2    0    0  0.13926705299E+01 -0.22184299253E+01  0.11833953713E+04  0.11834405206E+04  0.10000000000E+02 0.  1.
</event>
<event>
 5    1  0.1338396E-008  0.3852591E+03  0.7957747E-01  0.3428574E+00
         13   -1    0    0    0    0  0.00000000000E+00  0.00000000000E+00  0.14999999963E+04  0.15000000000E+04  0.10566000000E+00 0.  1.
        994   -1    0    0    0    0 -0.00000000000E+00 -0.00000000000E+00  0.11368683772E-12  0.17120000000E+03  0.17120000000E+03 0.  0.
         13    1    1    2    0    0  0.14569705148E+02 -0.98557953402E+00  0.73768190399E+02  0.75199765650E+02  0.10566000000E+00 0.  1.
        994    1    1    2    0    0 -0.42194539600E+01  0.60260276484E+01  0.16793934038E+01  0.17136620776E+03  0.17120000000E+03 0.  0.
        998    1    1    2    0    0 -0.10350251188E+02 -0.50404481144E+01  0.14245524125E+04  0.14246340266E+04  0.10000000000E+02 0.  1.
</event>
<event>
 5    1  0.1338396E-008  0.3712361E+03  0.7957747E-01  0.3490229E+00
         13   -1    0    0    0    0  0.00000000000E+00  0.00000000000E+00  0.14999999963E+04  0.15000000000E+04  0.10566000000E+00 0. -1.
        994   -1    0    0    0    0 -0.00000000000E+00 -0.00000000000E+00  0.11368683772E-12  0.17120000000E+03  0.17120000000E+03 0.  0.
         13    1    1    2    0    0  0.19984771904E+02 -0.18043789293E+03  0.51541051767E+03  0.54644783575E+03  0.10566000000E+00 0. -1.
        994    1    1    2    0    0 -0.30408666630E+02  0.24364833802E+03  0.25770552828E+03  0.39498199824E+03  0.17120000000E+03 0.  0.
        998    1    1    2    0    0  0.10423894726E+02 -0.63210445094E+02  0.72688395033E+03  0.72977016601E+03  0.10000000000E+02 0. -1.
</event>
<event>
 5    1  0.1338396E-008  0.3810831E+03  0.7957747E-01  0.3446456E+00
         13   -1    0    0    0    0  0.00000000000E+00  0.00000000000E+00  0.14999999963E+04  0.15000000000E+04  0.10566000000E+00 0. -1.
        994   -1    0    0    0    0 -0.00000000000E+00 -0.00000000000E+00  0.11368683772E-12  0.17120000000E+03  0.17120000000E+03 0.  0.
         13    1    1    2    0    0 -0.11778780697E+01 -0.10332770173E+02  0.13630614425E+02  0.17145213613E+02  0.10566000000E+00 0. -1.
        994    1    1    2    0    0 -0.24898920556E+01  0.52801707657E+01  0.37009413969E+01  0.17133947803E+03  0.17120000000E+03 0.  0.
        998    1    1    2    0    0  0.36677701252E+01  0.50525994070E+01  0.14826684405E+04  0.14827153084E+04  0.10000000000E+02 0. -1.
</event>
<event>
 5    1  0.1338396E-008  0.3846073E+03  0.7957747E-01  0.3431339E+00
         13   -1    0    0    0    0  0.00000000000E+00  0.00000000000E+00  0.14999999963E+04  0.15000000000E+04  0.10566000000E+00 0.  1.
        994   -1    0    0    0    0 -0.00000000000E+00 -0.00000000000E+00  0.11368683772E-12  0.17120000000E+03  0.17120000000E+03 0.  0.
         13    1    1    2    0    0  0.80167494071E+01  0.17135224419E+02  0.11295902758E+03  0.11453225425E+03  0.10566000000E+00 0.  1.
        994    1    1    2    0    0  0.93127010259E+01  0.16947341297E+01  0.21203184292E+01  0.17147458784E+03  0.17120000000E+03 0.  0.
        998    1    1    2    0    0 -0.17329450433E+02 -0.18829958549E+02  0.13849206503E+04  0.13851931579E+04  0.10000000000E+02 0.  1.
</event>
<event>
 5    1  0.1338396E-008  0.3831638E+03  0.7957747E-01  0.3437497E+00
         13   -1    0    0    0    0  0.00000000000E+00  0.00000000000E+00  0.14999999963E+04  0.15000000000E+04  0.10566000000E+00 0. -1.
        994   -1    0    0    0    0 -0.00000000000E+00 -0.00000000000E+00  0.11368683772E-12  0.17120000000E+03  0.17120000000E+03 0.  0.
         13    1    1    2    0    0 -0.30605401147E+02  0.13357028301E+02  0.20058624723E+03  0.20334688226E+03  0.10566000000E+00 0. -1.
        994    1    1    2    0    0  0.28101039298E+02 -0.77219481395E+01  0.53593480307E+01  0.17374538700E+03  0.17120000000E+03 0.  0.
        998    1    1    2    0    0  0.25043618490E+01 -0.56350801616E+01  0.12940544010E+04  0.12941077307E+04  0.10000000000E+02 0. -1.
</event>
<event>
 5    1  0.1338396E-008  0.3744905E+03  0.7957747E-01  0.3475505E+00
         13   -1    0    0    0    0  0.00000000000E+00  0.00000000000E+00  0.14999999963E+04  0.15000000000E+04  0.10566000000E+00 0.  1.
        994   -1    0    0    0    0 -0.00000000000E+00 -0.00000000000E+00  0.11368683772E-12  0.17120000000E+03  0.17120000000E+03 0.  0.
         13    1    1    2    0    0  0.66171785663E+01  0.59273046946E+02  0.21145088717E+03  0.21970109238E+03  0.10566000000E+00 0.  1.
        994    1    1    2    0    0 -0.78204214799E+01 -0.64843140818E+02  0.21607543116E+02  0.18450506178E+03  0.17120000000E+03 0.  0.
        998    1    1    2    0    0  0.12032429137E+01  0.55700938720E+01  0.12669415660E+04  0.12669938458E+04  0.10000000000E+02 0.  1.
</event>
<event>
 5    1  0.1338396E-008  0.3851381E+03  0.7957747E-01  0.3429087E+00
         13   -1    0    0    0    0  0.00000000000E+00  0.00000000000E+00  0.14999999963E+04  0.15000000000E+04  0.10566000000E+00 0.  1.
        994   -1    0    0    0    0 -0.00000000000E+00 -0.00000000000E+00  0.11368683772E-12  0.17120000000E+03  0.17120000000E+03 0.  0.
         13    1    1    2    0    0  0.72408513650E+01  0.11708558645E+02  0.59984370619E+02  0.61543936799E+02  0.10566000000E+00 0.  1.
        994    1    1    2    0    0 -0.79797442533E+01 -0.82312356063E+01  0.19937274541E+01  0.17159500140E+03  0.17120000000E+03 0.  0.
        998    1    1    2    0    0  0.73889288830E+00 -0.34773230383E+01  0.14380218982E+04  0.14380610618E+04  0.10000000000E+02 0.  1.
</event>
<event>
 5    1  0.1338396E-008  0.3727128E+03  0.7957747E-01  0.3483516E+00
         13   -1    0    0    0    0  0.00000000000E+00  0.00000000000E+00  0.14999999963E+04  0.15000000000E+04  0.10566000000E+00 0.  1.
        994   -1    0    0    0    0 -0.00000000000E+00 -0.00000000000E+00  0.11368683772E-12  0.17120000000E+03  0.17120000000E+03 0.  0.
         13    1    1    2    0    0 -0.26869334259E+02  0.31362667608E+01  0.41810014635E+02  0.49798451588E+02  0.10566000000E+00 0.  1.
        994    1    1    2    0    0  0.31719170730E+02 -0.13391707300E+01  0.11318471304E+02  0.17448623717E+03  0.17120000000E+03 0.  0.
        998    1    1    2    0    0 -0.48498364706E+01 -0.17970960309E+01  0.14468715103E+04  0.14469153112E+04  0.10000000000E+02 0.  1.
</event>
<event>
 5    1  0.1338396E-008  0.3799267E+03  0.7957747E-01  0.3451478E+00
         13   -1    0    0    0    0  0.00000000000E+00  0.00000000000E+00  0.14999999963E+04  0.15000000000E+04  0.10566000000E+00 0.  1.
        994   -1    0    0    0    0 -0.00000000000E+00 -0.00000000000E+00  0.11368683772E-12  0.17120000000E+03  0.17120000000E+03 0.  0.
         13    1    1    2    0    0 -0.60356468729E+02  0.10314057595E+02  0.34822408189E+03  0.35356655027E+03  0.10566000000E+00 0.  1.
        994    1    1    2    0    0  0.61824412662E+02  0.58033913791E+00  0.17059525699E+02  0.18281975334E+03  0.17120000000E+03 0.  0.
        998    1    1    2    0    0 -0.14679439326E+01 -0.10894396733E+02  0.11347163887E+04  0.11348136964E+04  0.10000000000E+02 0.  1.
</event>
<event>
 5    1  0.1338396E-008  0.3772905E+03  0.7957747E-01  0.3463042E+00
         13   -1    0    0    0    0  0.00000000000E+00  0.00000000000E+00  0.14999999963E+04  0.15000000000E+04  0.10566000000E+00 0. -1.
        994   -1    0    0    0    0 -0.00000000000E+00 -0.00000000000E+00  0.11368683772E-12  0.17120000000E+03  0.17120000000E+03 0.  0.
         13    1    1    2    0    0  0.33212346363E+01 -0.55424686297E+02  0.25464865237E+03  0.26063168221E+03  0.10566000000E+00 0. -1.
        994    1    1    2    0    0 -0.63349593681E+01  0.43392390038E+02  0.12021440303E+02  0.17713550251E+03  0.17120000000E+03 0.  0.
        998    1    1    2    0    0  0.30137247318E+01  0.12032296260E+02  0.12333299036E+04  0.12334328153E+04  0.10000000000E+02 0. -1.
</event>
<event>
 5    1  0.1338396E-008  0.3647178E+03  0.7957747E-01  0.3520525E+00
         13   -1    0    0    0    0  0.00000000000E+00  0.00000000000E+00  0.14999999963E+04  0.15000000000E+04  0.10566000000E+00 0.  1.
        994   -1    0    0    0    0 -0.00000000000E+00 -0.00000000000E+00  0.11368683772E-12  0.17120000000E+03  0.17120000000E+03 0.  0.
         13    1    1    2    0    0 -0.19045161460E+03  0.21647402023E+03  0.94401237499E+03  0.98706240646E+03  0.10566000000E+00 0.  1.
        994    1    1    2    0    0  0.21743095744E+03 -0.18936659775E+03  0.39391958245E+03  0.51731809077E+03  0.17120000000E+03 0.  0.
        998    1    1    2    0    0 -0.26979342838E+02 -0.27107422484E+02  0.16206803884E+03  0.16681950277E+03  0.10000000000E+02 0.  1.
</event>
<event>
 5    1  0.1338396E-008  0.3716366E+03  0.7957747E-01  0.3488403E+00
         13   -1    0    0    0    0  0.00000000000E+00  0.00000000000E+00  0.14999999963E+04  0.15000000000E+04  0.10566000000E+00 0.  1.
        994   -1    0    0    0    0 -0.00000000000E+00 -0.00000000000E+00  0.11368683772E-12  0.17120000000E+03  0.17120000000E+03 0.  0.
         13    1    1    2    0    0 -0.60696554960E+02  0.13040269720E+02  0.13376326459E+03  0.14746776779E+03  0.10566000000E+00 0.  1.
        994    1    1    2    0    0  0.78251095502E+02 -0.29202004972E+02  0.36757646731E+02  0.19400143204E+03  0.17120000000E+03 0.  0.
        998    1    1    2    0    0 -0.17554540542E+02  0.16161735252E+02  0.13294790850E+04  0.13297308002E+04  0.10000000000E+02 0.  1.
</event>
<event>
 5    1  0.1338396E-008  0.3774937E+03  0.7957747E-01  0.3462145E+00
         13   -1    0    0    0    0  0.00000000000E+00  0.00000000000E+00  0.14999999963E+04  0.15000000000E+04  0.10566000000E+00 0.  1.
        994   -1    0    0    0    0 -0.00000000000E+00 -0.00000000000E+00  0.11368683772E-12  0.17120000000E+03  0.17120000000E+03 0.  0.
         13    1    1    2    0    0  0.79403130965E+01  0.16605793840E+02  0.28412373038E+02  0.33853730471E+02  0.10566000000E+00 0.  1.
        994    1    1    2    0    0 -0.11760341314E+02 -0.18251328072E+02  0.69943920507E+01  0.17271299350E+03  0.17120000000E+03 0.  0.
        998    1    1    2    0    0  0.38200282177E+01  0.16455342329E+01  0.14645932312E+04  0.14646332760E+04  0.10000000000E+02 0.  0.
</event>
<event>
 5    1  0.1338396E-008  0.3822637E+03  0.7957747E-01  0.3441361E+00
         13   -1    0    0    0    0  0.00000000000E+00  0.00000000000E+00  0.14999999963E+04  0.15000000000E+04  0.10566000000E+00 0.  1.
        994   -1    0    0    0    0 -0.00000000000E+00 -0.00000000000E+00  0.11368683772E-12  0.17120000000E+03  0.17120000000E+03 0.  0.
         13    1    1    2    0    0  0.72347750796E+01  0.11241642009E+02  0.27585888908E+02  0.30654672016E+02  0.10566000000E+00 0.  1.
        994    1    1    2    0    0 -0.17384835998E+02 -0.14312643770E+02  0.46791589619E+01  0.17273800631E+03  0.17120000000E+03 0.  0.
        998    1    1    2    0    0  0.10150060918E+02  0.30710017610E+01  0.14677349484E+04  0.14678073217E+04  0.10000000000E+02 0.  1.
</event>
<event>
 5    1  0.1338396E-008  0.3810850E+03  0.7957747E-01  0.3446448E+00
         13   -1    0    0    0    0  0.00000000000E+00  0.00000000000E+00  0.14999999963E+04  0.15000000000E+04  0.10566000000E+00 0.  1.
        994   -1    0    0    0    0 -0.00000000000E+00 -0.00000000000E+00  0.11368683772E-12  0.17120000000E+03  0.17120000000E+03 0.  0.
         13    1    1    2    0    0 -0.41185892103E+01  0.15560006187E+02  0.38360972795E+02  0.41601105364E+02  0.10566000000E+00 0.  1.
        994    1    1    2    0    0  0.47318127596E+00  0.17454560660E+02  0.46026539303E+01  0.17214967328E+03  0.17120000000E+03 0.  0.
        998    1    1    2    0    0  0.36454079343E+01 -0.33014566847E+02  0.14570363696E+04  0.14574492214E+04  0.10000000000E+02 0.  1.
</event>
<event>
 5    1  0.1338396E-008  0.3846441E+03  0.7957747E-01  0.3431183E+00
         13   -1    0    0    0    0  0.00000000000E+00  0.00000000000E+00  0.14999999963E+04  0.15000000000E+04  0.10566000000E+00 0.  1.
        994   -1    0    0    0    0 -0.00000000000E+00 -0.00000000000E+00  0.11368683772E-12  0.17120000000E+03  0.17120000000E+03 0.  0.
         13    1    1    2    0    0  0.19725282023E+02 -0.27495428040E+01  0.10686592375E+03  0.10870594997E+03  0.10566000000E+00 0.  1.
        994    1    1    2    0    0 -0.15909926364E+02  0.56671567833E+00  0.26418366451E+01  0.17195890853E+03  0.17120000000E+03 0.  0.
        998    1    1    2    0    0 -0.38153556586E+01  0.21828271257E+01  0.13904922359E+04  0.13905351415E+04  0.10000000000E+02 0.  1.
</event>
<event>
 5    1  0.1338396E-008  0.2422893E+03  0.7957747E-01  0.4419597E+00
         13   -1    0    0    0    0  0.00000000000E+00  0.00000000000E+00  0.14999999963E+04  0.15000000000E+04  0.10566000000E+00 0. -1.
        994   -1    0    0    0    0 -0.00000000000E+00 -0.00000000000E+00  0.11368683772E-12  0.17120000000E+03  0.17120000000E+03 0.  0.
         13    1    1    2    0    0 -0.16101324810E+03 -0.34425893101E+01  0.25691158970E+03  0.30321723824E+03  0.10566000000E+00 0. -1.
        994    1    1    2    0    0  0.16009625738E+03  0.10208777214E+01  0.15761505938E+03  0.28246026404E+03  0.17120000000E+03 0.  0.
        998    1    1    2    0    0  0.91699071748E+00  0.24217115887E+01  0.10854733472E+04  0.10855224977E+04  0.10000000000E+02 0.  0.
</event>
<event>
 5    1  0.1338396E-008  0.3825522E+03  0.7957747E-01  0.3440120E+00
         13   -1    0    0    0    0  0.00000000000E+00  0.00000000000E+00  0.14999999963E+04  0.15000000000E+04  0.10566000000E+00 0.  1.
        994   -1    0    0    0    0 -0.00000000000E+00 -0.00000000000E+00  0.11368683772E-12  0.17120000000E+03  0.17120000000E+03 0.  0.
         13    1    1    2    0    0 -0.23243435165E+02  0.26437598328E+02  0.20662314788E+03  0.20960043007E+03  0.10566000000E+00 0.  1.
        994    1    1    2    0    0  0.48545097506E+02  0.44579320663E+01  0.10768638836E+02  0.17833088132E+03  0.17120000000E+03 0.  0.
        998    1    1    2    0    0 -0.25301662341E+02 -0.30895530395E+02  0.12826082096E+04  0.12832686886E+04  0.10000000000E+02 0.  1.
</event>
<event>
 5    1  0.1509677E-008  0.3833848E+03  0.7957747E-01  0.3436551E+00
         13   -1    0    0    0    0  0.00000000000E+00  0.00000000000E+00  0.14999999963E+04  0.15000000000E+04  0.10566000000E+00 0.  1.
        994   -1    0    0    0    0 -0.00000000000E+00 -0.00000000000E+00  0.11368683772E-12  0.17120000000E+03  0.17120000000E+03 0.  0.
         13    1    1    2    0    0 -0.10792668919E+02 -0.44490746253E+01  0.26767416850E+02  0.29202426890E+02  0.10566000000E+00 0.  1.
        994    1    1    2    0    0  0.10957950773E+02  0.60273527474E+01  0.29514251267E+01  0.17168155573E+03  0.17120000000E+03 0.  0.
        998    1    1    2    0    0 -0.16528185495E+00 -0.15782781221E+01  0.14702811543E+04  0.14703160174E+04  0.10000000000E+02 0.  1.
</event>
<event>
 5    1  0.1338396E-008  0.3792455E+03  0.7957747E-01  0.3454451E+00
         13   -1    0    0    0    0  0.00000000000E+00  0.00000000000E+00  0.14999999963E+04  0.15000000000E+04  0.10566000000E+00 0.  1.
        994   -1    0    0    0    0 -0.00000000000E+00 -0.00000000000E+00  0.11368683772E-12  0.17120000000E+03  0.17120000000E+03 0.  0.
         13    1    1    2    0    0 -0.28675252605E+02 -0.20942783190E+02  0.12788152926E+03  0.13271988159E+03  0.10566000000E+00 0.  1.
        994    1    1    2    0    0  0.29939487095E+02  0.18253395225E+02  0.86461255003E+01  0.17496786794E+03  0.17120000000E+03 0.  0.
        998    1    1    2    0    0 -0.12642344902E+01  0.26893879646E+01  0.13634723415E+04  0.13635122505E+04  0.10000000000E+02 0.  1.
</event>
<event>
 5    1  0.1338396E-008  0.3758908E+03  0.7957747E-01  0.3469248E+00
         13   -1    0    0    0    0  0.00000000000E+00  0.00000000000E+00  0.14999999963E+04  0.15000000000E+04  0.10566000000E+00 0.  1.
        994   -1    0    0    0    0 -0.00000000000E+00 -0.00000000000E+00  0.11368683772E-12  0.17120000000E+03  0.17120000000E+03 0.  0.
         13    1    1    2    0    0  0.43930880674E+02 -0.39357469728E+02  0.24961154257E+03  0.25648560593E+03  0.10566000000E+00 0.  1.
        994    1    1    2    0    0 -0.55170496471E+02  0.13492160065E+02  0.17233795622E+02  0.18119675984E+03  0.17120000000E+03 0.  0.
        998    1    1    2    0    0  0.11239615797E+02  0.25865309663E+02  0.12331546581E+04  0.12335176342E+04  0.10000000000E+02 0.  1.
</event>
<event>
 5    1  0.1338396E-008  0.3696482E+03  0.7957747E-01  0.3497509E+00
         13   -1    0    0    0    0  0.00000000000E+00  0.00000000000E+00  0.14999999963E+04  0.15000000000E+04  0.10566000000E+00 0.  1.
        994   -1    0    0    0    0 -0.00000000000E+00 -0.00000000000E+00  0.11368683772E-12  0.17120000000E+03  0.17120000000E+03 0.  0.
         13    1    1    2    0    0  0.57588615967E+02  0.33342793427E+02  0.25386307156E+03  0.26243982325E+03  0.10566000000E+00 0.  1.
        994    1    1    2    0    0 -0.72475603963E+01 -0.34981421446E+02  0.13884074097E+02  0.17543783655E+03  0.17120000000E+03 0.  0.
        998    1    1    2    0    0 -0.50341055571E+02  0.16386280194E+01  0.12322528506E+04  0.12333223402E+04  0.10000000000E+02 0.  1.
</event>
<event>
 5    1  0.1338396E-008  0.3741524E+03  0.7957747E-01  0.3477022E+00
         13   -1    0    0    0    0  0.00000000000E+00  0.00000000000E+00  0.14999999963E+04  0.15000000000E+04  0.10566000000E+00 0.  1.
        994   -1    0    0    0    0 -0.00000000000E+00 -0.00000000000E+00  0.11368683772E-12  0.17120000000E+03  0.17120000000E+03 0.  0.
         13    1    1    2    0    0  0.16327925306E+03  0.43346158978E+02  0.92752759040E+03  0.94278653262E+03  0.10566000000E+00 0.  1.
        994    1    1    2    0    0 -0.14408720393E+03 -0.72971206993E+02  0.10200180617E+03  0.25651457629E+03  0.17120000000E+03 0.  0.
        998    1    1    2    0    0 -0.19192049124E+02  0.29625048014E+02  0.47047059971E+03  0.47189889109E+03  0.10000000000E+02 0. -1.
</event>
<event>
 5    1  0.1338396E-008  0.3809411E+03  0.7957747E-01  0.3447071E+00
         13   -1    0    0    0    0  0.00000000000E+00  0.00000000000E+00  0.14999999963E+04  0.15000000000E+04  0.10566000000E+00 0. -1.
        994   -1    0    0    0    0 -0.00000000000E+00 -0.00000000000E+00  0.11368683772E-12  0.17120000000E+03  0.17120000000E+03 0.  0.
         13    1    1    2    0    0 -0.17183239404E+02  0.42695945415E-01  0.40221390168E+02  0.43738277634E+02  0.10566000000E+00 0. -1.
        994    1    1    2    0    0  0.27850034549E+01 -0.23939972567E+00  0.36848834329E+01  0.17126246501E+03  0.17120000000E+03 0.  0.
        998    1    1    2    0    0  0.14398235950E+02  0.19670378025E+00  0.14560937227E+04  0.14561992574E+04  0.10000000000E+02 0. -1.
</event>
<event>
 5    1  0.1338396E-008  0.3815412E+03  0.7957747E-01  0.3444475E+00
         13   -1    0    0    0    0  0.00000000000E+00  0.00000000000E+00  0.14999999963E+04  0.15000000000E+04  0.10566000000E+00 0.  1.
        994   -1    0    0    0    0 -0.00000000000E+00 -0.00000000000E+00  0.11368683772E-12  0.17120000000E+03  0.17120000000E+03 0.  0.
         13    1    1    2    0    0 -0.24881483735E+02 -0.19214074709E+02  0.14413397267E+03  0.14752248012E+03  0.10566000000E+00 0.  1.
        994    1    1    2    0    0  0.18281422837E+02  0.10051041101E+02  0.48060974916E+01  0.17253339509E+03  0.17120000000E+03 0.  0.
        998    1    1    2    0    0  0.66000608978E+01  0.91630336079E+01  0.13510599261E+04  0.13511441248E+04  0.10000000000E+02 0.  1.
</event>
<event>
 5    1  0.1338396E-008  0.3803606E+03  0.7957747E-01  0.3449590E+00
         13   -1    0    0    0    0  0.00000000000E+00  0.00000000000E+00  0.14999999963E+04  0.15000000000E+04  0.10566000000E+00 0. -1.
        994   -1    0    0    0    0 -0.00000000000E+00 -0.00000000000E+00  0.11368683772E-12  0.17120000000E+03  0.17120000000E+03 0.  0.
         13    1    1    2    0    0 -0.17463447857E+03  0.13320443180E+03  0.11874188428E+04  0.12075612370E+04  0.10566000000E+00 0. -1.
        994    1    1    2    0    0  0.16687639510E+03 -0.12758527281E+03  0.16895073086E+03  0.31934232814E+03  0.17120000000E+03 0.  0.
        998    1    1    2    0    0  0.77580834707E+01 -0.56191589850E+01  0.14363042263E+03  0.14429643485E+03  0.10000000000E+02 0.  0.
</event>
<event>
 5    1  0.1434855E-008  0.3859501E+03  0.7957747E-01  0.3425653E+00
         13   -1    0    0    0    0  0.00000000000E+00  0.00000000000E+00  0.14999999963E+04  0.15000000000E+04  0.10566000000E+00 0.  1.
        994   -1    0    0    0    0 -0.00000000000E+00 -0.00000000000E+00  0.11368683772E-12  0.17120000000E+03  0.17120000000E+03 0.  0.
         13    1    1    2    0    0 -0.95437949150E+01  0.50168338675E+01  0.62986565427E+02  0.63902826477E+02  0.10566000000E+00 0.  1.
        994    1    1    2    0    0 -0.16057853626E+02  0.14577784414E+02  0.27028254744E+01  0.17258943110E+03  0.17120000000E+03 0.  0.
        998    1    1    2    0    0  0.25601648541E+02 -0.19594618282E+02  0.14343106054E+04  0.14347077424E+04  0.10000000000E+02 0.  1.
</event>
<event>
 5    1  0.1338396E-008  0.3821942E+03  0.7957747E-01  0.3441660E+00
         13   -1    0    0    0    0  0.00000000000E+00  0.00000000000E+00  0.14999999963E+04  0.15000000000E+04  0.10566000000E+00 0. -1.
        994   -1    0    0    0    0 -0.00000000000E+00 -0.00000000000E+00  0.11368683772E-12  0.17120000000E+03  0.17120000000E+03 0.  0.
         13    1    1    2    0    0 -0.23042147368E+01 -0.12386073817E+02  0.24925451996E+02  0.27928722695E+02  0.10566000000E+00 0. -1.
        994    1    1    2    0    0  0.12269633601E+01  0.10267398673E+02  0.33845482120E+01  0.17154538782E+03  0.17120000000E+03 0.  0.
        998    1    1    2    0    0  0.10772513768E+01  0.21186751432E+01  0.14716899961E+04  0.14717258895E+04  0.10000000000E+02 0. -1.
</event>
<event>
 5    1  0.1338396E-008  0.3771277E+03  0.7957747E-01  0.3463761E+00
         13   -1    0    0    0    0  0.00000000000E+00  0.00000000000E+00  0.14999999963E+04  0.15000000000E+04  0.10566000000E+00 0.  1.
        994   -1    0    0    0    0 -0.00000000000E+00 -0.00000000000E+00  0.11368683772E-12  0.17120000000E+03  0.17120000000E+03 0.  0.
         13    1    1    2    0    0 -0.11033070074E+02 -0.53393977116E+02  0.26428104442E+03  0.26984648790E+03  0.10566000000E+00 0.  1.
        994    1    1    2    0    0  0.58349108680E+01  0.30444636694E+02  0.88400490498E+01  0.17420823332E+03  0.17120000000E+03 0.  0.
        998    1    1    2    0    0  0.51981592057E+01  0.22949340422E+02  0.12268789028E+04  0.12271452788E+04  0.10000000000E+02 0.  1.
</event>
<event>
 5    1  0.1338396E-008  0.3772684E+03  0.7957747E-01  0.3463140E+00
         13   -1    0    0    0    0  0.00000000000E+00  0.00000000000E+00  0.14999999963E+04  0.15000000000E+04  0.10566000000E+00 0.  1.
        994   -1    0    0    0    0 -0.00000000000E+00 -0.00000000000E+00  0.11368683772E-12  0.17120000000E+03  0.17120000000E+03 0.  0.
         13    1    1    2    0    0 -0.32836130986E+02 -0.22398302969E+02  0.15695568144E+03  0.16191044615E+03  0.10566000000E+00 0.  1.
        994    1    1    2    0    0  0.10664450462E+02 -0.62236079084E+01  0.60329424826E+01  0.17175069198E+03  0.17120000000E+03 0.  0.
        998    1    1    2    0    0  0.22171680524E+02  0.28621910878E+02  0.13370113724E+04  0.13375388619E+04  0.10000000000E+02 0.  1.
</event>
<event>
 5    1  0.1338396E-008  0.3817347E+03  0.7957747E-01  0.3443640E+00
         13   -1    0    0    0    0  0.00000000000E+00  0.00000000000E+00  0.14999999963E+04  0.15000000000E+04  0.10566000000E+00 0. -1.
        994   -1    0    0    0    0 -0.00000000000E+00 -0.00000000000E+00  0.11368683772E-12  0.17120000000E+03  0.17120000000E+03 0.  0.
         13    1    1    2    0    0  0.77117649436E+02 -0.17909938593E+03  0.10041901546E+04  0.10229475058E+04  0.10566000000E+00 0. -1.
        994    1    1    2    0    0 -0.73956683401E+02  0.19122093994E+03  0.15855918326E+03  0.31062114140E+03  0.17120000000E+03 0.  0.
        998    1    1    2    0    0 -0.31609660354E+01 -0.12121554008E+02  0.33725065846E+03  0.33763135282E+03  0.10000000000E+02 0. -1.
</event>
<event>
 5    1  0.1338396E-008  0.3807228E+03  0.7957747E-01  0.3448017E+00
         13   -1    0    0    0    0  0.00000000000E+00  0.00000000000E+00  0.14999999963E+04  0.15000000000E+04  0.10566000000E+00 0. -1.
        994   -1    0    0    0    0 -0.00000000000E+00 -0.00000000000E+00  0.11368683772E-12  0.17120000000E+03  0.17120000000E+03 0.  0.
         13    1    1    2    0    0  0.15624692486E+03 -0.92372898658E+02  0.92120403770E+03  0.93891572794E+03  0.10566000000E+00 0. -1.
        994    1    1    2    0    0 -0.15704231676E+03  0.13047262978E+03  0.15825610370E+03  0.30990293760E+03  0.17120000000E+03 0.  0.
        998    1    1    2    0    0  0.79539190145E+00 -0.38099731120E+02  0.42053985488E+03  0.42238133446E+03  0.10000000000E+02 0. -1.
</event>
<event>
 5    1  0.1338396E-008  0.3774519E+03  0.7957747E-01  0.3462329E+00
         13   -1    0    0    0    0  0.00000000000E+00  0.00000000000E+00  0.14999999963E+04  0.15000000000E+04  0.10566000000E+00 0.  1.
        994   -1    0    0    0    0 -0.00000000000E+00 -0.00000000000E+00  0.11368683772E-12  0.17120000000E+03  0.17120000000E+03 0.  0.
         13    1    1    2    0    0  0.74468126238E+01  0.78287403998E+01  0.82457759373E+01  0.13592210245E+02  0.10566000000E+00 0.  1.
        994    1    1    2    0    0 -0.82291343421E+01 -0.72134079683E+01  0.58287937356E+01  0.17164838113E+03  0.17120000000E+03 0.  0.
        998    1    1    2    0    0  0.78232171829E+00 -0.61533243151E+00  0.14859254266E+04  0.14859594086E+04  0.10000000000E+02 0.  1.
</event>
<event>
 5    1  0.1338396E-008  0.3858260E+03  0.7957747E-01  0.3426177E+00
         13   -1    0    0    0    0  0.00000000000E+00  0.00000000000E+00  0.14999999963E+04  0.15000000000E+04  0.10566000000E+00 0. -1.
        994   -1    0    0    0    0 -0.00000000000E+00 -0.00000000000E+00  0.11368683772E-12  0.17120000000E+03  0.17120000000E+03 0.  0.
         13    1    1    2    0    0  0.14628734386E+02 -0.28443605388E+01  0.87464927740E+02  0.88725503691E+02  0.10566000000E+00 0. -1.
        994    1    1    2    0    0 -0.16708113108E+02 -0.46122369402E+01  0.22066145059E+01  0.17208934575E+03  0.17120000000E+03 0.  0.
        998    1    1    2    0    0  0.20793787218E+01  0.74565974790E+01  0.14103284540E+04  0.14103851506E+04  0.10000000000E+02 0. -1.
</event>
<event>
 5    1  0.1338396E-008  0.3805701E+03  0.7957747E-01  0.3448680E+00
         13   -1    0    0    0    0  0.00000000000E+00  0.00000000000E+00  0.14999999963E+04  0.15000000000E+04  0.10566000000E+00 0.  1.
        994   -1    0    0    0    0 -0.00000000000E+00 -0.00000000000E+00  0.11368683772E-12  0.17120000000E+03  0.17120000000E+03 0.  0.
         13    1    1    2    0    0 -0.76236136725E+00 -0.13599650014E+02  0.23256620516E+02  0.26952054416E+02  0.10566000000E+00 0.  1.
        994    1    1    2    0    0 -0.11610704722E+02 -0.47378664933E+00  0.42963162682E+01  0.17164769521E+03  0.17120000000E+03 0.  0.
        998    1    1    2    0    0  0.12373066089E+02  0.14073436664E+02  0.14724470595E+04  0.14726002504E+04  0.10000000000E+02 0.  1.
</event>
<event>
 5    1  0.1338396E-008  0.3861233E+03  0.7957747E-01  0.3424922E+00
         13   -1    0    0    0    0  0.00000000000E+00  0.00000000000E+00  0.14999999963E+04  0.15000000000E+04  0.10566000000E+00 0.  1.
        994   -1    0    0    0    0 -0.00000000000E+00 -0.00000000000E+00  0.11368683772E-12  0.17120000000E+03  0.17120000000E+03 0.  0.
         13    1    1    2    0    0  0.68934252761E+01  0.10194512233E+02  0.70012200653E+02  0.71085630025E+02  0.10566000000E+00 0.  1.
        994    1    1    2    0    0 -0.37704673553E+01 -0.10500751171E+02  0.14814418098E+01  0.17156956860E+03  0.17120000000E+03 0.  0.
        998    1    1    2    0    0 -0.31229579208E+01  0.30623893796E+00  0.14285063538E+04  0.14285448014E+04  0.10000000000E+02 0.  1.
</event>
<event>
 5    1  0.1338396E-008  0.3850703E+03  0.7957747E-01  0.3429374E+00
         13   -1    0    0    0    0  0.00000000000E+00  0.00000000000E+00  0.14999999963E+04  0.15000000000E+04  0.10566000000E+00 0.  1.
        994   -1    0    0    0    0 -0.00000000000E+00 -0.00000000000E+00  0.11368683772E-12  0.17120000000E+03  0.17120000000E+03 0.  0.
         13    1    1    2    0    0 -0.71499545199E+00  0.14388472139E+02  0.63230352571E+02  0.64850813405E+02  0.10566000000E+00 0.  1.
        994    1    1    2    0    0  0.10154791758E+01 -0.14123321915E+02  0.22547368532E+01  0.17179936920E+03  0.17120000000E+03 0.  0.
        998    1    1    2    0    0 -0.30048372386E+00 -0.26515022450E+00  0.14345149069E+04  0.14345498174E+04  0.10000000000E+02 0.  0.
</event>
<event>
 5    1  0.1338396E-008  0.3838107E+03  0.7957747E-01  0.3434732E+00
         13   -1    0    0    0    0  0.00000000000E+00  0.00000000000E+00  0.14999999963E+04  0.15000000000E+04  0.10566000000E+00 0.  1.
        994   -1    0    0    0    0 -0.00000000000E+00 -0.00000000000E+00  0.11368683772E-12  0.17120000000E+03  0.17120000000E+03 0.  0.
         13    1    1    2    0    0 -0.19218094070E+02 -0.76810300881E+01  0.89720417401E+02  0.92076586740E+02  0.10566000000E+00 0.  1.
        994    1    1    2    0    0  0.23139517667E+02  0.55025031683E+01  0.40916073967E+01  0.17289272995E+03  0.17120000000E+03 0.  0.
        998    1    1    2    0    0 -0.39214235971E+01  0.21785269198E+01  0.14061879715E+04  0.14062306833E+04  0.10000000000E+02 0.  1.
</event>
<event>
 5    1  0.1338396E-008  0.3779722E+03  0.7957747E-01  0.3460036E+00
         13   -1    0    0    0    0  0.00000000000E+00  0.00000000000E+00  0.14999999963E+04  0.15000000000E+04  0.10566000000E+00 0.  1.
        994   -1    0    0    0    0 -0.00000000000E+00 -0.00000000000E+00  0.11368683772E-12  0.17120000000E+03  0.17120000000E+03 0.  0.
         13    1    1    2    0    0  0.16591603388E+02  0.35463785577E+02  0.13846311640E+03  0.14389234572E+03  0.10566000000E+00 0.  1.
        994    1    1    2    0    0 -0.56886969005E+01 -0.34715180783E+02  0.93363990182E+01  0.17502603634E+03  0.17120000000E+03 0.  0.
        998    1    1    2    0    0 -0.10902906488E+02 -0.74860479413E+00  0.13522004809E+04  0.13522816179E+04  0.10000000000E+02 0.  0.
</event>
<event>
 5    1  0.1338396E-008  0.3844794E+03  0.7957747E-01  0.3431883E+00
         13   -1    0    0    0    0  0.00000000000E+00  0.00000000000E+00  0.14999999963E+04  0.15000000000E+04  0.10566000000E+00 0. -1.
        994   -1    0    0    0    0 -0.00000000000E+00 -0.00000000000E+00  0.11368683772E-12  0.17120000000E+03  0.17120000000E+03 0.  0.
         13    1    1    2    0    0 -0.79156984071E+01  0.17498313285E+02  0.93905833072E+02  0.95849704736E+02  0.10566000000E+00 0. -1.
        994    1    1    2    0    0  0.92638338475E+01 -0.14915636892E+02  0.29050811104E+01  0.17212255616E+03  0.17120000000E+03 0.  0.
        998    1    1    2    0    0 -0.13481354403E+01 -0.25826763930E+01  0.14031890821E+04  0.14032277391E+04  0.10000000000E+02 0. -1.
</event>
<event>
 5    1  0.1338396E-008  0.3715424E+03  0.7957747E-01  0.3488832E+00
         13   -1    0    0    0    0  0.00000000000E+00  0.00000000000E+00  0.14999999963E+04  0.15000000000E+04  0.10566000000E+00 0. -1.
        994   -1    0    0    0    0 -0.00000000000E+00 -0.00000000000E+00  0.11368683772E-12  0.17120000000E+03  0.17120000000E+03 0.  0.
         13    1    1    2    0    0  0.35050701599E+01 -0.78789513549E+02  0.25241557181E+03  0.26444981569E+03  0.10566000000E+00 0. -1.
        994    1    1    2    0    0  0.11769317911E+03  0.12571101182E+03  0.11855554218E+03  0.27022175983E+03  0.17120000000E+03 0.  0.
        998    1    1    2    0    0 -0.12119824927E+03 -0.46921498271E+02  0.11290288823E+04  0.11365284245E+04  0.10000000000E+02 0. -1.
</event>
<event>
 5    1  0.1338396E-008  0.3690619E+03  0.7957747E-01  0.3500214E+00
         13   -1    0    0    0    0  0.00000000000E+00  0.00000000000E+00  0.14999999963E+04  0.15000000000E+04  0.10566000000E+00 0.  1.
        994   -1    0    0    0    0 -0.00000000000E+00 -0.00000000000E+00  0.11368683772E-12  0.17120000000E+03  0.17120000000E+03 0.  0.
         13    1    1    2    0    0  0.22856382387E+02  0.22038095370E+02  0.47528788702E+02  0.57158453293E+02  0.10566000000E+00 0.  1.
        994    1    1    2    0    0 -0.35321004888E+02  0.25927046813E+01  0.14123752022E+02  0.17539445794E+03  0.17120000000E+03 0.  0.
        998    1    1    2    0    0  0.12464622501E+02 -0.24630800051E+02  0.14383474556E+04  0.14386470888E+04  0.10000000000E+02 0.  1.
</event>
<event>
 5    1  0.1338396E-008  0.3823242E+03  0.7957747E-01  0.3441101E+00
         13   -1    0    0    0    0  0.00000000000E+00  0.00000000000E+00  0.14999999963E+04  0.15000000000E+04  0.10566000000E+00 0.  1.
        994   -1    0    0    0    0 -0.00000000000E+00 -0.00000000000E+00  0.11368683772E-12  0.17120000000E+03  0.17120000000E+03 0.  0.
         13    1    1    2    0    0 -0.17402376321E+02  0.11050404776E+02  0.73055371981E+02  0.75908185900E+02  0.10566000000E+00 0.  1.
        994    1    1    2    0    0  0.10954295414E+02  0.43788713402E+01  0.34263280878E+01  0.17164017836E+03  0.17120000000E+03 0.  0.
        998    1    1    2    0    0  0.64480809070E+01 -0.15429276117E+02  0.14235182962E+04  0.14236516357E+04  0.10000000000E+02 0.  1.
</event>
<event>
 5    1  0.1338396E-008  0.3807190E+03  0.7957747E-01  0.3448034E+00
         13   -1    0    0    0    0  0.00000000000E+00  0.00000000000E+00  0.14999999963E+04  0.15000000000E+04  0.10566000000E+00 0. -1.
        994   -1    0    0    0    0 -0.00000000000E+00 -0.00000000000E+00  0.11368683772E-12  0.17120000000E+03  0.17120000000E+03 0.  0.
         13    1    1    2    0    0 -0.19825985394E+02 -0.18549502843E+02  0.10746115417E+03  0.11083801050E+03  0.10566000000E+00 0. -1.
        994    1    1    2    0    0 -0.10958804467E+01 -0.26303056129E+01  0.37977396262E+01  0.17126582347E+03  0.17120000000E+03 0.  0.
        998    1    1    2    0    0  0.20921865840E+02  0.21179808456E+02  0.13887411025E+04  0.13890961660E+04  0.10000000000E+02 0. -1.
</event>
<event>
 5    1  0.1338396E-008  0.3795391E+03  0.7957747E-01  0.3453168E+00
         13   -1    0    0    0    0  0.00000000000E+00  0.00000000000E+00  0.14999999963E+04  0.15000000000E+04  0.10566000000E+00 0. -1.
        994   -1    0    0    0    0 -0.00000000000E+00 -0.00000000000E+00  0.11368683772E-12  0.17120000000E+03  0.17120000000E+03 0.  0.
         13    1    1    2    0    0 -0.29786193384E+02  0.12004018021E+02  0.11256961803E+03  0.11706085526E+03  0.10566000000E+00 0. -1.
        994    1    1    2    0    0  0.27128544640E+02 -0.22019812655E+01  0.68501669227E+01  0.17348536377E+03  0.17120000000E+03 0.  0.
        998    1    1    2    0    0  0.26576487434E+01 -0.98020367556E+01  0.13805802113E+04  0.13806537810E+04  0.10000000000E+02 0. -1.
</event>
<event>
 5    1  0.1338396E-008  0.3758787E+03  0.7957747E-01  0.3469302E+00
         13   -1    0    0    0    0  0.00000000000E+00  0.00000000000E+00  0.14999999963E+04  0.15000000000E+04  0.10566000000E+00 0.  1.
        994   -1    0    0    0    0 -0.00000000000E+00 -0.00000000000E+00  0.11368683772E-12  0.17120000000E+03  0.17120000000E+03 0.  0.
         13    1    1    2    0    0  0.83809156368E+01 -0.76286237357E+01  0.74445873457E+01  0.13559819018E+02  0.10566000000E+00 0.  1.
        994    1    1    2    0    0 -0.81250535642E+01  0.58880051463E+01  0.65695062457E+01  0.17161958954E+03  0.17120000000E+03 0.  0.
        998    1    1    2    0    0 -0.25586207255E+00  0.17406185894E+01  0.14859859027E+04  0.14860205914E+04  0.10000000000E+02 0.  1.
</event>
<event>
 5    1  0.1338396E-008  0.3779424E+03  0.7957747E-01  0.3460167E+00
         13   -1    0    0    0    0  0.00000000000E+00  0.00000000000E+00  0.14999999963E+04  0.15000000000E+04  0.10566000000E+00 0.  1.
        994   -1    0    0    0    0 -0.00000000000E+00 -0.00000000000E+00  0.11368683772E-12  0.17120000000E+03  0.17120000000E+03 0.  0.
         13    1    1    2    0    0  0.13379065443E+02 -0.42715540289E+02  0.16268483436E+03  0.16873050486E+03  0.10566000000E+00 0.  1.
        994    1    1    2    0    0 -0.16030583520E+02  0.51790959493E+02  0.15133082966E+02  0.18021579646E+03  0.17120000000E+03 0.  0.
        998    1    1    2    0    0  0.26515180773E+01 -0.90754192040E+01  0.13221820789E+04  0.13222536987E+04  0.10000000000E+02 0.  1.
</event>
<event>
 5    1  0.1338396E-008  0.3697412E+03  0.7957747E-01  0.3497081E+00
         13   -1    0    0    0    0  0.00000000000E+00  0.00000000000E+00  0.14999999963E+04  0.15000000000E+04  0.10566000000E+00 0. -1.
        994   -1    0    0    0    0 -0.00000000000E+00 -0.00000000000E+00  0.11368683772E-12  0.17120000000E+03  0.17120000000E+03 0.  0.
         13    1    1    2    0    0  0.15824785563E+02  0.33354431325E+02  0.59969594657E+02  0.70422335764E+02  0.10566000000E+00 0. -1.
        994    1    1    2    0    0 -0.31861577275E+01 -0.19899495482E+02  0.12221883535E+02  0.17281480249E+03  0.17120000000E+03 0.  0.
        998    1    1    2    0    0 -0.12638627836E+02 -0.13454935843E+02  0.14278085181E+04  0.14279628617E+04  0.10000000000E+02 0. -1.
</event>
<event>
 5    1  0.1338396E-008  0.3734378E+03  0.7957747E-01  0.3480239E+00
         13   -1    0    0    0    0  0.00000000000E+00  0.00000000000E+00  0.14999999963E+04  0.15000000000E+04  0.10566000000E+00 0. -1.
        994   -1    0    0    0    0 -0.00000000000E+00 -0.00000000000E+00  0.11368683772E-12  0.17120000000E+03  0.17120000000E+03 0.  0.
         13    1    1    2    0    0  0.23657226821E+02  0.41645682656E+02  0.14177090477E+03  0.14964300140E+03  0.10566000000E+00 0. -1.
        994    1    1    2    0    0 -0.22856366192E+02 -0.34733516163E+02  0.13414020905E+02  0.17668674703E+03  0.17120000000E+03 0.  0.
        998    1    1    2    0    0 -0.80086062877E+00 -0.69121664933E+01  0.13448150706E+04  0.13448702516E+04  0.10000000000E+02 0. -1.
</event>
<event>
 5    1  0.1338396E-008  0.3844918E+03  0.7957747E-01  0.3431830E+00
         13   -1    0    0    0    0  0.00000000000E+00  0.00000000000E+00  0.14999999963E+04  0.15000000000E+04  0.10566000000E+00 0.  1.
        994   -1    0    0    0    0 -0.00000000000E+00 -0.00000000000E+00  0.11368683772E-12  0.17120000000E+03  0.17120000000E+03 0.  0.
         13    1    1    2    0    0  0.22929098094E+01  0.20604751353E+02  0.10149266889E+03  0.10358854288E+03  0.10566000000E+00 0.  1.
        994    1    1    2    0    0 -0.47886611604E+01 -0.28624546118E+02  0.46621760159E+01  0.17370512889E+03  0.17120000000E+03 0.  0.
        998    1    1    2    0    0  0.24957513509E+01  0.80197947654E+01  0.13938451514E+04  0.13939063282E+04  0.10000000000E+02 0.  1.
</event>
<event>
 5    1  0.1338396E-008  0.3851814E+03  0.7957747E-01  0.3428903E+00
         13   -1    0    0    0    0  0.00000000000E+00  0.00000000000E+00  0.14999999963E+04  0.15000000000E+04  0.10566000000E+00 0. -1.
        994   -1    0    0    0    0 -0.00000000000E+00 -0.00000000000E+00  0.11368683772E-12  0.17120000000E+03  0.17120000000E+03 0.  0.
         13    1    1    2    0    0  0.21015162438E+01 -0.14029390924E+02  0.76840762412E+02  0.78139325005E+02  0.10566000000E+00 0. -1.
        994    1    1    2    0    0 -0.83269152358E+01 -0.13875283421E+02  0.24012318502E+01  0.17197984452E+03  0.17120000000E+03 0.  0.
        998    1    1    2    0    0  0.62253989920E+01  0.27904674345E+02  0.14207580020E+04  0.14210808305E+04  0.10000000000E+02 0. -1.
</event>
<event>
 5    1  0.1338396E-008  0.3820522E+03  0.7957747E-01  0.3442271E+00
         13   -1    0    0    0    0  0.00000000000E+00  0.00000000000E+00  0.14999999963E+04  0.15000000000E+04  0.10566000000E+00 0.  1.
        994   -1    0    0    0    0 -0.00000000000E+00 -0.00000000000E+00  0.11368683772E-12  0.17120000000E+03  0.17120000000E+03 0.  0.
         13    1    1    2    0    0 -0.38227312908E+02 -0.24225120148E+02  0.24865233082E+03  0.25273736701E+03  0.10566000000E+00 0.  1.
        994    1    1    2    0    0  0.46101576145E+02  0.33505765995E+02  0.13961404214E+02  0.18097611026E+03  0.17120000000E+03 0.  0.
        998    1    1    2    0    0 -0.78742632371E+01 -0.92806458470E+01  0.12373862612E+04  0.12374865227E+04  0.10000000000E+02 0.  1.
</event>
<event>
 5    1  0.1338396E-008  0.3839281E+03  0.7957747E-01  0.3434231E+00
         13   -1    0    0    0    0  0.00000000000E+00  0.00000000000E+00  0.14999999963E+04  0.15000000000E+04  0.10566000000E+00 0. -1.
        994   -1    0    0    0    0 -0.00000000000E+00 -0.00000000000E+00  0.11368683772E-12  0.17120000000E+03  0.17120000000E+03 0.  0.
         13    1    1    2    0    0  0.11929486532E+02  0.11282340514E+02  0.62999042372E+02  0.65103720019E+02  0.10566000000E+00 0. -1.
        994    1    1    2    0    0 -0.61604708864E+01 -0.42314029544E+01  0.23475832937E+01  0.17137913327E+03  0.17120000000E+03 0.  0.
        998    1    1    2    0    0 -0.57690156456E+01 -0.70509375598E+01  0.14346533706E+04  0.14347171467E+04  0.10000000000E+02 0. -1.
</event>
<event>
 5    1  0.1338396E-008  0.3855124E+03  0.7957747E-01  0.3427502E+00
         13   -1    0    0    0    0  0.00000000000E+00  0.00000000000E+00  0.14999999963E+04  0.15000000000E+04  0.10566000000E+00 0.  1.
        994   -1    0    0    0    0 -0.00000000000E+00 -0.00000000000E+00  0.11368683772E-12  0.17120000000E+03  0.17120000000E+03 0.  0.
         13    1    1    2    0    0  0.11186059263E+02  0.41461323440E+01  0.55089238405E+02  0.56366245993E+02  0.10566000000E+00 0.  1.
        994    1    1    2    0    0 -0.10645020684E+02  0.28681744001E+02  0.44549238696E+01  0.17396909280E+03  0.17120000000E+03 0.  0.
        998    1    1    2    0    0 -0.54103857919E+00 -0.32827876345E+02  0.14404558340E+04  0.14408646612E+04  0.10000000000E+02 0.  1.
</event>
<event>
 5    1  0.1338396E-008  0.3853311E+03  0.7957747E-01  0.3428269E+00
         13   -1    0    0    0    0  0.00000000000E+00  0.00000000000E+00  0.14999999963E+04  0.15000000000E+04  0.10566000000E+00 0. -1.
        994   -1    0    0    0    0 -0.00000000000E+00 -0.00000000000E+00  0.11368683772E-12  0.17120000000E+03  0.17120000000E+03 0.  0.
         13    1    1    2    0    0  0.29714417850E+01  0.14861698184E+02  0.77776022773E+02  0.79239008207E+02  0.10566000000E+00 0. -1.
        994    1    1    2    0    0  0.21670624573E+02 -0.16861536559E+02  0.39465151065E+01  0.17343281802E+03  0.17120000000E+03 0.  0.
        998    1    1    2    0    0 -0.24642066358E+02  0.19998383758E+01  0.14182774584E+04  0.14185281738E+04  0.10000000000E+02 0. -1.
</event>
<event>
 5    1  0.1338396E-008  0.3809333E+03  0.7957747E-01  0.3447105E+00
         13   -1    0    0    0    0  0.00000000000E+00  0.00000000000E+00  0.14999999963E+04  0.15000000000E+04  0.10566000000E+00 0.  1.
        994   -1    0    0    0    0 -0.00000000000E+00 -0.00000000000E+00  0.11368683772E-12  0.17120000000E+03  0.17120000000E+03 0.  0.
         13    1    1    2    0    0 -0.19915052521E+02 -0.29151197589E+02  0.15441822739E+03  0.15840265702E+03  0.10566000000E+00 0.  1.
        994    1    1    2    0    0  0.97649237244E+01  0.34871078414E+02  0.80453593414E+01  0.17517281082E+03  0.17120000000E+03 0.  0.
        998    1    1    2    0    0  0.10150128796E+02 -0.57198808250E+01  0.13375364096E+04  0.13376245322E+04  0.10000000000E+02 0.  1.
</event>
<event>
 5    1  0.1338396E-008  0.3716304E+03  0.7957747E-01  0.3488431E+00
         13   -1    0    0    0    0  0.00000000000E+00  0.00000000000E+00  0.14999999963E+04  0.15000000000E+04  0.10566000000E+00 0.  1.
        994   -1    0    0    0    0 -0.00000000000E+00 -0.00000000000E+00  0.11368683772E-12  0.17120000000E+03  0.17120000000E+03 0.  0.
         13    1    1    2    0    0 -0.16416122807E+02  0.20460367152E+02  0.23354769205E+02  0.35122245382E+02  0.10566000000E+00 0.  1.
        994    1    1    2    0    0  0.20280047783E+02 -0.27828180702E+02  0.15983924654E+02  0.17535852938E+03  0.17120000000E+03 0.  0.
        998    1    1    2    0    0 -0.38639249757E+01  0.73678135510E+01  0.14606613024E+04  0.14607192252E+04  0.10000000000E+02 0.  1.
</event>
<event>
 5    1  0.1338396E-008  0.3813961E+03  0.7957747E-01  0.3445102E+00
         13   -1    0    0    0    0  0.00000000000E+00  0.00000000000E+00  0.14999999963E+04  0.15000000000E+04  0.10566000000E+00 0.  1.
        994   -1    0    0    0    0 -0.00000000000E+00 -0.00000000000E+00  0.11368683772E-12  0.17120000000E+03  0.17120000000E+03 0.  0.
         13    1    1    2    0    0 -0.13647229651E+02 -0.40662191555E+02  0.21854053737E+03  0.22270976256E+03  0.10566000000E+00 0.  1.
        994    1    1    2    0    0  0.36465905650E+01  0.50933080866E+02  0.12155683510E+02  0.17906612463E+03  0.17120000000E+03 0.  0.
        998    1    1    2    0    0  0.10000639087E+02 -0.10270889311E+02  0.12693037754E+04  0.12694241128E+04  0.10000000000E+02 0.  1.
</event>
<event>
 5    1  0.1338396E-008  0.3763345E+03  0.7957747E-01  0.3467276E+00
         13   -1    0    0    0    0  0.00000000000E+00  0.00000000000E+00  0.14999999963E+04  0.15000000000E+04  0.10566000000E+00 0.  1.
        994   -1    0    0    0    0 -0.00000000000E+00 -0.00000000000E+00  0.11368683772E-12  0.17120000000E+03  0.17120000000E+03 0.  0.
         13    1    1    2    0    0 -0.46191898157E+02  0.35117156055E+02  0.28841353047E+03  0.29419259309E+03  0.10566000000E+00 0.  1.
        994    1    1    2    0    0  0.22426759513E+02 -0.17994617612E+02  0.87978383872E+01  0.17382061951E+03  0.17120000000E+03 0.  0.
        998    1    1    2    0    0  0.23765138644E+02 -0.17122538443E+02  0.12027886274E+04  0.12031867874E+04  0.10000000000E+02 0.  1.
</event>
<event>
 5    1  0.1338396E-008  0.3849793E+03  0.7957747E-01  0.3429760E+00
         13   -1    0    0    0    0  0.00000000000E+00  0.00000000000E+00  0.14999999963E+04  0.15000000000E+04  0.10566000000E+00 0. -1.
        994   -1    0    0    0    0 -0.00000000000E+00 -0.00000000000E+00  0.11368683772E-12  0.17120000000E+03  0.17120000000E+03 0.  0.
         13    1    1    2    0    0  0.10500791069E+02 -0.46983483415E+01  0.39387126840E+02  0.41032889430E+02  0.10566000000E+00 0. -1.
        994    1    1    2    0    0 -0.10482779987E+02  0.56555007507E+01  0.21071395105E+01  0.17162678521E+03  0.17120000000E+03 0.  0.
        998    1    1    2    0    0 -0.18011082720E-01 -0.95715240924E+00  0.14585057299E+04  0.14585403254E+04  0.10000000000E+02 0. -1.
</event>
<event>
 5    1  0.1338396E-008  0.3739860E+03  0.7957747E-01  0.3477770E+00
         13   -1    0    0    0    0  0.00000000000E+00  0.00000000000E+00  0.14999999963E+04  0.15000000000E+04  0.10566000000E+00 0. -1.
        994   -1    0    0    0    0 -0.00000000000E+00 -0.00000000000E+00  0.11368683772E-12  0.17120000000E+03  0.17120000000E+03 0.  0.
         13    1    1    2    0    0 -0.44593006739E+02  0.47310845704E+01  0.14288247110E+03  0.14975423575E+03  0.10566000000E+00 0. -1.
        994    1    1    2    0    0  0.17050952211E+02 -0.14935353877E+02  0.89548310267E+01  0.17292607891E+03  0.17120000000E+03 0.  0.
        998    1    1    2    0    0  0.27542054527E+02  0.10204269307E+02  0.13481626941E+04  0.13485196853E+04  0.10000000000E+02 0. -1.
</event>
<event>
 5    1  0.1338396E-008  0.3834363E+03  0.7957747E-01  0.3436331E+00
         13   -1    0    0    0    0  0.00000000000E+00  0.00000000000E+00  0.14999999963E+04  0.15000000000E+04  0.10566000000E+00 0. -1.
        994   -1    0    0    0    0 -0.00000000000E+00 -0.00000000000E+00  0.11368683772E-12  0.17120000000E+03  0.17120000000E+03 0.  0.
         13    1    1    2    0    0 -0.92688536955E+01  0.65112822550E+01  0.23901364408E+02  0.26449855009E+02  0.10566000000E+00 0. -1.
        994    1    1    2    0    0  0.33155262497E+02 -0.59436065322E+01  0.61678517711E+01  0.17459118043E+03  0.17120000000E+03 0.  0.
        998    1    1    2    0    0 -0.23886408802E+02 -0.56767572282E+00  0.14699307801E+04  0.14701589646E+04  0.10000000000E+02 0. -1.
</event>
<event>
 5    1  0.1338396E-008  0.3795709E+03  0.7957747E-01  0.3453029E+00
         13   -1    0    0    0    0  0.00000000000E+00  0.00000000000E+00  0.14999999963E+04  0.15000000000E+04  0.10566000000E+00 0.  1.
        994   -1    0    0    0    0 -0.00000000000E+00 -0.00000000000E+00  0.11368683772E-12  0.17120000000E+03  0.17120000000E+03 0.  0.
         13    1    1    2    0    0 -0.18568715960E+02  0.90871508243E+01  0.45494356183E+02  0.49971203018E+02  0.10566000000E+00 0.  1.
        994    1    1    2    0    0  0.20506438033E+02 -0.16350360423E+02  0.66559915070E+01  0.17332510063E+03  0.17120000000E+03 0.  0.
        998    1    1    2    0    0 -0.19377220725E+01  0.72632095989E+01  0.14478496486E+04  0.14479036963E+04  0.10000000000E+02 0.  1.
</event>
<event>
 5    1  0.1338396E-008  0.3823399E+03  0.7957747E-01  0.3441033E+00
         13   -1    0    0    0    0  0.00000000000E+00  0.00000000000E+00  0.14999999963E+04  0.15000000000E+04  0.10566000000E+00 0.  1.
        994   -1    0    0    0    0 -0.00000000000E+00 -0.00000000000E+00  0.11368683772E-12  0.17120000000E+03  0.17120000000E+03 0.  0.
         13    1    1    2    0    0  0.70073473647E+01 -0.20913089483E+02  0.75068826197E+02  0.78241932872E+02  0.10566000000E+00 0.  1.
        994    1    1    2    0    0 -0.20933984463E+02  0.24252066986E+02  0.63688965523E+01  0.17428825922E+03  0.17120000000E+03 0.  0.
        998    1    1    2    0    0  0.13926637098E+02 -0.33389775036E+01  0.14185622735E+04  0.14186698079E+04  0.10000000000E+02 0.  1.
</event>
<event>
 5    1  0.1338396E-008  0.3792006E+03  0.7957747E-01  0.3454647E+00
         13   -1    0    0    0    0  0.00000000000E+00  0.00000000000E+00  0.14999999963E+04  0.15000000000E+04  0.10566000000E+00 0.  1.
        994   -1    0    0    0    0 -0.00000000000E+00 -0.00000000000E+00  0.11368683772E-12  0.17120000000E+03  0.17120000000E+03 0.  0.
         13    1    1    2    0    0  0.14875757237E+02  0.98282968786E+01  0.33015773797E+02  0.37522474016E+02  0.10566000000E+00 0.  1.
        994    1    1    2    0    0 -0.12290943777E+02 -0.70131898087E+01  0.52086988520E+01  0.17186280189E+03  0.17120000000E+03 0.  0.
        998    1    1    2    0    0 -0.25848134593E+01 -0.28151070699E+01  0.14617755236E+04  0.14618147241E+04  0.10000000000E+02 0.  1.
</event>
<event>
 5    1  0.1338396E-008  0.3785127E+03  0.7957747E-01  0.3457660E+00
         13   -1    0    0    0    0  0.00000000000E+00  0.00000000000E+00  0.14999999963E+04  0.15000000000E+04  0.10566000000E+00 0.  1.
        994   -1    0    0    0    0 -0.00000000000E+00 -0.00000000000E+00  0.11368683772E-12  0.17120000000E+03  0.17120000000E+03 0.  0.
         13    1    1    2    0    0  0.53452980985E+01 -0.97901870612E+01  0.10745474720E+02  0.15488588233E+02  0.10566000000E+00 0.  1.
        994    1    1    2    0    0 -0.26341802621E+01 -0.10537970994E+01  0.49128535329E+01  0.17129397399E+03  0.17120000000E+03 0.  0.
        998    1    1    2    0    0 -0.27111178364E+01  0.10843984161E+02  0.14843416680E+04  0.14844174378E+04  0.10000000000E+02 0.  1.
</event>
<event>
 5    1  0.1338396E-008  0.3685978E+03  0.7957747E-01  0.3502360E+00
         13   -1    0    0    0    0  0.00000000000E+00  0.00000000000E+00  0.14999999963E+04  0.15000000000E+04  0.10566000000E+00 0. -1.
        994   -1    0    0    0    0 -0.00000000000E+00 -0.00000000000E+00  0.11368683772E-12  0.17120000000E+03  0.17120000000E+03 0.  0.
         13    1    1    2    0    0 -0.35826330598E+02 -0.26198283447E+02  0.10063015980E+03  0.10998325438E+03  0.10566000000E+00 0. -1.
        994    1    1    2    0    0  0.19258465506E+02 -0.57587376468E+01  0.11408969458E+02  0.17275316535E+03  0.17120000000E+03 0.  0.
        998    1    1    2    0    0  0.16567865092E+02  0.31957021094E+02  0.13879608670E+04  0.13884635803E+04  0.10000000000E+02 0. -1.
</event>
<event>
 5    1  0.1338396E-008  0.3730875E+03  0.7957747E-01  0.3481821E+00
         13   -1    0    0    0    0  0.00000000000E+00  0.00000000000E+00  0.14999999963E+04  0.15000000000E+04  0.10566000000E+00 0.  1.
        994   -1    0    0    0    0 -0.00000000000E+00 -0.00000000000E+00  0.11368683772E-12  0.17120000000E+03  0.17120000000E+03 0.  0.
         13    1    1    2    0    0  0.20962589275E+02 -0.59017443519E+01  0.13579568035E+02  0.25664694963E+02  0.10566000000E+00 0.  1.
        994    1    1    2    0    0  0.12057460026E+01  0.36748423702E+02  0.17373784776E+02  0.17596360097E+03  0.17120000000E+03 0.  0.
        998    1    1    2    0    0 -0.22168335278E+02 -0.30846679350E+02  0.14690466435E+04  0.14695717041E+04  0.10000000000E+02 0.  1.
</event>
<event>
 5    1  0.1338396E-008  0.3849143E+03  0.7957747E-01  0.3430036E+00
         13   -1    0    0    0    0  0.00000000000E+00  0.00000000000E+00  0.14999999963E+04  0.15000000000E+04  0.10566000000E+00 0.  1.
        994   -1    0    0    0    0 -0.00000000000E+00 -0.00000000000E+00  0.11368683772E-12  0.17120000000E+03  0.17120000000E+03 0.  0.
         13    1    1    2    0    0 -0.13978562016E+02 -0.94436783782E+01  0.86381699883E+02  0.88013592678E+02  0.10566000000E+00 0.  1.
        994    1    1    2    0    0  0.75413191277E+01  0.45157072628E+01  0.19269170047E+01  0.17143633254E+03  0.17120000000E+03 0.  0.
        998    1    1    2    0    0  0.64372428883E+01  0.49279711153E+01  0.14116913794E+04  0.14117500748E+04  0.10000000000E+02 0.  1.
</event>
<event>
 5    1  0.1338396E-008  0.3844312E+03  0.7957747E-01  0.3432088E+00
         13   -1    0    0    0    0  0.00000000000E+00  0.00000000000E+00  0.14999999963E+04  0.15000000000E+04  0.10566000000E+00 0.  1.
        994   -1    0    0    0    0 -0.00000000000E+00 -0.00000000000E+00  0.11368683772E-12  0.17120000000E+03  0.17120000000E+03 0.  0.
         13    1    1    2    0    0  0.15251657104E+02 -0.68233472393E+01  0.63404827127E+02  0.65569462244E+02  0.10566000000E+00 0.  1.
        994    1    1    2    0    0 -0.40819312017E+02 -0.45468895542E+01  0.74905500696E+01  0.17621702182E+03  0.17120000000E+03 0.  0.
        998    1    1    2    0    0  0.25567654913E+02  0.11370236793E+02  0.14291046191E+04  0.14294135159E+04  0.10000000000E+02 0.  1.
</event>
<event>
 5    1  0.1338396E-008  0.3852546E+03  0.7957747E-01  0.3428593E+00
         13   -1    0    0    0    0  0.00000000000E+00  0.00000000000E+00  0.14999999963E+04  0.15000000000E+04  0.10566000000E+00 0. -1.
        994   -1    0    0    0    0 -0.00000000000E+00 -0.00000000000E+00  0.11368683772E-12  0.17120000000E+03  0.17120000000E+03 0.  0.
         13    1    1    2    0    0  0.32700311692E+01 -0.18337225260E+02  0.98763680645E+02  0.10050483925E+03  0.10566000000E+00 0. -1.
        994    1    1    2    0    0  0.10338958563E+02  0.34665209007E+02  0.58155046108E+01  0.17507664286E+03  0.17120000000E+03 0.  0.
        998    1    1    2    0    0 -0.13608989732E+02 -0.16327983747E+02  0.13954208110E+04  0.13956185179E+04  0.10000000000E+02 0. -1.
</event>
<event>
 5    1  0.1338396E-008  0.3844295E+03  0.7957747E-01  0.3432095E+00
         13   -1    0    0    0    0  0.00000000000E+00  0.00000000000E+00  0.14999999963E+04  0.15000000000E+04  0.10566000000E+00 0. -1.
        994   -1    0    0    0    0 -0.00000000000E+00 -0.00000000000E+00  0.11368683772E-12  0.17120000000E+03  0.17120000000E+03 0.  0.
         13    1    1    2    0    0 -0.10616364735E+02 -0.18351240082E+02  0.11028070347E+03  0.11230013328E+03  0.10566000000E+00 0. -1.
        994    1    1    2    0    0  0.91925159724E+01  0.19237337687E+02  0.34127718464E+01  0.17255626480E+03  0.17120000000E+03 0.  0.
        998    1    1    2    0    0  0.14238487629E+01 -0.88609760569E+00  0.13863065210E+04  0.13863436019E+04  0.10000000000E+02 0.  0.
</event>
<event>
 5    1  0.1338396E-008  0.3830138E+03  0.7957747E-01  0.3438140E+00
         13   -1    0    0    0    0  0.00000000000E+00  0.00000000000E+00  0.14999999963E+04  0.15000000000E+04  0.10566000000E+00 0. -1.
        994   -1    0    0    0    0 -0.00000000000E+00 -0.00000000000E+00  0.11368683772E-12  0.17120000000E+03  0.17120000000E+03 0.  0.
         13    1    1    2    0    0 -0.26153840790E+02 -0.15378815936E+02  0.16977836345E+03  0.17246807017E+03  0.10566000000E+00 0. -1.
        994    1    1    2    0    0  0.13994611101E+02  0.18967269311E+02  0.44606524799E+01  0.17287262324E+03  0.17120000000E+03 0.  0.
        998    1    1    2    0    0  0.12159229690E+02 -0.35884533750E+01  0.13257609803E+04  0.13258593066E+04  0.10000000000E+02 0. -1.
</event>
<event>
 5    1  0.1338396E-008  0.3729385E+03  0.7957747E-01  0.3482494E+00
         13   -1    0    0    0    0  0.00000000000E+00  0.00000000000E+00  0.14999999963E+04  0.15000000000E+04  0.10566000000E+00 0.  1.
        994   -1    0    0    0    0 -0.00000000000E+00 -0.00000000000E+00  0.11368683772E-12  0.17120000000E+03  0.17120000000E+03 0.  0.
         13    1    1    2    0    0 -0.77395460648E+02  0.10438679132E+03  0.61061740794E+03  0.62429183045E+03  0.10566000000E+00 0.  1.
        994    1    1    2    0    0  0.10503718821E+03 -0.39241446131E+02  0.58348804906E+02  0.21280677864E+03  0.17120000000E+03 0.  0.
        998    1    1    2    0    0 -0.27641727560E+02 -0.65145345185E+02  0.83103378344E+03  0.83410139091E+03  0.10000000000E+02 0. -1.
</event>
<event>
 5    1  0.1338396E-008  0.3821883E+03  0.7957747E-01  0.3441685E+00
         13   -1    0    0    0    0  0.00000000000E+00  0.00000000000E+00  0.14999999963E+04  0.15000000000E+04  0.10566000000E+00 0. -1.
        994   -1    0    0    0    0 -0.00000000000E+00 -0.00000000000E+00  0.11368683772E-12  0.17120000000E+03  0.17120000000E+03 0.  0.
         13    1    1    2    0    0  0.12647413556E+02  0.12009601824E+02  0.38736786234E+02  0.42482200713E+02  0.10566000000E+00 0. -1.
        994    1    1    2    0    0 -0.50965013778E+02 -0.53879378670E+02  0.21508002494E+02  0.18780962235E+03  0.17120000000E+03 0.  0.
        998    1    1    2    0    0  0.38317600222E+02  0.41869776845E+02  0.14397552076E+04  0.14409081769E+04  0.10000000000E+02 0. -1.
</event>
<event>
 5    1  0.1338396E-008  0.3711864E+03  0.7957747E-01  0.3490456E+00
         13   -1    0    0    0    0  0.00000000000E+00  0.00000000000E+00  0.14999999963E+04  0.15000000000E+04  0.10566000000E+00 0. -1.
        994   -1    0    0    0    0 -0.00000000000E+00 -0.00000000000E+00  0.11368683772E-12  0.17120000000E+03  0.17120000000E+03 0.  0.
         13    1    1    2    0    0 -0.38098019301E+01 -0.44779379133E+02  0.13441285165E+03  0.14172696723E+03  0.10566000000E+00 0. -1.
        994    1    1    2    0    0  0.89133775590E+01 -0.10866365136E+02  0.93307552444E+01  0.17202915213E+03  0.17120000000E+03 0.  0.
        998    1    1    2    0    0 -0.51035756289E+01  0.55645744270E+02  0.13562563894E+04  0.13574438806E+04  0.10000000000E+02 0. -1.
</event>
<event>
 5    1  0.1338396E-008  0.3837856E+03  0.7957747E-01  0.3434839E+00
         13   -1    0    0    0    0  0.00000000000E+00  0.00000000000E+00  0.14999999963E+04  0.15000000000E+04  0.10566000000E+00 0. -1.
        994   -1    0    0    0    0 -0.00000000000E+00 -0.00000000000E+00  0.11368683772E-12  0.17120000000E+03  0.17120000000E+03 0.  0.
         13    1    1    2    0    0 -0.14618852755E+02 -0.89192666318E+01  0.66746023066E+02  0.68907959861E+02  0.10566000000E+00 0. -1.
        994    1    1    2    0    0  0.69123491613E+01  0.15437119053E+01  0.23998868064E+01  0.17136324890E+03  0.17120000000E+03 0.  0.
        998    1    1    2    0    0  0.77065035942E+01  0.73755547265E+01  0.14308540864E+04  0.14309287912E+04  0.10000000000E+02 0. -1.
</event>
<event>
 5    1  0.1338396E-008  0.3854083E+03  0.7957747E-01  0.3427942E+00
         13   -1    0    0    0    0  0.00000000000E+00  0.00000000000E+00  0.14999999963E+04  0.15000000000E+04  0.10566000000E+00 0. -1.
        994   -1    0    0    0    0 -0.00000000000E+00 -0.00000000000E+00  0.11368683772E-12  0.17120000000E+03  0.17120000000E+03 0.  0.
         13    1    1    2    0    0 -0.93900879036E+01 -0.42257252032E+01  0.39587670091E+02  0.40905076600E+02  0.10566000000E+00 0. -1.
        994    1    1    2    0    0 -0.13489273549E+01 -0.84387280904E+01  0.16674481823E+01  0.17142127091E+03  0.17120000000E+03 0.  0.
        998    1    1    2    0    0  0.10739015259E+02  0.12664453294E+02  0.14587448780E+04  0.14588736525E+04  0.10000000000E+02 0. -1.
</event>
<event>
 5    1  0.1338396E-008  0.3695735E+03  0.7957747E-01  0.3497853E+00
         13   -1    0    0    0    0  0.00000000000E+00  0.00000000000E+00  0.14999999963E+04  0.15000000000E+04  0.10566000000E+00 0. -1.
        994   -1    0    0    0    0 -0.00000000000E+00 -0.00000000000E+00  0.11368683772E-12  0.17120000000E+03  0.17120000000E+03 0.  0.
         13    1    1    2    0    0  0.19376563086E+02 -0.28846687719E+02  0.61632189336E+02  0.70753943464E+02  0.10566000000E+00 0. -1.
        994    1    1    2    0    0 -0.45816213836E+01  0.14212153590E+02  0.10264634497E+02  0.17215626415E+03  0.17120000000E+03 0.  0.
        998    1    1    2    0    0 -0.14794941702E+02  0.14634534129E+02  0.14281031724E+04  0.14282897924E+04  0.10000000000E+02 0. -1.
</event>
<event>
 5    1  0.1338396E-008  0.3835494E+03  0.7957747E-01  0.3435848E+00
         13   -1    0    0    0    0  0.00000000000E+00  0.00000000000E+00  0.14999999963E+04  0.15000000000E+04  0.10566000000E+00 0. -1.
        994   -1    0    0    0    0 -0.00000000000E+00 -0.00000000000E+00  0.11368683772E-12  0.17120000000E+03  0.17120000000E+03 0.  0.
         13    1    1    2    0    0  0.11973082094E+02  0.58769137211E+01  0.36395625865E+02  0.38762682516E+02  0.10566000000E+00 0. -1.
        994    1    1    2    0    0 -0.12952974058E+02 -0.51741475862E+01  0.29951534672E+01  0.17179337090E+03  0.17120000000E+03 0.  0.
        998    1    1    2    0    0  0.97989196346E+00 -0.70276613485E+00  0.14606092169E+04  0.14606439466E+04  0.10000000000E+02 0. -1.
</event>
<event>
 5    1  0.1338396E-008  0.3777211E+03  0.7957747E-01  0.3461142E+00
         13   -1    0    0    0    0  0.00000000000E+00  0.00000000000E+00  0.14999999963E+04  0.15000000000E+04  0.10566000000E+00 0.  1.
        994   -1    0    0    0    0 -0.00000000000E+00 -0.00000000000E+00  0.11368683772E-12  0.17120000000E+03  0.17120000000E+03 0.  0.
         13    1    1    2    0    0  0.21862173217E+02 -0.19982064122E+00  0.42012957589E+02  0.47361316656E+02  0.10566000000E+00 0.  1.
        994    1    1    2    0    0 -0.22634581384E+02 -0.18501020402E+01  0.70270759497E+01  0.17284260744E+03  0.17120000000E+03 0.  0.
        998    1    1    2    0    0  0.77240816681E+00  0.20499226814E+01  0.14509599627E+04  0.14509960759E+04  0.10000000000E+02 0.  1.
</event>
<event>
 5    1  0.1338396E-008  0.3843470E+03  0.7957747E-01  0.3432447E+00
         13   -1    0    0    0    0  0.00000000000E+00  0.00000000000E+00  0.14999999963E+04  0.15000000000E+04  0.10566000000E+00 0. -1.
        994   -1    0    0    0    0 -0.00000000000E+00 -0.00000000000E+00  0.11368683772E-12  0.17120000000E+03  0.17120000000E+03 0.  0.
         13    1    1    2    0    0  0.43593605916E+01  0.19114595919E+02  0.96433744611E+02  0.98406554993E+02  0.10566000000E+00 0. -1.
        994    1    1    2    0    0 -0.88983065399E+01 -0.13138522759E+02  0.27849817785E+01  0.17195638041E+03  0.17120000000E+03 0.  0.
        998    1    1    2    0    0  0.45389459483E+01 -0.59760731603E+01  0.14007812699E+04  0.14008370646E+04  0.10000000000E+02 0. -1.
</event>
<event>
 5    1  0.1338396E-008  0.3790180E+03  0.7957747E-01  0.3455446E+00
         13   -1    0    0    0    0  0.00000000000E+00  0.00000000000E+00  0.14999999963E+04  0.15000000000E+04  0.10566000000E+00 0.  1.
        994   -1    0    0    0    0 -0.00000000000E+00 -0.00000000000E+00  0.11368683772E-12  0.17120000000E+03  0.17120000000E+03 0.  0.
         13    1    1    2    0    0  0.33372139658E+01 -0.10703816681E+02  0.11388195672E+02  0.15981578561E+02  0.10566000000E+00 0.  1.
        994    1    1    2    0    0 -0.47407494748E+01  0.12541565004E+02  0.52328106834E+01  0.17180392273E+03  0.17120000000E+03 0.  0.
        998    1    1    2    0    0  0.14035355091E+01 -0.18377483228E+01  0.14833789899E+04  0.14834144987E+04  0.10000000000E+02 0.  1.
</event>
<event>
 5    1  0.1338396E-008  0.3819980E+03  0.7957747E-01  0.3442505E+00
         13   -1    0    0    0    0  0.00000000000E+00  0.00000000000E+00  0.14999999963E+04  0.15000000000E+04  0.10566000000E+00 0.  1.
        994   -1    0    0    0    0 -0.00000000000E+00 -0.00000000000E+00  0.11368683772E-12  0.17120000000E+03  0.17120000000E+03 0.  0.
         13    1    1    2    0    0  0.27225619677E+02  0.25750245644E+02  0.22233312282E+03  0.22546915129E+03  0.10566000000E+00 0.  1.
        994    1    1    2    0    0 -0.24809014817E+02 -0.64880960216E+01  0.53148342240E+01  0.17319142608E+03  0.17120000000E+03 0.  0.
        998    1    1    2    0    0 -0.24166048603E+01 -0.19262149623E+02  0.12723520392E+04  0.12725394226E+04  0.10000000000E+02 0.  1.
</event>
<event>
 5    1  0.1338396E-008  0.3813790E+03  0.7957747E-01  0.3445176E+00
         13   -1    0    0    0    0  0.00000000000E+00  0.00000000000E+00  0.14999999963E+04  0.15000000000E+04  0.10566000000E+00 0.  1.
        994   -1    0    0    0    0 -0.00000000000E+00 -0.00000000000E+00  0.11368683772E-12  0.17120000000E+03  0.17120000000E+03 0.  0.
         13    1    1    2    0    0 -0.99151513320E+01 -0.26621125356E+02  0.11832268781E+03  0.12168510244E+03  0.10566000000E+00 0.  1.
        994    1    1    2    0    0  0.42350956256E+01  0.13526157508E+02  0.41074686195E+01  0.17183481682E+03  0.17120000000E+03 0.  0.
        998    1    1    2    0    0  0.56800557064E+01  0.13094967848E+02  0.13775698399E+04  0.13776800807E+04  0.10000000000E+02 0.  1.
</event>
<event>
 5    1  0.1338396E-008  0.3808450E+03  0.7957747E-01  0.3447487E+00
         13   -1    0    0    0    0  0.00000000000E+00  0.00000000000E+00  0.14999999963E+04  0.15000000000E+04  0.10566000000E+00 0.  1.
        994   -1    0    0    0    0 -0.00000000000E+00 -0.00000000000E+00  0.11368683772E-12  0.17120000000E+03  0.17120000000E+03 0.  0.
         13    1    1    2    0    0  0.83065743144E+01  0.14524372935E+02  0.37261036003E+02  0.40845471646E+02  0.10566000000E+00 0.  1.
        994    1    1    2    0    0  0.20108602813E+01 -0.59337284749E+01  0.38380660203E+01  0.17135758940E+03  0.17120000000E+03 0.  0.
        998    1    1    2    0    0 -0.10317434596E+02 -0.85906444597E+01  0.14589008943E+04  0.14589969390E+04  0.10000000000E+02 0.  1.
</event>
<event>
 5    1  0.1338396E-008  0.3785531E+03  0.7957747E-01  0.3457483E+00
         13   -1    0    0    0    0  0.00000000000E+00  0.00000000000E+00  0.14999999963E+04  0.15000000000E+04  0.10566000000E+00 0.  1.
        994   -1    0    0    0    0 -0.00000000000E+00 -0.00000000000E+00  0.11368683772E-12  0.17120000000E+03  0.17120000000E+03 0.  0.
         13    1    1    2    0    0  0.13270295946E+02 -0.84129531064E+01  0.25569852778E+02  0.30011782180E+02  0.10566000000E+00 0.  1.
        994    1    1    2    0    0  0.10174261874E+02 -0.25646777501E+02  0.74266518053E+01  0.17356804993E+03  0.17120000000E+03 0.  0.
        998    1    1    2    0    0 -0.23444557821E+02  0.34059730607E+02  0.14670034917E+04  0.14676201679E+04  0.10000000000E+02 0.  1.
</event>
<event>
 5    1  0.1338396E-008  0.3826640E+03  0.7957747E-01  0.3439640E+00
         13   -1    0    0    0    0  0.00000000000E+00  0.00000000000E+00  0.14999999963E+04  0.15000000000E+04  0.10566000000E+00 0.  1.
        994   -1    0    0    0    0 -0.00000000000E+00 -0.00000000000E+00  0.11368683772E-12  0.17120000000E+03  0.17120000000E+03 0.  0.
         13    1    1    2    0    0  0.73448066011E+01  0.70327445667E+01  0.17382857378E+02  0.20139031129E+02  0.10566000000E+00 0.  1.
        994    1    1    2    0    0 -0.47365272721E+01 -0.62549632694E+01  0.29983859185E+01  0.17140592048E+03  0.17120000000E+03 0.  0.
        998    1    1    2    0    0 -0.26082793290E+01 -0.77778129737E+00  0.14796187530E+04  0.14796550484E+04  0.10000000000E+02 0.  1.
</event>
<event>
 5    1  0.1338396E-008  0.3840256E+03  0.7957747E-01  0.3433815E+00
         13   -1    0    0    0    0  0.00000000000E+00  0.00000000000E+00  0.14999999963E+04  0.15000000000E+04  0.10566000000E+00 0.  1.
        994   -1    0    0    0    0 -0.00000000000E+00 -0.00000000000E+00  0.11368683772E-12  0.17120000000E+03  0.17120000000E+03 0.  0.
         13    1    1    2    0    0 -0.70480541805E+01  0.96012364872E+01  0.34297249149E+02  0.36306628500E+02  0.10566000000E+00 0.  1.
        994    1    1    2    0    0 -0.70673169283E+01 -0.37544817103E+01  0.23260184969E+01  0.17140272303E+03  0.17120000000E+03 0.  0.
        998    1    1    2    0    0  0.14115371109E+02 -0.58467547768E+01  0.14633767286E+04  0.14634906485E+04  0.10000000000E+02 0.  1.
</event>
<event>
 5    1  0.1338396E-008  0.3845415E+03  0.7957747E-01  0.3431619E+00
         13   -1    0    0    0    0  0.00000000000E+00  0.00000000000E+00  0.14999999963E+04  0.15000000000E+04  0.10566000000E+00 0. -1.
        994   -1    0    0    0    0 -0.00000000000E+00 -0.00000000000E+00  0.11368683772E-12  0.17120000000E+03  0.17120000000E+03 0.  0.
         13    1    1    2    0    0 -0.56182662675E+02 -0.11793626252E+03  0.33524159342E+03  0.35979492871E+03  0.10566000000E+00 0. -1.
        994    1    1    2    0    0  0.61766428603E+02  0.11560023798E+03  0.85279989587E+02  0.23186337215E+03  0.17120000000E+03 0.  0.
        998    1    1    2    0    0 -0.55837659285E+01  0.23360245424E+01  0.10794784133E+04  0.10795416991E+04  0.10000000000E+02 0. -1.
</event>
<event>
 5    1  0.1338396E-008  0.3706490E+03  0.7957747E-01  0.3492914E+00
         13   -1    0    0    0    0  0.00000000000E+00  0.00000000000E+00  0.14999999963E+04  0.15000000000E+04  0.10566000000E+00 0. -1.
        994   -1    0    0    0    0 -0.00000000000E+00 -0.00000000000E+00  0.11368683772E-12  0.17120000000E+03  0.17120000000E+03 0.  0.
         13    1    1    2    0    0 -0.48214961156E+02 -0.61158877114E+02  0.35966695611E+03  0.36800193098E+03  0.10566000000E+00 0. -1.
        994    1    1    2    0    0  0.22292815191E+02  0.28273565981E+02  0.13415795928E+02  0.17545879209E+03  0.17120000000E+03 0.  0.
        998    1    1    2    0    0  0.25922145965E+02  0.32885311133E+02  0.11269172442E+04  0.11277392769E+04  0.10000000000E+02 0. -1.
</event>
<event>
 5    1  0.1338396E-008  0.3826350E+03  0.7957747E-01  0.3439765E+00
         13   -1    0    0    0    0  0.00000000000E+00  0.00000000000E+00  0.14999999963E+04  0.15000000000E+04  0.10566000000E+00 0.  1.
        994   -1    0    0    0    0 -0.00000000000E+00 -0.00000000000E+00  0.11368683772E-12  0.17120000000E+03  0.17120000000E+03 0.  0.
         13    1    1    2    0    0  0.10624904828E+02 -0.98141982271E+01  0.35577834286E+02  0.38405735847E+02  0.10566000000E+00 0.  1.
        994    1    1    2    0    0 -0.94095192966E+01  0.11915650627E+02  0.35732149127E+01  0.17190907378E+03  0.17120000000E+03 0.  0.
        998    1    1    2    0    0 -0.12153855318E+01 -0.21014523996E+01  0.14608489471E+04  0.14608851904E+04  0.10000000000E+02 0.  1.
</event>
<event>
 5    1  0.1338396E-008  0.3712711E+03  0.7957747E-01  0.3490070E+00
         13   -1    0    0    0    0  0.00000000000E+00  0.00000000000E+00  0.14999999963E+04  0.15000000000E+04  0.10566000000E+00 0.  1.
        994   -1    0    0    0    0 -0.00000000000E+00 -0.00000000000E+00  0.11368683772E-12  0.17120000000E+03  0.17120000000E+03 0.  0.
         13    1    1    2    0    0 -0.36029192785E+02 -0.29781185524E+02  0.15704756281E+03  0.16385655279E+03  0.10566000000E+00 0.  1.
        994    1    1    2    0    0 -0.17104154604E+02 -0.11338775389E+02  0.10057266054E+02  0.17271858190E+03  0.17120000000E+03 0.  0.
        998    1    1    2    0    0  0.53133347390E+02  0.41119960913E+02  0.13328951674E+04  0.13346248653E+04  0.10000000000E+02 0.  1.
</event>
<event>
 5    1  0.1338396E-008  0.3804001E+03  0.7957747E-01  0.3449418E+00
         13   -1    0    0    0    0  0.00000000000E+00  0.00000000000E+00  0.14999999963E+04  0.15000000000E+04  0.10566000000E+00 0.  1.
        994   -1    0    0    0    0 -0.00000000000E+00 -0.00000000000E+00  0.11368683772E-12  0.17120000000E+03  0.17120000000E+03 0.  0.
         13    1    1    2    0    0 -0.10220568872E+02  0.12503423973E+02  0.31342175314E+02  0.35258172904E+02  0.10566000000E+00 0.  1.
        994    1    1    2    0    0  0.93947551887E+01 -0.10225601533E+02  0.45753078128E+01  0.17182315849E+03  0.17120000000E+03 0.  0.
        998    1    1    2    0    0  0.82581368309E+00 -0.22778224400E+01  0.14640825132E+04  0.14641186686E+04  0.10000000000E+02 0.  1.
</event>
<event>
 5    1  0.1338396E-008  0.3904524E+03  0.7957747E-01  0.3406872E+00
         13   -1    0    0    0    0  0.00000000000E+00  0.00000000000E+00  0.14999999963E+04  0.15000000000E+04  0.10566000000E+00 0.  1.
        994   -1    0    0    0    0 -0.00000000000E+00 -0.00000000000E+00  0.11368683772E-12  0.17120000000E+03  0.17120000000E+03 0.  0.
         13    1    1    2    0    0  0.21104038243E+02  0.77311636439E+02  0.12424648651E+03  0.14785016109E+03  0.10566000000E+00 0.  1.
        994    1    1    2    0    0 -0.23489122225E+02 -0.82416890676E+02  0.50437333064E+02  0.19798395717E+03  0.17120000000E+03 0.  0.
        998    1    1    2    0    0  0.23850839818E+01  0.51052542367E+01  0.13253161767E+04  0.13253658817E+04  0.10000000000E+02 0.  1.
</event>
<event>
 5    1  0.1338396E-008  0.3852221E+03  0.7957747E-01  0.3428731E+00
         13   -1    0    0    0    0  0.00000000000E+00  0.00000000000E+00  0.14999999963E+04  0.15000000000E+04  0.10566000000E+00 0.  1.
        994   -1    0    0    0    0 -0.00000000000E+00 -0.00000000000E+00  0.11368683772E-12  0.17120000000E+03  0.17120000000E+03 0.  0.
         13    1    1    2    0    0 -0.12985045294E+02  0.21756480247E+02  0.12194309887E+03  0.12454752651E+03  0.10566000000E+00 0.  1.
        994    1    1    2    0    0  0.46424186741E+02 -0.69164083392E+02  0.24665125611E+02  0.19198094689E+03  0.17120000000E+03 0.  0.
        998    1    1    2    0    0 -0.33439141446E+02  0.47407603146E+02  0.13533917718E+04  0.13546715266E+04  0.10000000000E+02 0.  1.
</event>
<event>
 5    1  0.1338396E-008  0.4050629E+03  0.7957747E-01  0.3348799E+00
         13   -1    0    0    0    0  0.00000000000E+00  0.00000000000E+00  0.14999999963E+04  0.15000000000E+04  0.10566000000E+00 0. -1.
        994   -1    0    0    0    0 -0.00000000000E+00 -0.00000000000E+00  0.11368683772E-12  0.17120000000E+03  0.17120000000E+03 0.  0.
         13    1    1    2    0    0 -0.81357635660E+02  0.21708784296E+02  0.98579595685E+02  0.12964676643E+03  0.10566000000E+00 0. -1.
        994    1    1    2    0    0  0.83056928567E+02 -0.18052306387E+02  0.60349689584E+02  0.20043917826E+03  0.17120000000E+03 0.  0.
        998    1    1    2    0    0 -0.16992929068E+01 -0.36564779092E+01  0.13410707110E+04  0.13411140553E+04  0.10000000000E+02 0. -1.
</event>
<event>
 5    1  0.1338396E-008  0.3778151E+03  0.7957747E-01  0.3460728E+00
         13   -1    0    0    0    0  0.00000000000E+00  0.00000000000E+00  0.14999999963E+04  0.15000000000E+04  0.10566000000E+00 0.  1.
        994   -1    0    0    0    0 -0.00000000000E+00 -0.00000000000E+00  0.11368683772E-12  0.17120000000E+03  0.17120000000E+03 0.  0.
         13    1    1    2    0    0  0.27953927391E+02  0.28039214051E+02  0.18889012473E+03  0.19299510348E+03  0.10566000000E+00 0.  1.
        994    1    1    2    0    0  0.52534898234E+01  0.13771996681E+02  0.59721028029E+01  0.17193711949E+03  0.17120000000E+03 0.  0.
        998    1    1    2    0    0 -0.33207417215E+02 -0.41811210732E+02  0.13051377687E+04  0.13062677770E+04  0.10000000000E+02 0.  1.
</event>
<event>
 5    1  0.1338396E-008  0.3862870E+03  0.7957747E-01  0.3424232E+00
         13   -1    0    0    0    0  0.00000000000E+00  0.00000000000E+00  0.14999999963E+04  0.15000000000E+04  0.10566000000E+00 0. -1.
        994   -1    0    0    0    0 -0.00000000000E+00 -0.00000000000E+00  0.11368683772E-12  0.17120000000E+03  0.17120000000E+03 0.  0.
         13    1    1    2    0    0  0.11779800211E+01 -0.10033386808E+02  0.56770881714E+02  0.57662818717E+02  0.10566000000E+00 0. -1.
        994    1    1    2    0    0 -0.10036496283E+02 -0.49448652477E+01  0.14025656818E+01  0.17157094783E+03  0.17120000000E+03 0.  0.
        998    1    1    2    0    0  0.88585162624E+01  0.14978252056E+02  0.14418265489E+04  0.14419662334E+04  0.10000000000E+02 0. -1.
</event>
<event>
 5    1  0.1338396E-008  0.3834755E+03  0.7957747E-01  0.3436164E+00
         13   -1    0    0    0    0  0.00000000000E+00  0.00000000000E+00  0.14999999963E+04  0.15000000000E+04  0.10566000000E+00 0. -1.
        994   -1    0    0    0    0 -0.00000000000E+00 -0.00000000000E+00  0.11368683772E-12  0.17120000000E+03  0.17120000000E+03 0.  0.
         13    1    1    2    0    0 -0.64263906687E+02 -0.61185641771E+02  0.24142734956E+03  0.25721724037E+03  0.10566000000E+00 0. -1.
        994    1    1    2    0    0  0.41128780484E+02 -0.71550298531E+01  0.24673318201E+02  0.17793533563E+03  0.17120000000E+03 0.  0.
        998    1    1    2    0    0  0.23135126203E+02  0.68340671624E+02  0.12338993285E+04  0.12360474240E+04  0.10000000000E+02 0. -1.
</event>
<event>
 5    1  0.1338396E-008  0.3839612E+03  0.7957747E-01  0.3434090E+00
         13   -1    0    0    0    0  0.00000000000E+00  0.00000000000E+00  0.14999999963E+04  0.15000000000E+04  0.10566000000E+00 0. -1.
        994   -1    0    0    0    0 -0.00000000000E+00 -0.00000000000E+00  0.11368683772E-12  0.17120000000E+03  0.17120000000E+03 0.  0.
         13    1    1    2    0    0 -0.12842058837E+02  0.16432254212E+02  0.12297764577E+03  0.12473351585E+03  0.10566000000E+00 0. -1.
        994    1    1    2    0    0 -0.29929733746E+01  0.12596071952E+02  0.27000454895E+01  0.17171007298E+03  0.17120000000E+03 0.  0.
        998    1    1    2    0    0  0.15835032212E+02 -0.29028326165E+02  0.13743223050E+04  0.13747564112E+04  0.10000000000E+02 0. -1.
</event>
<event>
 5    1  0.1338396E-008  0.3831700E+03  0.7957747E-01  0.3437471E+00
         13   -1    0    0    0    0  0.00000000000E+00  0.00000000000E+00  0.14999999963E+04  0.15000000000E+04  0.10566000000E+00 0.  1.
        994   -1    0    0    0    0 -0.00000000000E+00 -0.00000000000E+00  0.11368683772E-12  0.17120000000E+03  0.17120000000E+03 0.  0.
         13    1    1    2    0    0 -0.15112877562E+02  0.43892141085E+01  0.47589992377E+02  0.50124672639E+02  0.10566000000E+00 0.  1.
        994    1    1    2    0    0  0.11473609768E+02 -0.43947942237E+01  0.30409952997E+01  0.17166725253E+03  0.17120000000E+03 0.  0.
        998    1    1    2    0    0  0.36392677946E+01  0.55801151739E-02  0.14493690086E+04  0.14494080748E+04  0.10000000000E+02 0.  1.
</event>
<event>
 5    1  0.1338396E-008  0.3823659E+03  0.7957747E-01  0.3440921E+00
         13   -1    0    0    0    0  0.00000000000E+00  0.00000000000E+00  0.14999999963E+04  0.15000000000E+04  0.10566000000E+00 0.  1.
        994   -1    0    0    0    0 -0.00000000000E+00 -0.00000000000E+00  0.11368683772E-12  0.17120000000E+03  0.17120000000E+03 0.  0.
         13    1    1    2    0    0  0.18120234384E+00 -0.13183562974E+02  0.28152245755E+02  0.31086963056E+02  0.10566000000E+00 0.  1.
        994    1    1    2    0    0  0.69653567570E+00  0.12235840347E+02  0.34419504639E+01  0.17167261859E+03  0.17120000000E+03 0.  0.
        998    1    1    2    0    0 -0.87773801954E+00  0.94772262674E+00  0.14684058001E+04  0.14684404184E+04  0.10000000000E+02 0.  1.
</event>
<event>
 5    1  0.1338396E-008  0.3815754E+03  0.7957747E-01  0.3444327E+00
         13   -1    0    0    0    0  0.00000000000E+00  0.00000000000E+00  0.14999999963E+04  0.15000000000E+04  0.10566000000E+00 0. -1.
        994   -1    0    0    0    0 -0.00000000000E+00 -0.00000000000E+00  0.11368683772E-12  0.17120000000E+03  0.17120000000E+03 0.  0.
         13    1    1    2    0    0  0.44470793967E+01 -0.43461858860E+02  0.22894875106E+03  0.23307992506E+03  0.10566000000E+00 0. -1.
        994    1    1    2    0    0 -0.22679171914E+01  0.50829692240E+02  0.11997632685E+02  0.17900330793E+03  0.17120000000E+03 0.  0.
        998    1    1    2    0    0 -0.21791622053E+01 -0.73678333794E+01  0.12590536125E+04  0.12591167670E+04  0.10000000000E+02 0. -1.
</event>
<event>
 5    1  0.1338396E-008  0.3723257E+03  0.7957747E-01  0.3485270E+00
         13   -1    0    0    0    0  0.00000000000E+00  0.00000000000E+00  0.14999999963E+04  0.15000000000E+04  0.10566000000E+00 0.  1.
        994   -1    0    0    0    0 -0.00000000000E+00 -0.00000000000E+00  0.11368683772E-12  0.17120000000E+03  0.17120000000E+03 0.  0.
         13    1    1    2    0    0  0.60921965020E+02 -0.17159412511E+02  0.14317611110E+03  0.15654181937E+03  0.10566000000E+00 0.  1.
        994    1    1    2    0    0 -0.69684043808E+02  0.21257002538E+01  0.29508746801E+02  0.18719132112E+03  0.17120000000E+03 0.  0.
        998    1    1    2    0    0  0.87620787885E+01  0.15033712257E+02  0.13273151384E+04  0.13274668595E+04  0.10000000000E+02 0.  1.
</event>
<event>
 5    1  0.1338396E-008  0.3833750E+03  0.7957747E-01  0.3436593E+00
         13   -1    0    0    0    0  0.00000000000E+00  0.00000000000E+00  0.14999999963E+04  0.15000000000E+04  0.10566000000E+00 0.  1.
        994   -1    0    0    0    0 -0.00000000000E+00 -0.00000000000E+00  0.11368683772E-12  0.17120000000E+03  0.17120000000E+03 0.  0.
         13    1    1    2    0    0 -0.28734379214E+02  0.12968679435E+02  0.18987650473E+03  0.19247584110E+03  0.10566000000E+00 0.  1.
        994    1    1    2    0    0  0.21587942442E+02 -0.15312472804E+02  0.47584467512E+01  0.17329914569E+03  0.17120000000E+03 0.  0.
        998    1    1    2    0    0  0.71464367715E+01  0.23437933696E+01  0.13053650448E+04  0.13054250132E+04  0.10000000000E+02 0.  1.
</event>
<event>
 5    1  0.1338396E-008  0.3783848E+03  0.7957747E-01  0.3458222E+00
         13   -1    0    0    0    0  0.00000000000E+00  0.00000000000E+00  0.14999999963E+04  0.15000000000E+04  0.10566000000E+00 0. -1.
        994   -1    0    0    0    0 -0.00000000000E+00 -0.00000000000E+00  0.11368683772E-12  0.17120000000E+03  0.17120000000E+03 0.  0.
         13    1    1    2    0    0  0.20583885273E+02  0.14746097307E+02  0.65831347291E+02  0.70533121077E+02  0.10566000000E+00 0. -1.
        994    1    1    2    0    0 -0.19615232006E+01 -0.52149257211E+01  0.50550734089E+01  0.17136521465E+03  0.17120000000E+03 0.  0.
        998    1    1    2    0    0 -0.18622362072E+02 -0.95311715855E+01  0.14291135756E+04  0.14293016643E+04  0.10000000000E+02 0. -1.
</event>
<event>
 5    1  0.1338396E-008  0.3701709E+03  0.7957747E-01  0.3495106E+00
         13   -1    0    0    0    0  0.00000000000E+00  0.00000000000E+00  0.14999999963E+04  0.15000000000E+04  0.10566000000E+00 0.  1.
        994   -1    0    0    0    0 -0.00000000000E+00 -0.00000000000E+00  0.11368683772E-12  0.17120000000E+03  0.17120000000E+03 0.  0.
         13    1    1    2    0    0 -0.24033082988E+02  0.18800694768E+02  0.39354309901E+02  0.49797872178E+02  0.10566000000E+00 0.  1.
        994    1    1    2    0    0  0.34830157461E+01 -0.51343381315E+01  0.11163890008E+02  0.17167575620E+03  0.17120000000E+03 0.  0.
        998    1    1    2    0    0  0.20550067242E+02 -0.13666356636E+02  0.14494817964E+04  0.14497263716E+04  0.10000000000E+02 0.  1.
</event>
<event>
 5    1  0.1338396E-008  0.3702816E+03  0.7957747E-01  0.3494598E+00
         13   -1    0    0    0    0  0.00000000000E+00  0.00000000000E+00  0.14999999963E+04  0.15000000000E+04  0.10566000000E+00 0.  1.
        994   -1    0    0    0    0 -0.00000000000E+00 -0.00000000000E+00  0.11368683772E-12  0.17120000000E+03  0.17120000000E+03 0.  0.
         13    1    1    2    0    0 -0.53570241095E+02 -0.51640530964E+02  0.37440623797E+03  0.38172838166E+03  0.10566000000E+00 0.  1.
        994    1    1    2    0    0 -0.18949142034E+01 -0.16507037517E+02  0.12054441516E+02  0.17242628149E+03  0.17120000000E+03 0.  0.
        998    1    1    2    0    0  0.55465155298E+02  0.68147568481E+02  0.11135393168E+04  0.11170453369E+04  0.10000000000E+02 0.  1.
</event>
<event>
 5    1  0.1338396E-008  0.3840492E+03  0.7957747E-01  0.3433715E+00
         13   -1    0    0    0    0  0.00000000000E+00  0.00000000000E+00  0.14999999963E+04  0.15000000000E+04  0.10566000000E+00 0.  1.
        994   -1    0    0    0    0 -0.00000000000E+00 -0.00000000000E+00  0.11368683772E-12  0.17120000000E+03  0.17120000000E+03 0.  0.
         13    1    1    2    0    0 -0.13919126670E+02 -0.93413450229E+01  0.67640132278E+02  0.69686451142E+02  0.10566000000E+00 0.  1.
        994    1    1    2    0    0  0.10464494870E+02 -0.16855050591E+01  0.24736079702E+01  0.17154563625E+03  0.17120000000E+03 0.  0.
        998    1    1    2    0    0  0.34546318000E+01  0.11026850082E+02  0.14298862560E+04  0.14299679126E+04  0.10000000000E+02 0.  1.
</event>
<event>
 5    1  0.1338396E-008  0.3817245E+03  0.7957747E-01  0.3443684E+00
         13   -1    0    0    0    0  0.00000000000E+00  0.00000000000E+00  0.14999999963E+04  0.15000000000E+04  0.10566000000E+00 0. -1.
        994   -1    0    0    0    0 -0.00000000000E+00 -0.00000000000E+00  0.11368683772E-12  0.17120000000E+03  0.17120000000E+03 0.  0.
         13    1    1    2    0    0 -0.10452841797E+02  0.25466488889E+01  0.16637580517E+02  0.19813318039E+02  0.10566000000E+00 0. -1.
        994    1    1    2    0    0  0.84191791092E+00 -0.49879171779E+01  0.33502131452E+01  0.17130747815E+03  0.17120000000E+03 0.  0.
        998    1    1    2    0    0  0.96109238861E+01  0.24412682890E+01  0.14800122026E+04  0.14800792038E+04  0.10000000000E+02 0. -1.
</event>
<event>
 5    1  0.1338396E-008  0.3844581E+03  0.7957747E-01  0.3431974E+00
         13   -1    0    0    0    0  0.00000000000E+00  0.00000000000E+00  0.14999999963E+04  0.15000000000E+04  0.10566000000E+00 0. -1.
        994   -1    0    0    0    0 -0.00000000000E+00 -0.00000000000E+00  0.11368683772E-12  0.17120000000E+03  0.17120000000E+03 0.  0.
         13    1    1    2    0    0 -0.34858346249E+01 -0.13103428931E+02  0.49751843307E+02  0.51566539241E+02  0.10566000000E+00 0. -1.
        994    1    1    2    0    0  0.12320296735E+02 -0.51687769644E+00  0.24005413741E+01  0.17166030255E+03  0.17120000000E+03 0.  0.
        998    1    1    2    0    0 -0.88344621098E+01  0.13620306627E+02  0.14478476116E+04  0.14479731582E+04  0.10000000000E+02 0. -1.
</event>
<event>
 5    1  0.1338396E-008  0.3778943E+03  0.7957747E-01  0.3460379E+00
         13   -1    0    0    0    0  0.00000000000E+00  0.00000000000E+00  0.14999999963E+04  0.15000000000E+04  0.10566000000E+00 0. -1.
        994   -1    0    0    0    0 -0.00000000000E+00 -0.00000000000E+00  0.11368683772E-12  0.17120000000E+03  0.17120000000E+03 0.  0.
         13    1    1    2    0    0  0.13730299417E+02  0.68852503423E+01  0.24769170753E+02  0.29145338876E+02  0.10566000000E+00 0. -1.
        994    1    1    2    0    0  0.34294464768E+02  0.70506699584E+02  0.26181349898E+02  0.19011104145E+03  0.17120000000E+03 0.  0.
        998    1    1    2    0    0 -0.48024764185E+02 -0.77391949926E+02  0.14490494756E+04  0.14519436197E+04  0.10000000000E+02 0. -1.
</event>
<event>
 5    1  0.1338396E-008  0.3825125E+03  0.7957747E-01  0.3440291E+00
         13   -1    0    0    0    0  0.00000000000E+00  0.00000000000E+00  0.14999999963E+04  0.15000000000E+04  0.10566000000E+00 0. -1.
        994   -1    0    0    0    0 -0.00000000000E+00 -0.00000000000E+00  0.11368683772E-12  0.17120000000E+03  0.17120000000E+03 0.  0.
         13    1    1    2    0    0 -0.26556499859E+02  0.45699925609E+01  0.13764152493E+03  0.14025452958E+03  0.10566000000E+00 0. -1.
        994    1    1    2    0    0  0.36460379423E+01  0.42125082090E-01  0.29142585719E+01  0.17126362214E+03  0.17120000000E+03 0.  0.
        998    1    1    2    0    0  0.22910461917E+02 -0.46121176430E+01  0.13594442128E+04  0.13596818483E+04  0.10000000000E+02 0. -1.
</event>
<event>
 5    1  0.1338396E-008  0.3839803E+03  0.7957747E-01  0.3434009E+00
         13   -1    0    0    0    0  0.00000000000E+00  0.00000000000E+00  0.14999999963E+04  0.15000000000E+04  0.10566000000E+00 0. -1.
        994   -1    0    0    0    0 -0.00000000000E+00 -0.00000000000E+00  0.11368683772E-12  0.17120000000E+03  0.17120000000E+03 0.  0.
         13    1    1    2    0    0  0.14951706786E+02 -0.84579037762E+01  0.87119341147E+02  0.88796849257E+02  0.10566000000E+00 0. -1.
        994    1    1    2    0    0  0.12362499632E+02 -0.26746127936E+02  0.50071622167E+01  0.17378923566E+03  0.17120000000E+03 0.  0.
        998    1    1    2    0    0 -0.27314206418E+02  0.35204031712E+02  0.14078734929E+04  0.14086139151E+04  0.10000000000E+02 0. -1.
</event>
<event>
 5    1  0.1338396E-008  0.3851511E+03  0.7957747E-01  0.3429032E+00
         13   -1    0    0    0    0  0.00000000000E+00  0.00000000000E+00  0.14999999963E+04  0.15000000000E+04  0.10566000000E+00 0. -1.
        994   -1    0    0    0    0 -0.00000000000E+00 -0.00000000000E+00  0.11368683772E-12  0.17120000000E+03  0.17120000000E+03 0.  0.
         13    1    1    2    0    0 -0.65474026927E+01  0.10673163074E+02  0.51460006328E+02  0.52961573876E+02  0.10566000000E+00 0. -1.
        994    1    1    2    0    0  0.31922632502E+01 -0.37943367733E+01  0.16359683496E+01  0.17127960745E+03  0.17120000000E+03 0.  0.
        998    1    1    2    0    0  0.33551394425E+01 -0.68788263008E+01  0.14469040216E+04  0.14469588187E+04  0.10000000000E+02 0. -1.
</event>
<event>
 5    1  0.1338396E-008  0.3817853E+03  0.7957747E-01  0.3443421E+00
         13   -1    0    0    0    0  0.00000000000E+00  0.00000000000E+00  0.14999999963E+04  0.15000000000E+04  0.10566000000E+00 0.  1.
        994   -1    0    0    0    0 -0.00000000000E+00 -0.00000000000E+00  0.11368683772E-12  0.17120000000E+03  0.17120000000E+03 0.  0.
         13    1    1    2    0    0 -0.69145589239E+01 -0.21600035565E+02  0.77762518090E+02  0.81002426169E+02  0.10566000000E+00 0.  1.
        994    1    1    2    0    0  0.10699526678E+02  0.13378724206E+02  0.42105216162E+01  0.17210647467E+03  0.17120000000E+03 0.  0.
        998    1    1    2    0    0 -0.37849677537E+01  0.82213113588E+01  0.14180269566E+04  0.14180910992E+04  0.10000000000E+02 0.  1.
</event>
<event>
 5    1  0.1338396E-008  0.3836079E+03  0.7957747E-01  0.3435598E+00
         13   -1    0    0    0    0  0.00000000000E+00  0.00000000000E+00  0.14999999963E+04  0.15000000000E+04  0.10566000000E+00 0.  1.
        994   -1    0    0    0    0 -0.00000000000E+00 -0.00000000000E+00  0.11368683772E-12  0.17120000000E+03  0.17120000000E+03 0.  0.
         13    1    1    2    0    0  0.15927438792E+02  0.17045926366E+02  0.96055887446E+02  0.98848326183E+02  0.10566000000E+00 0.  1.
        994    1    1    2    0    0 -0.21073448868E+02 -0.42294196740E+02  0.97345676170E+01  0.17786818471E+03  0.17120000000E+03 0.  0.
        998    1    1    2    0    0  0.51460100755E+01  0.25248270374E+02  0.13942095412E+04  0.13944834891E+04  0.10000000000E+02 0.  1.
</event>
<event>
 5    1  0.1338396E-008  0.3833336E+03  0.7957747E-01  0.3436770E+00
         13   -1    0    0    0    0  0.00000000000E+00  0.00000000000E+00  0.14999999963E+04  0.15000000000E+04  0.10566000000E+00 0.  1.
        994   -1    0    0    0    0 -0.00000000000E+00 -0.00000000000E+00  0.11368683772E-12  0.17120000000E+03  0.17120000000E+03 0.  0.
         13    1    1    2    0    0 -0.14355657484E+02  0.53854429177E+01  0.46988267042E+02  0.49426676005E+02  0.10566000000E+00 0.  1.
        994    1    1    2    0    0  0.12672188192E+02  0.33794624662E+01  0.30286817919E+01  0.17172832624E+03  0.17120000000E+03 0.  0.
        998    1    1    2    0    0  0.16834692920E+01 -0.87649053839E+01  0.14499830474E+04  0.14500449978E+04  0.10000000000E+02 0.  1.
</event>
<event>
 5    1  0.1338396E-008  0.3789443E+03  0.7957747E-01  0.3455768E+00
         13   -1    0    0    0    0  0.00000000000E+00  0.00000000000E+00  0.14999999963E+04  0.15000000000E+04  0.10566000000E+00 0.  1.
        994   -1    0    0    0    0 -0.00000000000E+00 -0.00000000000E+00  0.11368683772E-12  0.17120000000E+03  0.17120000000E+03 0.  0.
         13    1    1    2    0    0 -0.11115564512E+02 -0.17052826178E+02  0.41702064533E+02  0.46405042888E+02  0.10566000000E+00 0.  1.
        994    1    1    2    0    0 -0.36603393126E+01  0.25960459270E+02  0.69762088869E+01  0.17333623689E+03  0.17120000000E+03 0.  0.
        998    1    1    2    0    0  0.14775903825E+02 -0.89076330917E+01  0.14513217229E+04  0.14514587202E+04  0.10000000000E+02 0.  1.
</event>
<event>
 5    1  0.1338396E-008  0.4005050E+03  0.7957747E-01  0.3366463E+00
         13   -1    0    0    0    0  0.00000000000E+00  0.00000000000E+00  0.14999999963E+04  0.15000000000E+04  0.10566000000E+00 0. -1.
        994   -1    0    0    0    0 -0.00000000000E+00 -0.00000000000E+00  0.11368683772E-12  0.17120000000E+03  0.17120000000E+03 0.  0.
         13    1    1    2    0    0 -0.45532408040E+02 -0.64559793935E+02  0.73741075205E+02  0.10806907287E+03  0.10566000000E+00 0. -1.
        994    1    1    2    0    0  0.65533333898E+02  0.14712568135E+03  0.13908997644E+03  0.27312276637E+03  0.17120000000E+03 0.  0.
        998    1    1    2    0    0 -0.20000925858E+02 -0.82565887411E+02  0.12871689446E+04  0.12900081608E+04  0.10000000000E+02 0. -1.
</event>
<event>
 5    1  0.1338396E-008  0.3828869E+03  0.7957747E-01  0.3438684E+00
         13   -1    0    0    0    0  0.00000000000E+00  0.00000000000E+00  0.14999999963E+04  0.15000000000E+04  0.10566000000E+00 0. -1.
        994   -1    0    0    0    0 -0.00000000000E+00 -0.00000000000E+00  0.11368683772E-12  0.17120000000E+03  0.17120000000E+03 0.  0.
         13    1    1    2    0    0 -0.10922245190E+02  0.82868260019E+01  0.34742810918E+02  0.37350247653E+02  0.10566000000E+00 0. -1.
        994    1    1    2    0    0  0.40319868269E+01 -0.24604881487E+01  0.27567903225E+01  0.17128733407E+03  0.17120000000E+03 0.  0.
        998    1    1    2    0    0  0.68902583633E+01 -0.58263378531E+01  0.14625003950E+04  0.14625624183E+04  0.10000000000E+02 0. -1.
</event>
<event>
 5    1  0.1338396E-008  0.3840193E+03  0.7957747E-01  0.3433842E+00
         13   -1    0    0    0    0  0.00000000000E+00  0.00000000000E+00  0.14999999963E+04  0.15000000000E+04  0.10566000000E+00 0.  1.
        994   -1    0    0    0    0 -0.00000000000E+00 -0.00000000000E+00  0.11368683772E-12  0.17120000000E+03  0.17120000000E+03 0.  0.
         13    1    1    2    0    0  0.20671577484E+02 -0.69106307001E+01  0.11784575508E+03  0.11984449961E+03  0.10566000000E+00 0.  1.
        994    1    1    2    0    0 -0.65627601911E+01  0.10298403425E+01  0.22634173246E+01  0.17134378731E+03  0.17120000000E+03 0.  0.
        998    1    1    2    0    0 -0.14108817293E+02  0.58807903576E+01  0.13798908239E+04  0.13800117131E+04  0.10000000000E+02 0.  1.
</event>
<event>
 5    1  0.1338396E-008  0.3716329E+03  0.7957747E-01  0.3488420E+00
         13   -1    0    0    0    0  0.00000000000E+00  0.00000000000E+00  0.14999999963E+04  0.15000000000E+04  0.10566000000E+00 0.  1.
        994   -1    0    0    0    0 -0.00000000000E+00 -0.00000000000E+00  0.11368683772E-12  0.17120000000E+03  0.17120000000E+03 0.  0.
         13    1    1    2    0    0 -0.19145147280E+02 -0.10401949360E+03  0.43612579876E+03  0.44876755144E+03  0.10566000000E+00 0.  1.
        994    1    1    2    0    0  0.18745478117E+02  0.10972626032E+03  0.52307680102E+02  0.21080032863E+03  0.17120000000E+03 0.  0.
        998    1    1    2    0    0  0.39966916308E+00 -0.57067667258E+01  0.10115665174E+04  0.10116321199E+04  0.10000000000E+02 0.  0.
</event>
<event>
 5    1  0.1338396E-008  0.3709211E+03  0.7957747E-01  0.3491668E+00
         13   -1    0    0    0    0  0.00000000000E+00  0.00000000000E+00  0.14999999963E+04  0.15000000000E+04  0.10566000000E+00 0. -1.
        994   -1    0    0    0    0 -0.00000000000E+00 -0.00000000000E+00  0.11368683772E-12  0.17120000000E+03  0.17120000000E+03 0.  0.
         13    1    1    2    0    0  0.61563074894E+01  0.69878944211E+02  0.22497009566E+03  0.23565339394E+03  0.10566000000E+00 0. -1.
        994    1    1    2    0    0 -0.53997707881E+01 -0.77949963791E+02  0.30135664528E+02  0.19058581441E+03  0.17120000000E+03 0.  0.
        998    1    1    2    0    0 -0.75653670134E+00  0.80710195800E+01  0.12448942361E+04  0.12449607916E+04  0.10000000000E+02 0. -1.
</event>
<event>
 5    1  0.1338396E-008  0.3851665E+03  0.7957747E-01  0.3428966E+00
         13   -1    0    0    0    0  0.00000000000E+00  0.00000000000E+00  0.14999999963E+04  0.15000000000E+04  0.10566000000E+00 0. -1.
        994   -1    0    0    0    0 -0.00000000000E+00 -0.00000000000E+00  0.11368683772E-12  0.17120000000E+03  0.17120000000E+03 0.  0.
         13    1    1    2    0    0 -0.11639043021E+02 -0.11635451748E+02  0.82314156801E+02  0.83943329894E+02  0.10566000000E+00 0. -1.
        994    1    1    2    0    0  0.15897294816E+02  0.11587635765E+02  0.28205400760E+01  0.17234962353E+03  0.17120000000E+03 0.  0.
        998    1    1    2    0    0 -0.42582517949E+01  0.47815983483E-01  0.14148652994E+04  0.14149070466E+04  0.10000000000E+02 0. -1.
</event>
<event>
 5    1  0.1338396E-008  0.3774232E+03  0.7957747E-01  0.3462456E+00
         13   -1    0    0    0    0  0.00000000000E+00  0.00000000000E+00  0.14999999963E+04  0.15000000000E+04  0.10566000000E+00 0.  1.
        994   -1    0    0    0    0 -0.00000000000E+00 -0.00000000000E+00  0.11368683772E-12  0.17120000000E+03  0.17120000000E+03 0.  0.
         13    1    1    2    0    0 -0.26429386025E+02  0.24007709305E+01  0.63518814404E+02  0.68839865587E+02  0.10566000000E+00 0.  1.
        994    1    1    2    0    0  0.13129530410E+02 -0.42593760579E+01  0.60822408335E+01  0.17186320289E+03  0.17120000000E+03 0.  0.
        998    1    1    2    0    0  0.13299855615E+02  0.18586051274E+01  0.14303989410E+04  0.14304969315E+04  0.10000000000E+02 0.  1.
</event>
<event>
 5    1  0.1338396E-008  0.3839999E+03  0.7957747E-01  0.3433925E+00
         13   -1    0    0    0    0  0.00000000000E+00  0.00000000000E+00  0.14999999963E+04  0.15000000000E+04  0.10566000000E+00 0.  1.
        994   -1    0    0    0    0 -0.00000000000E+00 -0.00000000000E+00  0.11368683772E-12  0.17120000000E+03  0.17120000000E+03 0.  0.
         13    1    1    2    0    0 -0.21279191822E+02  0.96345817961E+01  0.13554998855E+03  0.13754795429E+03  0.10566000000E+00 0.  1.
        994    1    1    2    0    0  0.10828290374E+02  0.62098009357E+01  0.26417284534E+01  0.17167478624E+03  0.17120000000E+03 0.  0.
        998    1    1    2    0    0  0.10450901448E+02 -0.15844382732E+02  0.13618082793E+04  0.13619772595E+04  0.10000000000E+02 0.  1.
</event>
<event>
 5    1  0.1338396E-008  0.3803296E+03  0.7957747E-01  0.3449724E+00
         13   -1    0    0    0    0  0.00000000000E+00  0.00000000000E+00  0.14999999963E+04  0.15000000000E+04  0.10566000000E+00 0. -1.
        994   -1    0    0    0    0 -0.00000000000E+00 -0.00000000000E+00  0.11368683772E-12  0.17120000000E+03  0.17120000000E+03 0.  0.
         13    1    1    2    0    0 -0.11613140454E+02 -0.82885072232E+01  0.23585820305E+02  0.27565675517E+02  0.10566000000E+00 0. -1.
        994    1    1    2    0    0  0.16709325587E+02  0.52319869683E+01  0.49912392556E+01  0.17216540802E+03  0.17120000000E+03 0.  0.
        998    1    1    2    0    0 -0.50961851329E+01  0.30565202550E+01  0.14714229367E+04  0.14714689165E+04  0.10000000000E+02 0. -1.
</event>
<event>
 5    1  0.1338396E-008  0.3713257E+03  0.7957747E-01  0.3489820E+00
         13   -1    0    0    0    0  0.00000000000E+00  0.00000000000E+00  0.14999999963E+04  0.15000000000E+04  0.10566000000E+00 0. -1.
        994   -1    0    0    0    0 -0.00000000000E+00 -0.00000000000E+00  0.11368683772E-12  0.17120000000E+03  0.17120000000E+03 0.  0.
         13    1    1    2    0    0 -0.33499081823E+02  0.38838674591E+02  0.17913328336E+03  0.18633135941E+03  0.10566000000E+00 0. -1.
        994    1    1    2    0    0  0.69250620237E+01  0.10042179614E+02  0.90900997907E+01  0.17187458151E+03  0.17120000000E+03 0.  0.
        998    1    1    2    0    0  0.26574019799E+02 -0.48880854205E+02  0.13117766131E+04  0.13129940591E+04  0.10000000000E+02 0. -1.
</event>
<event>
 5    1  0.1338396E-008  0.3843157E+03  0.7957747E-01  0.3432580E+00
         13   -1    0    0    0    0  0.00000000000E+00  0.00000000000E+00  0.14999999963E+04  0.15000000000E+04  0.10566000000E+00 0. -1.
        994   -1    0    0    0    0 -0.00000000000E+00 -0.00000000000E+00  0.11368683772E-12  0.17120000000E+03  0.17120000000E+03 0.  0.
         13    1    1    2    0    0  0.12869499472E+02 -0.11980429487E+02  0.79866743879E+02  0.81779353440E+02  0.10566000000E+00 0. -1.
        994    1    1    2    0    0 -0.10659086088E+02  0.34321477932E+00  0.23452284906E+01  0.17154787673E+03  0.17120000000E+03 0.  0.
        998    1    1    2    0    0 -0.22104133834E+01  0.11637214708E+02  0.14177880239E+04  0.14178727698E+04  0.10000000000E+02 0. -1.
</event>
<event>
 5    1  0.1338396E-008  0.3843547E+03  0.7957747E-01  0.3432414E+00
         13   -1    0    0    0    0  0.00000000000E+00  0.00000000000E+00  0.14999999963E+04  0.15000000000E+04  0.10566000000E+00 0. -1.
        994   -1    0    0    0    0 -0.00000000000E+00 -0.00000000000E+00  0.11368683772E-12  0.17120000000E+03  0.17120000000E+03 0.  0.
         13    1    1    2    0    0 -0.12003739714E+02  0.35601529743E-01  0.37031336945E+02  0.38928422966E+02  0.10566000000E+00 0. -1.
        994    1    1    2    0    0  0.49922463757E+01  0.11004417184E+01  0.20369930961E+01  0.17128842003E+03  0.17120000000E+03 0.  0.
        998    1    1    2    0    0  0.70114933381E+01 -0.11360432481E+01  0.14609316662E+04  0.14609831570E+04  0.10000000000E+02 0. -1.
</event>
<event>
 5    1  0.1338396E-008  0.3856165E+03  0.7957747E-01  0.3427062E+00
         13   -1    0    0    0    0  0.00000000000E+00  0.00000000000E+00  0.14999999963E+04  0.15000000000E+04  0.10566000000E+00 0. -1.
        994   -1    0    0    0    0 -0.00000000000E+00 -0.00000000000E+00  0.11368683772E-12  0.17120000000E+03  0.17120000000E+03 0.  0.
         13    1    1    2    0    0 -0.40026462735E+01  0.10640340588E+02  0.56640314643E+02  0.57770013259E+02  0.10566000000E+00 0. -1.
        994    1    1    2    0    0 -0.69894438499E+01  0.12005766821E+02  0.19580487140E+01  0.17177387670E+03  0.17120000000E+03 0.  0.
        998    1    1    2    0    0  0.10992090123E+02 -0.22646107409E+02  0.14414016329E+04  0.14416561100E+04  0.10000000000E+02 0. -1.
</event>
<event>
 5    1  0.1338396E-008  0.3819332E+03  0.7957747E-01  0.3442784E+00
         13   -1    0    0    0    0  0.00000000000E+00  0.00000000000E+00  0.14999999963E+04  0.15000000000E+04  0.10566000000E+00 0.  1.
        994   -1    0    0    0    0 -0.00000000000E+00 -0.00000000000E+00  0.11368683772E-12  0.17120000000E+03  0.17120000000E+03 0.  0.
         13    1    1    2    0    0 -0.20832908678E+02 -0.12796361176E+02  0.93996914923E+02  0.97124601016E+02  0.10566000000E+00 0.  1.
        994    1    1    2    0    0  0.15285436923E+02  0.24062716153E+01  0.39561962957E+01  0.17194338084E+03  0.17120000000E+03 0.  0.
        998    1    1    2    0    0  0.55474717545E+01  0.10390089561E+02  0.14020468851E+04  0.14021320181E+04  0.10000000000E+02 0.  1.
</event>
<event>
 5    1  0.1338396E-008  0.4120041E+03  0.7957747E-01  0.3322642E+00
         13   -1    0    0    0    0  0.00000000000E+00  0.00000000000E+00  0.14999999963E+04  0.15000000000E+04  0.10566000000E+00 0.  1.
        994   -1    0    0    0    0 -0.00000000000E+00 -0.00000000000E+00  0.11368683772E-12  0.17120000000E+03  0.17120000000E+03 0.  0.
         13    1    1    2    0    0 -0.40908153945E+02  0.31585703323E+02  0.27224097153E+02  0.58414864062E+02  0.10566000000E+00 0.  1.
        994    1    1    2    0    0 -0.17227930686E+02 -0.41343441922E+02  0.43461674635E+02  0.18222085212E+03  0.17120000000E+03 0.  0.
        998    1    1    2    0    0  0.58136084631E+02  0.97577385983E+01  0.14293142245E+04  0.14305642838E+04  0.10000000000E+02 0.  1.
</event>
<event>
 5    1  0.1338396E-008  0.3694750E+03  0.7957747E-01  0.3498307E+00
         13   -1    0    0    0    0  0.00000000000E+00  0.00000000000E+00  0.14999999963E+04  0.15000000000E+04  0.10566000000E+00 0.  1.
        994   -1    0    0    0    0 -0.00000000000E+00 -0.00000000000E+00  0.11368683772E-12  0.17120000000E+03  0.17120000000E+03 0.  0.
         13    1    1    2    0    0  0.49052423159E+02  0.17354326160E+03  0.85981316296E+03  0.87852267485E+03  0.10566000000E+00 0.  1.
        994    1    1    2    0    0 -0.48937604147E+02 -0.15382970164E+03  0.10607479995E+03  0.25810805758E+03  0.17120000000E+03 0.  0.
        998    1    1    2    0    0 -0.11481901193E+00 -0.19713559965E+02  0.53411203337E+03  0.53456926756E+03  0.10000000000E+02 0. -1.
</event>
<event>
 5    1  0.1338396E-008  0.3829995E+03  0.7957747E-01  0.3438201E+00
         13   -1    0    0    0    0  0.00000000000E+00  0.00000000000E+00  0.14999999963E+04  0.15000000000E+04  0.10566000000E+00 0. -1.
        994   -1    0    0    0    0 -0.00000000000E+00 -0.00000000000E+00  0.11368683772E-12  0.17120000000E+03  0.17120000000E+03 0.  0.
         13    1    1    2    0    0  0.50994723086E+01  0.91423003344E+01  0.19695566746E+02  0.22304994659E+02  0.10566000000E+00 0. -1.
        994    1    1    2    0    0 -0.11669529702E+02 -0.54120811380E+01  0.31745217339E+01  0.17171192776E+03  0.17120000000E+03 0.  0.
        998    1    1    2    0    0  0.65700573933E+01 -0.37302191964E+01  0.14771299078E+04  0.14771830776E+04  0.10000000000E+02 0. -1.
</event>
<event>
 5    1  0.1338396E-008  0.3815145E+03  0.7957747E-01  0.3444590E+00
         13   -1    0    0    0    0  0.00000000000E+00  0.00000000000E+00  0.14999999963E+04  0.15000000000E+04  0.10566000000E+00 0.  1.
        994   -1    0    0    0    0 -0.00000000000E+00 -0.00000000000E+00  0.11368683772E-12  0.17120000000E+03  0.17120000000E+03 0.  0.
         13    1    1    2    0    0  0.43959407106E+02  0.19873350408E+02  0.28208277242E+03  0.28617840797E+03  0.10566000000E+00 0.  1.
        994    1    1    2    0    0 -0.43896124668E+02 -0.20204679633E+02  0.11177019654E+02  0.17823990745E+03  0.17120000000E+03 0.  0.
        998    1    1    2    0    0 -0.63282437131E-01  0.33132922519E+00  0.12067402042E+04  0.12067816846E+04  0.10000000000E+02 0.  0.
</event>
<event>
 5    1  0.1338396E-008  0.3805702E+03  0.7957747E-01  0.3448679E+00
         13   -1    0    0    0    0  0.00000000000E+00  0.00000000000E+00  0.14999999963E+04  0.15000000000E+04  0.10566000000E+00 0.  1.
        994   -1    0    0    0    0 -0.00000000000E+00 -0.00000000000E+00  0.11368683772E-12  0.17120000000E+03  0.17120000000E+03 0.  0.
         13    1    1    2    0    0  0.51451793710E+02 -0.37340336879E-01  0.27308012791E+03  0.27788496882E+03  0.10566000000E+00 0.  1.
        994    1    1    2    0    0 -0.55378872286E+02 -0.86994838778E+01  0.14402989393E+02  0.18071908206E+03  0.17120000000E+03 0.  0.
        998    1    1    2    0    0  0.39270785762E+01  0.87368242146E+01  0.12125168790E+04  0.12125959491E+04  0.10000000000E+02 0.  1.
</event>
<event>
 5    1  0.1338396E-008  0.3824631E+03  0.7957747E-01  0.3440503E+00
         13   -1    0    0    0    0  0.00000000000E+00  0.00000000000E+00  0.14999999963E+04  0.15000000000E+04  0.10566000000E+00 0. -1.
        994   -1    0    0    0    0 -0.00000000000E+00 -0.00000000000E+00  0.11368683772E-12  0.17120000000E+03  0.17120000000E+03 0.  0.
         13    1    1    2    0    0  0.41142723277E+01 -0.17546339568E+02  0.57500177533E+02  0.60258467035E+02  0.10566000000E+00 0. -1.
        994    1    1    2    0    0 -0.17062544526E+01  0.25091980578E+01  0.29254408210E+01  0.17125187760E+03  0.17120000000E+03 0.  0.
        998    1    1    2    0    0 -0.24080178751E+01  0.15037141510E+02  0.14395743779E+04  0.14396896554E+04  0.10000000000E+02 0. -1.
</event>
<event>
 5    1  0.1338396E-008  0.3813732E+03  0.7957747E-01  0.3445201E+00
         13   -1    0    0    0    0  0.00000000000E+00  0.00000000000E+00  0.14999999963E+04  0.15000000000E+04  0.10566000000E+00 0. -1.
        994   -1    0    0    0    0 -0.00000000000E+00 -0.00000000000E+00  0.11368683772E-12  0.17120000000E+03  0.17120000000E+03 0.  0.
         13    1    1    2    0    0 -0.26676127129E+02 -0.19052281822E+02  0.12139650853E+03  0.12574469630E+03  0.10566000000E+00 0. -1.
        994    1    1    2    0    0  0.44971652034E+02  0.41380022994E+02  0.15971502418E+02  0.18248091593E+03  0.17120000000E+03 0.  0.
        998    1    1    2    0    0 -0.18295524905E+02 -0.22327741172E+02  0.13626319853E+04  0.13629743878E+04  0.10000000000E+02 0. -1.
</event>
<event>
 5    1  0.1338396E-008  0.3803413E+03  0.7957747E-01  0.3449674E+00
         13   -1    0    0    0    0  0.00000000000E+00  0.00000000000E+00  0.14999999963E+04  0.15000000000E+04  0.10566000000E+00 0. -1.
        994   -1    0    0    0    0 -0.00000000000E+00 -0.00000000000E+00  0.11368683772E-12  0.17120000000E+03  0.17120000000E+03 0.  0.
         13    1    1    2    0    0 -0.13855606319E+02 -0.62690632632E+01  0.28823526203E+02  0.32589657983E+02  0.10566000000E+00 0. -1.
        994    1    1    2    0    0 -0.32721136342E+01 -0.12229695340E+01  0.40016884029E+01  0.17128238640E+03  0.17120000000E+03 0.  0.
        998    1    1    2    0    0  0.17127719953E+02  0.74920327972E+01  0.14671747817E+04  0.14673279556E+04  0.10000000000E+02 0. -1.
</event>
<event>
 5    1  0.1338396E-008  0.3784977E+03  0.7957747E-01  0.3457726E+00
         13   -1    0    0    0    0  0.00000000000E+00  0.00000000000E+00  0.14999999963E+04  0.15000000000E+04  0.10566000000E+00 0.  1.
        994   -1    0    0    0    0 -0.00000000000E+00 -0.00000000000E+00  0.11368683772E-12  0.17120000000E+03  0.17120000000E+03 0.  0.
         13    1    1    2    0    0  0.28954709120E+02 -0.36650621258E+02  0.18835817506E+03  0.19406302196E+03  0.10566000000E+00 0.  1.
        994    1    1    2    0    0 -0.34511735838E+02  0.38799542550E+02  0.14006445668E+02  0.17944939379E+03  0.17120000000E+03 0.  0.
        998    1    1    2    0    0  0.55570267175E+01 -0.21489212916E+01  0.12976353756E+04  0.12976875842E+04  0.10000000000E+02 0.  1.
</event>
<event>
 5    1  0.1338396E-008  0.3821391E+03  0.7957747E-01  0.3441897E+00
         13   -1    0    0    0    0  0.00000000000E+00  0.00000000000E+00  0.14999999963E+04  0.15000000000E+04  0.10566000000E+00 0.  1.
        994   -1    0    0    0    0 -0.00000000000E+00 -0.00000000000E+00  0.11368683772E-12  0.17120000000E+03  0.17120000000E+03 0.  0.
         13    1    1    2    0    0 -0.72913548835E+01  0.83936123747E+01  0.18781398321E+02  0.21825871613E+02  0.10566000000E+00 0.  1.
        994    1    1    2    0    0  0.77239181967E+01 -0.91285434741E+01  0.35319940690E+01  0.17165344215E+03  0.17120000000E+03 0.  0.
        998    1    1    2    0    0 -0.43256331320E+00  0.73493109942E+00  0.14776866039E+04  0.14777206862E+04  0.10000000000E+02 0.  1.
</event>
<event>
 5    1  0.1338396E-008  0.3762267E+03  0.7957747E-01  0.3467755E+00
         13   -1    0    0    0    0  0.00000000000E+00  0.00000000000E+00  0.14999999963E+04  0.15000000000E+04  0.10566000000E+00 0.  1.
        994   -1    0    0    0    0 -0.00000000000E+00 -0.00000000000E+00  0.11368683772E-12  0.17120000000E+03  0.17120000000E+03 0.  0.
         13    1    1    2    0    0  0.11068372931E+03 -0.41666638619E+02  0.64068170923E+03  0.65150599415E+03  0.10566000000E+00 0.  1.
        994    1    1    2    0    0 -0.10272697470E+03  0.65911169639E+02  0.58272287110E+02  0.21817931400E+03  0.17120000000E+03 0.  0.
        998    1    1    2    0    0 -0.79567546061E+01 -0.24244531020E+02  0.80104599994E+03  0.80151469185E+03  0.10000000000E+02 0. -1.
</event>
<event>
 5    1  0.1338396E-008  0.3753590E+03  0.7957747E-01  0.3471619E+00
         13   -1    0    0    0    0  0.00000000000E+00  0.00000000000E+00  0.14999999963E+04  0.15000000000E+04  0.10566000000E+00 0.  1.
        994   -1    0    0    0    0 -0.00000000000E+00 -0.00000000000E+00  0.11368683772E-12  0.17120000000E+03  0.17120000000E+03 0.  0.
         13    1    1    2    0    0  0.49558484399E+01 -0.46951935147E+02  0.16504394112E+03  0.17166408568E+03  0.10566000000E+00 0.  1.
        994    1    1    2    0    0  0.11702018694E+01  0.32821318442E+02  0.10165211970E+02  0.17461781081E+03  0.17120000000E+03 0.  0.
        998    1    1    2    0    0 -0.61260503092E+01  0.14130616705E+02  0.13247908432E+04  0.13249181035E+04  0.10000000000E+02 0.  1.
</event>
<event>
 5    1  0.1338396E-008  0.3708115E+03  0.7957747E-01  0.3492170E+00
         13   -1    0    0    0    0  0.00000000000E+00  0.00000000000E+00  0.14999999963E+04  0.15000000000E+04  0.10566000000E+00 0. -1.
        994   -1    0    0    0    0 -0.00000000000E+00 -0.00000000000E+00  0.11368683772E-12  0.17120000000E+03  0.17120000000E+03 0.  0.
         13    1    1    2    0    0 -0.14936207148E+02  0.80043085752E+02  0.29947326798E+03  0.31034534838E+03  0.10566000000E+00 0. -1.
        994    1    1    2    0    0  0.27476097998E+02 -0.76499542769E+02  0.31984137049E+02  0.19219662075E+03  0.17120000000E+03 0.  0.
        998    1    1    2    0    0 -0.12539890850E+02 -0.35435429830E+01  0.11685425912E+04  0.11686580309E+04  0.10000000000E+02 0.  0.
</event>
<event>
 5    1  0.1338396E-008  0.3839856E+03  0.7957747E-01  0.3433986E+00
         13   -1    0    0    0    0  0.00000000000E+00  0.00000000000E+00  0.14999999963E+04  0.15000000000E+04  0.10566000000E+00 0.  1.
        994   -1    0    0    0    0 -0.00000000000E+00 -0.00000000000E+00  0.11368683772E-12  0.17120000000E+03  0.17120000000E+03 0.  0.
         13    1    1    2    0    0 -0.12503279457E+02  0.24888896890E+02  0.16652563669E+03  0.16883894108E+03  0.10566000000E+00 0.  1.
        994    1    1    2    0    0  0.15833541263E+02 -0.21310389211E+02  0.44636864820E+01  0.17330377438E+03  0.17120000000E+03 0.  0.
        998    1    1    2    0    0 -0.33302618059E+01 -0.35785076789E+01  0.13290106731E+04  0.13290572845E+04  0.10000000000E+02 0.  1.
</event>
<event>
 5    1  0.1338396E-008  0.3836789E+03  0.7957747E-01  0.3435295E+00
         13   -1    0    0    0    0  0.00000000000E+00  0.00000000000E+00  0.14999999963E+04  0.15000000000E+04  0.10566000000E+00 0. -1.
        994   -1    0    0    0    0 -0.00000000000E+00 -0.00000000000E+00  0.11368683772E-12  0.17120000000E+03  0.17120000000E+03 0.  0.
         13    1    1    2    0    0 -0.11922539729E+02 -0.45272425290E+01  0.35573992021E+02  0.37791043263E+02  0.10566000000E+00 0. -1.
        994    1    1    2    0    0  0.25577999421E+01  0.44963294570E+01  0.23758481890E+01  0.17129461163E+03  0.17120000000E+03 0.  0.
        998    1    1    2    0    0  0.93647397871E+01  0.30913071985E-01  0.14620501561E+04  0.14621143451E+04  0.10000000000E+02 0. -1.
</event>
<event>
 5    1  0.1491319E-008  0.3862892E+03  0.7957747E-01  0.3424223E+00
         13   -1    0    0    0    0  0.00000000000E+00  0.00000000000E+00  0.14999999963E+04  0.15000000000E+04  0.10566000000E+00 0.  1.
        994   -1    0    0    0    0 -0.00000000000E+00 -0.00000000000E+00  0.11368683772E-12  0.17120000000E+03  0.17120000000E+03 0.  0.
         13    1    1    2    0    0  0.59922215571E+01 -0.95097383291E+01  0.67288394838E+02  0.68220825898E+02  0.10566000000E+00 0.  1.
        994    1    1    2    0    0 -0.90722277206E+01 -0.20865523381E+01  0.12752889837E+01  0.17145764894E+03  0.17120000000E+03 0.  0.
        998    1    1    2    0    0  0.30800061636E+01  0.11596290667E+02  0.14314363125E+04  0.14315215252E+04  0.10000000000E+02 0.  1.
</event>
<event>
 5    1  0.1338396E-008  0.3838713E+03  0.7957747E-01  0.3434473E+00
         13   -1    0    0    0    0  0.00000000000E+00  0.00000000000E+00  0.14999999963E+04  0.15000000000E+04  0.10566000000E+00 0. -1.
        994   -1    0    0    0    0 -0.00000000000E+00 -0.00000000000E+00  0.11368683772E-12  0.17120000000E+03  0.17120000000E+03 0.  0.
         13    1    1    2    0    0  0.17117755620E+02 -0.58723314787E+01  0.71667946631E+02  0.73917572828E+02  0.10566000000E+00 0. -1.
        994    1    1    2    0    0 -0.18134203646E+02  0.20447715698E+01  0.32915610118E+01  0.17220134961E+03  0.17120000000E+03 0.  0.
        998    1    1    2    0    0  0.10164480254E+01  0.38275599088E+01  0.14250404886E+04  0.14250810776E+04  0.10000000000E+02 0. -1.
</event>
<event>
 5    1  0.1338396E-008  0.3746575E+03  0.7957747E-01  0.3474756E+00
         13   -1    0    0    0    0  0.00000000000E+00  0.00000000000E+00  0.14999999963E+04  0.15000000000E+04  0.10566000000E+00 0. -1.
        994   -1    0    0    0    0 -0.00000000000E+00 -0.00000000000E+00  0.11368683772E-12  0.17120000000E+03  0.17120000000E+03 0.  0.
         13    1    1    2    0    0  0.11345781995E+02  0.74436828059E+00  0.62468550820E+01  0.12973635407E+02  0.10566000000E+00 0. -1.
        994    1    1    2    0    0 -0.10973470996E+02 -0.20946667949E+01  0.72795534264E+01  0.17171848064E+03  0.17120000000E+03 0.  0.
        998    1    1    2    0    0 -0.37231099881E+00  0.13502985144E+01  0.14864735878E+04  0.14865078840E+04  0.10000000000E+02 0. -1.
</event>
<event>
 5    1  0.1338396E-008  0.3777387E+03  0.7957747E-01  0.3461064E+00
         13   -1    0    0    0    0  0.00000000000E+00  0.00000000000E+00  0.14999999963E+04  0.15000000000E+04  0.10566000000E+00 0. -1.
        994   -1    0    0    0    0 -0.00000000000E+00 -0.00000000000E+00  0.11368683772E-12  0.17120000000E+03  0.17120000000E+03 0.  0.
         13    1    1    2    0    0 -0.19789408535E+02  0.67128056035E+01  0.41735778859E+02  0.46675141673E+02  0.10566000000E+00 0. -1.
        994    1    1    2    0    0 -0.42522553917E+01  0.34029819385E+01  0.53789236609E+01  0.17137104418E+03  0.17120000000E+03 0.  0.
        998    1    1    2    0    0  0.24041663926E+02 -0.10115787542E+02  0.14528852938E+04  0.14531538142E+04  0.10000000000E+02 0. -1.
</event>
<event>
 5    1  0.1338396E-008  0.3856191E+03  0.7957747E-01  0.3427051E+00
         13   -1    0    0    0    0  0.00000000000E+00  0.00000000000E+00  0.14999999963E+04  0.15000000000E+04  0.10566000000E+00 0. -1.
        994   -1    0    0    0    0 -0.00000000000E+00 -0.00000000000E+00  0.11368683772E-12  0.17120000000E+03  0.17120000000E+03 0.  0.
         13    1    1    2    0    0 -0.36035442663E+01 -0.14762262683E+02  0.88711304990E+02  0.90003426201E+02  0.10566000000E+00 0. -1.
        994    1    1    2    0    0 -0.74502292888E+00  0.90646775269E+01  0.15946510155E+01  0.17144884470E+03  0.17120000000E+03 0.  0.
        998    1    1    2    0    0  0.43485671951E+01  0.56975851557E+01  0.14096940403E+04  0.14097477291E+04  0.10000000000E+02 0. -1.
</event>
<event>
 5    1  0.1338396E-008  0.3850274E+03  0.7957747E-01  0.3429556E+00
         13   -1    0    0    0    0  0.00000000000E+00  0.00000000000E+00  0.14999999963E+04  0.15000000000E+04  0.10566000000E+00 0. -1.
        994   -1    0    0    0    0 -0.00000000000E+00 -0.00000000000E+00  0.11368683772E-12  0.17120000000E+03  0.17120000000E+03 0.  0.
         13    1    1    2    0    0  0.18229315560E+02 -0.34672052586E+01  0.10777291374E+03  0.10935877449E+03  0.10566000000E+00 0. -1.
        994    1    1    2    0    0 -0.74578573802E+01  0.19652006589E+02  0.30707538268E+01  0.17251287062E+03  0.17120000000E+03 0.  0.
        998    1    1    2    0    0 -0.10771458179E+02 -0.16184801330E+02  0.13891563287E+04  0.13893283549E+04  0.10000000000E+02 0. -1.
</event>
<event>
 5    1  0.1338396E-008  0.3828329E+03  0.7957747E-01  0.3438915E+00
         13   -1    0    0    0    0  0.00000000000E+00  0.00000000000E+00  0.14999999963E+04  0.15000000000E+04  0.10566000000E+00 0.  1.
        994   -1    0    0    0    0 -0.00000000000E+00 -0.00000000000E+00  0.11368683772E-12  0.17120000000E+03  0.17120000000E+03 0.  0.
         13    1    1    2    0    0 -0.18823229351E+02 -0.20084568942E+02  0.14817791934E+03  0.15071300812E+03  0.10566000000E+00 0.  1.
        994    1    1    2    0    0  0.32487777191E+01  0.81696732898E+01  0.29659412849E+01  0.17145126108E+03  0.17120000000E+03 0.  0.
        998    1    1    2    0    0  0.15574451632E+02  0.11914895652E+02  0.13488561357E+04  0.13490357308E+04  0.10000000000E+02 0.  1.
</event>
<event>
 5    1  0.1338396E-008  0.3770274E+03  0.7957747E-01  0.3464205E+00
         13   -1    0    0    0    0  0.00000000000E+00  0.00000000000E+00  0.14999999963E+04  0.15000000000E+04  0.10566000000E+00 0.  1.
        994   -1    0    0    0    0 -0.00000000000E+00 -0.00000000000E+00  0.11368683772E-12  0.17120000000E+03  0.17120000000E+03 0.  0.
         13    1    1    2    0    0 -0.49150988714E+02  0.24070309165E+02  0.92352265735E+02  0.10735060142E+03  0.10566000000E+00 0.  1.
        994    1    1    2    0    0  0.47220872877E+02 -0.19783738367E+02  0.24159798602E+02  0.18031733973E+03  0.17120000000E+03 0.  0.
        998    1    1    2    0    0  0.19301158365E+01 -0.42865707977E+01  0.13834879319E+04  0.13835320588E+04  0.10000000000E+02 0.  1.
</event>
<event>
 5    1  0.1338396E-008  0.3839043E+03  0.7957747E-01  0.3434332E+00
         13   -1    0    0    0    0  0.00000000000E+00  0.00000000000E+00  0.14999999963E+04  0.15000000000E+04  0.10566000000E+00 0. -1.
        994   -1    0    0    0    0 -0.00000000000E+00 -0.00000000000E+00  0.11368683772E-12  0.17120000000E+03  0.17120000000E+03 0.  0.
         13    1    1    2    0    0  0.16065441841E+00  0.20506699194E+02  0.95283139617E+02  0.97465062361E+02  0.10566000000E+00 0. -1.
        994    1    1    2    0    0 -0.71769434792E-01 -0.14361822526E+02  0.28561547055E+01  0.17182509921E+03  0.17120000000E+03 0.  0.
        998    1    1    2    0    0 -0.88884983617E-01 -0.61448766672E+01  0.14018607020E+04  0.14019098384E+04  0.10000000000E+02 0. -1.
</event>
<event>
 5    1  0.1338396E-008  0.3996872E+03  0.7957747E-01  0.3369674E+00
         13   -1    0    0    0    0  0.00000000000E+00  0.00000000000E+00  0.14999999963E+04  0.15000000000E+04  0.10566000000E+00 0. -1.
        994   -1    0    0    0    0 -0.00000000000E+00 -0.00000000000E+00  0.11368683772E-12  0.17120000000E+03  0.17120000000E+03 0.  0.
         13    1    1    2    0    0 -0.76050080036E+02  0.66257738821E+02  0.38911906690E+03  0.40197930546E+03  0.10566000000E+00 0. -1.
        994    1    1    2    0    0 -0.64811267311E+02  0.43656463132E+02  0.51886039748E+02  0.19521267445E+03  0.17120000000E+03 0.  0.
        998    1    1    2    0    0  0.14086134735E+03 -0.10991420195E+03  0.10589948896E+04  0.10740080201E+04  0.10000000000E+02 0. -1.
</event>
<event>
 5    1  0.1338396E-008  0.2955217E+03  0.7957747E-01  0.3928518E+00
         13   -1    0    0    0    0  0.00000000000E+00  0.00000000000E+00  0.14999999963E+04  0.15000000000E+04  0.10566000000E+00 0. -1.
        994   -1    0    0    0    0 -0.00000000000E+00 -0.00000000000E+00  0.11368683772E-12  0.17120000000E+03  0.17120000000E+03 0.  0.
         13    1    1    2    0    0  0.25797947810E+03  0.60251678699E+02  0.48142629897E+03  0.54950429335E+03  0.10566000000E+00 0. -1.
        994    1    1    2    0    0 -0.18085254823E+03 -0.10943658583E+03  0.33302612881E+03  0.42999982906E+03  0.17120000000E+03 0.  0.
        998    1    1    2    0    0 -0.77126929866E+02  0.49184907130E+02  0.68554756850E+03  0.69169587759E+03  0.10000000000E+02 0.  1.
</event>
<event>
 5    1  0.1338396E-008  0.3826931E+03  0.7957747E-01  0.3439515E+00
         13   -1    0    0    0    0  0.00000000000E+00  0.00000000000E+00  0.14999999963E+04  0.15000000000E+04  0.10566000000E+00 0.  1.
        994   -1    0    0    0    0 -0.00000000000E+00 -0.00000000000E+00  0.11368683772E-12  0.17120000000E+03  0.17120000000E+03 0.  0.
         13    1    1    2    0    0  0.20546849385E+02  0.51699819170E+02  0.31738092371E+03  0.32221996559E+03  0.10566000000E+00 0.  1.
        994    1    1    2    0    0 -0.61501447046E+02 -0.69865851059E+02  0.32037318948E+02  0.19748289784E+03  0.17120000000E+03 0.  0.
        998    1    1    2    0    0  0.40954597661E+02  0.18166031890E+02  0.11505817536E+04  0.11514971366E+04  0.10000000000E+02 0.  1.
</event>
<event>
 5    1  0.1338396E-008  0.3844125E+03  0.7957747E-01  0.3432168E+00
         13   -1    0    0    0    0  0.00000000000E+00  0.00000000000E+00  0.14999999963E+04  0.15000000000E+04  0.10566000000E+00 0.  1.
        994   -1    0    0    0    0 -0.00000000000E+00 -0.00000000000E+00  0.11368683772E-12  0.17120000000E+03  0.17120000000E+03 0.  0.
         13    1    1    2    0    0 -0.19756057100E+02  0.40152439861E+01  0.95040451622E+02  0.97155146982E+02  0.10566000000E+00 0.  1.
        994    1    1    2    0    0  0.27501540846E+02 -0.37750818827E+01  0.44652442075E+01  0.17349341313E+03  0.17120000000E+03 0.  0.
        998    1    1    2    0    0 -0.77454837461E+01 -0.24016210340E+00  0.14004943004E+04  0.14005514399E+04  0.10000000000E+02 0.  1.
</event>
<event>
 5    1  0.1338396E-008  0.3768043E+03  0.7957747E-01  0.3465193E+00
         13   -1    0    0    0    0  0.00000000000E+00  0.00000000000E+00  0.14999999963E+04  0.15000000000E+04  0.10566000000E+00 0.  1.
        994   -1    0    0    0    0 -0.00000000000E+00 -0.00000000000E+00  0.11368683772E-12  0.17120000000E+03  0.17120000000E+03 0.  0.
         13    1    1    2    0    0  0.26467700683E+02  0.12356111114E+01  0.64207339039E+02  0.69459768678E+02  0.10566000000E+00 0.  1.
        994    1    1    2    0    0  0.68735401457E+01 -0.21250027135E+01  0.59300156682E+01  0.17145368551E+03  0.17120000000E+03 0.  0.
        998    1    1    2    0    0 -0.33341240828E+02  0.88939160211E+00  0.14298626416E+04  0.14302865458E+04  0.10000000000E+02 0.  1.
</event>
<event>
 5    1  0.1338396E-008  0.3835195E+03  0.7957747E-01  0.3435975E+00
         13   -1    0    0    0    0  0.00000000000E+00  0.00000000000E+00  0.14999999963E+04  0.15000000000E+04  0.10566000000E+00 0. -1.
        994   -1    0    0    0    0 -0.00000000000E+00 -0.00000000000E+00  0.11368683772E-12  0.17120000000E+03  0.17120000000E+03 0.  0.
         13    1    1    2    0    0 -0.13046768167E+01 -0.17156157315E+02  0.60840355343E+02  0.63226544408E+02  0.10566000000E+00 0. -1.
        994    1    1    2    0    0 -0.20248157328E+02  0.16603032857E+02  0.46359813510E+01  0.17325293908E+03  0.17120000000E+03 0.  0.
        998    1    1    2    0    0  0.21552834145E+02  0.55312445769E+00  0.14345236596E+04  0.14347205165E+04  0.10000000000E+02 0. -1.
</event>
<event>
 5    1  0.1338396E-008  0.3856769E+03  0.7957747E-01  0.3426807E+00
         13   -1    0    0    0    0  0.00000000000E+00  0.00000000000E+00  0.14999999963E+04  0.15000000000E+04  0.10566000000E+00 0. -1.
        994   -1    0    0    0    0 -0.00000000000E+00 -0.00000000000E+00  0.11368683772E-12  0.17120000000E+03  0.17120000000E+03 0.  0.
         13    1    1    2    0    0 -0.96750012368E+01 -0.87708984965E+01  0.62165452243E+02  0.63522349815E+02  0.10566000000E+00 0. -1.
        994    1    1    2    0    0  0.19771134326E+02  0.54526455061E+01  0.26759398246E+01  0.17244486003E+03  0.17120000000E+03 0.  0.
        998    1    1    2    0    0 -0.10096133090E+02  0.33182529904E+01  0.14351586042E+04  0.14352327902E+04  0.10000000000E+02 0. -1.
</event>
<event>
 5    1  0.1338396E-008  0.3830347E+03  0.7957747E-01  0.3438050E+00
         13   -1    0    0    0    0  0.00000000000E+00  0.00000000000E+00  0.14999999963E+04  0.15000000000E+04  0.10566000000E+00 0. -1.
        994   -1    0    0    0    0 -0.00000000000E+00 -0.00000000000E+00  0.11368683772E-12  0.17120000000E+03  0.17120000000E+03 0.  0.
         13    1    1    2    0    0 -0.10642134633E+02  0.96198284992E+01  0.39571997206E+02  0.42092163841E+02  0.10566000000E+00 0. -1.
        994    1    1    2    0    0  0.47732767555E+01 -0.17234594113E+00  0.26845432124E+01  0.17128765468E+03  0.17120000000E+03 0.  0.
        998    1    1    2    0    0  0.58688578772E+01 -0.94474825581E+01  0.14577434559E+04  0.14578201815E+04  0.10000000000E+02 0. -1.
</event>
<event>
 5    1  0.1338396E-008  0.3713217E+03  0.7957747E-01  0.3489839E+00
         13   -1    0    0    0    0  0.00000000000E+00  0.00000000000E+00  0.14999999963E+04  0.15000000000E+04  0.10566000000E+00 0. -1.
        994   -1    0    0    0    0 -0.00000000000E+00 -0.00000000000E+00  0.11368683772E-12  0.17120000000E+03  0.17120000000E+03 0.  0.
         13    1    1    2    0    0  0.17545394297E+02  0.11732810482E+03  0.50862052625E+03  0.52227251118E+03  0.10566000000E+00 0. -1.
        994    1    1    2    0    0 -0.85334356618E+01 -0.12117152089E+03  0.61217842328E+02  0.21866051591E+03  0.17120000000E+03 0.  0.
        998    1    1    2    0    0 -0.90119586349E+01  0.38434160694E+01  0.93016162770E+03  0.93026697291E+03  0.10000000000E+02 0. -1.
</event>
<event>
 5    1  0.1338396E-008  0.3719817E+03  0.7957747E-01  0.3486833E+00
         13   -1    0    0    0    0  0.00000000000E+00  0.00000000000E+00  0.14999999963E+04  0.15000000000E+04  0.10566000000E+00 0.  1.
        994   -1    0    0    0    0 -0.00000000000E+00 -0.00000000000E+00  0.11368683772E-12  0.17120000000E+03  0.17120000000E+03 0.  0.
         13    1    1    2    0    0  0.16987818150E+02 -0.10323121856E+02  0.20361742217E+02  0.28456361688E+02  0.10566000000E+00 0.  1.
        994    1    1    2    0    0 -0.13100312078E+02  0.99026147952E+01  0.91635793449E+01  0.17222976265E+03  0.17120000000E+03 0.  0.
        998    1    1    2    0    0 -0.38875060719E+01  0.42050706064E+00  0.14704746747E+04  0.14705138757E+04  0.10000000000E+02 0.  1.
</event>
<event>
 5    1  0.1338396E-008  0.3687514E+03  0.7957747E-01  0.3501649E+00
         13   -1    0    0    0    0  0.00000000000E+00  0.00000000000E+00  0.14999999963E+04  0.15000000000E+04  0.10566000000E+00 0. -1.
        994   -1    0    0    0    0 -0.00000000000E+00 -0.00000000000E+00  0.11368683772E-12  0.17120000000E+03  0.17120000000E+03 0.  0.
         13    1    1    2    0    0 -0.41409994824E+02  0.73940975129E+02  0.40111389808E+03  0.40996881085E+03  0.10566000000E+00 0. -1.
        994    1    1    2    0    0  0.48265779660E+02 -0.95588010619E+01  0.18754785302E+02  0.17911487413E+03  0.17120000000E+03 0.  0.
        998    1    1    2    0    0 -0.68557848361E+01 -0.64382174067E+02  0.10801313129E+04  0.10821163150E+04  0.10000000000E+02 0. -1.
</event>
<event>
 5    1  0.1338396E-008  0.3818996E+03  0.7957747E-01  0.3442929E+00
         13   -1    0    0    0    0  0.00000000000E+00  0.00000000000E+00  0.14999999963E+04  0.15000000000E+04  0.10566000000E+00 0.  1.
        994   -1    0    0    0    0 -0.00000000000E+00 -0.00000000000E+00  0.11368683772E-12  0.17120000000E+03  0.17120000000E+03 0.  0.
         13    1    1    2    0    0  0.84106275865E+01 -0.91428331134E+01  0.24085726995E+02  0.27100986378E+02  0.10566000000E+00 0.  1.
        994    1    1    2    0    0 -0.60423363803E+01 -0.13021928519E+02  0.38622042259E+01  0.17184422327E+03  0.17120000000E+03 0.  0.
        998    1    1    2    0    0 -0.23682912062E+01  0.22164761633E+02  0.14720520651E+04  0.14722547903E+04  0.10000000000E+02 0.  1.
</event>
<event>
 5    1  0.1338396E-008  0.3728477E+03  0.7957747E-01  0.3482905E+00
         13   -1    0    0    0    0  0.00000000000E+00  0.00000000000E+00  0.14999999963E+04  0.15000000000E+04  0.10566000000E+00 0. -1.
        994   -1    0    0    0    0 -0.00000000000E+00 -0.00000000000E+00  0.11368683772E-12  0.17120000000E+03  0.17120000000E+03 0.  0.
         13    1    1    2    0    0  0.21611768844E+02 -0.28595706336E+02  0.49951351443E+02  0.61481148724E+02  0.10566000000E+00 0. -1.
        994    1    1    2    0    0  0.12568838659E+02  0.98865900515E+01  0.13356072233E+02  0.17246317008E+03  0.17120000000E+03 0.  0.
        998    1    1    2    0    0 -0.34180607504E+02  0.18709116284E+02  0.14366925726E+04  0.14372556812E+04  0.10000000000E+02 0. -1.
</event>
<event>
 5    1  0.1338396E-008  0.3818963E+03  0.7957747E-01  0.3442943E+00
         13   -1    0    0    0    0  0.00000000000E+00  0.00000000000E+00  0.14999999963E+04  0.15000000000E+04  0.10566000000E+00 0. -1.
        994   -1    0    0    0    0 -0.00000000000E+00 -0.00000000000E+00  0.11368683772E-12  0.17120000000E+03  0.17120000000E+03 0.  0.
         13    1    1    2    0    0 -0.18434194296E+02 -0.19347043300E+02  0.10419489866E+03  0.10756726117E+03  0.10566000000E+00 0. -1.
        994    1    1    2    0    0  0.21142761832E+02  0.17951850505E+02  0.57387796335E+01  0.17352711288E+03  0.17120000000E+03 0.  0.
        998    1    1    2    0    0 -0.27085675359E+01  0.13951927946E+01  0.13900663180E+04  0.13901056259E+04  0.10000000000E+02 0. -1.
</event>
<event>
 5    1  0.1338396E-008  0.4108299E+03  0.7957747E-01  0.3327005E+00
         13   -1    0    0    0    0  0.00000000000E+00  0.00000000000E+00  0.14999999963E+04  0.15000000000E+04  0.10566000000E+00 0. -1.
        994   -1    0    0    0    0 -0.00000000000E+00 -0.00000000000E+00  0.11368683772E-12  0.17120000000E+03  0.17120000000E+03 0.  0.
         13    1    1    2    0    0  0.26997565527E+02 -0.29453652145E+02  0.91449952255E+01  0.40988147931E+02  0.10566000000E+00 0. -1.
        994    1    1    2    0    0 -0.35044003077E+02  0.30218295879E+02  0.43238584218E+02  0.18253833220E+03  0.17120000000E+03 0.  0.
        998    1    1    2    0    0  0.80464375498E+01 -0.76464373378E+00  0.14476164168E+04  0.14476735199E+04  0.10000000000E+02 0. -1.
</event>
<event>
 5    1  0.1338396E-008  0.3801589E+03  0.7957747E-01  0.3450467E+00
         13   -1    0    0    0    0  0.00000000000E+00  0.00000000000E+00  0.14999999963E+04  0.15000000000E+04  0.10566000000E+00 0.  1.
        994   -1    0    0    0    0 -0.00000000000E+00 -0.00000000000E+00  0.11368683772E-12  0.17120000000E+03  0.17120000000E+03 0.  0.
         13    1    1    2    0    0  0.84019415977E+00  0.23924103146E+02  0.65898587967E+02  0.70112079542E+02  0.10566000000E+00 0.  1.
        994    1    1    2    0    0 -0.83746789975E+01 -0.26556870503E+02  0.66480101261E+01  0.17357718358E+03  0.17120000000E+03 0.  0.
        998    1    1    2    0    0  0.75344848377E+01  0.26327673571E+01  0.14274533982E+04  0.14275107369E+04  0.10000000000E+02 0.  1.
</event>
<event>
 5    1  0.1338396E-008  0.3764215E+03  0.7957747E-01  0.3466890E+00
         13   -1    0    0    0    0  0.00000000000E+00  0.00000000000E+00  0.14999999963E+04  0.15000000000E+04  0.10566000000E+00 0.  1.
        994   -1    0    0    0    0 -0.00000000000E+00 -0.00000000000E+00  0.11368683772E-12  0.17120000000E+03  0.17120000000E+03 0.  0.
         13    1    1    2    0    0  0.12741042301E+02 -0.17786372586E+02  0.39679081345E+02  0.45311476130E+02  0.10566000000E+00 0.  1.
        994    1    1    2    0    0  0.12907477392E+01 -0.37452736973E+00  0.59567023314E+01  0.17130886901E+03  0.17120000000E+03 0.  0.
        998    1    1    2    0    0 -0.14031790040E+02  0.18160899956E+02  0.14543642126E+04  0.14545796549E+04  0.10000000000E+02 0.  1.
</event>
<event>
 5    1  0.1338396E-008  0.3967923E+03  0.7957747E-01  0.3381149E+00
         13   -1    0    0    0    0  0.00000000000E+00  0.00000000000E+00  0.14999999963E+04  0.15000000000E+04  0.10566000000E+00 0. -1.
        994   -1    0    0    0    0 -0.00000000000E+00 -0.00000000000E+00  0.11368683772E-12  0.17120000000E+03  0.17120000000E+03 0.  0.
         13    1    1    2    0    0  0.72217778856E+02 -0.63386783957E+02  0.16120680654E+03  0.18767242100E+03  0.10566000000E+00 0. -1.
        994    1    1    2    0    0 -0.70742697861E+02  0.42377302476E+02  0.52665922358E+02  0.19718900690E+03  0.17120000000E+03 0.  0.
        998    1    1    2    0    0 -0.14750809954E+01  0.21009481481E+02  0.12861272674E+04  0.12863385721E+04  0.10000000000E+02 0. -1.
</event>
<event>
 5    1  0.1338396E-008  0.3826113E+03  0.7957747E-01  0.3439866E+00
         13   -1    0    0    0    0  0.00000000000E+00  0.00000000000E+00  0.14999999963E+04  0.15000000000E+04  0.10566000000E+00 0.  1.
        994   -1    0    0    0    0 -0.00000000000E+00 -0.00000000000E+00  0.11368683772E-12  0.17120000000E+03  0.17120000000E+03 0.  0.
         13    1    1    2    0    0  0.12113523864E+02  0.25031395633E+01  0.25125808458E+02  0.28005724107E+02  0.10566000000E+00 0.  1.
        994    1    1    2    0    0 -0.18281953438E+02 -0.10521250800E+02  0.42967536119E+01  0.17254804731E+03  0.17120000000E+03 0.  0.
        998    1    1    2    0    0  0.61684295736E+01  0.80181112369E+01  0.14705774342E+04  0.14706462286E+04  0.10000000000E+02 0.  1.
</event>
<event>
 5    1  0.1338396E-008  0.3714084E+03  0.7957747E-01  0.3489443E+00
         13   -1    0    0    0    0  0.00000000000E+00  0.00000000000E+00  0.14999999963E+04  0.15000000000E+04  0.10566000000E+00 0.  1.
        994   -1    0    0    0    0 -0.00000000000E+00 -0.00000000000E+00  0.11368683772E-12  0.17120000000E+03  0.17120000000E+03 0.  0.
         13    1    1    2    0    0  0.53215937459E+01  0.23232686187E+02  0.29124369162E+02  0.37633988767E+02  0.10566000000E+00 0.  1.
        994    1    1    2    0    0 -0.94761560793E+01 -0.23561315447E+02  0.10757096796E+02  0.17340729007E+03  0.17120000000E+03 0.  0.
        998    1    1    2    0    0  0.41545623334E+01  0.32862925976E+00  0.14601185303E+04  0.14601587212E+04  0.10000000000E+02 0.  1.
</event>
<event>
 5    1  0.1338396E-008  0.3720596E+03  0.7957747E-01  0.3486479E+00
         13   -1    0    0    0    0  0.00000000000E+00  0.00000000000E+00  0.14999999963E+04  0.15000000000E+04  0.10566000000E+00 0.  1.
        994   -1    0    0    0    0 -0.00000000000E+00 -0.00000000000E+00  0.11368683772E-12  0.17120000000E+03  0.17120000000E+03 0.  0.
         13    1    1    2    0    0  0.58447395486E+00 -0.41051047716E+02  0.91891769413E+02  0.10064610563E+03  0.10566000000E+00 0.  1.
        994    1    1    2    0    0  0.91898888406E+01  0.47892492808E+02  0.16405872199E+02  0.17876447513E+03  0.17120000000E+03 0.  0.
        998    1    1    2    0    0 -0.97743627955E+01 -0.68414450917E+01  0.13917023547E+04  0.13917894192E+04  0.10000000000E+02 0.  1.
</event>
<event>
 5    1  0.1338396E-008  0.3759341E+03  0.7957747E-01  0.3469056E+00
         13   -1    0    0    0    0  0.00000000000E+00  0.00000000000E+00  0.14999999963E+04  0.15000000000E+04  0.10566000000E+00 0. -1.
        994   -1    0    0    0    0 -0.00000000000E+00 -0.00000000000E+00  0.11368683772E-12  0.17120000000E+03  0.17120000000E+03 0.  0.
         13    1    1    2    0    0  0.70440031195E+02  0.52397565922E+02  0.49571384289E+03  0.50342777844E+03  0.10566000000E+00 0. -1.
        994    1    1    2    0    0 -0.49144704406E+02 -0.55011997228E+02  0.24867338851E+02  0.18806739843E+03  0.17120000000E+03 0.  0.
        998    1    1    2    0    0 -0.21295326789E+02  0.26144313062E+01  0.97941881454E+03  0.97970482313E+03  0.10000000000E+02 0. -1.
</event>
<event>
 5    1  0.1338396E-008  0.3831718E+03  0.7957747E-01  0.3437463E+00
         13   -1    0    0    0    0  0.00000000000E+00  0.00000000000E+00  0.14999999963E+04  0.15000000000E+04  0.10566000000E+00 0.  1.
        994   -1    0    0    0    0 -0.00000000000E+00 -0.00000000000E+00  0.11368683772E-12  0.17120000000E+03  0.17120000000E+03 0.  0.
         13    1    1    2    0    0 -0.13833982876E+02  0.59975723105E+01  0.46298236588E+02  0.48691763483E+02  0.10566000000E+00 0.  1.
        994    1    1    2    0    0 -0.33975538809E+01 -0.41521599575E+01  0.26357837591E+01  0.17130432324E+03  0.17120000000E+03 0.  0.
        998    1    1    2    0    0  0.17231536757E+02 -0.18454123530E+01  0.14510659759E+04  0.14512039133E+04  0.10000000000E+02 0.  1.
</event>
<event>
 5    1  0.1338396E-008  0.3822371E+03  0.7957747E-01  0.3441475E+00
         13   -1    0    0    0    0  0.00000000000E+00  0.00000000000E+00  0.14999999963E+04  0.15000000000E+04  0.10566000000E+00 0.  1.
        994   -1    0    0    0    0 -0.00000000000E+00 -0.00000000000E+00  0.11368683772E-12  0.17120000000E+03  0.17120000000E+03 0.  0.
         13    1    1    2    0    0 -0.14661391366E+02 -0.33182597597E+02  0.20566099584E+03  0.20883605424E+03  0.10566000000E+00 0.  1.
        994    1    1    2    0    0  0.42857778445E+01  0.28481436355E+02  0.57657985051E+01  0.17370159625E+03  0.17120000000E+03 0.  0.
        998    1    1    2    0    0  0.10375613522E+02  0.47011612424E+01  0.12885732019E+04  0.12886623495E+04  0.10000000000E+02 0.  1.
</event>
<event>
 5    1  0.1338396E-008  0.3818848E+03  0.7957747E-01  0.3442993E+00
         13   -1    0    0    0    0  0.00000000000E+00  0.00000000000E+00  0.14999999963E+04  0.15000000000E+04  0.10566000000E+00 0. -1.
        994   -1    0    0    0    0 -0.00000000000E+00 -0.00000000000E+00  0.11368683772E-12  0.17120000000E+03  0.17120000000E+03 0.  0.
         13    1    1    2    0    0  0.16563303958E+02  0.85417338110E+01  0.58446056157E+02  0.61345390200E+02  0.10566000000E+00 0. -1.
        994    1    1    2    0    0  0.11643496572E+02 -0.59072284318E+01  0.37512753672E+01  0.17173811000E+03  0.17120000000E+03 0.  0.
        998    1    1    2    0    0 -0.28206800530E+02 -0.26345053792E+01  0.14378026648E+04  0.14381164998E+04  0.10000000000E+02 0. -1.
</event>
<event>
 5    1  0.1338396E-008  0.3796173E+03  0.7957747E-01  0.3452827E+00
         13   -1    0    0    0    0  0.00000000000E+00  0.00000000000E+00  0.14999999963E+04  0.15000000000E+04  0.10566000000E+00 0.  1.
        994   -1    0    0    0    0 -0.00000000000E+00 -0.00000000000E+00  0.11368683772E-12  0.17120000000E+03  0.17120000000E+03 0.  0.
         13    1    1    2    0    0 -0.53736654403E+01 -0.41031581699E+02  0.16817834139E+03  0.17319478240E+03  0.10566000000E+00 0.  1.
        994    1    1    2    0    0 -0.64865674444E+01  0.49635287440E+02  0.12759610768E+02  0.17882389377E+03  0.17120000000E+03 0.  0.
        998    1    1    2    0    0  0.11860232885E+02 -0.86037057406E+01  0.13190620441E+04  0.13191813238E+04  0.10000000000E+02 0.  1.
</event>
<event>
 5    1  0.1338396E-008  0.3821713E+03  0.7957747E-01  0.3441758E+00
         13   -1    0    0    0    0  0.00000000000E+00  0.00000000000E+00  0.14999999963E+04  0.15000000000E+04  0.10566000000E+00 0. -1.
        994   -1    0    0    0    0 -0.00000000000E+00 -0.00000000000E+00  0.11368683772E-12  0.17120000000E+03  0.17120000000E+03 0.  0.
         13    1    1    2    0    0 -0.87169751523E+02 -0.34068844257E+01  0.17788025150E+03  0.19812008348E+03  0.10566000000E+00 0. -1.
        994    1    1    2    0    0  0.97192202490E+02  0.25490805724E+02  0.55407318195E+02  0.20609589106E+03  0.17120000000E+03 0.  0.
        998    1    1    2    0    0 -0.10022450966E+02 -0.22083921299E+02  0.12667124266E+04  0.12669840255E+04  0.10000000000E+02 0. -1.
</event>
<event>
 5    1  0.1338396E-008  0.3815582E+03  0.7957747E-01  0.3444402E+00
         13   -1    0    0    0    0  0.00000000000E+00  0.00000000000E+00  0.14999999963E+04  0.15000000000E+04  0.10566000000E+00 0. -1.
        994   -1    0    0    0    0 -0.00000000000E+00 -0.00000000000E+00  0.11368683772E-12  0.17120000000E+03  0.17120000000E+03 0.  0.
         13    1    1    2    0    0  0.61297420667E+01 -0.20130970549E+02  0.64924534858E+02  0.68249806619E+02  0.10566000000E+00 0. -1.
        994    1    1    2    0    0 -0.92459026886E+01  0.11465303339E+02  0.40704610351E+01  0.17188062296E+03  0.17120000000E+03 0.  0.
        998    1    1    2    0    0  0.31161606219E+01  0.86656672105E+01  0.14310050004E+04  0.14310695704E+04  0.10000000000E+02 0. -1.
</event>
<event>
 5    1  0.1338396E-008  0.3810849E+03  0.7957747E-01  0.3446448E+00
         13   -1    0    0    0    0  0.00000000000E+00  0.00000000000E+00  0.14999999963E+04  0.15000000000E+04  0.10566000000E+00 0.  1.
        994   -1    0    0    0    0 -0.00000000000E+00 -0.00000000000E+00  0.11368683772E-12  0.17120000000E+03  0.17120000000E+03 0.  0.
         13    1    1    2    0    0 -0.14851706190E+02 -0.14150694844E+02  0.58938923020E+02  0.62406915899E+02  0.10566000000E+00 0.  1.
        994    1    1    2    0    0 -0.18281326709E+02  0.30227903200E+02  0.77544965071E+01  0.17497858513E+03  0.17120000000E+03 0.  0.
        998    1    1    2    0    0  0.33133032899E+02 -0.16077208356E+02  0.14333065768E+04  0.14338144990E+04  0.10000000000E+02 0.  1.
</event>
<event>
 5    1  0.1338396E-008  0.3803940E+03  0.7957747E-01  0.3449445E+00
         13   -1    0    0    0    0  0.00000000000E+00  0.00000000000E+00  0.14999999963E+04  0.15000000000E+04  0.10566000000E+00 0. -1.
        994   -1    0    0    0    0 -0.00000000000E+00 -0.00000000000E+00  0.11368683772E-12  0.17120000000E+03  0.17120000000E+03 0.  0.
         13    1    1    2    0    0  0.42939625980E+02 -0.91225233727E+02  0.34528221882E+03  0.35970220536E+03  0.10566000000E+00 0. -1.
        994    1    1    2    0    0 -0.12950649945E+02  0.34846502030E+02  0.21575241989E+02  0.17651325476E+03  0.17120000000E+03 0.  0.
        998    1    1    2    0    0 -0.29988976035E+02  0.56378731697E+02  0.11331425355E+04  0.11349845399E+04  0.10000000000E+02 0. -1.
</event>
<event>
 5    1  0.1338396E-008  0.3719532E+03  0.7957747E-01  0.3486962E+00
         13   -1    0    0    0    0  0.00000000000E+00  0.00000000000E+00  0.14999999963E+04  0.15000000000E+04  0.10566000000E+00 0. -1.
        994   -1    0    0    0    0 -0.00000000000E+00 -0.00000000000E+00  0.11368683772E-12  0.17120000000E+03  0.17120000000E+03 0.  0.
         13    1    1    2    0    0 -0.34274775551E+02 -0.11468854948E+02  0.73135636184E+02  0.81578963692E+02  0.10566000000E+00 0. -1.
        994    1    1    2    0    0  0.33405548453E+02  0.97238920933E+01  0.12420513972E+02  0.17514049764E+03  0.17120000000E+03 0.  0.
        998    1    1    2    0    0  0.86922709807E+00  0.17449628544E+01  0.14144438461E+04  0.14144805387E+04  0.10000000000E+02 0. -1.
</event>
<event>
 5    1  0.1338396E-008  0.3703221E+03  0.7957747E-01  0.3494412E+00
         13   -1    0    0    0    0  0.00000000000E+00  0.00000000000E+00  0.14999999963E+04  0.15000000000E+04  0.10566000000E+00 0.  1.
        994   -1    0    0    0    0 -0.00000000000E+00 -0.00000000000E+00  0.11368683772E-12  0.17120000000E+03  0.17120000000E+03 0.  0.
         13    1    1    2    0    0 -0.40272816264E+02  0.45972186821E+02  0.18243278878E+03  0.19239822056E+03  0.10566000000E+00 0.  1.
        994    1    1    2    0    0  0.59060574667E+02 -0.24470583284E+02  0.23351736783E+02  0.18423274556E+03  0.17120000000E+03 0.  0.
        998    1    1    2    0    0 -0.18787758404E+02 -0.21501603537E+02  0.12942154707E+04  0.12945690339E+04  0.10000000000E+02 0.  1.
</event>
<event>
 5    1  0.1338396E-008  0.3738726E+03  0.7957747E-01  0.3478280E+00
         13   -1    0    0    0    0  0.00000000000E+00  0.00000000000E+00  0.14999999963E+04  0.15000000000E+04  0.10566000000E+00 0. -1.
        994   -1    0    0    0    0 -0.00000000000E+00 -0.00000000000E+00  0.11368683772E-12  0.17120000000E+03  0.17120000000E+03 0.  0.
         13    1    1    2    0    0 -0.12580910511E+02  0.27997116836E+01  0.80813351357E+01  0.15213048229E+02  0.10566000000E+00 0. -1.
        994    1    1    2    0    0  0.14272053898E+02  0.39402260904E+01  0.80071705379E+01  0.17202549719E+03  0.17120000000E+03 0.  0.
        998    1    1    2    0    0 -0.16911433869E+01 -0.67399377740E+01  0.14839114906E+04  0.14839614546E+04  0.10000000000E+02 0. -1.
</event>
<event>
 5    1  0.1338396E-008  0.3842932E+03  0.7957747E-01  0.3432675E+00
         13   -1    0    0    0    0  0.00000000000E+00  0.00000000000E+00  0.14999999963E+04  0.15000000000E+04  0.10566000000E+00 0. -1.
        994   -1    0    0    0    0 -0.00000000000E+00 -0.00000000000E+00  0.11368683772E-12  0.17120000000E+03  0.17120000000E+03 0.  0.
         13    1    1    2    0    0 -0.20926301832E+02 -0.86154640004E+01  0.13202146162E+03  0.13394705604E+03  0.10566000000E+00 0. -1.
        994    1    1    2    0    0  0.78308960389E+01  0.10209847856E+02  0.25273925546E+01  0.17170146079E+03  0.17120000000E+03 0.  0.
        998    1    1    2    0    0  0.13095405793E+02 -0.15943838552E+01  0.13654511421E+04  0.13655514832E+04  0.10000000000E+02 0. -1.
</event>
<event>
 5    1  0.1338396E-008  0.3856551E+03  0.7957747E-01  0.3426899E+00
         13   -1    0    0    0    0  0.00000000000E+00  0.00000000000E+00  0.14999999963E+04  0.15000000000E+04  0.10566000000E+00 0. -1.
        994   -1    0    0    0    0 -0.00000000000E+00 -0.00000000000E+00  0.11368683772E-12  0.17120000000E+03  0.17120000000E+03 0.  0.
         13    1    1    2    0    0 -0.71563368384E+01 -0.97343164863E+01  0.55329158032E+02  0.56633002454E+02  0.10566000000E+00 0. -1.
        994    1    1    2    0    0 -0.10797997879E+02  0.22014437002E+02  0.32807853952E+01  0.17297813662E+03  0.17120000000E+03 0.  0.
        998    1    1    2    0    0  0.17954334717E+02 -0.12280120516E+02  0.14413900529E+04  0.14415888609E+04  0.10000000000E+02 0. -1.
</event>
<event>
 5    1  0.1338396E-008  0.3786519E+03  0.7957747E-01  0.3457050E+00
         13   -1    0    0    0    0  0.00000000000E+00  0.00000000000E+00  0.14999999963E+04  0.15000000000E+04  0.10566000000E+00 0.  1.
        994   -1    0    0    0    0 -0.00000000000E+00 -0.00000000000E+00  0.11368683772E-12  0.17120000000E+03  0.17120000000E+03 0.  0.
         13    1    1    2    0    0 -0.44408080685E+01  0.11348598081E+02  0.13976581187E+02  0.18543663080E+02  0.10566000000E+00 0.  1.
        994    1    1    2    0    0 -0.76389585232E+02 -0.12495607780E+02  0.25204795733E+02  0.18956853820E+03  0.17120000000E+03 0.  0.
        998    1    1    2    0    0  0.80830393301E+02  0.11470096987E+01  0.14608186194E+04  0.14630877987E+04  0.10000000000E+02 0.  1.
</event>
<event>
 5    1  0.1338396E-008  0.3815493E+03  0.7957747E-01  0.3444440E+00
         13   -1    0    0    0    0  0.00000000000E+00  0.00000000000E+00  0.14999999963E+04  0.15000000000E+04  0.10566000000E+00 0.  1.
        994   -1    0    0    0    0 -0.00000000000E+00 -0.00000000000E+00  0.11368683772E-12  0.17120000000E+03  0.17120000000E+03 0.  0.
         13    1    1    2    0    0 -0.23566552331E+02 -0.13845203574E+01  0.79406966753E+02  0.82841878409E+02  0.10566000000E+00 0.  1.
        994    1    1    2    0    0  0.20283200602E+02  0.18713988400E+02  0.58902997536E+01  0.17351010697E+03  0.17120000000E+03 0.  0.
        998    1    1    2    0    0  0.32833517285E+01 -0.17329468043E+02  0.14147027298E+04  0.14148480146E+04  0.10000000000E+02 0.  1.
</event>
<event>
 5    1  0.1338396E-008  0.3790541E+03  0.7957747E-01  0.3455288E+00
         13   -1    0    0    0    0  0.00000000000E+00  0.00000000000E+00  0.14999999963E+04  0.15000000000E+04  0.10566000000E+00 0. -1.
        994   -1    0    0    0    0 -0.00000000000E+00 -0.00000000000E+00  0.11368683772E-12  0.17120000000E+03  0.17120000000E+03 0.  0.
         13    1    1    2    0    0  0.69881923185E+02  0.24989423767E+03  0.11583797587E+04  0.11870864710E+04  0.10566000000E+00 0. -1.
        994    1    1    2    0    0 -0.67257662808E+02 -0.24792768315E+03  0.26522158001E+03  0.40699343457E+03  0.17120000000E+03 0.  0.
        998    1    1    2    0    0 -0.26242603765E+01 -0.19665545195E+01  0.76398657618E+02  0.77120094431E+02  0.10000000000E+02 0.  0.
</event>
<event>
 5    1  0.1338396E-008  0.3837996E+03  0.7957747E-01  0.3434779E+00
         13   -1    0    0    0    0  0.00000000000E+00  0.00000000000E+00  0.14999999963E+04  0.15000000000E+04  0.10566000000E+00 0. -1.
        994   -1    0    0    0    0 -0.00000000000E+00 -0.00000000000E+00  0.11368683772E-12  0.17120000000E+03  0.17120000000E+03 0.  0.
         13    1    1    2    0    0  0.42656070071E+01 -0.13268420312E+02  0.43380115121E+02  0.45564151837E+02  0.10566000000E+00 0. -1.
        994    1    1    2    0    0 -0.17163622027E+02  0.26045552414E+01  0.32228891888E+01  0.17210810743E+03  0.17120000000E+03 0.  0.
        998    1    1    2    0    0  0.12898015020E+02  0.10663865070E+02  0.14533969920E+04  0.14535277407E+04  0.10000000000E+02 0. -1.
</event>
<event>
 5    1  0.1338396E-008  0.3787546E+03  0.7957747E-01  0.3456599E+00
         13   -1    0    0    0    0  0.00000000000E+00  0.00000000000E+00  0.14999999963E+04  0.15000000000E+04  0.10566000000E+00 0.  1.
        994   -1    0    0    0    0 -0.00000000000E+00 -0.00000000000E+00  0.11368683772E-12  0.17120000000E+03  0.17120000000E+03 0.  0.
         13    1    1    2    0    0 -0.33145874311E+02 -0.58717282906E+01  0.11146294481E+03  0.11643506948E+03  0.10566000000E+00 0.  1.
        994    1    1    2    0    0  0.29808723100E+02  0.52384852626E+01  0.78440340189E+01  0.17403152177E+03  0.17120000000E+03 0.  0.
        998    1    1    2    0    0  0.33371512105E+01  0.63324302799E+00  0.13806930175E+04  0.13807334087E+04  0.10000000000E+02 0.  1.
</event>
<event>
 5    1  0.1338396E-008  0.3733205E+03  0.7957747E-01  0.3480768E+00
         13   -1    0    0    0    0  0.00000000000E+00  0.00000000000E+00  0.14999999963E+04  0.15000000000E+04  0.10566000000E+00 0. -1.
        994   -1    0    0    0    0 -0.00000000000E+00 -0.00000000000E+00  0.11368683772E-12  0.17120000000E+03  0.17120000000E+03 0.  0.
         13    1    1    2    0    0 -0.59431016971E+00  0.16082091704E+02  0.13673548358E+02  0.21117858956E+02  0.10566000000E+00 0. -1.
        994    1    1    2    0    0  0.27530685876E+01 -0.16864706558E+02  0.85425526417E+01  0.17226262775E+03  0.17120000000E+03 0.  0.
        998    1    1    2    0    0 -0.21587584179E+01  0.78261485331E+00  0.14777838953E+04  0.14778195133E+04  0.10000000000E+02 0. -1.
</event>
<event>
 5    1  0.1338396E-008  0.3859744E+03  0.7957747E-01  0.3425550E+00
         13   -1    0    0    0    0  0.00000000000E+00  0.00000000000E+00  0.14999999963E+04  0.15000000000E+04  0.10566000000E+00 0. -1.
        994   -1    0    0    0    0 -0.00000000000E+00 -0.00000000000E+00  0.11368683772E-12  0.17120000000E+03  0.17120000000E+03 0.  0.
         13    1    1    2    0    0 -0.94796137682E+01  0.98726358663E+01  0.78407783785E+02  0.79593490552E+02  0.10566000000E+00 0. -1.
        994    1    1    2    0    0  0.87531799103E+01 -0.12808376793E+02  0.19365130485E+01  0.17191236941E+03  0.17120000000E+03 0.  0.
        998    1    1    2    0    0  0.72643385792E+00  0.29357409268E+01  0.14196556994E+04  0.14196941400E+04  0.10000000000E+02 0. -1.
</event>
<event>
 5    1  0.1338396E-008  0.3809909E+03  0.7957747E-01  0.3446855E+00
         13   -1    0    0    0    0  0.00000000000E+00  0.00000000000E+00  0.14999999963E+04  0.15000000000E+04  0.10566000000E+00 0.  1.
        994   -1    0    0    0    0 -0.00000000000E+00 -0.00000000000E+00  0.11368683772E-12  0.17120000000E+03  0.17120000000E+03 0.  0.
         13    1    1    2    0    0  0.32081117937E+02  0.27711425200E+01  0.16441355267E+03  0.16753717446E+03  0.10566000000E+00 0.  1.
        994    1    1    2    0    0  0.16487826622E+01  0.23586223893E+01  0.36613696057E+01  0.17126332711E+03  0.17120000000E+03 0.  0.
        998    1    1    2    0    0 -0.33729900600E+02 -0.51297649093E+01  0.13319250740E+04  0.13323994984E+04  0.10000000000E+02 0.  1.
</event>
<event>
 5    1  0.1338396E-008  0.3717940E+03  0.7957747E-01  0.3487686E+00
         13   -1    0    0    0    0  0.00000000000E+00  0.00000000000E+00  0.14999999963E+04  0.15000000000E+04  0.10566000000E+00 0. -1.
        994   -1    0    0    0    0 -0.00000000000E+00 -0.00000000000E+00  0.11368683772E-12  0.17120000000E+03  0.17120000000E+03 0.  0.
         13    1    1    2    0    0  0.55203355960E+02 -0.26833878040E+02  0.18841586457E+03  0.19816159241E+03  0.10566000000E+00 0. -1.
        994    1    1    2    0    0 -0.58769681076E+02  0.35995657236E+02  0.24836704222E+02  0.18621456611E+03  0.17120000000E+03 0.  0.
        998    1    1    2    0    0  0.35663251160E+01 -0.91617791969E+01  0.12867474275E+04  0.12868238415E+04  0.10000000000E+02 0. -1.
</event>
<event>
 5    1  0.1338396E-008  0.3784489E+03  0.7957747E-01  0.3457940E+00
         13   -1    0    0    0    0  0.00000000000E+00  0.00000000000E+00  0.14999999963E+04  0.15000000000E+04  0.10566000000E+00 0.  1.
        994   -1    0    0    0    0 -0.00000000000E+00 -0.00000000000E+00  0.11368683772E-12  0.17120000000E+03  0.17120000000E+03 0.  0.
         13    1    1    2    0    0  0.65198003459E+01  0.22580738189E+02  0.52983187909E+02  0.57962288591E+02  0.10566000000E+00 0.  1.
        994    1    1    2    0    0 -0.10831580081E+02 -0.19789691285E+02  0.66302444197E+01  0.17280727748E+03  0.17120000000E+03 0.  0.
        998    1    1    2    0    0  0.43117797351E+01 -0.27910469034E+01  0.14403865639E+04  0.14404304339E+04  0.10000000000E+02 0.  1.
</event>
<event>
 5    1  0.1338396E-008  0.3843016E+03  0.7957747E-01  0.3432640E+00
         13   -1    0    0    0    0  0.00000000000E+00  0.00000000000E+00  0.14999999963E+04  0.15000000000E+04  0.10566000000E+00 0. -1.
        994   -1    0    0    0    0 -0.00000000000E+00 -0.00000000000E+00  0.11368683772E-12  0.17120000000E+03  0.17120000000E+03 0.  0.
         13    1    1    2    0    0  0.11870157614E+02 -0.19948483779E+02  0.12388881344E+03  0.12604480119E+03  0.10566000000E+00 0. -1.
        994    1    1    2    0    0 -0.78617471902E+01  0.25717682001E+02  0.43646729819E+01  0.17335425177E+03  0.17120000000E+03 0.  0.
        998    1    1    2    0    0 -0.40084104242E+01 -0.57691982215E+01  0.13717465099E+04  0.13718009470E+04  0.10000000000E+02 0. -1.
</event>
<event>
 5    1  0.1338396E-008  0.3825111E+03  0.7957747E-01  0.3440297E+00
         13   -1    0    0    0    0  0.00000000000E+00  0.00000000000E+00  0.14999999963E+04  0.15000000000E+04  0.10566000000E+00 0. -1.
        994   -1    0    0    0    0 -0.00000000000E+00 -0.00000000000E+00  0.11368683772E-12  0.17120000000E+03  0.17120000000E+03 0.  0.
         13    1    1    2    0    0 -0.86719249138E+01  0.23881013182E+02  0.11042237014E+03  0.11330761698E+03  0.10566000000E+00 0. -1.
        994    1    1    2    0    0 -0.29348409800E+01 -0.19368777774E+02  0.41442830948E+01  0.17236698618E+03  0.17120000000E+03 0.  0.
        998    1    1    2    0    0  0.11606765894E+02 -0.45122354084E+01  0.13854333430E+04  0.13855253968E+04  0.10000000000E+02 0. -1.
</event>
<event>
 5    1  0.1338396E-008  0.3790657E+03  0.7957747E-01  0.3455237E+00
         13   -1    0    0    0    0  0.00000000000E+00  0.00000000000E+00  0.14999999963E+04  0.15000000000E+04  0.10566000000E+00 0.  1.
        994   -1    0    0    0    0 -0.00000000000E+00 -0.00000000000E+00  0.11368683772E-12  0.17120000000E+03  0.17120000000E+03 0.  0.
         13    1    1    2    0    0  0.76207927007E+01  0.14756644998E+02  0.27664489076E+02  0.32267168653E+02  0.10566000000E+00 0.  1.
        994    1    1    2    0    0 -0.54977214610E+01 -0.15690040834E+02  0.55329181687E+01  0.17209432154E+03  0.17120000000E+03 0.  0.
        998    1    1    2    0    0 -0.21230712397E+01  0.93339583607E+00  0.14668025890E+04  0.14668385098E+04  0.10000000000E+02 0.  1.
</event>
<event>
 5    1  0.1338396E-008  0.3837995E+03  0.7957747E-01  0.3434779E+00
         13   -1    0    0    0    0  0.00000000000E+00  0.00000000000E+00  0.14999999963E+04  0.15000000000E+04  0.10566000000E+00 0.  1.
        994   -1    0    0    0    0 -0.00000000000E+00 -0.00000000000E+00  0.11368683772E-12  0.17120000000E+03  0.17120000000E+03 0.  0.
         13    1    1    2    0    0 -0.27531754286E+02  0.73105288604E+02  0.14490950695E+03  0.16462429068E+03  0.10566000000E+00 0.  1.
        994    1    1    2    0    0  0.24794435855E+02 -0.73734530153E+02  0.41023859495E+02  0.19246802860E+03  0.17120000000E+03 0.  0.
        998    1    1    2    0    0  0.27373184311E+01  0.62924154926E+00  0.13140666298E+04  0.13141076807E+04  0.10000000000E+02 0.  1.
</event>
<event>
 5    1  0.1338396E-008  0.3861173E+03  0.7957747E-01  0.3424947E+00
         13   -1    0    0    0    0  0.00000000000E+00  0.00000000000E+00  0.14999999963E+04  0.15000000000E+04  0.10566000000E+00 0. -1.
        994   -1    0    0    0    0 -0.00000000000E+00 -0.00000000000E+00  0.11368683772E-12  0.17120000000E+03  0.17120000000E+03 0.  0.
         13    1    1    2    0    0  0.40128254490E+01 -0.98303010955E+01  0.57914767540E+02  0.58880124414E+02  0.10566000000E+00 0. -1.
        994    1    1    2    0    0  0.28749465938E+01 -0.37538030953E+01  0.11496802517E+01  0.17126913943E+03  0.17120000000E+03 0.  0.
        998    1    1    2    0    0 -0.68877720428E+01  0.13584104191E+02  0.14409355485E+04  0.14410507362E+04  0.10000000000E+02 0. -1.
</event>
<event>
 5    1  0.1338396E-008  0.3854847E+03  0.7957747E-01  0.3427619E+00
         13   -1    0    0    0    0  0.00000000000E+00  0.00000000000E+00  0.14999999963E+04  0.15000000000E+04  0.10566000000E+00 0. -1.
        994   -1    0    0    0    0 -0.00000000000E+00 -0.00000000000E+00  0.11368683772E-12  0.17120000000E+03  0.17120000000E+03 0.  0.
         13    1    1    2    0    0  0.17715817077E+01 -0.17293914264E+02  0.10109673156E+03  0.10258059402E+03  0.10566000000E+00 0. -1.
        994    1    1    2    0    0  0.55698010499E-01  0.20415856053E+02  0.27594608251E+01  0.17243510346E+03  0.17120000000E+03 0.  0.
        998    1    1    2    0    0 -0.18272797182E+01 -0.31219417893E+01  0.13961438039E+04  0.13961843025E+04  0.10000000000E+02 0. -1.
</event>
<event>
 5    1  0.1338396E-008  0.3816111E+03  0.7957747E-01  0.3444173E+00
         13   -1    0    0    0    0  0.00000000000E+00  0.00000000000E+00  0.14999999963E+04  0.15000000000E+04  0.10566000000E+00 0.  1.
        994   -1    0    0    0    0 -0.00000000000E+00 -0.00000000000E+00  0.11368683772E-12  0.17120000000E+03  0.17120000000E+03 0.  0.
         13    1    1    2    0    0 -0.22950086136E+01 -0.35843935627E+02  0.18182085698E+03  0.18533453532E+03  0.10566000000E+00 0.  1.
        994    1    1    2    0    0 -0.83623977233E+01  0.29487177482E+02  0.64521280560E+01  0.17404164240E+03  0.17120000000E+03 0.  0.
        998    1    1    2    0    0  0.10657406337E+02  0.63567581453E+01  0.13117270112E+04  0.13118238223E+04  0.10000000000E+02 0.  1.
</event>
<event>
 5    1  0.1338396E-008  0.3857458E+03  0.7957747E-01  0.3426515E+00
         13   -1    0    0    0    0  0.00000000000E+00  0.00000000000E+00  0.14999999963E+04  0.15000000000E+04  0.10566000000E+00 0.  1.
        994   -1    0    0    0    0 -0.00000000000E+00 -0.00000000000E+00  0.11368683772E-12  0.17120000000E+03  0.17120000000E+03 0.  0.
         13    1    1    2    0    0 -0.70093072534E+01  0.10070276474E+02  0.64606903181E+02  0.65761721078E+02  0.10566000000E+00 0.  1.
        994    1    1    2    0    0  0.33303017988E+01  0.41878176980E+01  0.13542219536E+01  0.17128894490E+03  0.17120000000E+03 0.  0.
        998    1    1    2    0    0  0.36790054546E+01 -0.14258094172E+02  0.14340388711E+04  0.14341493340E+04  0.10000000000E+02 0.  1.
</event>
<event>
 5    1  0.1338396E-008  0.3837854E+03  0.7957747E-01  0.3434840E+00
         13   -1    0    0    0    0  0.00000000000E+00  0.00000000000E+00  0.14999999963E+04  0.15000000000E+04  0.10566000000E+00 0. -1.
        994   -1    0    0    0    0 -0.00000000000E+00 -0.00000000000E+00  0.11368683772E-12  0.17120000000E+03  0.17120000000E+03 0.  0.
         13    1    1    2    0    0 -0.12841282122E+02  0.20913898184E+02  0.12607294049E+03  0.12843942989E+03  0.10566000000E+00 0. -1.
        994    1    1    2    0    0  0.14843877453E+02 -0.18241661018E+02  0.40626126186E+01  0.17285555738E+03  0.17120000000E+03 0.  0.
        998    1    1    2    0    0 -0.20025953303E+01 -0.26722371664E+01  0.13698644432E+04  0.13699050127E+04  0.10000000000E+02 0. -1.
</event>
<event>
 5    1  0.1338396E-008  0.3829382E+03  0.7957747E-01  0.3438464E+00
         13   -1    0    0    0    0  0.00000000000E+00  0.00000000000E+00  0.14999999963E+04  0.15000000000E+04  0.10566000000E+00 0. -1.
        994   -1    0    0    0    0 -0.00000000000E+00 -0.00000000000E+00  0.11368683772E-12  0.17120000000E+03  0.17120000000E+03 0.  0.
         13    1    1    2    0    0 -0.11181849921E+02 -0.42388317569E+01  0.25606721163E+02  0.28261578071E+02  0.10566000000E+00 0. -1.
        994    1    1    2    0    0  0.11646821440E+02  0.42972456049E+01  0.31676498052E+01  0.17167873711E+03  0.17120000000E+03 0.  0.
        998    1    1    2    0    0 -0.46497151818E+00 -0.58413847979E-01  0.14712256253E+04  0.14712596848E+04  0.10000000000E+02 0. -1.
</event>
<event>
 5    1  0.1338396E-008  0.3842297E+03  0.7957747E-01  0.3432946E+00
         13   -1    0    0    0    0  0.00000000000E+00  0.00000000000E+00  0.14999999963E+04  0.15000000000E+04  0.10566000000E+00 0. -1.
        994   -1    0    0    0    0 -0.00000000000E+00 -0.00000000000E+00  0.11368683772E-12  0.17120000000E+03  0.17120000000E+03 0.  0.
         13    1    1    2    0    0 -0.67744762866E+01 -0.22841017922E+02  0.12569587486E+03  0.12793384912E+03  0.10566000000E+00 0. -1.
        994    1    1    2    0    0  0.66805394600E+01  0.28170886282E+02  0.47815181230E+01  0.17369666478E+03  0.17120000000E+03 0.  0.
        998    1    1    2    0    0  0.93936826672E-01 -0.53298683604E+01  0.13695226033E+04  0.13695694861E+04  0.10000000000E+02 0. -1.
</event>
<event>
 5    1  0.1350658E-008  0.3854937E+03  0.7957747E-01  0.3427581E+00
         13   -1    0    0    0    0  0.00000000000E+00  0.00000000000E+00  0.14999999963E+04  0.15000000000E+04  0.10566000000E+00 0. -1.
        994   -1    0    0    0    0 -0.00000000000E+00 -0.00000000000E+00  0.11368683772E-12  0.17120000000E+03  0.17120000000E+03 0.  0.
         13    1    1    2    0    0  0.51594928958E+01  0.11427031061E+02  0.57015097259E+02  0.58377477551E+02  0.10566000000E+00 0. -1.
        994    1    1    2    0    0 -0.27694912059E+01 -0.79215321665E+01  0.16164763228E+01  0.17141316679E+03  0.17120000000E+03 0.  0.
        998    1    1    2    0    0 -0.23900016900E+01 -0.35054988945E+01  0.14413684227E+04  0.14414093557E+04  0.10000000000E+02 0. -1.
</event>
<event>
 5    1  0.1338396E-008  0.3708961E+03  0.7957747E-01  0.3491783E+00
         13   -1    0    0    0    0  0.00000000000E+00  0.00000000000E+00  0.14999999963E+04  0.15000000000E+04  0.10566000000E+00 0. -1.
        994   -1    0    0    0    0 -0.00000000000E+00 -0.00000000000E+00  0.11368683772E-12  0.17120000000E+03  0.17120000000E+03 0.  0.
         13    1    1    2    0    0  0.27160313746E+01 -0.46321207183E+02  0.92467605803E+02  0.10345675593E+03  0.10566000000E+00 0. -1.
        994    1    1    2    0    0  0.22770022315E+02  0.24287008159E+02  0.15310257860E+02  0.17507763043E+03  0.17120000000E+03 0.  0.
        998    1    1    2    0    0 -0.25486053689E+02  0.22034199024E+02  0.13922221326E+04  0.13926656136E+04  0.10000000000E+02 0. -1.
</event>
<event>
 5    1  0.1338396E-008  0.3725935E+03  0.7957747E-01  0.3484056E+00
         13   -1    0    0    0    0  0.00000000000E+00  0.00000000000E+00  0.14999999963E+04  0.15000000000E+04  0.10566000000E+00 0. -1.
        994   -1    0    0    0    0 -0.00000000000E+00 -0.00000000000E+00  0.11368683772E-12  0.17120000000E+03  0.17120000000E+03 0.  0.
         13    1    1    2    0    0 -0.49011802676E+01  0.18234484718E+02  0.18762021877E+02  0.26618464078E+02  0.10566000000E+00 0. -1.
        994    1    1    2    0    0  0.14518269075E+02 -0.17785997975E+02  0.97282719909E+01  0.17300636155E+03  0.17120000000E+03 0.  0.
        998    1    1    2    0    0 -0.96170888076E+01 -0.44848674235E+00  0.14715097024E+04  0.14715751744E+04  0.10000000000E+02 0. -1.
</event>
<event>
 5    1  0.1338396E-008  0.3832138E+03  0.7957747E-01  0.3437283E+00
         13   -1    0    0    0    0  0.00000000000E+00  0.00000000000E+00  0.14999999963E+04  0.15000000000E+04  0.10566000000E+00 0. -1.
        994   -1    0    0    0    0 -0.00000000000E+00 -0.00000000000E+00  0.11368683772E-12  0.17120000000E+03  0.17120000000E+03 0.  0.
         13    1    1    2    0    0  0.27677925453E+02  0.36143811942E+01  0.14345957316E+03  0.14614989430E+03  0.10566000000E+00 0. -1.
        994    1    1    2    0    0 -0.29393917502E+02  0.18827185632E+02  0.65604452895E+01  0.17484548821E+03  0.17120000000E+03 0.  0.
        998    1    1    2    0    0  0.17159920499E+01 -0.22441566826E+02  0.13499799778E+04  0.13502046175E+04  0.10000000000E+02 0. -1.
</event>
<event>
 5    1  0.1338396E-008  0.3851582E+03  0.7957747E-01  0.3429002E+00
         13   -1    0    0    0    0  0.00000000000E+00  0.00000000000E+00  0.14999999963E+04  0.15000000000E+04  0.10566000000E+00 0.  1.
        994   -1    0    0    0    0 -0.00000000000E+00 -0.00000000000E+00  0.11368683772E-12  0.17120000000E+03  0.17120000000E+03 0.  0.
         13    1    1    2    0    0 -0.22689104191E+01  0.18476323198E+02  0.11106165289E+03  0.11261094254E+03  0.10566000000E+00 0.  1.
        994    1    1    2    0    0 -0.40631795076E+01 -0.13276763176E+02  0.21855570505E+01  0.17177601267E+03  0.17120000000E+03 0.  0.
        998    1    1    2    0    0  0.63320899266E+01 -0.51995600214E+01  0.13867527863E+04  0.13868130448E+04  0.10000000000E+02 0.  1.
</event>
<event>
 5    1  0.1338396E-008  0.3814708E+03  0.7957747E-01  0.3444779E+00
         13   -1    0    0    0    0  0.00000000000E+00  0.00000000000E+00  0.14999999963E+04  0.15000000000E+04  0.10566000000E+00 0.  1.
        994   -1    0    0    0    0 -0.00000000000E+00 -0.00000000000E+00  0.11368683772E-12  0.17120000000E+03  0.17120000000E+03 0.  0.
         13    1    1    2    0    0 -0.45215117395E+01 -0.14410634896E+02  0.31575105710E+02  0.35001556124E+02  0.10566000000E+00 0.  1.
        994    1    1    2    0    0  0.40540857139E+01  0.16989464254E+02  0.44080832289E+01  0.17214513849E+03  0.17120000000E+03 0.  0.
        998    1    1    2    0    0  0.46742602560E+00 -0.25788293583E+01  0.14640168073E+04  0.14640533054E+04  0.10000000000E+02 0.  1.
</event>
<event>
 5    1  0.1338396E-008  0.3798116E+03  0.7957747E-01  0.3451979E+00
         13   -1    0    0    0    0  0.00000000000E+00  0.00000000000E+00  0.14999999963E+04  0.15000000000E+04  0.10566000000E+00 0.  1.
        994   -1    0    0    0    0 -0.00000000000E+00 -0.00000000000E+00  0.11368683772E-12  0.17120000000E+03  0.17120000000E+03 0.  0.
         13    1    1    2    0    0  0.21877307865E+02  0.24781034342E+02  0.32419646505E+02  0.46300765717E+02  0.10566000000E+00 0.  1.
        994    1    1    2    0    0  0.19827466087E+02  0.55448181362E+02  0.28889311564E+02  0.18333483453E+03  0.17120000000E+03 0.  0.
        998    1    1    2    0    0 -0.41704773952E+02 -0.80229215704E+02  0.14386910382E+04  0.14415643998E+04  0.10000000000E+02 0.  1.
</event>
<event>
 5    1  0.1338396E-008  0.3842640E+03  0.7957747E-01  0.3432800E+00
         13   -1    0    0    0    0  0.00000000000E+00  0.00000000000E+00  0.14999999963E+04  0.15000000000E+04  0.10566000000E+00 0. -1.
        994   -1    0    0    0    0 -0.00000000000E+00 -0.00000000000E+00  0.11368683772E-12  0.17120000000E+03  0.17120000000E+03 0.  0.
         13    1    1    2    0    0 -0.11689870648E+03  0.19656403264E+02  0.39306004113E+03  0.41054584258E+03  0.10566000000E+00 0. -1.
        994    1    1    2    0    0  0.67372731777E+02  0.26575699263E+02  0.38264614670E+02  0.18978665262E+03  0.17120000000E+03 0.  0.
        998    1    1    2    0    0  0.49525974701E+02 -0.46232102527E+02  0.10686753405E+04  0.10708675048E+04  0.10000000000E+02 0. -1.
</event>
<event>
 5    1  0.1338396E-008  0.3812940E+03  0.7957747E-01  0.3445543E+00
         13   -1    0    0    0    0  0.00000000000E+00  0.00000000000E+00  0.14999999963E+04  0.15000000000E+04  0.10566000000E+00 0.  1.
        994   -1    0    0    0    0 -0.00000000000E+00 -0.00000000000E+00  0.11368683772E-12  0.17120000000E+03  0.17120000000E+03 0.  0.
         13    1    1    2    0    0 -0.18478910446E+01  0.14617245143E+02  0.31010503196E+02  0.34332798159E+02  0.10566000000E+00 0.  1.
        994    1    1    2    0    0 -0.48368121669E+01  0.94328138733E+00  0.35622161929E+01  0.17130795053E+03  0.17120000000E+03 0.  0.
        998    1    1    2    0    0  0.66847032114E+01 -0.15560526530E+02  0.14654272769E+04  0.14655592513E+04  0.10000000000E+02 0.  1.
</event>
<event>
 5    1  0.1338396E-008  0.3793803E+03  0.7957747E-01  0.3453861E+00
         13   -1    0    0    0    0  0.00000000000E+00  0.00000000000E+00  0.14999999963E+04  0.15000000000E+04  0.10566000000E+00 0. -1.
        994   -1    0    0    0    0 -0.00000000000E+00 -0.00000000000E+00  0.11368683772E-12  0.17120000000E+03  0.17120000000E+03 0.  0.
         13    1    1    2    0    0 -0.14192162456E+01  0.20162067471E+02  0.40475244080E+02  0.45241349304E+02  0.10566000000E+00 0. -1.
        994    1    1    2    0    0 -0.14861944885E+01 -0.39922994135E+02  0.98113284601E+01  0.17607315639E+03  0.17120000000E+03 0.  0.
        998    1    1    2    0    0  0.29054107340E+01  0.19760926664E+02  0.14497134237E+04  0.14498854943E+04  0.10000000000E+02 0. -1.
</event>
<event>
 5    1  0.1338396E-008  0.3718633E+03  0.7957747E-01  0.3487371E+00
         13   -1    0    0    0    0  0.00000000000E+00  0.00000000000E+00  0.14999999963E+04  0.15000000000E+04  0.10566000000E+00 0.  1.
        994   -1    0    0    0    0 -0.00000000000E+00 -0.00000000000E+00  0.11368683772E-12  0.17120000000E+03  0.17120000000E+03 0.  0.
         13    1    1    2    0    0 -0.13863719115E+02  0.65410500811E+02  0.16017163404E+03  0.17356756563E+03  0.10566000000E+00 0.  1.
        994    1    1    2    0    0  0.19876149466E+02 -0.70205753098E+02  0.30905931717E+02  0.18864921336E+03  0.17120000000E+03 0.  0.
        998    1    1    2    0    0 -0.60124303504E+01  0.47952522869E+01  0.13089224305E+04  0.13089832210E+04  0.10000000000E+02 0.  1.
</event>
<event>
 5    1  0.1338396E-008  0.3940864E+03  0.7957747E-01  0.3392027E+00
         13   -1    0    0    0    0  0.00000000000E+00  0.00000000000E+00  0.14999999963E+04  0.15000000000E+04  0.10566000000E+00 0. -1.
        994   -1    0    0    0    0 -0.00000000000E+00 -0.00000000000E+00  0.11368683772E-12  0.17120000000E+03  0.17120000000E+03 0.  0.
         13    1    1    2    0    0  0.18031496310E+02  0.73356027756E+01 -0.28613519478E+01  0.19675986030E+02  0.10566000000E+00 0. -1.
        994    1    1    2    0    0 -0.11392721328E+02  0.50637387516E+01  0.24886028482E+02  0.17344794598E+03  0.17120000000E+03 0.  0.
        998    1    1    2    0    0 -0.66387749819E+01 -0.12399341527E+02  0.14779753197E+04  0.14780760680E+04  0.10000000000E+02 0. -1.
</event>
<event>
 5    1  0.1338396E-008  0.3737104E+03  0.7957747E-01  0.3479010E+00
         13   -1    0    0    0    0  0.00000000000E+00  0.00000000000E+00  0.14999999963E+04  0.15000000000E+04  0.10566000000E+00 0. -1.
        994   -1    0    0    0    0 -0.00000000000E+00 -0.00000000000E+00  0.11368683772E-12  0.17120000000E+03  0.17120000000E+03 0.  0.
         13    1    1    2    0    0  0.35491266799E+02 -0.10336051493E+02  0.88800771202E+02  0.96187588127E+02  0.10566000000E+00 0. -1.
        994    1    1    2    0    0 -0.25747299248E+02  0.10559120943E+02  0.99908920475E+01  0.17373449968E+03  0.17120000000E+03 0.  0.
        998    1    1    2    0    0 -0.97439675506E+01 -0.22306945029E+00  0.14012083330E+04  0.14012779122E+04  0.10000000000E+02 0. -1.
</event>
<event>
 5    1  0.1338396E-008  0.3699646E+03  0.7957747E-01  0.3496053E+00
         13   -1    0    0    0    0  0.00000000000E+00  0.00000000000E+00  0.14999999963E+04  0.15000000000E+04  0.10566000000E+00 0.  1.
        994   -1    0    0    0    0 -0.00000000000E+00 -0.00000000000E+00  0.11368683772E-12  0.17120000000E+03  0.17120000000E+03 0.  0.
         13    1    1    2    0    0  0.92806028056E+01 -0.71691035884E+01  0.11840663409E+01  0.11787230881E+02  0.10566000000E+00 0.  1.
        994    1    1    2    0    0 -0.11983963400E+02  0.66146129691E+01  0.11575322826E+02  0.17213598282E+03  0.17120000000E+03 0.  0.
        998    1    1    2    0    0  0.27033605940E+01  0.55449061931E+00  0.14872406071E+04  0.14872767863E+04  0.10000000000E+02 0.  1.
</event>
<event>
 5    1  0.1338396E-008  0.3786660E+03  0.7957747E-01  0.3456988E+00
         13   -1    0    0    0    0  0.00000000000E+00  0.00000000000E+00  0.14999999963E+04  0.15000000000E+04  0.10566000000E+00 0. -1.
        994   -1    0    0    0    0 -0.00000000000E+00 -0.00000000000E+00  0.11368683772E-12  0.17120000000E+03  0.17120000000E+03 0.  0.
         13    1    1    2    0    0  0.26757780036E+02 -0.26947450293E+02  0.16779724570E+03  0.17204089833E+03  0.10566000000E+00 0. -1.
        994    1    1    2    0    0 -0.58271887521E+01 -0.15943253797E+01  0.49306437316E+01  0.17137750509E+03  0.17120000000E+03 0.  0.
        998    1    1    2    0    0 -0.20930591283E+02  0.28541775673E+02  0.13272721069E+04  0.13277815966E+04  0.10000000000E+02 0. -1.
</event>
<event>
 5    1  0.1338396E-008  0.3759726E+03  0.7957747E-01  0.3468885E+00
         13   -1    0    0    0    0  0.00000000000E+00  0.00000000000E+00  0.14999999963E+04  0.15000000000E+04  0.10566000000E+00 0. -1.
        994   -1    0    0    0    0 -0.00000000000E+00 -0.00000000000E+00  0.11368683772E-12  0.17120000000E+03  0.17120000000E+03 0.  0.
         13    1    1    2    0    0  0.21523873271E+02  0.86574889967E+01  0.41410637462E+02  0.47466633495E+02  0.10566000000E+00 0. -1.
        994    1    1    2    0    0 -0.11062105584E+02 -0.71535150470E+01  0.67683433847E+01  0.17183944084E+03  0.17120000000E+03 0.  0.
        998    1    1    2    0    0 -0.10461767687E+02 -0.15039739497E+01  0.14518210154E+04  0.14518939257E+04  0.10000000000E+02 0. -1.
</event>
<event>
 5    1  0.1965881E-008  0.3862053E+03  0.7957747E-01  0.3424576E+00
         13   -1    0    0    0    0  0.00000000000E+00  0.00000000000E+00  0.14999999963E+04  0.15000000000E+04  0.10566000000E+00 0.  1.
        994   -1    0    0    0    0 -0.00000000000E+00 -0.00000000000E+00  0.11368683772E-12  0.17120000000E+03  0.17120000000E+03 0.  0.
         13    1    1    2    0    0  0.39432110062E+01  0.11846440530E+02  0.74455457916E+02  0.75495121987E+02  0.10566000000E+00 0.  1.
        994    1    1    2    0    0 -0.76845510540E+01 -0.97139504695E+01  0.15356201172E+01  0.17165433664E+03  0.17120000000E+03 0.  0.
        998    1    1    2    0    0  0.37413400478E+01 -0.21324900609E+01  0.14240089182E+04  0.14240505414E+04  0.10000000000E+02 0.  1.
</event>
<event>
 5    1  0.1338396E-008  0.3845971E+03  0.7957747E-01  0.3431383E+00
         13   -1    0    0    0    0  0.00000000000E+00  0.00000000000E+00  0.14999999963E+04  0.15000000000E+04  0.10566000000E+00 0. -1.
        994   -1    0    0    0    0 -0.00000000000E+00 -0.00000000000E+00  0.11368683772E-12  0.17120000000E+03  0.17120000000E+03 0.  0.
         13    1    1    2    0    0 -0.99548446085E+01 -0.12499639998E+02  0.75405165104E+02  0.77079764009E+02  0.10566000000E+00 0. -1.
        994    1    1    2    0    0  0.14441715571E+02 -0.13268915758E+02  0.30978970984E+01  0.17234751011E+03  0.17120000000E+03 0.  0.
        998    1    1    2    0    0 -0.44868709628E+01  0.25768555756E+02  0.14214969341E+04  0.14217727259E+04  0.10000000000E+02 0. -1.
</event>
<event>
 5    1  0.1338396E-008  0.3798245E+03  0.7957747E-01  0.3451923E+00
         13   -1    0    0    0    0  0.00000000000E+00  0.00000000000E+00  0.14999999963E+04  0.15000000000E+04  0.10566000000E+00 0. -1.
        994   -1    0    0    0    0 -0.00000000000E+00 -0.00000000000E+00  0.11368683772E-12  0.17120000000E+03  0.17120000000E+03 0.  0.
         13    1    1    2    0    0 -0.33799634330E+02 -0.29918488033E+02  0.25022214578E+03  0.25426101670E+03  0.10566000000E+00 0. -1.
        994    1    1    2    0    0  0.13767042769E+02  0.15804230772E+02  0.56925334575E+01  0.17257215915E+03  0.17120000000E+03 0.  0.
        998    1    1    2    0    0  0.20032591561E+02  0.14114257261E+02  0.12440853170E+04  0.12443668242E+04  0.10000000000E+02 0. -1.
</event>
<event>
 5    1  0.1338396E-008  0.3759437E+03  0.7957747E-01  0.3469013E+00
         13   -1    0    0    0    0  0.00000000000E+00  0.00000000000E+00  0.14999999963E+04  0.15000000000E+04  0.10566000000E+00 0.  1.
        994   -1    0    0    0    0 -0.00000000000E+00 -0.00000000000E+00  0.11368683772E-12  0.17120000000E+03  0.17120000000E+03 0.  0.
         13    1    1    2    0    0 -0.49264538331E+01  0.95008613057E+01  0.62715203756E+01  0.12404815387E+02  0.10566000000E+00 0.  1.
        994    1    1    2    0    0  0.43619759245E+01 -0.16419946598E+02  0.71735565869E+01  0.17219042190E+03  0.17120000000E+03 0.  0.
        998    1    1    2    0    0  0.56447790855E+00  0.69190852927E+01  0.14865549193E+04  0.14866047627E+04  0.10000000000E+02 0.  1.
</event>
<event>
 5    1  0.1338396E-008  0.4354601E+03  0.7957747E-01  0.3240323E+00
         13   -1    0    0    0    0  0.00000000000E+00  0.00000000000E+00  0.14999999963E+04  0.15000000000E+04  0.10566000000E+00 0. -1.
        994   -1    0    0    0    0 -0.00000000000E+00 -0.00000000000E+00  0.11368683772E-12  0.17120000000E+03  0.17120000000E+03 0.  0.
         13    1    1    2    0    0  0.17931508312E+02 -0.13054476455E+02 -0.16248623443E+02  0.27495222743E+02  0.10566000000E+00 0. -1.
        994    1    1    2    0    0 -0.19726437798E+02  0.99827362060E+01  0.53222483190E+02  0.18064013975E+03  0.17120000000E+03 0.  0.
        998    1    1    2    0    0  0.17949294859E+01  0.30717402495E+01  0.14630261365E+04  0.14630646375E+04  0.10000000000E+02 0. -1.
</event>
<event>
 5    1  0.1338396E-008  0.3758621E+03  0.7957747E-01  0.3469376E+00
         13   -1    0    0    0    0  0.00000000000E+00  0.00000000000E+00  0.14999999963E+04  0.15000000000E+04  0.10566000000E+00 0. -1.
        994   -1    0    0    0    0 -0.00000000000E+00 -0.00000000000E+00  0.11368683772E-12  0.17120000000E+03  0.17120000000E+03 0.  0.
         13    1    1    2    0    0  0.59662882010E+02 -0.29713572356E+02  0.30159493914E+03  0.30887226220E+03  0.10566000000E+00 0. -1.
        994    1    1    2    0    0 -0.51494205439E+02  0.29132518844E+02  0.18194326137E+02  0.18204623136E+03  0.17120000000E+03 0.  0.
        998    1    1    2    0    0 -0.81686765705E+01  0.58105351116E+00  0.11802107310E+04  0.11802815064E+04  0.10000000000E+02 0. -1.
</event>
<event>
 5    1  0.1338396E-008  0.3848840E+03  0.7957747E-01  0.3430165E+00
         13   -1    0    0    0    0  0.00000000000E+00  0.00000000000E+00  0.14999999963E+04  0.15000000000E+04  0.10566000000E+00 0.  1.
        994   -1    0    0    0    0 -0.00000000000E+00 -0.00000000000E+00  0.11368683772E-12  0.17120000000E+03  0.17120000000E+03 0.  0.
         13    1    1    2    0    0  0.65946614552E+01 -0.10611942712E+02  0.45429727910E+02  0.47116602486E+02  0.10566000000E+00 0.  1.
        994    1    1    2    0    0 -0.60376179393E+01  0.94535319293E+01  0.21018147467E+01  0.17157995140E+03  0.17120000000E+03 0.  0.
        998    1    1    2    0    0 -0.55704351587E+00  0.11584107826E+01  0.14524684536E+04  0.14525034461E+04  0.10000000000E+02 0.  1.
</event>
<event>
 5    1  0.1338396E-008  0.3717993E+03  0.7957747E-01  0.3487662E+00
         13   -1    0    0    0    0  0.00000000000E+00  0.00000000000E+00  0.14999999963E+04  0.15000000000E+04  0.10566000000E+00 0.  1.
        994   -1    0    0    0    0 -0.00000000000E+00 -0.00000000000E+00  0.11368683772E-12  0.17120000000E+03  0.17120000000E+03 0.  0.
         13    1    1    2    0    0 -0.10939293167E+02  0.25165213864E+02  0.42640622429E+02  0.50706902577E+02  0.10566000000E+00 0.  1.
        994    1    1    2    0    0  0.12155324825E+02 -0.79675220766E+01  0.90578117573E+01  0.17205440210E+03  0.17120000000E+03 0.  0.
        998    1    1    2    0    0 -0.12160316580E+01 -0.17197691787E+02  0.14483015621E+04  0.14484386953E+04  0.10000000000E+02 0.  1.
</event>
<event>
 5    1  0.1338396E-008  0.3859153E+03  0.7957747E-01  0.3425799E+00
         13   -1    0    0    0    0  0.00000000000E+00  0.00000000000E+00  0.14999999963E+04  0.15000000000E+04  0.10566000000E+00 0. -1.
        994   -1    0    0    0    0 -0.00000000000E+00 -0.00000000000E+00  0.11368683772E-12  0.17120000000E+03  0.17120000000E+03 0.  0.
         13    1    1    2    0    0 -0.33642989911E+00  0.10390631399E+02  0.46521002161E+02  0.47668576778E+02  0.10566000000E+00 0. -1.
        994    1    1    2    0    0  0.15667123328E+02 -0.63819987514E+01  0.21153262790E+01  0.17204680545E+03  0.17120000000E+03 0.  0.
        998    1    1    2    0    0 -0.15330693429E+02 -0.40086326475E+01  0.14513636678E+04  0.14514846178E+04  0.10000000000E+02 0. -1.
</event>
<event>
 5    1  0.1338396E-008  0.3844151E+03  0.7957747E-01  0.3432157E+00
         13   -1    0    0    0    0  0.00000000000E+00  0.00000000000E+00  0.14999999963E+04  0.15000000000E+04  0.10566000000E+00 0. -1.
        994   -1    0    0    0    0 -0.00000000000E+00 -0.00000000000E+00  0.11368683772E-12  0.17120000000E+03  0.17120000000E+03 0.  0.
         13    1    1    2    0    0  0.65811079133E+01 -0.14674324897E+02  0.65998260172E+02  0.67929583411E+02  0.10566000000E+00 0. -1.
        994    1    1    2    0    0 -0.74979460371E+01  0.11137868552E+02  0.25150117338E+01  0.17174410207E+03  0.17120000000E+03 0.  0.
        998    1    1    2    0    0  0.91683812386E+00  0.35364563457E+01  0.14314867244E+04  0.14315263145E+04  0.10000000000E+02 0. -1.
</event>
<event>
 5    1  0.1338396E-008  0.3835029E+03  0.7957747E-01  0.3436047E+00
         13   -1    0    0    0    0  0.00000000000E+00  0.00000000000E+00  0.14999999963E+04  0.15000000000E+04  0.10566000000E+00 0. -1.
        994   -1    0    0    0    0 -0.00000000000E+00 -0.00000000000E+00  0.11368683772E-12  0.17120000000E+03  0.17120000000E+03 0.  0.
         13    1    1    2    0    0 -0.11567888348E+02 -0.10176168382E+02  0.52032770739E+02  0.54265927050E+02  0.10566000000E+00 0. -1.
        994    1    1    2    0    0  0.35266878538E+01 -0.52361397146E+01  0.25069716760E+01  0.17133470049E+03  0.17120000000E+03 0.  0.
        998    1    1    2    0    0  0.80412004944E+01  0.15412308097E+02  0.14454602539E+04  0.14455993725E+04  0.10000000000E+02 0. -1.
</event>
<event>
 5    1  0.1338396E-008  0.3841987E+03  0.7957747E-01  0.3433078E+00
         13   -1    0    0    0    0  0.00000000000E+00  0.00000000000E+00  0.14999999963E+04  0.15000000000E+04  0.10566000000E+00 0.  1.
        994   -1    0    0    0    0 -0.00000000000E+00 -0.00000000000E+00  0.11368683772E-12  0.17120000000E+03  0.17120000000E+03 0.  0.
         13    1    1    2    0    0 -0.59766692677E+01 -0.13380867049E+02  0.55717303864E+02  0.57612475146E+02  0.10566000000E+00 0.  1.
        994    1    1    2    0    0 -0.41755984773E+01  0.56765411037E+00  0.20870562168E+01  0.17126457210E+03  0.17120000000E+03 0.  0.
        998    1    1    2    0    0  0.10152267745E+02  0.12813212939E+02  0.14421956362E+04  0.14423229528E+04  0.10000000000E+02 0.  1.
</event>
<event>
 5    1  0.1338396E-008  0.3854352E+03  0.7957747E-01  0.3427828E+00
         13   -1    0    0    0    0  0.00000000000E+00  0.00000000000E+00  0.14999999963E+04  0.15000000000E+04  0.10566000000E+00 0. -1.
        994   -1    0    0    0    0 -0.00000000000E+00 -0.00000000000E+00  0.11368683772E-12  0.17120000000E+03  0.17120000000E+03 0.  0.
         13    1    1    2    0    0  0.22345221288E+00 -0.12518582425E+02  0.53373527580E+02  0.54822526822E+02  0.10566000000E+00 0. -1.
        994    1    1    2    0    0 -0.86711815748E+01  0.15123543832E+02  0.24128880649E+01  0.17210221671E+03  0.17120000000E+03 0.  0.
        998    1    1    2    0    0  0.84477293619E+01 -0.26049614063E+01  0.14442135806E+04  0.14442752565E+04  0.10000000000E+02 0. -1.
</event>
<event>
 5    1  0.1338396E-008  0.3745505E+03  0.7957747E-01  0.3475236E+00
         13   -1    0    0    0    0  0.00000000000E+00  0.00000000000E+00  0.14999999963E+04  0.15000000000E+04  0.10566000000E+00 0.  1.
        994   -1    0    0    0    0 -0.00000000000E+00 -0.00000000000E+00  0.11368683772E-12  0.17120000000E+03  0.17120000000E+03 0.  0.
         13    1    1    2    0    0 -0.47606573459E+02  0.17830583337E+02  0.19388829912E+03  0.20044200967E+03  0.10566000000E+00 0.  1.
        994    1    1    2    0    0  0.13091670355E+02 -0.26926909087E+02  0.99676559749E+01  0.17408401544E+03  0.17120000000E+03 0.  0.
        998    1    1    2    0    0  0.34514903105E+02  0.90963257500E+01  0.12961440412E+04  0.12966739749E+04  0.10000000000E+02 0.  1.
</event>
<event>
 5    1  0.1338396E-008  0.3803114E+03  0.7957747E-01  0.3449804E+00
         13   -1    0    0    0    0  0.00000000000E+00  0.00000000000E+00  0.14999999963E+04  0.15000000000E+04  0.10566000000E+00 0. -1.
        994   -1    0    0    0    0 -0.00000000000E+00 -0.00000000000E+00  0.11368683772E-12  0.17120000000E+03  0.17120000000E+03 0.  0.
         13    1    1    2    0    0 -0.17714938193E+02  0.29868232382E+02  0.15844737736E+03  0.16220823930E+03  0.10566000000E+00 0. -1.
        994    1    1    2    0    0  0.15367280886E+02 -0.55627144777E+01  0.48684799916E+01  0.17204720053E+03  0.17120000000E+03 0.  0.
        998    1    1    2    0    0  0.23476573070E+01 -0.24305517905E+02  0.13366841389E+04  0.13369445602E+04  0.10000000000E+02 0. -1.
</event>
<event>
 5    1  0.1338396E-008  0.3850593E+03  0.7957747E-01  0.3429421E+00
         13   -1    0    0    0    0  0.00000000000E+00  0.00000000000E+00  0.14999999963E+04  0.15000000000E+04  0.10566000000E+00 0. -1.
        994   -1    0    0    0    0 -0.00000000000E+00 -0.00000000000E+00  0.11368683772E-12  0.17120000000E+03  0.17120000000E+03 0.  0.
         13    1    1    2    0    0  0.69978865742E+01 -0.18520616855E+02  0.11533731256E+03  0.11702431584E+03  0.10566000000E+00 0. -1.
        994    1    1    2    0    0 -0.93065137373E+01  0.17488566065E+02  0.28921592148E+01  0.17236666071E+03  0.17120000000E+03 0.  0.
        998    1    1    2    0    0  0.23086271631E+01  0.10320507892E+01  0.13817705245E+04  0.13818090234E+04  0.10000000000E+02 0. -1.
</event>
<event>
 5    1  0.1338396E-008  0.3749436E+03  0.7957747E-01  0.3473475E+00
         13   -1    0    0    0    0  0.00000000000E+00  0.00000000000E+00  0.14999999963E+04  0.15000000000E+04  0.10566000000E+00 0. -1.
        994   -1    0    0    0    0 -0.00000000000E+00 -0.00000000000E+00  0.11368683772E-12  0.17120000000E+03  0.17120000000E+03 0.  0.
         13    1    1    2    0    0 -0.21057796522E+02 -0.39819010171E+02  0.22480733873E+03  0.22927567485E+03  0.10566000000E+00 0. -1.
        994    1    1    2    0    0 -0.40614118458E+02 -0.15896158989E+02  0.13202468846E+02  0.17716077351E+03  0.17120000000E+03 0.  0.
        998    1    1    2    0    0  0.61671914980E+02  0.55715169160E+02  0.12619901887E+04  0.12647635516E+04  0.10000000000E+02 0. -1.
</event>
<event>
 5    1  0.1338396E-008  0.3831417E+03  0.7957747E-01  0.3437592E+00
         13   -1    0    0    0    0  0.00000000000E+00  0.00000000000E+00  0.14999999963E+04  0.15000000000E+04  0.10566000000E+00 0.  1.
        994   -1    0    0    0    0 -0.00000000000E+00 -0.00000000000E+00  0.11368683772E-12  0.17120000000E+03  0.17120000000E+03 0.  0.
         13    1    1    2    0    0 -0.22647488304E+01  0.13635368424E+02  0.37404670713E+02  0.39876972233E+02  0.10566000000E+00 0.  1.
        994    1    1    2    0    0  0.77096078493E+01 -0.25440480698E+01  0.27736630615E+01  0.17141482853E+03  0.17120000000E+03 0.  0.
        998    1    1    2    0    0 -0.54448590189E+01 -0.11091320354E+02  0.14598216625E+04  0.14599081992E+04  0.10000000000E+02 0.  1.
</event>
<event>
 5    1  0.1338396E-008  0.3829467E+03  0.7957747E-01  0.3438427E+00
         13   -1    0    0    0    0  0.00000000000E+00  0.00000000000E+00  0.14999999963E+04  0.15000000000E+04  0.10566000000E+00 0. -1.
        994   -1    0    0    0    0 -0.00000000000E+00 -0.00000000000E+00  0.11368683772E-12  0.17120000000E+03  0.17120000000E+03 0.  0.
         13    1    1    2    0    0 -0.25889248856E+01 -0.23218302981E+02  0.99529338903E+02  0.10223449805E+03  0.10566000000E+00 0. -1.
        994    1    1    2    0    0 -0.29276757367E+01  0.19022107123E+02  0.38802614325E+01  0.17232210617E+03  0.17120000000E+03 0.  0.
        998    1    1    2    0    0  0.55166006223E+01  0.41961958582E+01  0.13965903959E+04  0.13966433958E+04  0.10000000000E+02 0. -1.
</event>
<event>
 5    1  0.1338396E-008  0.3807259E+03  0.7957747E-01  0.3448004E+00
         13   -1    0    0    0    0  0.00000000000E+00  0.00000000000E+00  0.14999999963E+04  0.15000000000E+04  0.10566000000E+00 0. -1.
        994   -1    0    0    0    0 -0.00000000000E+00 -0.00000000000E+00  0.11368683772E-12  0.17120000000E+03  0.17120000000E+03 0.  0.
         13    1    1    2    0    0 -0.17661402615E+02 -0.21122717136E+02  0.98386517543E+02  0.10216659102E+03  0.10566000000E+00 0. -1.
        994    1    1    2    0    0  0.18149504257E+02  0.91707322542E+01  0.51473702252E+01  0.17248026628E+03  0.17120000000E+03 0.  0.
        998    1    1    2    0    0 -0.48810164167E+00  0.11951984882E+02  0.13964661085E+04  0.13965531427E+04  0.10000000000E+02 0. -1.
</event>
<event>
 5    1  0.1338396E-008  0.3800162E+03  0.7957747E-01  0.3451088E+00
         13   -1    0    0    0    0  0.00000000000E+00  0.00000000000E+00  0.14999999963E+04  0.15000000000E+04  0.10566000000E+00 0.  1.
        994   -1    0    0    0    0 -0.00000000000E+00 -0.00000000000E+00  0.11368683772E-12  0.17120000000E+03  0.17120000000E+03 0.  0.
         13    1    1    2    0    0 -0.49965466753E+01  0.87505714977E+01  0.10465584560E+02  0.14528510055E+02  0.10566000000E+00 0.  1.
        994    1    1    2    0    0  0.38503134508E+01 -0.71527228129E+01  0.43455789826E+01  0.17144769002E+03  0.17120000000E+03 0.  0.
        998    1    1    2    0    0  0.11462332245E+01 -0.15978486848E+01  0.14851888327E+04  0.14852237999E+04  0.10000000000E+02 0.  1.
</event>
<event>
 5    1  0.1338396E-008  0.3756754E+03  0.7957747E-01  0.3470208E+00
         13   -1    0    0    0    0  0.00000000000E+00  0.00000000000E+00  0.14999999963E+04  0.15000000000E+04  0.10566000000E+00 0. -1.
        994   -1    0    0    0    0 -0.00000000000E+00 -0.00000000000E+00  0.11368683772E-12  0.17120000000E+03  0.17120000000E+03 0.  0.
         13    1    1    2    0    0 -0.24594672386E+02 -0.24146960171E+03  0.97791124514E+03  0.10075826919E+04  0.10566000000E+00 0. -1.
        994    1    1    2    0    0  0.28619887903E+02  0.23862918888E+03  0.23743415366E+03  0.37874451164E+03  0.17120000000E+03 0.  0.
        998    1    1    2    0    0 -0.40252155175E+01  0.28404128316E+01  0.28465459748E+03  0.28487279647E+03  0.10000000000E+02 0.  0.
</event>
<event>
 5    1  0.1338396E-008  0.3846583E+03  0.7957747E-01  0.3431123E+00
         13   -1    0    0    0    0  0.00000000000E+00  0.00000000000E+00  0.14999999963E+04  0.15000000000E+04  0.10566000000E+00 0. -1.
        994   -1    0    0    0    0 -0.00000000000E+00 -0.00000000000E+00  0.11368683772E-12  0.17120000000E+03  0.17120000000E+03 0.  0.
         13    1    1    2    0    0  0.24109290311E+01  0.11523966834E+02  0.36199096208E+02  0.38065734207E+02  0.10566000000E+00 0. -1.
        994    1    1    2    0    0 -0.37795120838E+01 -0.19460347896E+02  0.30947776812E+01  0.17237171317E+03  0.17120000000E+03 0.  0.
        998    1    1    2    0    0  0.13685830528E+01  0.79363810619E+01  0.14607061224E+04  0.14607625526E+04  0.10000000000E+02 0. -1.
</event>
<event>
 5    1  0.1338396E-008  0.3756604E+03  0.7957747E-01  0.3470274E+00
         13   -1    0    0    0    0  0.00000000000E+00  0.00000000000E+00  0.14999999963E+04  0.15000000000E+04  0.10566000000E+00 0.  1.
        994   -1    0    0    0    0 -0.00000000000E+00 -0.00000000000E+00  0.11368683772E-12  0.17120000000E+03  0.17120000000E+03 0.  0.
         13    1    1    2    0    0  0.96485821192E+02  0.97636239453E+02  0.44394964506E+03  0.46468661209E+03  0.10566000000E+00 0.  1.
        994    1    1    2    0    0 -0.10239181373E+03 -0.93829508748E+02  0.86382851294E+02  0.23676886879E+03  0.17120000000E+03 0.  0.
        998    1    1    2    0    0  0.59059925367E+01 -0.38067307052E+01  0.96966749993E+03  0.96974451912E+03  0.10000000000E+02 0.  0.
</event>
<event>
 5    1  0.1338396E-008  0.3845812E+03  0.7957747E-01  0.3431450E+00
         13   -1    0    0    0    0  0.00000000000E+00  0.00000000000E+00  0.14999999963E+04  0.15000000000E+04  0.10566000000E+00 0. -1.
        994   -1    0    0    0    0 -0.00000000000E+00 -0.00000000000E+00  0.11368683772E-12  0.17120000000E+03  0.17120000000E+03 0.  0.
         13    1    1    2    0    0 -0.11532698023E+02  0.18195466633E+02  0.12309135544E+03  0.12496227862E+03  0.10566000000E+00 0. -1.
        994    1    1    2    0    0  0.11643672261E+02 -0.11887893813E+02  0.27505699012E+01  0.17202878468E+03  0.17120000000E+03 0.  0.
        998    1    1    2    0    0 -0.11097423727E+00 -0.63075728199E+01  0.13741580709E+04  0.13742089367E+04  0.10000000000E+02 0. -1.
</event>
<event>
 5    1  0.1338396E-008  0.3767521E+03  0.7957747E-01  0.3465424E+00
         13   -1    0    0    0    0  0.00000000000E+00  0.00000000000E+00  0.14999999963E+04  0.15000000000E+04  0.10566000000E+00 0.  1.
        994   -1    0    0    0    0 -0.00000000000E+00 -0.00000000000E+00  0.11368683772E-12  0.17120000000E+03  0.17120000000E+03 0.  0.
         13    1    1    2    0    0 -0.20648503449E+03 -0.57827051090E+01  0.96392862722E+03  0.98581332852E+03  0.10566000000E+00 0.  1.
        994    1    1    2    0    0  0.20637830419E+03 -0.51680368109E+01  0.16683231875E+03  0.31584992580E+03  0.17120000000E+03 0.  0.
        998    1    1    2    0    0  0.10673029406E+00  0.10950741920E+02  0.36923905030E+03  0.36953674568E+03  0.10000000000E+02 0.  0.
</event>
<event>
 5    1  0.1338396E-008  0.3811180E+03  0.7957747E-01  0.3446305E+00
         13   -1    0    0    0    0  0.00000000000E+00  0.00000000000E+00  0.14999999963E+04  0.15000000000E+04  0.10566000000E+00 0. -1.
        994   -1    0    0    0    0 -0.00000000000E+00 -0.00000000000E+00  0.11368683772E-12  0.17120000000E+03  0.17120000000E+03 0.  0.
         13    1    1    2    0    0  0.46606358076E+02  0.52757827608E+02  0.13057104304E+03  0.14833863095E+03  0.10566000000E+00 0. -1.
        994    1    1    2    0    0 -0.41303373547E+02 -0.53163828614E+02  0.33624761832E+02  0.18700916006E+03  0.17120000000E+03 0.  0.
        998    1    1    2    0    0 -0.53029845292E+01  0.40600100614E+00  0.13358041914E+04  0.13358522090E+04  0.10000000000E+02 0. -1.
</event>
<event>
 5    1  0.1338396E-008  0.3716066E+03  0.7957747E-01  0.3488540E+00
         13   -1    0    0    0    0  0.00000000000E+00  0.00000000000E+00  0.14999999963E+04  0.15000000000E+04  0.10566000000E+00 0. -1.
        994   -1    0    0    0    0 -0.00000000000E+00 -0.00000000000E+00  0.11368683772E-12  0.17120000000E+03  0.17120000000E+03 0.  0.
         13    1    1    2    0    0  0.28673902663E+02 -0.54850512100E+02  0.22356384177E+03  0.23197321802E+03  0.10566000000E+00 0. -1.
        994    1    1    2    0    0  0.21761165450E+02  0.54868490158E+02  0.20508932390E+02  0.18224751258E+03  0.17120000000E+03 0.  0.
        998    1    1    2    0    0 -0.50435068113E+02 -0.17978058019E-01  0.12559272221E+04  0.12569792694E+04  0.10000000000E+02 0. -1.
</event>
<event>
 5    1  0.1338396E-008  0.3770041E+03  0.7957747E-01  0.3464308E+00
         13   -1    0    0    0    0  0.00000000000E+00  0.00000000000E+00  0.14999999963E+04  0.15000000000E+04  0.10566000000E+00 0. -1.
        994   -1    0    0    0    0 -0.00000000000E+00 -0.00000000000E+00  0.11368683772E-12  0.17120000000E+03  0.17120000000E+03 0.  0.
         13    1    1    2    0    0 -0.58897449629E+01  0.14471211519E+02  0.18904959800E+02  0.24525776800E+02  0.10566000000E+00 0. -1.
        994    1    1    2    0    0  0.90913220989E+01 -0.14198479227E+02  0.66134646785E+01  0.17215524060E+03  0.17120000000E+03 0.  0.
        998    1    1    2    0    0 -0.32015771360E+01 -0.27273229280E+00  0.14744815718E+04  0.14745189826E+04  0.10000000000E+02 0. -1.
</event>
<event>
 5    1  0.1338396E-008  0.3787085E+03  0.7957747E-01  0.3456801E+00
         13   -1    0    0    0    0  0.00000000000E+00  0.00000000000E+00  0.14999999963E+04  0.15000000000E+04  0.10566000000E+00 0.  1.
        994   -1    0    0    0    0 -0.00000000000E+00 -0.00000000000E+00  0.11368683772E-12  0.17120000000E+03  0.17120000000E+03 0.  0.
         13    1    1    2    0    0 -0.68071073992E+02  0.35750301627E+02  0.30367802505E+03  0.31326044953E+03  0.10566000000E+00 0.  1.
        994    1    1    2    0    0 -0.44487897591E+02  0.29845317283E+01  0.22824125833E+02  0.17837730007E+03  0.17120000000E+03 0.  0.
        998    1    1    2    0    0  0.11255897158E+03 -0.38734833355E+02  0.11734978454E+04  0.11795622504E+04  0.10000000000E+02 0.  1.
</event>
<event>
 5    1  0.1338396E-008  0.3714840E+03  0.7957747E-01  0.3489098E+00
         13   -1    0    0    0    0  0.00000000000E+00  0.00000000000E+00  0.14999999963E+04  0.15000000000E+04  0.10566000000E+00 0. -1.
        994   -1    0    0    0    0 -0.00000000000E+00 -0.00000000000E+00  0.11368683772E-12  0.17120000000E+03  0.17120000000E+03 0.  0.
         13    1    1    2    0    0  0.50402143018E+02 -0.37347092519E+02  0.22843504811E+03  0.23689188190E+03  0.10566000000E+00 0. -1.
        994    1    1    2    0    0 -0.26474454875E+02  0.26133186232E+02  0.13270888300E+02  0.17569688859E+03  0.17120000000E+03 0.  0.
        998    1    1    2    0    0 -0.23927688143E+02  0.11213906287E+02  0.12582940599E+04  0.12586112295E+04  0.10000000000E+02 0. -1.
</event>
<event>
 5    1  0.1338396E-008  0.3685927E+03  0.7957747E-01  0.3502384E+00
         13   -1    0    0    0    0  0.00000000000E+00  0.00000000000E+00  0.14999999963E+04  0.15000000000E+04  0.10566000000E+00 0.  1.
        994   -1    0    0    0    0 -0.00000000000E+00 -0.00000000000E+00  0.11368683772E-12  0.17120000000E+03  0.17120000000E+03 0.  0.
         13    1    1    2    0    0  0.47571032736E+02  0.56366885847E+02  0.32426737109E+03  0.33255009862E+03  0.10566000000E+00 0.  1.
        994    1    1    2    0    0 -0.11310145665E+02 -0.10347014529E+02  0.10823361013E+02  0.17222533277E+03  0.17120000000E+03 0.  0.
        998    1    1    2    0    0 -0.36260887071E+02 -0.46019871318E+02  0.11649092642E+04  0.11664245686E+04  0.10000000000E+02 0.  1.
</event>
<event>
 5    1  0.1338396E-008  0.4183204E+03  0.7957747E-01  0.3299584E+00
         13   -1    0    0    0    0  0.00000000000E+00  0.00000000000E+00  0.14999999963E+04  0.15000000000E+04  0.10566000000E+00 0. -1.
        994   -1    0    0    0    0 -0.00000000000E+00 -0.00000000000E+00  0.11368683772E-12  0.17120000000E+03  0.17120000000E+03 0.  0.
         13    1    1    2    0    0 -0.53966341656E+02  0.11194137189E+01  0.32451449326E+02  0.62981956513E+02  0.10566000000E+00 0. -1.
        994    1    1    2    0    0 -0.13409776373E+03 -0.71166167474E+02  0.14587825354E+03  0.27136090081E+03  0.17120000000E+03 0.  0.
        998    1    1    2    0    0  0.18806410539E+03  0.70046753755E+02  0.13216702934E+04  0.13368571427E+04  0.10000000000E+02 0. -1.
</event>
<event>
 5    1  0.1338396E-008  0.3793551E+03  0.7957747E-01  0.3453971E+00
         13   -1    0    0    0    0  0.00000000000E+00  0.00000000000E+00  0.14999999963E+04  0.15000000000E+04  0.10566000000E+00 0. -1.
        994   -1    0    0    0    0 -0.00000000000E+00 -0.00000000000E+00  0.11368683772E-12  0.17120000000E+03  0.17120000000E+03 0.  0.
         13    1    1    2    0    0 -0.19204287100E+02  0.29979503118E+02  0.14641214214E+03  0.15067880336E+03  0.10566000000E+00 0. -1.
        994    1    1    2    0    0  0.49770967170E+01 -0.13845730464E+02  0.51845650231E+01  0.17190926519E+03  0.17120000000E+03 0.  0.
        998    1    1    2    0    0  0.14227190383E+02 -0.16133772654E+02  0.13484032891E+04  0.13486119315E+04  0.10000000000E+02 0. -1.
</event>
<event>
 5    1  0.1338396E-008  0.3825702E+03  0.7957747E-01  0.3440043E+00
         13   -1    0    0    0    0  0.00000000000E+00  0.00000000000E+00  0.14999999963E+04  0.15000000000E+04  0.10566000000E+00 0.  1.
        994   -1    0    0    0    0 -0.00000000000E+00 -0.00000000000E+00  0.11368683772E-12  0.17120000000E+03  0.17120000000E+03 0.  0.
         13    1    1    2    0    0 -0.60670241721E+01 -0.19842142475E+02  0.75636080063E+02  0.78430524489E+02  0.10566000000E+00 0.  1.
        994    1    1    2    0    0  0.17262196558E+01  0.11284646669E+02  0.32734357129E+01  0.17161141706E+03  0.17120000000E+03 0.  0.
        998    1    1    2    0    0  0.43408045164E+01  0.85574958055E+01  0.14210904805E+04  0.14211580584E+04  0.10000000000E+02 0.  1.
</event>
<event>
 5    1  0.1338396E-008  0.3765415E+03  0.7957747E-01  0.3466357E+00
         13   -1    0    0    0    0  0.00000000000E+00  0.00000000000E+00  0.14999999963E+04  0.15000000000E+04  0.10566000000E+00 0. -1.
        994   -1    0    0    0    0 -0.00000000000E+00 -0.00000000000E+00  0.11368683772E-12  0.17120000000E+03  0.17120000000E+03 0.  0.
         13    1    1    2    0    0 -0.38468886462E+02 -0.14513662052E+02  0.12756645260E+03  0.13402877528E+03  0.10566000000E+00 0. -1.
        994    1    1    2    0    0  0.44852179253E+02  0.98663697593E+01  0.13054780430E+02  0.17773275030E+03  0.17120000000E+03 0.  0.
        998    1    1    2    0    0 -0.63832927916E+01  0.46472922924E+01  0.13593787633E+04  0.13594384744E+04  0.10000000000E+02 0. -1.
</event>
<event>
 5    1  0.1338396E-008  0.3841255E+03  0.7957747E-01  0.3433390E+00
         13   -1    0    0    0    0  0.00000000000E+00  0.00000000000E+00  0.14999999963E+04  0.15000000000E+04  0.10566000000E+00 0. -1.
        994   -1    0    0    0    0 -0.00000000000E+00 -0.00000000000E+00  0.11368683772E-12  0.17120000000E+03  0.17120000000E+03 0.  0.
         13    1    1    2    0    0 -0.11615658376E+02  0.11720245547E+02  0.63171740469E+02  0.65291405507E+02  0.10566000000E+00 0. -1.
        994    1    1    2    0    0  0.10192500905E+02 -0.14402467851E+02  0.30923507939E+01  0.17213460079E+03  0.17120000000E+03 0.  0.
        998    1    1    2    0    0  0.14231574712E+01  0.26822223044E+01  0.14337359050E+04  0.14337739937E+04  0.10000000000E+02 0. -1.
</event>
<event>
 5    1  0.1338396E-008  0.3811582E+03  0.7957747E-01  0.3446131E+00
         13   -1    0    0    0    0  0.00000000000E+00  0.00000000000E+00  0.14999999963E+04  0.15000000000E+04  0.10566000000E+00 0. -1.
        994   -1    0    0    0    0 -0.00000000000E+00 -0.00000000000E+00  0.11368683772E-12  0.17120000000E+03  0.17120000000E+03 0.  0.
         13    1    1    2    0    0  0.29469013793E+02 -0.17471929037E+02  0.15225217901E+03  0.15605905375E+03  0.10566000000E+00 0. -1.
        994    1    1    2    0    0 -0.27315032173E+02  0.15274098803E+02  0.68181105731E+01  0.17417042145E+03  0.17120000000E+03 0.  0.
        998    1    1    2    0    0 -0.21539816198E+01  0.21978302341E+01  0.13409297067E+04  0.13409705248E+04  0.10000000000E+02 0. -1.
</event>
<event>
 5    1  0.1338396E-008  0.3824263E+03  0.7957747E-01  0.3440661E+00
         13   -1    0    0    0    0  0.00000000000E+00  0.00000000000E+00  0.14999999963E+04  0.15000000000E+04  0.10566000000E+00 0.  1.
        994   -1    0    0    0    0 -0.00000000000E+00 -0.00000000000E+00  0.11368683772E-12  0.17120000000E+03  0.17120000000E+03 0.  0.
         13    1    1    2    0    0 -0.10116522247E+02 -0.57246583069E+01  0.22317931595E+02  0.25163802770E+02  0.10566000000E+00 0.  1.
        994    1    1    2    0    0  0.88062167278E+00  0.79743006813E+01  0.31268145083E+01  0.17141639926E+03  0.17120000000E+03 0.  0.
        998    1    1    2    0    0  0.92359005744E+01 -0.22496423744E+01  0.14745552502E+04  0.14746197980E+04  0.10000000000E+02 0.  1.
</event>
<event>
 5    1  0.1338396E-008  0.3851580E+03  0.7957747E-01  0.3429002E+00
         13   -1    0    0    0    0  0.00000000000E+00  0.00000000000E+00  0.14999999963E+04  0.15000000000E+04  0.10566000000E+00 0.  1.
        994   -1    0    0    0    0 -0.00000000000E+00 -0.00000000000E+00  0.11368683772E-12  0.17120000000E+03  0.17120000000E+03 0.  0.
         13    1    1    2    0    0 -0.90973193404E+01 -0.10338239156E+02  0.60073285565E+02  0.61631576409E+02  0.10566000000E+00 0.  1.
        994    1    1    2    0    0  0.11509719826E+02  0.60267605260E+01  0.21067440028E+01  0.17170519463E+03  0.17120000000E+03 0.  0.
        998    1    1    2    0    0 -0.24124004858E+01  0.43114786299E+01  0.14378199667E+04  0.14378632290E+04  0.10000000000E+02 0.  1.
</event>
<event>
 5    1  0.1338396E-008  0.3794143E+03  0.7957747E-01  0.3453713E+00
         13   -1    0    0    0    0  0.00000000000E+00  0.00000000000E+00  0.14999999963E+04  0.15000000000E+04  0.10566000000E+00 0. -1.
        994   -1    0    0    0    0 -0.00000000000E+00 -0.00000000000E+00  0.11368683772E-12  0.17120000000E+03  0.17120000000E+03 0.  0.
         13    1    1    2    0    0  0.22175557448E+02 -0.28804784644E+02  0.11758172767E+03  0.12307292478E+03  0.10566000000E+00 0. -1.
        994    1    1    2    0    0 -0.22134591410E+02  0.65117665716E+02  0.20439058335E+02  0.18562716835E+03  0.17120000000E+03 0.  0.
        998    1    1    2    0    0 -0.40966038134E-01 -0.36312881072E+02  0.13619792103E+04  0.13624999069E+04  0.10000000000E+02 0. -1.
</event>
<event>
 5    1  0.1338396E-008  0.3839211E+03  0.7957747E-01  0.3434261E+00
         13   -1    0    0    0    0  0.00000000000E+00  0.00000000000E+00  0.14999999963E+04  0.15000000000E+04  0.10566000000E+00 0.  1.
        994   -1    0    0    0    0 -0.00000000000E+00 -0.00000000000E+00  0.11368683772E-12  0.17120000000E+03  0.17120000000E+03 0.  0.
         13    1    1    2    0    0 -0.22073015745E+02  0.11911288518E+02  0.13610215653E+03  0.13839402081E+03  0.10566000000E+00 0.  1.
        994    1    1    2    0    0  0.23395295138E+02 -0.50071143099E+01  0.40581027942E+01  0.17291130451E+03  0.17120000000E+03 0.  0.
        998    1    1    2    0    0 -0.13222793934E+01 -0.69041742079E+01  0.13598397370E+04  0.13598946747E+04  0.10000000000E+02 0.  1.
</event>
<event>
 5    1  0.1338396E-008  0.3847543E+03  0.7957747E-01  0.3430715E+00
         13   -1    0    0    0    0  0.00000000000E+00  0.00000000000E+00  0.14999999963E+04  0.15000000000E+04  0.10566000000E+00 0. -1.
        994   -1    0    0    0    0 -0.00000000000E+00 -0.00000000000E+00  0.11368683772E-12  0.17120000000E+03  0.17120000000E+03 0.  0.
         13    1    1    2    0    0  0.57484518197E+01 -0.14697926987E+02  0.70764339905E+02  0.72502942853E+02  0.10566000000E+00 0. -1.
        994    1    1    2    0    0 -0.59755317637E+01  0.92421240978E+01  0.21509505814E+01  0.17156686867E+03  0.17120000000E+03 0.  0.
        998    1    1    2    0    0  0.22707994409E+00  0.54558028895E+01  0.14270847058E+04  0.14271301885E+04  0.10000000000E+02 0. -1.
</event>
<event>
 5    1  0.1338396E-008  0.3839629E+03  0.7957747E-01  0.3434083E+00
         13   -1    0    0    0    0  0.00000000000E+00  0.00000000000E+00  0.14999999963E+04  0.15000000000E+04  0.10566000000E+00 0.  1.
        994   -1    0    0    0    0 -0.00000000000E+00 -0.00000000000E+00  0.11368683772E-12  0.17120000000E+03  0.17120000000E+03 0.  0.
         13    1    1    2    0    0 -0.67740947116E+01  0.20306883673E+02  0.99095722085E+02  0.10138161166E+03  0.10566000000E+00 0.  1.
        994    1    1    2    0    0  0.13268716890E+02 -0.20680290961E+02  0.41406408620E+01  0.17300380975E+03  0.17120000000E+03 0.  0.
        998    1    1    2    0    0 -0.64946221789E+01  0.37340728811E+00  0.13967636333E+04  0.13968145786E+04  0.10000000000E+02 0.  1.
</event>
<event>
 5    1  0.1338396E-008  0.3799572E+03  0.7957747E-01  0.3451345E+00
         13   -1    0    0    0    0  0.00000000000E+00  0.00000000000E+00  0.14999999963E+04  0.15000000000E+04  0.10566000000E+00 0. -1.
        994   -1    0    0    0    0 -0.00000000000E+00 -0.00000000000E+00  0.11368683772E-12  0.17120000000E+03  0.17120000000E+03 0.  0.
         13    1    1    2    0    0 -0.48727723656E+01 -0.30918136371E+02  0.10316821322E+03  0.10781171759E+03  0.10566000000E+00 0. -1.
        994    1    1    2    0    0  0.65587556471E+01  0.41961219833E+02  0.10209096364E+02  0.17668454062E+03  0.17120000000E+03 0.  0.
        998    1    1    2    0    0 -0.16859832815E+01 -0.11043083463E+02  0.13866226867E+04  0.13867037418E+04  0.10000000000E+02 0. -1.
</event>
<event>
 5    1  0.1338396E-008  0.3830748E+03  0.7957747E-01  0.3437878E+00
         13   -1    0    0    0    0  0.00000000000E+00  0.00000000000E+00  0.14999999963E+04  0.15000000000E+04  0.10566000000E+00 0.  1.
        994   -1    0    0    0    0 -0.00000000000E+00 -0.00000000000E+00  0.11368683772E-12  0.17120000000E+03  0.17120000000E+03 0.  0.
         13    1    1    2    0    0 -0.23463893256E+02  0.75351101785E+01  0.12595006161E+03  0.12833846406E+03  0.10566000000E+00 0.  1.
        994    1    1    2    0    0  0.11718564797E+02  0.19965484672E+02  0.43645887955E+01  0.17281329513E+03  0.17120000000E+03 0.  0.
        998    1    1    2    0    0  0.11745328459E+02 -0.27500594850E+02  0.13696853459E+04  0.13700482408E+04  0.10000000000E+02 0.  1.
</event>
<event>
 5    1  0.1338396E-008  0.3778978E+03  0.7957747E-01  0.3460363E+00
         13   -1    0    0    0    0  0.00000000000E+00  0.00000000000E+00  0.14999999963E+04  0.15000000000E+04  0.10566000000E+00 0.  1.
        994   -1    0    0    0    0 -0.00000000000E+00 -0.00000000000E+00  0.11368683772E-12  0.17120000000E+03  0.17120000000E+03 0.  0.
         13    1    1    2    0    0 -0.37097732740E+01 -0.24020240035E+02  0.54451509020E+02  0.59629794128E+02  0.10566000000E+00 0.  1.
        994    1    1    2    0    0 -0.72923435014E+01  0.19102027998E+02  0.66066874421E+01  0.17254319478E+03  0.17120000000E+03 0.  0.
        998    1    1    2    0    0  0.11002116775E+02  0.49182120361E+01  0.14389417998E+04  0.14390270111E+04  0.10000000000E+02 0.  1.
</event>
<event>
 5    1  0.1338396E-008  0.3835548E+03  0.7957747E-01  0.3435825E+00
         13   -1    0    0    0    0  0.00000000000E+00  0.00000000000E+00  0.14999999963E+04  0.15000000000E+04  0.10566000000E+00 0. -1.
        994   -1    0    0    0    0 -0.00000000000E+00 -0.00000000000E+00  0.11368683772E-12  0.17120000000E+03  0.17120000000E+03 0.  0.
         13    1    1    2    0    0 -0.68524805942E+01  0.86997818720E+01  0.25000414926E+02  0.27343639214E+02  0.10566000000E+00 0. -1.
        994    1    1    2    0    0  0.77056487959E+01 -0.84421153313E+01  0.27811264783E+01  0.17160367420E+03  0.17120000000E+03 0.  0.
        998    1    1    2    0    0 -0.85316820168E+00 -0.25766654076E+00  0.14722184549E+04  0.14722526866E+04  0.10000000000E+02 0. -1.
</event>
<event>
 5    1  0.1338396E-008  0.3851409E+03  0.7957747E-01  0.3429075E+00
         13   -1    0    0    0    0  0.00000000000E+00  0.00000000000E+00  0.14999999963E+04  0.15000000000E+04  0.10566000000E+00 0.  1.
        994   -1    0    0    0    0 -0.00000000000E+00 -0.00000000000E+00  0.11368683772E-12  0.17120000000E+03  0.17120000000E+03 0.  0.
         13    1    1    2    0    0 -0.32588225274E+01 -0.17527534083E+02  0.96535748742E+02  0.98168204244E+02  0.10566000000E+00 0.  1.
        994    1    1    2    0    0  0.77638010431E+01  0.17394878492E+02  0.27539004057E+01  0.17227850235E+03  0.17120000000E+03 0.  0.
        998    1    1    2    0    0 -0.45049785158E+01  0.13265559060E+00  0.14007103471E+04  0.14007532934E+04  0.10000000000E+02 0.  1.
</event>
<event>
 5    1  0.1338396E-008  0.3820457E+03  0.7957747E-01  0.3442299E+00
         13   -1    0    0    0    0  0.00000000000E+00  0.00000000000E+00  0.14999999963E+04  0.15000000000E+04  0.10566000000E+00 0.  1.
        994   -1    0    0    0    0 -0.00000000000E+00 -0.00000000000E+00  0.11368683772E-12  0.17120000000E+03  0.17120000000E+03 0.  0.
         13    1    1    2    0    0  0.74697905817E+00 -0.14552388540E+02  0.32144576031E+02  0.35293270211E+02  0.10566000000E+00 0.  1.
        994    1    1    2    0    0  0.69347459984E+01  0.18453829411E+02  0.43955573572E+01  0.17238734132E+03  0.17120000000E+03 0.  0.
        998    1    1    2    0    0 -0.76817250566E+01 -0.39014408711E+01  0.14634598629E+04  0.14635193885E+04  0.10000000000E+02 0.  1.
</event>
<event>
 5    1  0.1338396E-008  0.3823777E+03  0.7957747E-01  0.3440870E+00
         13   -1    0    0    0    0  0.00000000000E+00  0.00000000000E+00  0.14999999963E+04  0.15000000000E+04  0.10566000000E+00 0. -1.
        994   -1    0    0    0    0 -0.00000000000E+00 -0.00000000000E+00  0.11368683772E-12  0.17120000000E+03  0.17120000000E+03 0.  0.
         13    1    1    2    0    0 -0.72503186681E+01 -0.14740222890E+02  0.45455684681E+02  0.48332925894E+02  0.10566000000E+00 0. -1.
        994    1    1    2    0    0 -0.40236476061E+01  0.11119600442E+02  0.34016230441E+01  0.17164162168E+03  0.17120000000E+03 0.  0.
        998    1    1    2    0    0  0.11273966274E+02  0.36206224479E+01  0.14511426886E+04  0.14512254524E+04  0.10000000000E+02 0. -1.
</event>
<event>
 5    1  0.1338396E-008  0.3786034E+03  0.7957747E-01  0.3457262E+00
         13   -1    0    0    0    0  0.00000000000E+00  0.00000000000E+00  0.14999999963E+04  0.15000000000E+04  0.10566000000E+00 0.  1.
        994   -1    0    0    0    0 -0.00000000000E+00 -0.00000000000E+00  0.11368683772E-12  0.17120000000E+03  0.17120000000E+03 0.  0.
         13    1    1    2    0    0  0.15525323074E+02 -0.81921349768E+01  0.29228325547E+02  0.34094763680E+02  0.10566000000E+00 0.  1.
        994    1    1    2    0    0 -0.17189649278E+02  0.91272476394E+01  0.61129489028E+01  0.17241113316E+03  0.17120000000E+03 0.  0.
        998    1    1    2    0    0  0.16643262046E+01 -0.93511266261E+00  0.14646587218E+04  0.14646941032E+04  0.10000000000E+02 0.  1.
</event>
<event>
 5    1  0.1338396E-008  0.3809193E+03  0.7957747E-01  0.3447166E+00
         13   -1    0    0    0    0  0.00000000000E+00  0.00000000000E+00  0.14999999963E+04  0.15000000000E+04  0.10566000000E+00 0. -1.
        994   -1    0    0    0    0 -0.00000000000E+00 -0.00000000000E+00  0.11368683772E-12  0.17120000000E+03  0.17120000000E+03 0.  0.
         13    1    1    2    0    0  0.40831621078E+01 -0.45892839886E+02  0.26175842036E+03  0.26578244253E+03  0.10566000000E+00 0. -1.
        994    1    1    2    0    0 -0.14194127124E+02  0.36080065118E+02  0.86961020573E+01  0.17575069427E+03  0.17120000000E+03 0.  0.
        998    1    1    2    0    0  0.10110965016E+02  0.98127747677E+01  0.12295454739E+04  0.12296668632E+04  0.10000000000E+02 0. -1.
</event>
<event>
 5    1  0.1338396E-008  0.3757068E+03  0.7957747E-01  0.3470068E+00
         13   -1    0    0    0    0  0.00000000000E+00  0.00000000000E+00  0.14999999963E+04  0.15000000000E+04  0.10566000000E+00 0. -1.
        994   -1    0    0    0    0 -0.00000000000E+00 -0.00000000000E+00  0.11368683772E-12  0.17120000000E+03  0.17120000000E+03 0.  0.
         13    1    1    2    0    0  0.18146971326E+02  0.76389360574E+02  0.41156871088E+03  0.41899100458E+03  0.10566000000E+00 0. -1.
        994    1    1    2    0    0 -0.20075963675E+02 -0.59888103364E+02  0.19967791024E+02  0.18356955608E+03  0.17120000000E+03 0.  0.
        998    1    1    2    0    0  0.19289923495E+01 -0.16501257210E+02  0.10684634944E+04  0.10686394393E+04  0.10000000000E+02 0. -1.
</event>
<event>
 5    1  0.1338396E-008  0.3739194E+03  0.7957747E-01  0.3478070E+00
         13   -1    0    0    0    0  0.00000000000E+00  0.00000000000E+00  0.14999999963E+04  0.15000000000E+04  0.10566000000E+00 0.  1.
        994   -1    0    0    0    0 -0.00000000000E+00 -0.00000000000E+00  0.11368683772E-12  0.17120000000E+03  0.17120000000E+03 0.  0.
         13    1    1    2    0    0  0.10486585266E+02  0.88411367393E+01  0.96042464943E+01  0.16744756915E+02  0.10566000000E+00 0.  1.
        994    1    1    2    0    0 -0.11045931177E+02 -0.12446792611E+02  0.81800318928E+01  0.17220130128E+03  0.17120000000E+03 0.  0.
        998    1    1    2    0    0  0.55934591112E+00  0.36056558717E+01  0.14822157179E+04  0.14822539418E+04  0.10000000000E+02 0.  1.
</event>
<event>
 5    1  0.1338396E-008  0.3821006E+03  0.7957747E-01  0.3442063E+00
         13   -1    0    0    0    0  0.00000000000E+00  0.00000000000E+00  0.14999999963E+04  0.15000000000E+04  0.10566000000E+00 0.  1.
        994   -1    0    0    0    0 -0.00000000000E+00 -0.00000000000E+00  0.11368683772E-12  0.17120000000E+03  0.17120000000E+03 0.  0.
         13    1    1    2    0    0 -0.11911893267E+02 -0.13790877679E+01  0.22043446872E+02  0.25094218424E+02  0.10566000000E+00 0.  1.
        994    1    1    2    0    0  0.10277278381E+02  0.15219624424E+01  0.34349341746E+01  0.17154934449E+03  0.17120000000E+03 0.  0.
        998    1    1    2    0    0  0.16346148854E+01 -0.14287467444E+00  0.14745216152E+04  0.14745564371E+04  0.10000000000E+02 0.  1.
</event>
<event>
 5    1  0.1338396E-008  0.3922421E+03  0.7957747E-01  0.3399527E+00
         13   -1    0    0    0    0  0.00000000000E+00  0.00000000000E+00  0.14999999963E+04  0.15000000000E+04  0.10566000000E+00 0.  1.
        994   -1    0    0    0    0 -0.00000000000E+00 -0.00000000000E+00  0.11368683772E-12  0.17120000000E+03  0.17120000000E+03 0.  0.
         13    1    1    2    0    0 -0.32358905520E+02 -0.91278698310E+02  0.49542649087E+03  0.50480324737E+03  0.10566000000E+00 0.  1.
        994    1    1    2    0    0 -0.70397382402E+02 -0.43639244298E+02  0.49757005775E+02  0.19658426874E+03  0.17120000000E+03 0.  0.
        998    1    1    2    0    0  0.10275628792E+03  0.13491794261E+03  0.95481649963E+03  0.96981248389E+03  0.10000000000E+02 0.  1.
</event>
<event>
 5    1  0.1338396E-008  0.3760597E+03  0.7957747E-01  0.3468497E+00
         13   -1    0    0    0    0  0.00000000000E+00  0.00000000000E+00  0.14999999963E+04  0.15000000000E+04  0.10566000000E+00 0. -1.
        994   -1    0    0    0    0 -0.00000000000E+00 -0.00000000000E+00  0.11368683772E-12  0.17120000000E+03  0.17120000000E+03 0.  0.
         13    1    1    2    0    0  0.38690012728E+01 -0.69911996689E+02  0.14849484698E+03  0.16417486773E+03  0.10566000000E+00 0. -1.
        994    1    1    2    0    0  0.39756990817E+01  0.76224779397E+02  0.35295102863E+02  0.19073858410E+03  0.17120000000E+03 0.  0.
        998    1    1    2    0    0 -0.78447003546E+01 -0.63127827079E+01  0.13162100464E+04  0.13162865482E+04  0.10000000000E+02 0. -1.
</event>
<event>
 5    1  0.1338396E-008  0.3734992E+03  0.7957747E-01  0.3479962E+00
         13   -1    0    0    0    0  0.00000000000E+00  0.00000000000E+00  0.14999999963E+04  0.15000000000E+04  0.10566000000E+00 0. -1.
        994   -1    0    0    0    0 -0.00000000000E+00 -0.00000000000E+00  0.11368683772E-12  0.17120000000E+03  0.17120000000E+03 0.  0.
         13    1    1    2    0    0 -0.68803866989E+00 -0.14686473114E+02  0.11115264083E+02  0.18431661602E+02  0.10566000000E+00 0. -1.
        994    1    1    2    0    0 -0.37619813072E+01  0.13422694420E+02  0.81155896736E+01  0.17195820430E+03  0.17120000000E+03 0.  0.
        998    1    1    2    0    0  0.44500199771E+01  0.12637786937E+01  0.14807691425E+04  0.14808101341E+04  0.10000000000E+02 0. -1.
</event>
<event>
 5    1  0.1338396E-008  0.3791661E+03  0.7957747E-01  0.3454798E+00
         13   -1    0    0    0    0  0.00000000000E+00  0.00000000000E+00  0.14999999963E+04  0.15000000000E+04  0.10566000000E+00 0. -1.
        994   -1    0    0    0    0 -0.00000000000E+00 -0.00000000000E+00  0.11368683772E-12  0.17120000000E+03  0.17120000000E+03 0.  0.
         13    1    1    2    0    0  0.20646676994E+02  0.14853464567E+02  0.70677741754E+02  0.75115011975E+02  0.10566000000E+00 0. -1.
        994    1    1    2    0    0 -0.61721211510E+01 -0.11230407651E+02  0.51053616726E+01  0.17175483065E+03  0.17120000000E+03 0.  0.
        998    1    1    2    0    0 -0.14474555843E+02 -0.36230569159E+01  0.14242168929E+04  0.14243301574E+04  0.10000000000E+02 0. -1.
</event>
<event>
 5    1  0.1338396E-008  0.3848146E+03  0.7957747E-01  0.3430459E+00
         13   -1    0    0    0    0  0.00000000000E+00  0.00000000000E+00  0.14999999963E+04  0.15000000000E+04  0.10566000000E+00 0. -1.
        994   -1    0    0    0    0 -0.00000000000E+00 -0.00000000000E+00  0.11368683772E-12  0.17120000000E+03  0.17120000000E+03 0.  0.
         13    1    1    2    0    0 -0.10301503661E+02 -0.55527809204E+01  0.40263197391E+02  0.41929590766E+02  0.10566000000E+00 0. -1.
        994    1    1    2    0    0  0.50117517000E+00  0.81223808566E+01  0.19401772183E+01  0.17140428389E+03  0.17120000000E+03 0.  0.
        998    1    1    2    0    0  0.98003284908E+01 -0.25695999362E+01  0.14577966217E+04  0.14578661253E+04  0.10000000000E+02 0. -1.
</event>
<event>
 5    1  0.1338396E-008  0.3796566E+03  0.7957747E-01  0.3452655E+00
         13   -1    0    0    0    0  0.00000000000E+00  0.00000000000E+00  0.14999999963E+04  0.15000000000E+04  0.10566000000E+00 0. -1.
        994   -1    0    0    0    0 -0.00000000000E+00 -0.00000000000E+00  0.11368683772E-12  0.17120000000E+03  0.17120000000E+03 0.  0.
         13    1    1    2    0    0 -0.22285783515E+02 -0.71575369734E+01  0.58917279293E+02  0.63396714786E+02  0.10566000000E+00 0. -1.
        994    1    1    2    0    0  0.27669523646E+02  0.54216758773E+01  0.69717666192E+01  0.17364631478E+03  0.17120000000E+03 0.  0.
        998    1    1    2    0    0 -0.53837401307E+01  0.17358610961E+01  0.14341109504E+04  0.14341569704E+04  0.10000000000E+02 0. -1.
</event>
<event>
 5    1  0.1338396E-008  0.3851746E+03  0.7957747E-01  0.3428932E+00
         13   -1    0    0    0    0  0.00000000000E+00  0.00000000000E+00  0.14999999963E+04  0.15000000000E+04  0.10566000000E+00 0.  1.
        994   -1    0    0    0    0 -0.00000000000E+00 -0.00000000000E+00  0.11368683772E-12  0.17120000000E+03  0.17120000000E+03 0.  0.
         13    1    1    2    0    0  0.13727838080E+02  0.93437058026E+00  0.62836020227E+02  0.64324981063E+02  0.10566000000E+00 0.  1.
        994    1    1    2    0    0 -0.53422695450E+01 -0.40611141552E+01  0.16915050226E+01  0.17133981931E+03  0.17120000000E+03 0.  0.
        998    1    1    2    0    0 -0.83855685353E+01  0.31267435749E+01  0.14354724710E+04  0.14355351996E+04  0.10000000000E+02 0.  1.
</event>
<event>
 5    1  0.1338396E-008  0.3762085E+03  0.7957747E-01  0.3467836E+00
         13   -1    0    0    0    0  0.00000000000E+00  0.00000000000E+00  0.14999999963E+04  0.15000000000E+04  0.10566000000E+00 0. -1.
        994   -1    0    0    0    0 -0.00000000000E+00 -0.00000000000E+00  0.11368683772E-12  0.17120000000E+03  0.17120000000E+03 0.  0.
         13    1    1    2    0    0 -0.18666469746E+02 -0.29119139907E+02  0.36517045531E+02  0.50297785041E+02  0.10566000000E+00 0. -1.
        994    1    1    2    0    0 -0.10571127650E+01  0.27765982464E+02  0.17024114057E+02  0.17427371497E+03  0.17120000000E+03 0.  0.
        998    1    1    2    0    0  0.19723582511E+02  0.13531574439E+01  0.14464588367E+04  0.14466285000E+04  0.10000000000E+02 0. -1.
</event>
<event>
 5    1  0.1338396E-008  0.3757743E+03  0.7957747E-01  0.3469767E+00
         13   -1    0    0    0    0  0.00000000000E+00  0.00000000000E+00  0.14999999963E+04  0.15000000000E+04  0.10566000000E+00 0.  1.
        994   -1    0    0    0    0 -0.00000000000E+00 -0.00000000000E+00  0.11368683772E-12  0.17120000000E+03  0.17120000000E+03 0.  0.
         13    1    1    2    0    0  0.26944377399E+02  0.16823830435E+01  0.57447036707E+02  0.63474428525E+02  0.10566000000E+00 0.  1.
        994    1    1    2    0    0 -0.79400470561E+01 -0.50977299576E+00  0.64962837389E+01  0.17150785964E+03  0.17120000000E+03 0.  0.
        998    1    1    2    0    0 -0.19004330343E+02 -0.11726100477E+01  0.14360566758E+04  0.14362177118E+04  0.10000000000E+02 0.  1.
</event>
<event>
 5    1  0.1338396E-008  0.3784488E+03  0.7957747E-01  0.3457941E+00
         13   -1    0    0    0    0  0.00000000000E+00  0.00000000000E+00  0.14999999963E+04  0.15000000000E+04  0.10566000000E+00 0. -1.
        994   -1    0    0    0    0 -0.00000000000E+00 -0.00000000000E+00  0.11368683772E-12  0.17120000000E+03  0.17120000000E+03 0.  0.
         13    1    1    2    0    0  0.39052939785E+02 -0.10008582156E+01  0.19391444142E+03  0.19781040311E+03  0.10566000000E+00 0. -1.
        994    1    1    2    0    0  0.10537606146E+02 -0.60210607684E+01  0.54133256112E+01  0.17171499180E+03  0.17120000000E+03 0.  0.
        998    1    1    2    0    0 -0.49590545931E+02  0.70219189839E+01  0.13006722292E+04  0.13016746051E+04  0.10000000000E+02 0. -1.
</event>
<event>
 5    1  0.1338396E-008  0.3846644E+03  0.7957747E-01  0.3431097E+00
         13   -1    0    0    0    0  0.00000000000E+00  0.00000000000E+00  0.14999999963E+04  0.15000000000E+04  0.10566000000E+00 0.  1.
        994   -1    0    0    0    0 -0.00000000000E+00 -0.00000000000E+00  0.11368683772E-12  0.17120000000E+03  0.17120000000E+03 0.  0.
         13    1    1    2    0    0  0.16482003271E+02 -0.79060810822E+01  0.96455165342E+02  0.98172158146E+02  0.10566000000E+00 0.  1.
        994    1    1    2    0    0 -0.74792869671E+01 -0.42565367338E+00  0.19816222041E+01  0.17137528334E+03  0.17120000000E+03 0.  0.
        998    1    1    2    0    0 -0.90027163041E+01  0.83317347555E+01  0.14015632087E+04  0.14016525585E+04  0.10000000000E+02 0.  1.
</event>
<event>
 5    1  0.1338396E-008  0.3843844E+03  0.7957747E-01  0.3432287E+00
         13   -1    0    0    0    0  0.00000000000E+00  0.00000000000E+00  0.14999999963E+04  0.15000000000E+04  0.10566000000E+00 0. -1.
        994   -1    0    0    0    0 -0.00000000000E+00 -0.00000000000E+00  0.11368683772E-12  0.17120000000E+03  0.17120000000E+03 0.  0.
         13    1    1    2    0    0 -0.47708567149E+01 -0.15129256978E+02  0.64784925379E+02  0.66698974587E+02  0.10566000000E+00 0. -1.
        994    1    1    2    0    0 -0.21067703195E+01  0.11377417341E+02  0.23773983840E+01  0.17160703986E+03  0.17120000000E+03 0.  0.
        998    1    1    2    0    0  0.68776270344E+01  0.37518396375E+01  0.14328376725E+04  0.14328939856E+04  0.10000000000E+02 0.  1.
</event>
<event>
 5    1  0.1338396E-008  0.3828768E+03  0.7957747E-01  0.3438727E+00
         13   -1    0    0    0    0  0.00000000000E+00  0.00000000000E+00  0.14999999963E+04  0.15000000000E+04  0.10566000000E+00 0.  1.
        994   -1    0    0    0    0 -0.00000000000E+00 -0.00000000000E+00  0.11368683772E-12  0.17120000000E+03  0.17120000000E+03 0.  0.
         13    1    1    2    0    0  0.19392711687E+02  0.19802181855E+02  0.12885834896E+03  0.13180549660E+03  0.10566000000E+00 0.  1.
        994    1    1    2    0    0 -0.22825379036E+02 -0.20607795747E+02  0.58258412739E+01  0.17403752354E+03  0.17120000000E+03 0.  0.
        998    1    1    2    0    0  0.34326673493E+01  0.80561389207E+00  0.13653158060E+04  0.13653569799E+04  0.10000000000E+02 0.  1.
</event>
<event>
 5    1  0.1338396E-008  0.3814385E+03  0.7957747E-01  0.3444919E+00
         13   -1    0    0    0    0  0.00000000000E+00  0.00000000000E+00  0.14999999963E+04  0.15000000000E+04  0.10566000000E+00 0. -1.
        994   -1    0    0    0    0 -0.00000000000E+00 -0.00000000000E+00  0.11368683772E-12  0.17120000000E+03  0.17120000000E+03 0.  0.
         13    1    1    2    0    0  0.28051100296E+02  0.26364134865E+02  0.22764670845E+03  0.23087868431E+03  0.10566000000E+00 0. -1.
        994    1    1    2    0    0 -0.35513869356E+01 -0.20457527137E+02  0.48444810454E+01  0.17252255436E+03  0.17120000000E+03 0.  0.
        998    1    1    2    0    0 -0.24499713361E+02 -0.59066077277E+01  0.12675088068E+04  0.12677987613E+04  0.10000000000E+02 0. -1.
</event>
<event>
 5    1  0.1338396E-008  0.3819810E+03  0.7957747E-01  0.3442578E+00
         13   -1    0    0    0    0  0.00000000000E+00  0.00000000000E+00  0.14999999963E+04  0.15000000000E+04  0.10566000000E+00 0.  1.
        994   -1    0    0    0    0 -0.00000000000E+00 -0.00000000000E+00  0.11368683772E-12  0.17120000000E+03  0.17120000000E+03 0.  0.
         13    1    1    2    0    0 -0.43830549467E+02  0.33781463911E+01  0.26593625578E+03  0.26954523228E+03  0.10566000000E+00 0.  1.
        994    1    1    2    0    0  0.40196554609E+02 -0.15721966443E+00  0.85214320405E+01  0.17606204169E+03  0.17120000000E+03 0.  0.
        998    1    1    2    0    0  0.36339948579E+01 -0.32209267266E+01  0.12255423085E+04  0.12255927260E+04  0.10000000000E+02 0.  1.
</event>
<event>
 5    1  0.1338396E-008  0.3794467E+03  0.7957747E-01  0.3453571E+00
         13   -1    0    0    0    0  0.00000000000E+00  0.00000000000E+00  0.14999999963E+04  0.15000000000E+04  0.10566000000E+00 0. -1.
        994   -1    0    0    0    0 -0.00000000000E+00 -0.00000000000E+00  0.11368683772E-12  0.17120000000E+03  0.17120000000E+03 0.  0.
         13    1    1    2    0    0  0.92753323901E+01 -0.45764325514E+02  0.23327485901E+03  0.23790245121E+03  0.10566000000E+00 0. -1.
        994    1    1    2    0    0  0.11974785126E+02  0.37031512396E+02  0.95023446363E+01  0.17582509190E+03  0.17120000000E+03 0.  0.
        998    1    1    2    0    0 -0.21250117516E+02  0.87328131186E+01  0.12572227926E+04  0.12574724569E+04  0.10000000000E+02 0. -1.
</event>
<event>
 5    1  0.1338396E-008  0.3844798E+03  0.7957747E-01  0.3431881E+00
         13   -1    0    0    0    0  0.00000000000E+00  0.00000000000E+00  0.14999999963E+04  0.15000000000E+04  0.10566000000E+00 0. -1.
        994   -1    0    0    0    0 -0.00000000000E+00 -0.00000000000E+00  0.11368683772E-12  0.17120000000E+03  0.17120000000E+03 0.  0.
         13    1    1    2    0    0 -0.13305841267E+02  0.35984097960E+01  0.51979417685E+02  0.53776063372E+02  0.10566000000E+00 0. -1.
        994    1    1    2    0    0  0.30408505278E+01  0.36460996273E+01  0.19628633334E+01  0.17127706690E+03  0.17120000000E+03 0.  0.
        998    1    1    2    0    0  0.10264990739E+02 -0.72445094233E+01  0.14460577153E+04  0.14461468697E+04  0.10000000000E+02 0. -1.
</event>
<event>
 5    1  0.1338396E-008  0.3708263E+03  0.7957747E-01  0.3492102E+00
         13   -1    0    0    0    0  0.00000000000E+00  0.00000000000E+00  0.14999999963E+04  0.15000000000E+04  0.10566000000E+00 0.  1.
        994   -1    0    0    0    0 -0.00000000000E+00 -0.00000000000E+00  0.11368683772E-12  0.17120000000E+03  0.17120000000E+03 0.  0.
         13    1    1    2    0    0 -0.43972582186E+01 -0.25614335861E+02  0.24500815187E+02  0.35717379387E+02  0.10566000000E+00 0.  1.
        994    1    1    2    0    0  0.51007860532E+01  0.25977072314E+02  0.13837465253E+02  0.17378648322E+03  0.17120000000E+03 0.  0.
        998    1    1    2    0    0 -0.70352783465E+00 -0.36273645376E+00  0.14616617158E+04  0.14616961374E+04  0.10000000000E+02 0.  1.
</event>
<event>
 5    1  0.1338396E-008  0.3708135E+03  0.7957747E-01  0.3492160E+00
         13   -1    0    0    0    0  0.00000000000E+00  0.00000000000E+00  0.14999999963E+04  0.15000000000E+04  0.10566000000E+00 0.  1.
        994   -1    0    0    0    0 -0.00000000000E+00 -0.00000000000E+00  0.11368683772E-12  0.17120000000E+03  0.17120000000E+03 0.  0.
         13    1    1    2    0    0  0.26440002683E+02  0.48231378716E+02  0.11196410983E+03  0.12474499064E+03  0.10566000000E+00 0.  1.
        994    1    1    2    0    0 -0.69040737680E+02 -0.45562140953E+02  0.35761971601E+02  0.19347064573E+03  0.17120000000E+03 0.  0.
        998    1    1    2    0    0  0.42600734997E+02 -0.26692377630E+01  0.13522739148E+04  0.13529843636E+04  0.10000000000E+02 0.  1.
</event>
<event>
 5    1  0.1338396E-008  0.3769693E+03  0.7957747E-01  0.3464462E+00
         13   -1    0    0    0    0  0.00000000000E+00  0.00000000000E+00  0.14999999963E+04  0.15000000000E+04  0.10566000000E+00 0.  1.
        994   -1    0    0    0    0 -0.00000000000E+00 -0.00000000000E+00  0.11368683772E-12  0.17120000000E+03  0.17120000000E+03 0.  0.
         13    1    1    2    0    0  0.27469957276E+02  0.56067449920E+02  0.11943341663E+03  0.13476835558E+03  0.10566000000E+00 0.  1.
        994    1    1    2    0    0 -0.62492527302E+01 -0.63601769459E+02  0.29458084215E+02  0.18509850611E+03  0.17120000000E+03 0.  0.
        998    1    1    2    0    0 -0.21220704545E+02  0.75343195391E+01  0.13511084954E+04  0.13513331383E+04  0.10000000000E+02 0.  1.
</event>
<event>
 5    1  0.1338396E-008  0.3728339E+03  0.7957747E-01  0.3482967E+00
         13   -1    0    0    0    0  0.00000000000E+00  0.00000000000E+00  0.14999999963E+04  0.15000000000E+04  0.10566000000E+00 0.  1.
        994   -1    0    0    0    0 -0.00000000000E+00 -0.00000000000E+00  0.11368683772E-12  0.17120000000E+03  0.17120000000E+03 0.  0.
         13    1    1    2    0    0 -0.18753271611E+02 -0.19051725215E+02  0.22293984408E+02  0.34809285178E+02  0.10566000000E+00 0.  1.
        994    1    1    2    0    0  0.18623977994E+02  0.39936451500E+02  0.19333276035E+02  0.17783415948E+03  0.17120000000E+03 0.  0.
        998    1    1    2    0    0  0.12929361703E+00 -0.20884726285E+02  0.14583727358E+04  0.14585565553E+04  0.10000000000E+02 0.  1.
</event>
<event>
 5    1  0.1338396E-008  0.4177198E+03  0.7957747E-01  0.3301748E+00
         13   -1    0    0    0    0  0.00000000000E+00  0.00000000000E+00  0.14999999963E+04  0.15000000000E+04  0.10566000000E+00 0. -1.
        994   -1    0    0    0    0 -0.00000000000E+00 -0.00000000000E+00  0.11368683772E-12  0.17120000000E+03  0.17120000000E+03 0.  0.
         13    1    1    2    0    0  0.53234100425E+02 -0.42677516719E+02  0.12014450637E+01  0.68239977400E+02  0.10566000000E+00 0. -1.
        994    1    1    2    0    0 -0.22906092143E+03  0.13612567819E+03  0.56122559597E+03  0.64442432881E+03  0.17120000000E+03 0.  0.
        998    1    1    2    0    0  0.17582682100E+03 -0.93448161469E+02  0.93757295525E+03  0.95853569379E+03  0.10000000000E+02 0. -1.
</event>
<event>
 5    1  0.1338396E-008  0.3730770E+03  0.7957747E-01  0.3481868E+00
         13   -1    0    0    0    0  0.00000000000E+00  0.00000000000E+00  0.14999999963E+04  0.15000000000E+04  0.10566000000E+00 0. -1.
        994   -1    0    0    0    0 -0.00000000000E+00 -0.00000000000E+00  0.11368683772E-12  0.17120000000E+03  0.17120000000E+03 0.  0.
         13    1    1    2    0    0  0.72498432120E+02  0.23489830100E+02  0.37135568921E+03  0.37909478214E+03  0.10566000000E+00 0. -1.
        994    1    1    2    0    0 -0.41581459492E+02 -0.18322722648E+02  0.14766996570E+02  0.17774207191E+03  0.17120000000E+03 0.  0.
        998    1    1    2    0    0 -0.30916972629E+02 -0.51671074517E+01  0.11138773105E+04  0.11143631459E+04  0.10000000000E+02 0.  1.
</event>
<event>
 5    1  0.1338396E-008  0.3826717E+03  0.7957747E-01  0.3439607E+00
         13   -1    0    0    0    0  0.00000000000E+00  0.00000000000E+00  0.14999999963E+04  0.15000000000E+04  0.10566000000E+00 0.  1.
        994   -1    0    0    0    0 -0.00000000000E+00 -0.00000000000E+00  0.11368683772E-12  0.17120000000E+03  0.17120000000E+03 0.  0.
         13    1    1    2    0    0 -0.19300167590E+02  0.20534324339E+02  0.13460580693E+03  0.13752414104E+03  0.10566000000E+00 0.  1.
        994    1    1    2    0    0  0.91821788244E+01 -0.24354376145E+02  0.50385874778E+01  0.17324051319E+03  0.17120000000E+03 0.  0.
        998    1    1    2    0    0  0.10117988766E+02  0.38200518061E+01  0.13603556019E+04  0.13604353458E+04  0.10000000000E+02 0.  1.
</event>
<event>
 5    1  0.1338396E-008  0.3795709E+03  0.7957747E-01  0.3453029E+00
         13   -1    0    0    0    0  0.00000000000E+00  0.00000000000E+00  0.14999999963E+04  0.15000000000E+04  0.10566000000E+00 0.  1.
        994   -1    0    0    0    0 -0.00000000000E+00 -0.00000000000E+00  0.11368683772E-12  0.17120000000E+03  0.17120000000E+03 0.  0.
         13    1    1    2    0    0 -0.49479116997E+01 -0.38772616752E+02  0.19226802618E+03  0.19620092430E+03  0.10566000000E+00 0.  1.
        994    1    1    2    0    0 -0.17922502638E+01  0.91788911094E+01  0.46427836179E+01  0.17151810296E+03  0.17120000000E+03 0.  0.
        998    1    1    2    0    0  0.67401619635E+01  0.29593725643E+02  0.13030891865E+04  0.13034809727E+04  0.10000000000E+02 0.  1.
</event>
<event>
 5    1  0.1338396E-008  0.3237548E+03  0.7957747E-01  0.3739786E+00
         13   -1    0    0    0    0  0.00000000000E+00  0.00000000000E+00  0.14999999963E+04  0.15000000000E+04  0.10566000000E+00 0.  1.
        994   -1    0    0    0    0 -0.00000000000E+00 -0.00000000000E+00  0.11368683772E-12  0.17120000000E+03  0.17120000000E+03 0.  0.
         13    1    1    2    0    0 -0.32597687641E+01  0.21329950618E+03  0.88505732536E+03  0.91040308971E+03  0.10566000000E+00 0.  1.
        994    1    1    2    0    0 -0.42530948606E+02 -0.15722040648E+03  0.12866249365E+03  0.26905504098E+03  0.17120000000E+03 0.  0.
        998    1    1    2    0    0  0.45790717370E+02 -0.56079099704E+02  0.48628017728E+03  0.49174186931E+03  0.10000000000E+02 0.  1.
</event>
<event>
 5    1  0.1338396E-008  0.3726508E+03  0.7957747E-01  0.3483796E+00
         13   -1    0    0    0    0  0.00000000000E+00  0.00000000000E+00  0.14999999963E+04  0.15000000000E+04  0.10566000000E+00 0. -1.
        994   -1    0    0    0    0 -0.00000000000E+00 -0.00000000000E+00  0.11368683772E-12  0.17120000000E+03  0.17120000000E+03 0.  0.
         13    1    1    2    0    0  0.24935385348E+02  0.16939877910E+02  0.30926882788E+02  0.43188148248E+02  0.10566000000E+00 0. -1.
        994    1    1    2    0    0 -0.31973000543E+02 -0.11639291683E+02  0.16443771357E+02  0.17532137203E+03  0.17120000000E+03 0.  0.
        998    1    1    2    0    0  0.70376151944E+01 -0.53005862275E+01  0.14526293421E+04  0.14526904797E+04  0.10000000000E+02 0. -1.
</event>
<event>
 5    1  0.1338396E-008  0.3704904E+03  0.7957747E-01  0.3493640E+00
         13   -1    0    0    0    0  0.00000000000E+00  0.00000000000E+00  0.14999999963E+04  0.15000000000E+04  0.10566000000E+00 0. -1.
        994   -1    0    0    0    0 -0.00000000000E+00 -0.00000000000E+00  0.11368683772E-12  0.17120000000E+03  0.17120000000E+03 0.  0.
         13    1    1    2    0    0 -0.65325332355E+02  0.70920672146E+02  0.32160417734E+03  0.33574752245E+03  0.10566000000E+00 0. -1.
        994    1    1    2    0    0  0.81736760336E+02 -0.55355753722E+02  0.46153679193E+02  0.20294028571E+03  0.17120000000E+03 0.  0.
        998    1    1    2    0    0 -0.16411427982E+02 -0.15564918424E+02  0.11322421397E+04  0.11325121918E+04  0.10000000000E+02 0. -1.
</event>
<event>
 5    1  0.1338396E-008  0.3756820E+03  0.7957747E-01  0.3470178E+00
         13   -1    0    0    0    0  0.00000000000E+00  0.00000000000E+00  0.14999999963E+04  0.15000000000E+04  0.10566000000E+00 0. -1.
        994   -1    0    0    0    0 -0.00000000000E+00 -0.00000000000E+00  0.11368683772E-12  0.17120000000E+03  0.17120000000E+03 0.  0.
         13    1    1    2    0    0  0.38285240810E+02 -0.33079619503E+02  0.18031581960E+03  0.18728007596E+03  0.10566000000E+00 0. -1.
        994    1    1    2    0    0 -0.32350452954E+02  0.35530537012E+02  0.14200106532E+02  0.17838176446E+03  0.17120000000E+03 0.  0.
        998    1    1    2    0    0 -0.59347878558E+01 -0.24509175091E+01  0.13054840701E+04  0.13055381596E+04  0.10000000000E+02 0. -1.
</event>
<event>
 5    1  0.1338396E-008  0.3805903E+03  0.7957747E-01  0.3448592E+00
         13   -1    0    0    0    0  0.00000000000E+00  0.00000000000E+00  0.14999999963E+04  0.15000000000E+04  0.10566000000E+00 0.  1.
        994   -1    0    0    0    0 -0.00000000000E+00 -0.00000000000E+00  0.11368683772E-12  0.17120000000E+03  0.17120000000E+03 0.  0.
         13    1    1    2    0    0 -0.39488133594E+01 -0.17740509234E+02  0.41957885357E+02  0.45725202050E+02  0.10566000000E+00 0.  1.
        994    1    1    2    0    0  0.61837567245E+00  0.99413697233E+01  0.41665578566E+01  0.17154012191E+03  0.17120000000E+03 0.  0.
        998    1    1    2    0    0  0.33304376869E+01  0.77991395110E+01  0.14538755531E+04  0.14539346760E+04  0.10000000000E+02 0.  1.
</event>
<event>
 5    1  0.1338396E-008  0.3840531E+03  0.7957747E-01  0.3433698E+00
         13   -1    0    0    0    0  0.00000000000E+00  0.00000000000E+00  0.14999999963E+04  0.15000000000E+04  0.10566000000E+00 0. -1.
        994   -1    0    0    0    0 -0.00000000000E+00 -0.00000000000E+00  0.11368683772E-12  0.17120000000E+03  0.17120000000E+03 0.  0.
         13    1    1    2    0    0 -0.66607460325E+01 -0.11726011318E+02  0.43903760205E+02  0.45928381240E+02  0.10566000000E+00 0. -1.
        994    1    1    2    0    0  0.49169646138E+01  0.13714486732E+01  0.21869703881E+01  0.17129004715E+03  0.17120000000E+03 0.  0.
        998    1    1    2    0    0  0.17437814187E+01  0.10354562645E+02  0.14539092657E+04  0.14539815716E+04  0.10000000000E+02 0. -1.
</event>
<event>
 5    1  0.1338396E-008  0.3687642E+03  0.7957747E-01  0.3501590E+00
         13   -1    0    0    0    0  0.00000000000E+00  0.00000000000E+00  0.14999999963E+04  0.15000000000E+04  0.10566000000E+00 0. -1.
        994   -1    0    0    0    0 -0.00000000000E+00 -0.00000000000E+00  0.11368683772E-12  0.17120000000E+03  0.17120000000E+03 0.  0.
         13    1    1    2    0    0  0.21836918162E+02 -0.95901948759E+00  0.20552036429E+02  0.30002801179E+02  0.10566000000E+00 0. -1.
        994    1    1    2    0    0 -0.15960266890E+01 -0.30101355234E+02  0.13078174149E+02  0.17432474732E+03  0.17120000000E+03 0.  0.
        998    1    1    2    0    0 -0.20240891473E+02  0.31060374722E+02  0.14663697857E+04  0.14668724515E+04  0.10000000000E+02 0. -1.
</event>
<event>
 5    1  0.1338396E-008  0.3841828E+03  0.7957747E-01  0.3433146E+00
         13   -1    0    0    0    0  0.00000000000E+00  0.00000000000E+00  0.14999999963E+04  0.15000000000E+04  0.10566000000E+00 0.  1.
        994   -1    0    0    0    0 -0.00000000000E+00 -0.00000000000E+00  0.11368683772E-12  0.17120000000E+03  0.17120000000E+03 0.  0.
         13    1    1    2    0    0  0.20797404127E+02 -0.57550862219E+01  0.95875287362E+02  0.98273775376E+02  0.10566000000E+00 0.  1.
        994    1    1    2    0    0 -0.34335185364E+02  0.23939472283E+02  0.78349519861E+01  0.17641663686E+03  0.17120000000E+03 0.  0.
        998    1    1    2    0    0  0.13537781236E+02 -0.18184386061E+02  0.13962897569E+04  0.13965095878E+04  0.10000000000E+02 0.  1.
</event>
<event>
 5    1  0.1338396E-008  0.3734142E+03  0.7957747E-01  0.3480346E+00
         13   -1    0    0    0    0  0.00000000000E+00  0.00000000000E+00  0.14999999963E+04  0.15000000000E+04  0.10566000000E+00 0. -1.
        994   -1    0    0    0    0 -0.00000000000E+00 -0.00000000000E+00  0.11368683772E-12  0.17120000000E+03  0.17120000000E+03 0.  0.
         13    1    1    2    0    0 -0.82403347441E+01  0.61958999822E+01  0.36384932621E+01  0.10933530561E+02  0.10566000000E+00 0. -1.
        994    1    1    2    0    0  0.98224621210E+00 -0.64667610185E+01  0.76415766965E+01  0.17149524046E+03  0.17120000000E+03 0.  0.
        998    1    1    2    0    0  0.72580885320E+01  0.27086103628E+00  0.14887199263E+04  0.14887712290E+04  0.10000000000E+02 0. -1.
</event>
<event>
 5    1  0.1338396E-008  0.3819078E+03  0.7957747E-01  0.3442893E+00
         13   -1    0    0    0    0  0.00000000000E+00  0.00000000000E+00  0.14999999963E+04  0.15000000000E+04  0.10566000000E+00 0. -1.
        994   -1    0    0    0    0 -0.00000000000E+00 -0.00000000000E+00  0.11368683772E-12  0.17120000000E+03  0.17120000000E+03 0.  0.
         13    1    1    2    0    0  0.35678203421E+01  0.23521810538E+02  0.87983592641E+02  0.91143450950E+02  0.10566000000E+00 0. -1.
        994    1    1    2    0    0  0.20722366341E+01 -0.15652072138E+02  0.40017185393E+01  0.17197306556E+03  0.17120000000E+03 0.  0.
        998    1    1    2    0    0 -0.56400569762E+01 -0.78697383996E+01  0.14080146851E+04  0.14080834835E+04  0.10000000000E+02 0. -1.
</event>
<event>
 5    1  0.1338396E-008  0.3844407E+03  0.7957747E-01  0.3432048E+00
         13   -1    0    0    0    0  0.00000000000E+00  0.00000000000E+00  0.14999999963E+04  0.15000000000E+04  0.10566000000E+00 0. -1.
        994   -1    0    0    0    0 -0.00000000000E+00 -0.00000000000E+00  0.11368683772E-12  0.17120000000E+03  0.17120000000E+03 0.  0.
         13    1    1    2    0    0 -0.10278510648E+02  0.88001113834E+00  0.26637254297E+02  0.28565305552E+02  0.10566000000E+00 0. -1.
        994    1    1    2    0    0  0.14443389619E+02 -0.50052676318E+00  0.25965194799E+01  0.17182853065E+03  0.17120000000E+03 0.  0.
        998    1    1    2    0    0 -0.41648789713E+01 -0.37948437516E+00  0.14707662225E+04  0.14708061638E+04  0.10000000000E+02 0. -1.
</event>
<event>
 5    1  0.1338396E-008  0.3703519E+03  0.7957747E-01  0.3494275E+00
         13   -1    0    0    0    0  0.00000000000E+00  0.00000000000E+00  0.14999999963E+04  0.15000000000E+04  0.10566000000E+00 0. -1.
        994   -1    0    0    0    0 -0.00000000000E+00 -0.00000000000E+00  0.11368683772E-12  0.17120000000E+03  0.17120000000E+03 0.  0.
         13    1    1    2    0    0  0.11435710331E+03  0.40270024686E+02  0.50528664099E+03  0.51962854299E+03  0.10566000000E+00 0. -1.
        994    1    1    2    0    0 -0.11266556664E+03 -0.50904592059E+02  0.63882511933E+02  0.22062461950E+03  0.17120000000E+03 0.  0.
        998    1    1    2    0    0 -0.16915366746E+01  0.10634567373E+02  0.93083084335E+03  0.93094683750E+03  0.10000000000E+02 0.  0.
</event>
<event>
 5    1  0.1338396E-008  0.3846012E+03  0.7957747E-01  0.3431365E+00
         13   -1    0    0    0    0  0.00000000000E+00  0.00000000000E+00  0.14999999963E+04  0.15000000000E+04  0.10566000000E+00 0.  1.
        994   -1    0    0    0    0 -0.00000000000E+00 -0.00000000000E+00  0.11368683772E-12  0.17120000000E+03  0.17120000000E+03 0.  0.
         13    1    1    2    0    0  0.53525793374E+01 -0.21983656175E+02  0.12447706170E+03  0.12651672339E+03  0.10566000000E+00 0.  1.
        994    1    1    2    0    0 -0.13768074494E+02  0.25784610102E+02  0.46468007108E+01  0.17373957163E+03  0.17120000000E+03 0.  0.
        998    1    1    2    0    0  0.84154951567E+01 -0.38009539274E+01  0.13708761339E+04  0.13709437050E+04  0.10000000000E+02 0.  1.
</event>
<event>
 5    1  0.1338396E-008  0.3843450E+03  0.7957747E-01  0.3432455E+00
         13   -1    0    0    0    0  0.00000000000E+00  0.00000000000E+00  0.14999999963E+04  0.15000000000E+04  0.10566000000E+00 0.  1.
        994   -1    0    0    0    0 -0.00000000000E+00 -0.00000000000E+00  0.11368683772E-12  0.17120000000E+03  0.17120000000E+03 0.  0.
         13    1    1    2    0    0  0.10972373326E+02 -0.25159594928E+02  0.16596689405E+03  0.16822134014E+03  0.10566000000E+00 0.  1.
        994    1    1    2    0    0  0.30835498210E+01  0.37498414599E+02  0.66351092484E+01  0.17541124266E+03  0.17120000000E+03 0.  0.
        998    1    1    2    0    0 -0.14055923147E+02 -0.12338819670E+02  0.13273979930E+04  0.13275674172E+04  0.10000000000E+02 0.  1.
</event>
<event>
 5    1  0.1338396E-008  0.3703256E+03  0.7957747E-01  0.3494396E+00
         13   -1    0    0    0    0  0.00000000000E+00  0.00000000000E+00  0.14999999963E+04  0.15000000000E+04  0.10566000000E+00 0. -1.
        994   -1    0    0    0    0 -0.00000000000E+00 -0.00000000000E+00  0.11368683772E-12  0.17120000000E+03  0.17120000000E+03 0.  0.
         13    1    1    2    0    0 -0.71232418996E+01 -0.83013875716E+01  0.19897423091E+00  0.10940949024E+02  0.10566000000E+00 0. -1.
        994    1    1    2    0    0  0.12138794184E+02  0.60746782524E+00  0.11628254997E+02  0.17202434611E+03  0.17120000000E+03 0.  0.
        998    1    1    2    0    0 -0.50155522841E+01  0.76939197463E+01  0.14881727671E+04  0.14882347049E+04  0.10000000000E+02 0. -1.
</event>
<event>
 5    1  0.2923169E-008  0.3860665E+03  0.7957747E-01  0.3425161E+00
         13   -1    0    0    0    0  0.00000000000E+00  0.00000000000E+00  0.14999999963E+04  0.15000000000E+04  0.10566000000E+00 0.  1.
        994   -1    0    0    0    0 -0.00000000000E+00 -0.00000000000E+00  0.11368683772E-12  0.17120000000E+03  0.17120000000E+03 0.  0.
         13    1    1    2    0    0 -0.92343744949E+01 -0.48255255165E+01  0.48621246968E+02  0.49725206782E+02  0.10566000000E+00 0.  1.
        994    1    1    2    0    0  0.10391718830E+02  0.38462043049E+01  0.15040417872E+01  0.17156480772E+03  0.17120000000E+03 0.  0.
        998    1    1    2    0    0 -0.11573443351E+01  0.97932121162E+00  0.14498747075E+04  0.14499099855E+04  0.10000000000E+02 0.  1.
</event>
<event>
 5    1  0.1338396E-008  0.3829092E+03  0.7957747E-01  0.3438588E+00
         13   -1    0    0    0    0  0.00000000000E+00  0.00000000000E+00  0.14999999963E+04  0.15000000000E+04  0.10566000000E+00 0.  1.
        994   -1    0    0    0    0 -0.00000000000E+00 -0.00000000000E+00  0.11368683772E-12  0.17120000000E+03  0.17120000000E+03 0.  0.
         13    1    1    2    0    0  0.13922523583E+02  0.24460063825E+00  0.35774138807E+02  0.38388756998E+02  0.10566000000E+00 0.  1.
        994    1    1    2    0    0 -0.67727464987E+01  0.81368332620E+00  0.28258483069E+01  0.17135914797E+03  0.17120000000E+03 0.  0.
        998    1    1    2    0    0 -0.71497770840E+01 -0.10582839644E+01  0.14614000092E+04  0.14614520950E+04  0.10000000000E+02 0.  1.
</event>
<event>
 5    1  0.1338396E-008  0.3783443E+03  0.7957747E-01  0.3458400E+00
         13   -1    0    0    0    0  0.00000000000E+00  0.00000000000E+00  0.14999999963E+04  0.15000000000E+04  0.10566000000E+00 0.  1.
        994   -1    0    0    0    0 -0.00000000000E+00 -0.00000000000E+00  0.11368683772E-12  0.17120000000E+03  0.17120000000E+03 0.  0.
         13    1    1    2    0    0 -0.62000693366E+01 -0.51510634717E+02  0.24985006875E+03  0.25518004304E+03  0.10566000000E+00 0.  1.
        994    1    1    2    0    0 -0.16008442479E+02  0.42220284990E+02  0.11855181870E+02  0.17745086090E+03  0.17120000000E+03 0.  0.
        998    1    1    2    0    0  0.22208511816E+02  0.92903497269E+01  0.12382947457E+04  0.12385690961E+04  0.10000000000E+02 0.  1.
</event>
<event>
 5    1  0.1338396E-008  0.3779665E+03  0.7957747E-01  0.3460061E+00
         13   -1    0    0    0    0  0.00000000000E+00  0.00000000000E+00  0.14999999963E+04  0.15000000000E+04  0.10566000000E+00 0.  1.
        994   -1    0    0    0    0 -0.00000000000E+00 -0.00000000000E+00  0.11368683772E-12  0.17120000000E+03  0.17120000000E+03 0.  0.
         13    1    1    2    0    0 -0.24990797444E+02  0.21198269770E+01  0.60715853482E+02  0.65692158219E+02  0.10566000000E+00 0.  1.
        994    1    1    2    0    0  0.85283242609E+01  0.21515164397E+01  0.54235965700E+01  0.17151156444E+03  0.17120000000E+03 0.  0.
        998    1    1    2    0    0  0.16462473183E+02 -0.42713434168E+01  0.14338605462E+04  0.14339962773E+04  0.10000000000E+02 0.  1.
</event>
<event>
 5    1  0.1338396E-008  0.3786999E+03  0.7957747E-01  0.3456839E+00
         13   -1    0    0    0    0  0.00000000000E+00  0.00000000000E+00  0.14999999963E+04  0.15000000000E+04  0.10566000000E+00 0.  1.
        994   -1    0    0    0    0 -0.00000000000E+00 -0.00000000000E+00  0.11368683772E-12  0.17120000000E+03  0.17120000000E+03 0.  0.
         13    1    1    2    0    0 -0.34967876711E+02  0.13241600938E+02  0.13984622028E+03  0.14475865738E+03  0.10566000000E+00 0.  1.
        994    1    1    2    0    0  0.21119476460E+02 -0.22496223763E+02  0.79940508529E+01  0.17414206045E+03  0.17120000000E+03 0.  0.
        998    1    1    2    0    0  0.13848400252E+02  0.92546228252E+01  0.13521597251E+04  0.13522992822E+04  0.10000000000E+02 0.  1.
</event>
<event>
 5    1  0.1338396E-008  0.3757459E+03  0.7957747E-01  0.3469893E+00
         13   -1    0    0    0    0  0.00000000000E+00  0.00000000000E+00  0.14999999963E+04  0.15000000000E+04  0.10566000000E+00 0. -1.
        994   -1    0    0    0    0 -0.00000000000E+00 -0.00000000000E+00  0.11368683772E-12  0.17120000000E+03  0.17120000000E+03 0.  0.
         13    1    1    2    0    0  0.44767606792E+02  0.39233968692E+02  0.14364019467E+03  0.15548620391E+03  0.10566000000E+00 0. -1.
        994    1    1    2    0    0 -0.64704151973E+01  0.15338434647E+02  0.14999266960E+02  0.17266022084E+03  0.17120000000E+03 0.  0.
        998    1    1    2    0    0 -0.38297191594E+02 -0.54572403339E+02  0.13413605346E+04  0.13430535753E+04  0.10000000000E+02 0. -1.
</event>
<event>
 5    1  0.1338396E-008  0.3840630E+03  0.7957747E-01  0.3433656E+00
         13   -1    0    0    0    0  0.00000000000E+00  0.00000000000E+00  0.14999999963E+04  0.15000000000E+04  0.10566000000E+00 0.  1.
        994   -1    0    0    0    0 -0.00000000000E+00 -0.00000000000E+00  0.11368683772E-12  0.17120000000E+03  0.17120000000E+03 0.  0.
         13    1    1    2    0    0 -0.26147965956E+01  0.20867044318E+02  0.10806622776E+03  0.11009355769E+03  0.10566000000E+00 0.  1.
        994    1    1    2    0    0  0.31574701702E+01 -0.90071827983E+01  0.23966273153E+01  0.17148260198E+03  0.17120000000E+03 0.  0.
        998    1    1    2    0    0 -0.54267357452E+00 -0.11859861519E+02  0.13895371412E+04  0.13896238403E+04  0.10000000000E+02 0.  1.
</event>
<event>
 5    1  0.1338396E-008  0.3730887E+03  0.7957747E-01  0.3481815E+00
         13   -1    0    0    0    0  0.00000000000E+00  0.00000000000E+00  0.14999999963E+04  0.15000000000E+04  0.10566000000E+00 0. -1.
        994   -1    0    0    0    0 -0.00000000000E+00 -0.00000000000E+00  0.11368683772E-12  0.17120000000E+03  0.17120000000E+03 0.  0.
         13    1    1    2    0    0 -0.26591566973E+02  0.70682586294E+01  0.45364465273E+02  0.53056739324E+02  0.10566000000E+00 0. -1.
        994    1    1    2    0    0  0.21673215344E+02 -0.19149808099E+02  0.10530553926E+02  0.17394474979E+03  0.17120000000E+03 0.  0.
        998    1    1    2    0    0  0.49183516288E+01  0.12081549470E+02  0.14441049771E+04  0.14441985109E+04  0.10000000000E+02 0. -1.
</event>
<event>
 5    1  0.1338396E-008  0.3783009E+03  0.7957747E-01  0.3458590E+00
         13   -1    0    0    0    0  0.00000000000E+00  0.00000000000E+00  0.14999999963E+04  0.15000000000E+04  0.10566000000E+00 0.  1.
        994   -1    0    0    0    0 -0.00000000000E+00 -0.00000000000E+00  0.11368683772E-12  0.17120000000E+03  0.17120000000E+03 0.  0.
         13    1    1    2    0    0 -0.37202992800E+02  0.10143340142E+02  0.13172838167E+03  0.13725643054E+03  0.10566000000E+00 0.  1.
        994    1    1    2    0    0  0.43946948520E+02 -0.42105269981E+01  0.11573793578E+02  0.17717916220E+03  0.17120000000E+03 0.  0.
        998    1    1    2    0    0 -0.67439557201E+01 -0.59328131435E+01  0.13566978210E+04  0.13567644073E+04  0.10000000000E+02 0.  1.
</event>
<event>
 5    1  0.1338396E-008  0.3783394E+03  0.7957747E-01  0.3458421E+00
         13   -1    0    0    0    0  0.00000000000E+00  0.00000000000E+00  0.14999999963E+04  0.15000000000E+04  0.10566000000E+00 0.  1.
        994   -1    0    0    0    0 -0.00000000000E+00 -0.00000000000E+00  0.11368683772E-12  0.17120000000E+03  0.17120000000E+03 0.  0.
         13    1    1    2    0    0  0.89338465149E+02  0.11370137044E+03  0.83032729341E+03  0.84282429268E+03  0.10566000000E+00 0.  1.
        994    1    1    2    0    0 -0.90998756740E+02 -0.11374283300E+03  0.79968810683E+02  0.23858469454E+03  0.17120000000E+03 0.  0.
        998    1    1    2    0    0  0.16602915912E+01  0.41462559557E-01  0.58970389219E+03  0.58979101278E+03  0.10000000000E+02 0.  0.
</event>
<event>
 5    1  0.1338396E-008  0.3808955E+03  0.7957747E-01  0.3447268E+00
         13   -1    0    0    0    0  0.00000000000E+00  0.00000000000E+00  0.14999999963E+04  0.15000000000E+04  0.10566000000E+00 0. -1.
        994   -1    0    0    0    0 -0.00000000000E+00 -0.00000000000E+00  0.11368683772E-12  0.17120000000E+03  0.17120000000E+03 0.  0.
         13    1    1    2    0    0 -0.48969525325E+01 -0.13179965025E+02  0.25494045830E+02  0.29114414969E+02  0.10566000000E+00 0. -1.
        994    1    1    2    0    0 -0.13121342624E+02  0.13673744476E+02  0.48797266492E+01  0.17231480683E+03  0.17120000000E+03 0.  0.
        998    1    1    2    0    0  0.18018295157E+02 -0.49377945083E+00  0.14696262238E+04  0.14697707782E+04  0.10000000000E+02 0. -1.
</event>
<event>
 5    1  0.1728717E-008  0.3846702E+03  0.7957747E-01  0.3431072E+00
         13   -1    0    0    0    0  0.00000000000E+00  0.00000000000E+00  0.14999999963E+04  0.15000000000E+04  0.10566000000E+00 0.  1.
        994   -1    0    0    0    0 -0.00000000000E+00 -0.00000000000E+00  0.11368683772E-12  0.17120000000E+03  0.17120000000E+03 0.  0.
         13    1    1    2    0    0  0.22976933546E+00 -0.12672762997E+02  0.43383036838E+02  0.45196800387E+02  0.10566000000E+00 0.  1.
        994    1    1    2    0    0 -0.17417677105E+01  0.13745971852E+02  0.24262505085E+01  0.17177692566E+03  0.17120000000E+03 0.  0.
        998    1    1    2    0    0  0.15119983751E+01 -0.10732088557E+01  0.14541907089E+04  0.14542262740E+04  0.10000000000E+02 0.  1.
</event>
<event>
 5    1  0.1338396E-008  0.3826754E+03  0.7957747E-01  0.3439591E+00
         13   -1    0    0    0    0  0.00000000000E+00  0.00000000000E+00  0.14999999963E+04  0.15000000000E+04  0.10566000000E+00 0. -1.
        994   -1    0    0    0    0 -0.00000000000E+00 -0.00000000000E+00  0.11368683772E-12  0.17120000000E+03  0.17120000000E+03 0.  0.
         13    1    1    2    0    0  0.11967412531E+02  0.19197473815E+02  0.98573767260E+02  0.10113634717E+03  0.10566000000E+00 0. -1.
        994    1    1    2    0    0  0.12688764706E+02 -0.93579527736E+01  0.36128085251E+01  0.17196240408E+03  0.17120000000E+03 0.  0.
        998    1    1    2    0    0 -0.24656177237E+02 -0.98395210418E+01  0.13978134205E+04  0.13981012488E+04  0.10000000000E+02 0. -1.
</event>
<event>
 5    1  0.1338396E-008  0.3831056E+03  0.7957747E-01  0.3437747E+00
         13   -1    0    0    0    0  0.00000000000E+00  0.00000000000E+00  0.14999999963E+04  0.15000000000E+04  0.10566000000E+00 0. -1.
        994   -1    0    0    0    0 -0.00000000000E+00 -0.00000000000E+00  0.11368683772E-12  0.17120000000E+03  0.17120000000E+03 0.  0.
         13    1    1    2    0    0 -0.67081606184E-01  0.13251822816E+02  0.33499209505E+02  0.36025317617E+02  0.10566000000E+00 0. -1.
        994    1    1    2    0    0  0.31076593936E+01 -0.72905125773E+01  0.27814697130E+01  0.17140590916E+03  0.17120000000E+03 0.  0.
        998    1    1    2    0    0 -0.30405777875E+01 -0.59613102383E+01  0.14637193171E+04  0.14637687732E+04  0.10000000000E+02 0. -1.
</event>
<event>
 5    1  0.1338396E-008  0.3783548E+03  0.7957747E-01  0.3458354E+00
         13   -1    0    0    0    0  0.00000000000E+00  0.00000000000E+00  0.14999999963E+04  0.15000000000E+04  0.10566000000E+00 0. -1.
        994   -1    0    0    0    0 -0.00000000000E+00 -0.00000000000E+00  0.11368683772E-12  0.17120000000E+03  0.17120000000E+03 0.  0.
         13    1    1    2    0    0  0.15585085752E+03  0.80960469162E+02  0.10118740035E+04  0.10270019949E+04  0.10566000000E+00 0. -1.
        994    1    1    2    0    0 -0.14272323691E+03 -0.94491248679E+02  0.11075294844E+03  0.26622203894E+03  0.17120000000E+03 0.  0.
        998    1    1    2    0    0 -0.13127620614E+02  0.13530779517E+02  0.37737304436E+03  0.37797596620E+03  0.10000000000E+02 0. -1.
</event>
<event>
 5    1  0.1338396E-008  0.3856890E+03  0.7957747E-01  0.3426755E+00
         13   -1    0    0    0    0  0.00000000000E+00  0.00000000000E+00  0.14999999963E+04  0.15000000000E+04  0.10566000000E+00 0.  1.
        994   -1    0    0    0    0 -0.00000000000E+00 -0.00000000000E+00  0.11368683772E-12  0.17120000000E+03  0.17120000000E+03 0.  0.
         13    1    1    2    0    0  0.78520958363E+01  0.81849661803E+01  0.53428178627E+02  0.54618957477E+02  0.10566000000E+00 0.  1.
        994    1    1    2    0    0 -0.84955904937E+01  0.10259310790E+02  0.18708573295E+01  0.17172760006E+03  0.17120000000E+03 0.  0.
        998    1    1    2    0    0  0.64349465745E+00 -0.18444276970E+02  0.14447009603E+04  0.14448534425E+04  0.10000000000E+02 0.  1.
</event>
<event>
 5    1  0.1338396E-008  0.3841566E+03  0.7957747E-01  0.3433257E+00
         13   -1    0    0    0    0  0.00000000000E+00  0.00000000000E+00  0.14999999963E+04  0.15000000000E+04  0.10566000000E+00 0.  1.
        994   -1    0    0    0    0 -0.00000000000E+00 -0.00000000000E+00  0.11368683772E-12  0.17120000000E+03  0.17120000000E+03 0.  0.
         13    1    1    2    0    0  0.23530869351E+02  0.11936685870E+03  0.61807134422E+03  0.62993201735E+03  0.10566000000E+00 0.  1.
        994    1    1    2    0    0 -0.10194981398E+02 -0.18969704909E+03  0.13185930317E+03  0.28772421503E+03  0.17120000000E+03 0.  0.
        998    1    1    2    0    0 -0.13335887953E+02  0.70330190389E+02  0.75006934889E+03  0.75354376763E+03  0.10000000000E+02 0.  1.
</event>
<event>
 5    1  0.1338396E-008  0.3726369E+03  0.7957747E-01  0.3483859E+00
         13   -1    0    0    0    0  0.00000000000E+00  0.00000000000E+00  0.14999999963E+04  0.15000000000E+04  0.10566000000E+00 0.  1.
        994   -1    0    0    0    0 -0.00000000000E+00 -0.00000000000E+00  0.11368683772E-12  0.17120000000E+03  0.17120000000E+03 0.  0.
         13    1    1    2    0    0 -0.10854193878E+02 -0.63051268184E+01  0.62098026607E+01  0.14005033454E+02  0.10566000000E+00 0.  1.
        994    1    1    2    0    0  0.17336468774E+02  0.81612929096E+01  0.91563573631E+01  0.17251214082E+03  0.17120000000E+03 0.  0.
        998    1    1    2    0    0 -0.64822748957E+01 -0.18561660912E+01  0.14846338363E+04  0.14846828257E+04  0.10000000000E+02 0.  1.
</event>
<event>
 5    1  0.1338396E-008  0.3816282E+03  0.7957747E-01  0.3444100E+00
         13   -1    0    0    0    0  0.00000000000E+00  0.00000000000E+00  0.14999999963E+04  0.15000000000E+04  0.10566000000E+00 0.  1.
        994   -1    0    0    0    0 -0.00000000000E+00 -0.00000000000E+00  0.11368683772E-12  0.17120000000E+03  0.17120000000E+03 0.  0.
         13    1    1    2    0    0 -0.22980887091E+02  0.22894122110E+02  0.17968979237E+03  0.18259434450E+03  0.10566000000E+00 0.  1.
        994    1    1    2    0    0 -0.20118285277E+01 -0.55806477301E+01  0.34305313316E+01  0.17133709356E+03  0.17120000000E+03 0.  0.
        998    1    1    2    0    0  0.24992715619E+02 -0.17313474380E+02  0.13168796726E+04  0.13172685619E+04  0.10000000000E+02 0.  1.
</event>
<event>
 5    1  0.1338396E-008  0.3802375E+03  0.7957747E-01  0.3450125E+00
         13   -1    0    0    0    0  0.00000000000E+00  0.00000000000E+00  0.14999999963E+04  0.15000000000E+04  0.10566000000E+00 0.  1.
        994   -1    0    0    0    0 -0.00000000000E+00 -0.00000000000E+00  0.11368683772E-12  0.17120000000E+03  0.17120000000E+03 0.  0.
         13    1    1    2    0    0  0.85651926185E+01 -0.15997478426E+02  0.39961171520E+02  0.43888361030E+02  0.10566000000E+00 0.  1.
        994    1    1    2    0    0 -0.21967085490E+01  0.86939569342E+01  0.42819308773E+01  0.17148814929E+03  0.17120000000E+03 0.  0.
        998    1    1    2    0    0 -0.63684840694E+01  0.73035214920E+01  0.14557568939E+04  0.14558234897E+04  0.10000000000E+02 0.  1.
</event>
<event>
 5    1  0.1338396E-008  0.3801911E+03  0.7957747E-01  0.3450327E+00
         13   -1    0    0    0    0  0.00000000000E+00  0.00000000000E+00  0.14999999963E+04  0.15000000000E+04  0.10566000000E+00 0. -1.
        994   -1    0    0    0    0 -0.00000000000E+00 -0.00000000000E+00  0.11368683772E-12  0.17120000000E+03  0.17120000000E+03 0.  0.
         13    1    1    2    0    0  0.27153581795E+02 -0.12642713331E+02  0.11464462481E+03  0.11849285365E+03  0.10566000000E+00 0. -1.
        994    1    1    2    0    0 -0.11764968746E+02 -0.92437860128E+00  0.45021270114E+01  0.17166530841E+03  0.17120000000E+03 0.  0.
        998    1    1    2    0    0 -0.15388613050E+02  0.13567091933E+02  0.13808532445E+04  0.13810418379E+04  0.10000000000E+02 0. -1.
</event>
<event>
 5    1  0.1338396E-008  0.3771894E+03  0.7957747E-01  0.3463489E+00
         13   -1    0    0    0    0  0.00000000000E+00  0.00000000000E+00  0.14999999963E+04  0.15000000000E+04  0.10566000000E+00 0.  1.
        994   -1    0    0    0    0 -0.00000000000E+00 -0.00000000000E+00  0.11368683772E-12  0.17120000000E+03  0.17120000000E+03 0.  0.
         13    1    1    2    0    0  0.11576017978E+02  0.77853835692E+02  0.36740232564E+03  0.37573887738E+03  0.10566000000E+00 0.  1.
        994    1    1    2    0    0 -0.52798280353E+02 -0.88192488004E+02  0.42083843771E+02  0.20407367115E+03  0.17120000000E+03 0.  0.
        998    1    1    2    0    0  0.41222262375E+02  0.10338652312E+02  0.10905138269E+04  0.10913874515E+04  0.10000000000E+02 0.  1.
</event>
<event>
 5    1  0.1338396E-008  0.3858461E+03  0.7957747E-01  0.3426092E+00
         13   -1    0    0    0    0  0.00000000000E+00  0.00000000000E+00  0.14999999963E+04  0.15000000000E+04  0.10566000000E+00 0. -1.
        994   -1    0    0    0    0 -0.00000000000E+00 -0.00000000000E+00  0.11368683772E-12  0.17120000000E+03  0.17120000000E+03 0.  0.
         13    1    1    2    0    0 -0.10363997750E+01  0.14162922555E+02  0.82930547026E+02  0.84137680583E+02  0.10566000000E+00 0. -1.
        994    1    1    2    0    0  0.26999404040E+01 -0.10740479525E+02  0.16129768275E+01  0.17156540815E+03  0.17120000000E+03 0.  0.
        998    1    1    2    0    0 -0.16635406290E+01 -0.34224430299E+01  0.14154564724E+04  0.14154969113E+04  0.10000000000E+02 0. -1.
</event>
<event>
 5    1  0.1338396E-008  0.3818350E+03  0.7957747E-01  0.3443207E+00
         13   -1    0    0    0    0  0.00000000000E+00  0.00000000000E+00  0.14999999963E+04  0.15000000000E+04  0.10566000000E+00 0. -1.
        994   -1    0    0    0    0 -0.00000000000E+00 -0.00000000000E+00  0.11368683772E-12  0.17120000000E+03  0.17120000000E+03 0.  0.
         13    1    1    2    0    0  0.15919266423E+02 -0.74302729546E+01  0.48379665928E+02  0.51470722153E+02  0.10566000000E+00 0. -1.
        994    1    1    2    0    0 -0.60907646277E+01 -0.27719750479E+01  0.33585086859E+01  0.17136365087E+03  0.17120000000E+03 0.  0.
        998    1    1    2    0    0 -0.98285017953E+01  0.10202248003E+02  0.14482618217E+04  0.14483656270E+04  0.10000000000E+02 0. -1.
</event>
<event>
 5    1  0.1338396E-008  0.3842820E+03  0.7957747E-01  0.3432723E+00
         13   -1    0    0    0    0  0.00000000000E+00  0.00000000000E+00  0.14999999963E+04  0.15000000000E+04  0.10566000000E+00 0. -1.
        994   -1    0    0    0    0 -0.00000000000E+00 -0.00000000000E+00  0.11368683772E-12  0.17120000000E+03  0.17120000000E+03 0.  0.
         13    1    1    2    0    0  0.22189893359E+02 -0.15439145273E+02  0.11351157667E+02  0.29319251670E+02  0.10566000000E+00 0. -1.
        994    1    1    2    0    0 -0.24365299464E+02  0.16104683412E+02  0.21845981077E+02  0.17504203934E+03  0.17120000000E+03 0.  0.
        998    1    1    2    0    0  0.21754061051E+01 -0.66553813834E+00  0.14668028575E+04  0.14668387090E+04  0.10000000000E+02 0. -1.
</event>
<event>
 5    1  0.1338396E-008  0.3700986E+03  0.7957747E-01  0.3495438E+00
         13   -1    0    0    0    0  0.00000000000E+00  0.00000000000E+00  0.14999999963E+04  0.15000000000E+04  0.10566000000E+00 0.  1.
        994   -1    0    0    0    0 -0.00000000000E+00 -0.00000000000E+00  0.11368683772E-12  0.17120000000E+03  0.17120000000E+03 0.  0.
         13    1    1    2    0    0  0.48124860986E+01 -0.42923171334E+02  0.89666872639E+02  0.99527472954E+02  0.10566000000E+00 0.  1.
        994    1    1    2    0    0 -0.10617365879E+01  0.51925948841E+02  0.18599578741E+02  0.17986888496E+03  0.17120000000E+03 0.  0.
        998    1    1    2    0    0 -0.37507495107E+01 -0.90027775076E+01  0.13917335449E+04  0.13918036421E+04  0.10000000000E+02 0.  1.
</event>
<event>
 5    1  0.1338396E-008  0.3749567E+03  0.7957747E-01  0.3473417E+00
         13   -1    0    0    0    0  0.00000000000E+00  0.00000000000E+00  0.14999999963E+04  0.15000000000E+04  0.10566000000E+00 0. -1.
        994   -1    0    0    0    0 -0.00000000000E+00 -0.00000000000E+00  0.11368683772E-12  0.17120000000E+03  0.17120000000E+03 0.  0.
         13    1    1    2    0    0  0.99931067149E+01  0.32718032813E+02  0.80035075887E+02  0.87039970067E+02  0.10566000000E+00 0. -1.
        994    1    1    2    0    0 -0.24618109645E+02 -0.30993382184E+02  0.12045722447E+02  0.17612830690E+03  0.17120000000E+03 0.  0.
        998    1    1    2    0    0  0.14625002930E+02 -0.17246506284E+01  0.14079191979E+04  0.14080317230E+04  0.10000000000E+02 0. -1.
</event>
<event>
 5    1  0.1338396E-008  0.3858362E+03  0.7957747E-01  0.3426134E+00
         13   -1    0    0    0    0  0.00000000000E+00  0.00000000000E+00  0.14999999963E+04  0.15000000000E+04  0.10566000000E+00 0.  1.
        994   -1    0    0    0    0 -0.00000000000E+00 -0.00000000000E+00  0.11368683772E-12  0.17120000000E+03  0.17120000000E+03 0.  0.
         13    1    1    2    0    0  0.79738848287E+01  0.10150587966E+02  0.71212338955E+02  0.72372824035E+02  0.10566000000E+00 0.  1.
        994    1    1    2    0    0 -0.34233441123E+01 -0.33524758971E+01  0.12908495051E+01  0.17127190275E+03  0.17120000000E+03 0.  0.
        998    1    1    2    0    0 -0.45505407165E+01 -0.67981120694E+01  0.14274968078E+04  0.14275552732E+04  0.10000000000E+02 0.  1.
</event>
<event>
 5    1  0.1338396E-008  0.3757075E+03  0.7957747E-01  0.3470065E+00
         13   -1    0    0    0    0  0.00000000000E+00  0.00000000000E+00  0.14999999963E+04  0.15000000000E+04  0.10566000000E+00 0. -1.
        994   -1    0    0    0    0 -0.00000000000E+00 -0.00000000000E+00  0.11368683772E-12  0.17120000000E+03  0.17120000000E+03 0.  0.
         13    1    1    2    0    0  0.10104312042E+02  0.22753709181E+02  0.45540085390E+02  0.51901242226E+02  0.10566000000E+00 0. -1.
        994    1    1    2    0    0 -0.42781095482E+01 -0.24117132044E+02  0.83529908902E+01  0.17314488366E+03  0.17120000000E+03 0.  0.
        998    1    1    2    0    0 -0.58262024941E+01  0.13634228632E+01  0.14461069200E+04  0.14461538741E+04  0.10000000000E+02 0. -1.
</event>
<event>
 5    1  0.1338396E-008  0.3776362E+03  0.7957747E-01  0.3461516E+00
         13   -1    0    0    0    0  0.00000000000E+00  0.00000000000E+00  0.14999999963E+04  0.15000000000E+04  0.10566000000E+00 0.  1.
        994   -1    0    0    0    0 -0.00000000000E+00 -0.00000000000E+00  0.11368683772E-12  0.17120000000E+03  0.17120000000E+03 0.  0.
         13    1    1    2    0    0  0.17680120450E+02 -0.30102506668E+02  0.10505122019E+03  0.11070012464E+03  0.10566000000E+00 0.  1.
        994    1    1    2    0    0 -0.20083231613E+02  0.29415525659E+02  0.96173194542E+01  0.17513007216E+03  0.17120000000E+03 0.  0.
        998    1    1    2    0    0  0.24031111626E+01  0.68698100873E+00  0.13853314566E+04  0.13853698032E+04  0.10000000000E+02 0.  1.
</event>
<event>
 5    1  0.1338396E-008  0.3813258E+03  0.7957747E-01  0.3445406E+00
         13   -1    0    0    0    0  0.00000000000E+00  0.00000000000E+00  0.14999999963E+04  0.15000000000E+04  0.10566000000E+00 0.  1.
        994   -1    0    0    0    0 -0.00000000000E+00 -0.00000000000E+00  0.11368683772E-12  0.17120000000E+03  0.17120000000E+03 0.  0.
         13    1    1    2    0    0 -0.22533233762E+01 -0.21403851616E+02  0.65134641772E+02  0.68598360425E+02  0.10566000000E+00 0.  1.
        994    1    1    2    0    0 -0.19083524085E+02  0.17777024451E+02  0.57326067671E+01  0.17327003858E+03  0.17120000000E+03 0.  0.
        998    1    1    2    0    0  0.21336847461E+02  0.36268271657E+01  0.14291327477E+04  0.14293316010E+04  0.10000000000E+02 0.  1.
</event>
<event>
 5    1  0.1338396E-008  0.3827579E+03  0.7957747E-01  0.3439237E+00
         13   -1    0    0    0    0  0.00000000000E+00  0.00000000000E+00  0.14999999963E+04  0.15000000000E+04  0.10566000000E+00 0.  1.
        994   -1    0    0    0    0 -0.00000000000E+00 -0.00000000000E+00  0.11368683772E-12  0.17120000000E+03  0.17120000000E+03 0.  0.
         13    1    1    2    0    0  0.16232230504E+02  0.20335167728E+02  0.12798698874E+03  0.13060507190E+03  0.10566000000E+00 0.  1.
        994    1    1    2    0    0 -0.23336471715E+01 -0.10211681629E+02  0.31109549724E+01  0.17154836750E+03  0.17120000000E+03 0.  0.
        998    1    1    2    0    0 -0.13898583333E+02 -0.10123486099E+02  0.13689020526E+04  0.13690465606E+04  0.10000000000E+02 0.  1.
</event>
<event>
 5    1  0.1338396E-008  0.3767739E+03  0.7957747E-01  0.3465327E+00
         13   -1    0    0    0    0  0.00000000000E+00  0.00000000000E+00  0.14999999963E+04  0.15000000000E+04  0.10566000000E+00 0.  1.
        994   -1    0    0    0    0 -0.00000000000E+00 -0.00000000000E+00  0.11368683772E-12  0.17120000000E+03  0.17120000000E+03 0.  0.
         13    1    1    2    0    0 -0.12408127492E+02 -0.91524119485E+01  0.18426609817E+02  0.24026639085E+02  0.10566000000E+00 0.  1.
        994    1    1    2    0    0  0.32702759252E+01  0.21707001603E+01  0.58226628589E+01  0.17134395247E+03  0.17120000000E+03 0.  0.
        998    1    1    2    0    0  0.91378515664E+01  0.69817117882E+01  0.14757507236E+04  0.14758294084E+04  0.10000000000E+02 0.  1.
</event>
<event>
 5    1  0.1338396E-008  0.3854423E+03  0.7957747E-01  0.3427799E+00
         13   -1    0    0    0    0  0.00000000000E+00  0.00000000000E+00  0.14999999963E+04  0.15000000000E+04  0.10566000000E+00 0. -1.
        994   -1    0    0    0    0 -0.00000000000E+00 -0.00000000000E+00  0.11368683772E-12  0.17120000000E+03  0.17120000000E+03 0.  0.
         13    1    1    2    0    0  0.78636055610E+01 -0.10771365882E+02  0.67588401914E+02  0.68891667513E+02  0.10566000000E+00 0. -1.
        994    1    1    2    0    0  0.36483198921E+01  0.20875698764E+01  0.14687471897E+01  0.17125789151E+03  0.17120000000E+03 0.  0.
        998    1    1    2    0    0 -0.11511925453E+02  0.86837960054E+01  0.14309428472E+04  0.14310504410E+04  0.10000000000E+02 0. -1.
</event>
<event>
 5    1  0.1338396E-008  0.3822428E+03  0.7957747E-01  0.3441451E+00
         13   -1    0    0    0    0  0.00000000000E+00  0.00000000000E+00  0.14999999963E+04  0.15000000000E+04  0.10566000000E+00 0. -1.
        994   -1    0    0    0    0 -0.00000000000E+00 -0.00000000000E+00  0.11368683772E-12  0.17120000000E+03  0.17120000000E+03 0.  0.
         13    1    1    2    0    0  0.50027348333E+01 -0.10694299715E+02  0.21573103687E+02  0.24592790995E+02  0.10566000000E+00 0. -1.
        994    1    1    2    0    0 -0.65702200948E+01  0.13711601806E+02  0.37727484360E+01  0.17191523914E+03  0.17120000000E+03 0.  0.
        998    1    1    2    0    0  0.15674852614E+01 -0.30173020908E+01  0.14746541442E+04  0.14746919699E+04  0.10000000000E+02 0. -1.
</event>
<event>
 5    1  0.1338396E-008  0.3787147E+03  0.7957747E-01  0.3456774E+00
         13   -1    0    0    0    0  0.00000000000E+00  0.00000000000E+00  0.14999999963E+04  0.15000000000E+04  0.10566000000E+00 0.  1.
        994   -1    0    0    0    0 -0.00000000000E+00 -0.00000000000E+00  0.11368683772E-12  0.17120000000E+03  0.17120000000E+03 0.  0.
         13    1    1    2    0    0 -0.23118320932E+02  0.69342008339E+02  0.43663307937E+03  0.44270896540E+03  0.10566000000E+00 0.  1.
        994    1    1    2    0    0  0.53069937680E+02 -0.53154379052E+02  0.23963490335E+02  0.18848208182E+03  0.17120000000E+03 0.  0.
        998    1    1    2    0    0 -0.29951616748E+02 -0.16187629287E+02  0.10394034266E+04  0.10400089528E+04  0.10000000000E+02 0.  1.
</event>
<event>
 5    1  0.1338396E-008  0.3858148E+03  0.7957747E-01  0.3426224E+00
         13   -1    0    0    0    0  0.00000000000E+00  0.00000000000E+00  0.14999999963E+04  0.15000000000E+04  0.10566000000E+00 0. -1.
        994   -1    0    0    0    0 -0.00000000000E+00 -0.00000000000E+00  0.11368683772E-12  0.17120000000E+03  0.17120000000E+03 0.  0.
         13    1    1    2    0    0 -0.10721497922E+02 -0.25894371864E+01  0.47720269313E+02  0.48978474558E+02  0.10566000000E+00 0. -1.
        994    1    1    2    0    0  0.14477377427E+02  0.43817958992E+01  0.19769265158E+01  0.17187827911E+03  0.17120000000E+03 0.  0.
        998    1    1    2    0    0 -0.37558795055E+01 -0.17923587128E+01  0.14503028004E+04  0.14503432463E+04  0.10000000000E+02 0. -1.
</event>
<event>
 5    1  0.1338396E-008  0.2738402E+03  0.7957747E-01  0.4102506E+00
         13   -1    0    0    0    0  0.00000000000E+00  0.00000000000E+00  0.14999999963E+04  0.15000000000E+04  0.10566000000E+00 0. -1.
        994   -1    0    0    0    0 -0.00000000000E+00 -0.00000000000E+00  0.11368683772E-12  0.17120000000E+03  0.17120000000E+03 0.  0.
         13    1    1    2    0    0  0.19021585064E+03  0.10812974286E+03  0.55452638213E+03  0.59613222591E+03  0.10566000000E+00 0. -1.
        994    1    1    2    0    0 -0.10762952767E+03 -0.50023688979E+02  0.11408723341E+03  0.23751172921E+03  0.17120000000E+03 0.  0.
        998    1    1    2    0    0 -0.82586322965E+02 -0.58106053883E+02  0.83138638074E+03  0.83755604488E+03  0.10000000000E+02 0. -1.
</event>
<event>
 5    1  0.1338396E-008  0.3850449E+03  0.7957747E-01  0.3429482E+00
         13   -1    0    0    0    0  0.00000000000E+00  0.00000000000E+00  0.14999999963E+04  0.15000000000E+04  0.10566000000E+00 0. -1.
        994   -1    0    0    0    0 -0.00000000000E+00 -0.00000000000E+00  0.11368683772E-12  0.17120000000E+03  0.17120000000E+03 0.  0.
         13    1    1    2    0    0  0.41028029914E+01  0.12514840749E+02  0.55296133986E+02  0.56843010382E+02  0.10566000000E+00 0. -1.
        994    1    1    2    0    0 -0.34556480230E+01 -0.36600933037E+01  0.16911675372E+01  0.17128233369E+03  0.17120000000E+03 0.  0.
        998    1    1    2    0    0 -0.64715496837E+00 -0.88547474456E+01  0.14430126948E+04  0.14430746559E+04  0.10000000000E+02 0. -1.
</event>
<event>
 5    1  0.1338396E-008  0.3729288E+03  0.7957747E-01  0.3482538E+00
         13   -1    0    0    0    0  0.00000000000E+00  0.00000000000E+00  0.14999999963E+04  0.15000000000E+04  0.10566000000E+00 0. -1.
        994   -1    0    0    0    0 -0.00000000000E+00 -0.00000000000E+00  0.11368683772E-12  0.17120000000E+03  0.17120000000E+03 0.  0.
         13    1    1    2    0    0 -0.26299520187E+02  0.28989995762E+02  0.91974887874E+02  0.99957369812E+02  0.10566000000E+00 0. -1.
        994    1    1    2    0    0  0.21011126118E+02 -0.29304542516E+02  0.12210077964E+02  0.17538172549E+03  0.17120000000E+03 0.  0.
        998    1    1    2    0    0  0.52883940692E+01  0.31454675355E+00  0.13958150304E+04  0.13958609047E+04  0.10000000000E+02 0. -1.
</event>
<event>
 5    1  0.1338396E-008  0.3823322E+03  0.7957747E-01  0.3441066E+00
         13   -1    0    0    0    0  0.00000000000E+00  0.00000000000E+00  0.14999999963E+04  0.15000000000E+04  0.10566000000E+00 0. -1.
        994   -1    0    0    0    0 -0.00000000000E+00 -0.00000000000E+00  0.11368683772E-12  0.17120000000E+03  0.17120000000E+03 0.  0.
         13    1    1    2    0    0  0.39255116092E+02 -0.18619951792E+02  0.23411325235E+03  0.23811067350E+03  0.10566000000E+00 0. -1.
        994    1    1    2    0    0 -0.59626173554E+02  0.13386815565E+02  0.15449502873E+02  0.18243523383E+03  0.17120000000E+03 0.  0.
        998    1    1    2    0    0  0.20371057462E+02  0.52331362271E+01  0.12504372411E+04  0.12506540927E+04  0.10000000000E+02 0. -1.
</event>
<event>
 5    1  0.1338396E-008  0.3845181E+03  0.7957747E-01  0.3431719E+00
         13   -1    0    0    0    0  0.00000000000E+00  0.00000000000E+00  0.14999999963E+04  0.15000000000E+04  0.10566000000E+00 0. -1.
        994   -1    0    0    0    0 -0.00000000000E+00 -0.00000000000E+00  0.11368683772E-12  0.17120000000E+03  0.17120000000E+03 0.  0.
         13    1    1    2    0    0  0.83602188327E+01 -0.17022365330E+02  0.10728075208E+03  0.10894413757E+03  0.10566000000E+00 0. -1.
        994    1    1    2    0    0 -0.18120423480E+01 -0.33780240584E+01  0.19180020002E+01  0.17125365186E+03  0.17120000000E+03 0.  0.
        998    1    1    2    0    0 -0.65481764847E+01  0.20400389389E+02  0.13908012422E+04  0.13910022106E+04  0.10000000000E+02 0. -1.
</event>
<event>
 5    1  0.1338396E-008  0.3481479E+03  0.7957747E-01  0.3602770E+00
         13   -1    0    0    0    0  0.00000000000E+00  0.00000000000E+00  0.14999999963E+04  0.15000000000E+04  0.10566000000E+00 0. -1.
        994   -1    0    0    0    0 -0.00000000000E+00 -0.00000000000E+00  0.11368683772E-12  0.17120000000E+03  0.17120000000E+03 0.  0.
         13    1    1    2    0    0  0.14447995018E+03 -0.18907044414E+03  0.94636833099E+03  0.97582535216E+03  0.10566000000E+00 0. -1.
        994    1    1    2    0    0 -0.13227664968E+03  0.18108447269E+03  0.21104626063E+03  0.35233316964E+03  0.17120000000E+03 0.  0.
        998    1    1    2    0    0 -0.12203300498E+02  0.79859714474E+01  0.34258540466E+03  0.34304147820E+03  0.10000000000E+02 0.  0.
</event>
<event>
 5    1  0.1338396E-008  0.3839013E+03  0.7957747E-01  0.3434345E+00
         13   -1    0    0    0    0  0.00000000000E+00  0.00000000000E+00  0.14999999963E+04  0.15000000000E+04  0.10566000000E+00 0. -1.
        994   -1    0    0    0    0 -0.00000000000E+00 -0.00000000000E+00  0.11368683772E-12  0.17120000000E+03  0.17120000000E+03 0.  0.
         13    1    1    2    0    0  0.10453938969E+01  0.18076356458E+02  0.73160046051E+02  0.75367440008E+02  0.10566000000E+00 0. -1.
        994    1    1    2    0    0  0.55224617436E+00 -0.15629004298E+02  0.29842042760E+01  0.17193869904E+03  0.17120000000E+03 0.  0.
        998    1    1    2    0    0 -0.15976400713E+01 -0.24473521603E+01  0.14238557460E+04  0.14238938610E+04  0.10000000000E+02 0. -1.
</event>
<event>
 5    1  0.1338396E-008  0.3846158E+03  0.7957747E-01  0.3431303E+00
         13   -1    0    0    0    0  0.00000000000E+00  0.00000000000E+00  0.14999999963E+04  0.15000000000E+04  0.10566000000E+00 0.  1.
        994   -1    0    0    0    0 -0.00000000000E+00 -0.00000000000E+00  0.11368683772E-12  0.17120000000E+03  0.17120000000E+03 0.  0.
         13    1    1    2    0    0 -0.19362634858E+02  0.65261610142E+01  0.10982490296E+03  0.11170954695E+03  0.10566000000E+00 0.  1.
        994    1    1    2    0    0  0.16104098315E+02 -0.91196890959E+01  0.29496125984E+01  0.17222267832E+03  0.17120000000E+03 0.  0.
        998    1    1    2    0    0  0.32585365433E+01  0.25935280817E+01  0.13872254807E+04  0.13872677747E+04  0.10000000000E+02 0.  1.
</event>
<event>
 5    1  0.1338396E-008  0.3847350E+03  0.7957747E-01  0.3430797E+00
         13   -1    0    0    0    0  0.00000000000E+00  0.00000000000E+00  0.14999999963E+04  0.15000000000E+04  0.10566000000E+00 0. -1.
        994   -1    0    0    0    0 -0.00000000000E+00 -0.00000000000E+00  0.11368683772E-12  0.17120000000E+03  0.17120000000E+03 0.  0.
         13    1    1    2    0    0  0.14036984693E+02 -0.55488558482E+01  0.65001436657E+02  0.66730987345E+02  0.10566000000E+00 0. -1.
        994    1    1    2    0    0 -0.53771755467E+01  0.10366780135E+02  0.22108097671E+01  0.17161209697E+03  0.17120000000E+03 0.  0.
        998    1    1    2    0    0 -0.86598091460E+01 -0.48179242866E+01  0.14327877499E+04  0.14328569157E+04  0.10000000000E+02 0. -1.
</event>
<event>
 5    1  0.1338396E-008  0.3852235E+03  0.7957747E-01  0.3428725E+00
         13   -1    0    0    0    0  0.00000000000E+00  0.00000000000E+00  0.14999999963E+04  0.15000000000E+04  0.10566000000E+00 0. -1.
        994   -1    0    0    0    0 -0.00000000000E+00 -0.00000000000E+00  0.11368683772E-12  0.17120000000E+03  0.17120000000E+03 0.  0.
         13    1    1    2    0    0 -0.85739524807E+01 -0.15489721694E+02  0.96930653081E+02  0.98534292558E+02  0.10566000000E+00 0. -1.
        994    1    1    2    0    0  0.55653417253E+01  0.19235386271E+02  0.28380364789E+01  0.17239045091E+03  0.17120000000E+03 0.  0.
        998    1    1    2    0    0  0.30086107554E+01 -0.37456645768E+01  0.14002313067E+04  0.14002752565E+04  0.10000000000E+02 0. -1.
</event>
<event>
 5    1  0.1338396E-008  0.3851797E+03  0.7957747E-01  0.3428910E+00
         13   -1    0    0    0    0  0.00000000000E+00  0.00000000000E+00  0.14999999963E+04  0.15000000000E+04  0.10566000000E+00 0.  1.
        994   -1    0    0    0    0 -0.00000000000E+00 -0.00000000000E+00  0.11368683772E-12  0.17120000000E+03  0.17120000000E+03 0.  0.
         13    1    1    2    0    0 -0.12755557869E+02 -0.12102598025E+01  0.57367592481E+02  0.58781126362E+02  0.10566000000E+00 0.  1.
        994    1    1    2    0    0 -0.28587765891E+01 -0.39052317453E+01  0.16179356747E+01  0.17127603789E+03  0.17120000000E+03 0.  0.
        998    1    1    2    0    0  0.15614334458E+02  0.51154915478E+01  0.14410144681E+04  0.14411428358E+04  0.10000000000E+02 0.  1.
</event>
<event>
 5    1  0.1338396E-008  0.3849946E+03  0.7957747E-01  0.3429695E+00
         13   -1    0    0    0    0  0.00000000000E+00  0.00000000000E+00  0.14999999963E+04  0.15000000000E+04  0.10566000000E+00 0. -1.
        994   -1    0    0    0    0 -0.00000000000E+00 -0.00000000000E+00  0.11368683772E-12  0.17120000000E+03  0.17120000000E+03 0.  0.
         13    1    1    2    0    0  0.19239391195E+02 -0.25085449896E+01  0.10418814777E+03  0.10597937663E+03  0.10566000000E+00 0. -1.
        994    1    1    2    0    0 -0.25222627571E+02  0.14621387007E+01  0.37349000368E+01  0.17309450676E+03  0.17120000000E+03 0.  0.
        998    1    1    2    0    0  0.59832363758E+01  0.10464062889E+01  0.13920769485E+04  0.13921261166E+04  0.10000000000E+02 0. -1.
</event>
<event>
 5    1  0.1338396E-008  0.3772700E+03  0.7957747E-01  0.3463132E+00
         13   -1    0    0    0    0  0.00000000000E+00  0.00000000000E+00  0.14999999963E+04  0.15000000000E+04  0.10566000000E+00 0. -1.
        994   -1    0    0    0    0 -0.00000000000E+00 -0.00000000000E+00  0.11368683772E-12  0.17120000000E+03  0.17120000000E+03 0.  0.
         13    1    1    2    0    0  0.28070141019E+01  0.19872057940E+02  0.35805012947E+02  0.41046170724E+02  0.10566000000E+00 0. -1.
        994    1    1    2    0    0 -0.12355926862E+02  0.28927622501E+01  0.60610336452E+01  0.17177663733E+03  0.17120000000E+03 0.  0.
        998    1    1    2    0    0  0.95489127599E+01 -0.22764820190E+02  0.14581339497E+04  0.14583771920E+04  0.10000000000E+02 0. -1.
</event>
<event>
 5    1  0.1338396E-008  0.4052910E+03  0.7957747E-01  0.3347925E+00
         13   -1    0    0    0    0  0.00000000000E+00  0.00000000000E+00  0.14999999963E+04  0.15000000000E+04  0.10566000000E+00 0.  1.
        994   -1    0    0    0    0 -0.00000000000E+00 -0.00000000000E+00  0.11368683772E-12  0.17120000000E+03  0.17120000000E+03 0.  0.
         13    1    1    2    0    0  0.10168213904E+03 -0.16700626188E+02  0.14356830444E+03  0.17672022385E+03  0.10566000000E+00 0.  1.
        994    1    1    2    0    0 -0.10539809073E+03  0.26940834172E+02  0.80131879692E+02  0.21809430121E+03  0.17120000000E+03 0.  0.
        998    1    1    2    0    0  0.37159516974E+01 -0.10240207985E+02  0.12762998122E+04  0.12763854749E+04  0.10000000000E+02 0.  1.
</event>
<event>
 5    1  0.1338396E-008  0.3706111E+03  0.7957747E-01  0.3493087E+00
         13   -1    0    0    0    0  0.00000000000E+00  0.00000000000E+00  0.14999999963E+04  0.15000000000E+04  0.10566000000E+00 0. -1.
        994   -1    0    0    0    0 -0.00000000000E+00 -0.00000000000E+00  0.11368683772E-12  0.17120000000E+03  0.17120000000E+03 0.  0.
         13    1    1    2    0    0  0.83276077704E+02  0.13971870163E+03  0.63989165213E+03  0.66024053067E+03  0.10566000000E+00 0. -1.
        994    1    1    2    0    0 -0.85460779838E+02 -0.13280628540E+03  0.10456000679E+03  0.25531018263E+03  0.17120000000E+03 0.  0.
        998    1    1    2    0    0  0.21847021343E+01 -0.69124162321E+01  0.75554833736E+03  0.75564928671E+03  0.10000000000E+02 0. -1.
</event>
<event>
 5    1  0.1338396E-008  0.3689028E+03  0.7957747E-01  0.3500949E+00
         13   -1    0    0    0    0  0.00000000000E+00  0.00000000000E+00  0.14999999963E+04  0.15000000000E+04  0.10566000000E+00 0.  1.
        994   -1    0    0    0    0 -0.00000000000E+00 -0.00000000000E+00  0.11368683772E-12  0.17120000000E+03  0.17120000000E+03 0.  0.
         13    1    1    2    0    0 -0.47362438096E+02  0.10715777804E+03  0.45803423973E+03  0.47278046265E+03  0.10566000000E+00 0.  1.
        994    1    1    2    0    0  0.44825901387E+02 -0.11061454333E+03  0.61049462147E+02  0.21744290161E+03  0.17120000000E+03 0.  0.
        998    1    1    2    0    0  0.25365367086E+01  0.34567652906E+01  0.98091629440E+03  0.98097663574E+03  0.10000000000E+02 0.  1.
</event>
<event>
 5    1  0.1338396E-008  0.3862823E+03  0.7957747E-01  0.3424252E+00
         13   -1    0    0    0    0  0.00000000000E+00  0.00000000000E+00  0.14999999963E+04  0.15000000000E+04  0.10566000000E+00 0. -1.
        994   -1    0    0    0    0 -0.00000000000E+00 -0.00000000000E+00  0.11368683772E-12  0.17120000000E+03  0.17120000000E+03 0.  0.
         13    1    1    2    0    0  0.77199139555E+01  0.90228809060E+01  0.67353970919E+02  0.68392821362E+02  0.10566000000E+00 0. -1.
        994    1    1    2    0    0 -0.12183487532E+02 -0.10957893725E+02  0.18747005942E+01  0.17199263736E+03  0.17120000000E+03 0.  0.
        998    1    1    2    0    0  0.44635735761E+01  0.19350128187E+01  0.14307713248E+04  0.14308145413E+04  0.10000000000E+02 0. -1.
</event>
<event>
 5    1  0.1338396E-008  0.3858531E+03  0.7957747E-01  0.3426062E+00
         13   -1    0    0    0    0  0.00000000000E+00  0.00000000000E+00  0.14999999963E+04  0.15000000000E+04  0.10566000000E+00 0. -1.
        994   -1    0    0    0    0 -0.00000000000E+00 -0.00000000000E+00  0.11368683772E-12  0.17120000000E+03  0.17120000000E+03 0.  0.
         13    1    1    2    0    0  0.39183678196E+02 -0.18574764266E+02  0.36973052349E+02  0.56985965540E+02  0.10566000000E+00 0. -1.
        994    1    1    2    0    0 -0.62017674816E+02  0.29281517694E+02  0.37214431438E+02  0.18814343777E+03  0.17120000000E+03 0.  0.
        998    1    1    2    0    0  0.22833996620E+02 -0.10706753427E+02  0.14258125125E+04  0.14260705967E+04  0.10000000000E+02 0. -1.
</event>
<event>
 5    1  0.1338396E-008  0.3778330E+03  0.7957747E-01  0.3460648E+00
         13   -1    0    0    0    0  0.00000000000E+00  0.00000000000E+00  0.14999999963E+04  0.15000000000E+04  0.10566000000E+00 0. -1.
        994   -1    0    0    0    0 -0.00000000000E+00 -0.00000000000E+00  0.11368683772E-12  0.17120000000E+03  0.17120000000E+03 0.  0.
         13    1    1    2    0    0 -0.30072993618E+02  0.50351116942E+02  0.13274708620E+03  0.14512553181E+03  0.10566000000E+00 0. -1.
        994    1    1    2    0    0 -0.35987527410E+00  0.20872081961E+02  0.16710126170E+02  0.17327562331E+03  0.17120000000E+03 0.  0.
        998    1    1    2    0    0  0.30432868892E+02 -0.71223198902E+02  0.13505427839E+04  0.13527988449E+04  0.10000000000E+02 0. -1.
</event>
<event>
 5    1  0.1338396E-008  0.3761489E+03  0.7957747E-01  0.3468100E+00
         13   -1    0    0    0    0  0.00000000000E+00  0.00000000000E+00  0.14999999963E+04  0.15000000000E+04  0.10566000000E+00 0.  1.
        994   -1    0    0    0    0 -0.00000000000E+00 -0.00000000000E+00  0.11368683772E-12  0.17120000000E+03  0.17120000000E+03 0.  0.
         13    1    1    2    0    0 -0.27965190091E+02 -0.44417574272E+02  0.27425181610E+03  0.27922937267E+03  0.10566000000E+00 0.  1.
        994    1    1    2    0    0 -0.27579405478E+02  0.24366051329E+02  0.10689521959E+02  0.17543669497E+03  0.17120000000E+03 0.  0.
        998    1    1    2    0    0  0.55544595569E+02  0.20051522944E+02  0.12150586582E+04  0.12165339324E+04  0.10000000000E+02 0.  1.
</event>
<event>
 5    1  0.1338396E-008  0.3729679E+03  0.7957747E-01  0.3482361E+00
         13   -1    0    0    0    0  0.00000000000E+00  0.00000000000E+00  0.14999999963E+04  0.15000000000E+04  0.10566000000E+00 0.  1.
        994   -1    0    0    0    0 -0.00000000000E+00 -0.00000000000E+00  0.11368683772E-12  0.17120000000E+03  0.17120000000E+03 0.  0.
         13    1    1    2    0    0  0.14997698627E+02  0.26840309463E+02  0.83094256021E+02  0.88600224175E+02  0.10566000000E+00 0.  1.
        994    1    1    2    0    0  0.72892398076E+01  0.80891247289E+02  0.30652244627E+02  0.19195188722E+03  0.17120000000E+03 0.  0.
        998    1    1    2    0    0 -0.22286938434E+02 -0.10773155675E+03  0.13862534956E+04  0.13906478886E+04  0.10000000000E+02 0.  1.
</event>
<event>
 5    1  0.1338396E-008  0.3736450E+03  0.7957747E-01  0.3479305E+00
         13   -1    0    0    0    0  0.00000000000E+00  0.00000000000E+00  0.14999999963E+04  0.15000000000E+04  0.10566000000E+00 0.  1.
        994   -1    0    0    0    0 -0.00000000000E+00 -0.00000000000E+00  0.11368683772E-12  0.17120000000E+03  0.17120000000E+03 0.  0.
         13    1    1    2    0    0  0.88607162283E+01  0.11481315807E+02  0.10899762751E+02  0.18142461156E+02  0.10566000000E+00 0.  1.
        994    1    1    2    0    0 -0.13302351071E+02 -0.61700389108E+01  0.81107982781E+01  0.17201815885E+03  0.17120000000E+03 0.  0.
        998    1    1    2    0    0  0.44416348426E+01 -0.53112768962E+01  0.14809894352E+04  0.14810393800E+04  0.10000000000E+02 0.  1.
</event>
<event>
 5    1  0.1338396E-008  0.3775335E+03  0.7957747E-01  0.3461969E+00
         13   -1    0    0    0    0  0.00000000000E+00  0.00000000000E+00  0.14999999963E+04  0.15000000000E+04  0.10566000000E+00 0. -1.
        994   -1    0    0    0    0 -0.00000000000E+00 -0.00000000000E+00  0.11368683772E-12  0.17120000000E+03  0.17120000000E+03 0.  0.
         13    1    1    2    0    0  0.69648009558E+01  0.45884099792E+02  0.17796993754E+03  0.18392163793E+03  0.10566000000E+00 0. -1.
        994    1    1    2    0    0 -0.79547084697E+01 -0.43982577519E+02  0.12146406458E+02  0.17735478483E+03  0.17120000000E+03 0.  0.
        998    1    1    2    0    0  0.98990751389E+00 -0.19015222733E+01  0.13098836523E+04  0.13099235772E+04  0.10000000000E+02 0. -1.
</event>
<event>
 5    1  0.1338396E-008  0.3845641E+03  0.7957747E-01  0.3431523E+00
         13   -1    0    0    0    0  0.00000000000E+00  0.00000000000E+00  0.14999999963E+04  0.15000000000E+04  0.10566000000E+00 0. -1.
        994   -1    0    0    0    0 -0.00000000000E+00 -0.00000000000E+00  0.11368683772E-12  0.17120000000E+03  0.17120000000E+03 0.  0.
         13    1    1    2    0    0 -0.34799132231E+01 -0.12695685218E+02  0.44613402193E+02  0.46515126985E+02  0.10566000000E+00 0. -1.
        994    1    1    2    0    0  0.46678937675E+01  0.17159346575E+02  0.28888273472E+01  0.17214533897E+03  0.17120000000E+03 0.  0.
        998    1    1    2    0    0 -0.11879805445E+01 -0.44636613572E+01  0.14524977667E+04  0.14525395340E+04  0.10000000000E+02 0. -1.
</event>
<event>
 5    1  0.1338396E-008  0.3826007E+03  0.7957747E-01  0.3439912E+00
         13   -1    0    0    0    0  0.00000000000E+00  0.00000000000E+00  0.14999999963E+04  0.15000000000E+04  0.10566000000E+00 0. -1.
        994   -1    0    0    0    0 -0.00000000000E+00 -0.00000000000E+00  0.11368683772E-12  0.17120000000E+03  0.17120000000E+03 0.  0.
         13    1    1    2    0    0 -0.56079926102E+01 -0.14610927807E+02  0.45572666088E+02  0.48185141392E+02  0.10566000000E+00 0. -1.
        994    1    1    2    0    0 -0.63134088414E+01 -0.46439982918E+01  0.30296693058E+01  0.17140608142E+03  0.17120000000E+03 0.  0.
        998    1    1    2    0    0  0.11921401452E+02  0.19254926099E+02  0.14513976609E+04  0.14516087772E+04  0.10000000000E+02 0. -1.
</event>
<event>
 5    1  0.1338396E-008  0.3817468E+03  0.7957747E-01  0.3443587E+00
         13   -1    0    0    0    0  0.00000000000E+00  0.00000000000E+00  0.14999999963E+04  0.15000000000E+04  0.10566000000E+00 0. -1.
        994   -1    0    0    0    0 -0.00000000000E+00 -0.00000000000E+00  0.11368683772E-12  0.17120000000E+03  0.17120000000E+03 0.  0.
         13    1    1    2    0    0 -0.32390800033E+01 -0.25785828137E+02  0.10305029136E+03  0.10627687559E+03  0.10566000000E+00 0. -1.
        994    1    1    2    0    0  0.97767408818E+01  0.14295709940E+02  0.42515341550E+01  0.17212631271E+03  0.17120000000E+03 0.  0.
        998    1    1    2    0    0 -0.65376608785E+01  0.11490118198E+02  0.13926981708E+04  0.13927968117E+04  0.10000000000E+02 0. -1.
</event>
<event>
 5    1  0.1338396E-008  0.3851343E+03  0.7957747E-01  0.3429103E+00
         13   -1    0    0    0    0  0.00000000000E+00  0.00000000000E+00  0.14999999963E+04  0.15000000000E+04  0.10566000000E+00 0. -1.
        994   -1    0    0    0    0 -0.00000000000E+00 -0.00000000000E+00  0.11368683772E-12  0.17120000000E+03  0.17120000000E+03 0.  0.
         13    1    1    2    0    0 -0.18888508098E+01  0.10172510062E+02  0.35961797927E+02  0.37420713415E+02  0.10566000000E+00 0. -1.
        994    1    1    2    0    0 -0.28003397099E+01  0.32945381780E+01  0.16249261403E+01  0.17126230253E+03  0.17120000000E+03 0.  0.
        998    1    1    2    0    0  0.46891905198E+01 -0.13467048240E+02  0.14624132722E+04  0.14625169841E+04  0.10000000000E+02 0. -1.
</event>
<event>
 5    1  0.1338396E-008  0.3826576E+03  0.7957747E-01  0.3439668E+00
         13   -1    0    0    0    0  0.00000000000E+00  0.00000000000E+00  0.14999999963E+04  0.15000000000E+04  0.10566000000E+00 0. -1.
        994   -1    0    0    0    0 -0.00000000000E+00 -0.00000000000E+00  0.11368683772E-12  0.17120000000E+03  0.17120000000E+03 0.  0.
         13    1    1    2    0    0 -0.13976075083E+01 -0.18106290545E+02  0.57045962350E+02  0.59866886077E+02  0.10566000000E+00 0. -1.
        994    1    1    2    0    0  0.13714323185E+01  0.15585211326E+02  0.36091542359E+01  0.17195128855E+03  0.17120000000E+03 0.  0.
        998    1    1    2    0    0  0.26175189816E-01  0.25210792195E+01  0.14393448797E+04  0.14393818254E+04  0.10000000000E+02 0. -1.
</event>
<event>
 5    1  0.1338396E-008  0.3842313E+03  0.7957747E-01  0.3432939E+00
         13   -1    0    0    0    0  0.00000000000E+00  0.00000000000E+00  0.14999999963E+04  0.15000000000E+04  0.10566000000E+00 0. -1.
        994   -1    0    0    0    0 -0.00000000000E+00 -0.00000000000E+00  0.11368683772E-12  0.17120000000E+03  0.17120000000E+03 0.  0.
         13    1    1    2    0    0  0.10184056848E+02 -0.55228819648E+01  0.33669159738E+02  0.35606751053E+02  0.10566000000E+00 0. -1.
        994    1    1    2    0    0 -0.34358269758E+01 -0.17844884492E+01  0.20616983409E+01  0.17125618210E+03  0.17120000000E+03 0.  0.
        998    1    1    2    0    0 -0.67482298718E+01  0.73073704140E+01  0.14642691382E+04  0.14643370669E+04  0.10000000000E+02 0. -1.
</event>
<event>
 5    1  0.1338396E-008  0.3758527E+03  0.7957747E-01  0.3469418E+00
         13   -1    0    0    0    0  0.00000000000E+00  0.00000000000E+00  0.14999999963E+04  0.15000000000E+04  0.10566000000E+00 0. -1.
        994   -1    0    0    0    0 -0.00000000000E+00 -0.00000000000E+00  0.11368683772E-12  0.17120000000E+03  0.17120000000E+03 0.  0.
         13    1    1    2    0    0 -0.24326105353E+02 -0.12452655232E+02  0.53432097422E+02  0.60015233257E+02  0.10566000000E+00 0. -1.
        994    1    1    2    0    0  0.41548256164E+02  0.52904072981E+01  0.12210664120E+02  0.17667140775E+03  0.17120000000E+03 0.  0.
        998    1    1    2    0    0 -0.17222150811E+02  0.71622479341E+01  0.14343572347E+04  0.14345133590E+04  0.10000000000E+02 0. -1.
</event>
<event>
 5    1  0.1338396E-008  0.3826773E+03  0.7957747E-01  0.3439583E+00
         13   -1    0    0    0    0  0.00000000000E+00  0.00000000000E+00  0.14999999963E+04  0.15000000000E+04  0.10566000000E+00 0. -1.
        994   -1    0    0    0    0 -0.00000000000E+00 -0.00000000000E+00  0.11368683772E-12  0.17120000000E+03  0.17120000000E+03 0.  0.
         13    1    1    2    0    0  0.10415700984E+02  0.12430543612E+02  0.46462717225E+02  0.49211792260E+02  0.10566000000E+00 0. -1.
        994    1    1    2    0    0 -0.25368809993E+01 -0.10686478025E+02  0.31875694267E+01  0.17158157587E+03  0.17120000000E+03 0.  0.
        998    1    1    2    0    0 -0.78788199851E+01 -0.17440655863E+01  0.14503497096E+04  0.14504066319E+04  0.10000000000E+02 0. -1.
</event>
<event>
 5    1  0.1338396E-008  0.3840770E+03  0.7957747E-01  0.3433596E+00
         13   -1    0    0    0    0  0.00000000000E+00  0.00000000000E+00  0.14999999963E+04  0.15000000000E+04  0.10566000000E+00 0. -1.
        994   -1    0    0    0    0 -0.00000000000E+00 -0.00000000000E+00  0.11368683772E-12  0.17120000000E+03  0.17120000000E+03 0.  0.
         13    1    1    2    0    0 -0.95700306461E+01  0.98913472815E+01  0.44889338967E+02  0.46951977110E+02  0.10566000000E+00 0. -1.
        994    1    1    2    0    0 -0.23280997472E+00 -0.12996009296E+02  0.26465730594E+01  0.17171311775E+03  0.17120000000E+03 0.  0.
        998    1    1    2    0    0  0.98028406208E+01  0.31046620142E+01  0.14524640843E+04  0.14525349051E+04  0.10000000000E+02 0. -1.
</event>
<event>
 5    1  0.1338396E-008  0.3825841E+03  0.7957747E-01  0.3439983E+00
         13   -1    0    0    0    0  0.00000000000E+00  0.00000000000E+00  0.14999999963E+04  0.15000000000E+04  0.10566000000E+00 0. -1.
        994   -1    0    0    0    0 -0.00000000000E+00 -0.00000000000E+00  0.11368683772E-12  0.17120000000E+03  0.17120000000E+03 0.  0.
         13    1    1    2    0    0 -0.49274447677E+01 -0.13689137208E+02  0.37219925011E+02  0.39962559619E+02  0.10566000000E+00 0. -1.
        994    1    1    2    0    0  0.29240849249E+01  0.30582969701E+01  0.28936855086E+01  0.17127672600E+03  0.17120000000E+03 0.  0.
        998    1    1    2    0    0  0.20033598428E+01  0.10630840238E+02  0.14598863858E+04  0.14599607144E+04  0.10000000000E+02 0. -1.
</event>
<event>
 5    1  0.1834663E-008  0.3861694E+03  0.7957747E-01  0.3424728E+00
         13   -1    0    0    0    0  0.00000000000E+00  0.00000000000E+00  0.14999999963E+04  0.15000000000E+04  0.10566000000E+00 0.  1.
        994   -1    0    0    0    0 -0.00000000000E+00 -0.00000000000E+00  0.11368683772E-12  0.17120000000E+03  0.17120000000E+03 0.  0.
         13    1    1    2    0    0  0.41100255163E+01 -0.10185216512E+02  0.59498030129E+02  0.60503369315E+02  0.10566000000E+00 0.  1.
        994    1    1    2    0    0 -0.42775684291E+01  0.32020956522E+01  0.11442078797E+01  0.17128718639E+03  0.17120000000E+03 0.  0.
        998    1    1    2    0    0  0.16754291278E+00  0.69831208599E+01  0.14393577583E+04  0.14394094443E+04  0.10000000000E+02 0.  1.
</event>
<event>
 5    1  0.1338396E-008  0.3774924E+03  0.7957747E-01  0.3462150E+00
         13   -1    0    0    0    0  0.00000000000E+00  0.00000000000E+00  0.14999999963E+04  0.15000000000E+04  0.10566000000E+00 0.  1.
        994   -1    0    0    0    0 -0.00000000000E+00 -0.00000000000E+00  0.11368683772E-12  0.17120000000E+03  0.17120000000E+03 0.  0.
         13    1    1    2    0    0  0.57088537657E+02  0.52936137700E+02  0.40409097546E+03  0.41152261593E+03  0.10566000000E+00 0.  1.
        994    1    1    2    0    0 -0.48265955572E+02 -0.64052485927E+02  0.27403309035E+02  0.19103063829E+03  0.17120000000E+03 0.  0.
        998    1    1    2    0    0 -0.88225820850E+01  0.11116348227E+02  0.10685057118E+04  0.10686467458E+04  0.10000000000E+02 0.  1.
</event>
<event>
 5    1  0.1338396E-008  0.3715692E+03  0.7957747E-01  0.3488710E+00
         13   -1    0    0    0    0  0.00000000000E+00  0.00000000000E+00  0.14999999963E+04  0.15000000000E+04  0.10566000000E+00 0.  1.
        994   -1    0    0    0    0 -0.00000000000E+00 -0.00000000000E+00  0.11368683772E-12  0.17120000000E+03  0.17120000000E+03 0.  0.
         13    1    1    2    0    0  0.26287214575E+02 -0.16380866923E+02  0.59207352559E+02  0.66819699283E+02  0.10566000000E+00 0.  1.
        994    1    1    2    0    0  0.19947345582E+02  0.91386329120E+01  0.10108481971E+02  0.17289601677E+03  0.17120000000E+03 0.  0.
        998    1    1    2    0    0 -0.46234560157E+02  0.72422340110E+01  0.14306841617E+04  0.14314842839E+04  0.10000000000E+02 0.  1.
</event>
<event>
 5    1  0.1338396E-008  0.3854027E+03  0.7957747E-01  0.3427966E+00
         13   -1    0    0    0    0  0.00000000000E+00  0.00000000000E+00  0.14999999963E+04  0.15000000000E+04  0.10566000000E+00 0.  1.
        994   -1    0    0    0    0 -0.00000000000E+00 -0.00000000000E+00  0.11368683772E-12  0.17120000000E+03  0.17120000000E+03 0.  0.
         13    1    1    2    0    0  0.40204294558E+01 -0.14174391096E+02  0.70750540906E+02  0.72268439989E+02  0.10566000000E+00 0.  1.
        994    1    1    2    0    0 -0.14111592218E+02  0.17281081284E+02  0.30669300586E+01  0.17267489356E+03  0.17120000000E+03 0.  0.
        998    1    1    2    0    0  0.10091162762E+02 -0.31066901882E+01  0.14261825253E+04  0.14262566665E+04  0.10000000000E+02 0.  1.
</event>
<event>
 5    1  0.1338396E-008  0.3847726E+03  0.7957747E-01  0.3430637E+00
         13   -1    0    0    0    0  0.00000000000E+00  0.00000000000E+00  0.14999999963E+04  0.15000000000E+04  0.10566000000E+00 0.  1.
        994   -1    0    0    0    0 -0.00000000000E+00 -0.00000000000E+00  0.11368683772E-12  0.17120000000E+03  0.17120000000E+03 0.  0.
         13    1    1    2    0    0  0.26356352666E+01  0.10128336530E+02  0.31294137245E+02  0.32997938785E+02  0.10566000000E+00 0.  1.
        994    1    1    2    0    0 -0.70582963117E+01 -0.41402971584E+01  0.19634771718E+01  0.17140670013E+03  0.17120000000E+03 0.  0.
        998    1    1    2    0    0  0.44226610451E+01 -0.59880393712E+01  0.14667423819E+04  0.14667953611E+04  0.10000000000E+02 0.  1.
</event>
<event>
 5    1  0.1338396E-008  0.3858984E+03  0.7957747E-01  0.3425871E+00
         13   -1    0    0    0    0  0.00000000000E+00  0.00000000000E+00  0.14999999963E+04  0.15000000000E+04  0.10566000000E+00 0.  1.
        994   -1    0    0    0    0 -0.00000000000E+00 -0.00000000000E+00  0.11368683772E-12  0.17120000000E+03  0.17120000000E+03 0.  0.
         13    1    1    2    0    0  0.61943661239E+01  0.13087478027E+02  0.81838896172E+02  0.83109977401E+02  0.10566000000E+00 0.  1.
        994    1    1    2    0    0 -0.32084421379E+01 -0.20912092027E+02  0.26539065317E+01  0.17252273159E+03  0.17120000000E+03 0.  0.
        998    1    1    2    0    0 -0.29859239860E+01  0.78246139998E+01  0.14155071936E+04  0.14155672910E+04  0.10000000000E+02 0.  1.
</event>
<event>
 5    1  0.1338396E-008  0.3812058E+03  0.7957747E-01  0.3445925E+00
         13   -1    0    0    0    0  0.00000000000E+00  0.00000000000E+00  0.14999999963E+04  0.15000000000E+04  0.10566000000E+00 0.  1.
        994   -1    0    0    0    0 -0.00000000000E+00 -0.00000000000E+00  0.11368683772E-12  0.17120000000E+03  0.17120000000E+03 0.  0.
         13    1    1    2    0    0  0.10804056350E+02 -0.22497198722E+01  0.15527933631E+02  0.19050374275E+02  0.10566000000E+00 0.  1.
        994    1    1    2    0    0 -0.14317552848E+02  0.17854776610E+01  0.42191831833E+01  0.17185872616E+03  0.17120000000E+03 0.  0.
        998    1    1    2    0    0  0.35134964973E+01  0.46424221114E+00  0.14802528795E+04  0.14802908996E+04  0.10000000000E+02 0.  1.
</event>
<event>
 5    1  0.1338396E-008  0.3719360E+03  0.7957747E-01  0.3487041E+00
         13   -1    0    0    0    0  0.00000000000E+00  0.00000000000E+00  0.14999999963E+04  0.15000000000E+04  0.10566000000E+00 0.  1.
        994   -1    0    0    0    0 -0.00000000000E+00 -0.00000000000E+00  0.11368683772E-12  0.17120000000E+03  0.17120000000E+03 0.  0.
         13    1    1    2    0    0 -0.34111936596E+00  0.12133292497E+02  0.49888588182E+01  0.13123758059E+02  0.10566000000E+00 0.  1.
        994    1    1    2    0    0  0.26985366500E+01 -0.18442828912E+02  0.94548458085E+01  0.17247102408E+03  0.17120000000E+03 0.  0.
        998    1    1    2    0    0 -0.23574172841E+01  0.63095364151E+01  0.14855562917E+04  0.14856052179E+04  0.10000000000E+02 0.  1.
</event>
<event>
 5    1  0.1338396E-008  0.3811246E+03  0.7957747E-01  0.3446276E+00
         13   -1    0    0    0    0  0.00000000000E+00  0.00000000000E+00  0.14999999963E+04  0.15000000000E+04  0.10566000000E+00 0. -1.
        994   -1    0    0    0    0 -0.00000000000E+00 -0.00000000000E+00  0.11368683772E-12  0.17120000000E+03  0.17120000000E+03 0.  0.
         13    1    1    2    0    0 -0.32350280528E+02  0.14863955765E+02  0.17583850813E+03  0.17940643783E+03  0.10566000000E+00 0. -1.
        994    1    1    2    0    0  0.14272593083E+02 -0.20423156076E+02  0.56369099711E+01  0.17309542736E+03  0.17120000000E+03 0.  0.
        998    1    1    2    0    0  0.18077687445E+02  0.55592003108E+01  0.13185245782E+04  0.13186981348E+04  0.10000000000E+02 0. -1.
</event>
<event>
 5    1  0.1338396E-008  0.3802534E+03  0.7957747E-01  0.3450056E+00
         13   -1    0    0    0    0  0.00000000000E+00  0.00000000000E+00  0.14999999963E+04  0.15000000000E+04  0.10566000000E+00 0.  1.
        994   -1    0    0    0    0 -0.00000000000E+00 -0.00000000000E+00  0.11368683772E-12  0.17120000000E+03  0.17120000000E+03 0.  0.
         13    1    1    2    0    0  0.10493569143E+02  0.21719327724E+02  0.70700835081E+02  0.74702499525E+02  0.10566000000E+00 0.  1.
        994    1    1    2    0    0  0.93111586593E+00 -0.19191087983E+02  0.52392871255E+01  0.17235444573E+03  0.17120000000E+03 0.  0.
        998    1    1    2    0    0 -0.11424685009E+02 -0.25282397406E+01  0.14240598741E+04  0.14241430547E+04  0.10000000000E+02 0.  1.
</event>
<event>
 5    1  0.1338396E-008  0.3787455E+03  0.7957747E-01  0.3456639E+00
         13   -1    0    0    0    0  0.00000000000E+00  0.00000000000E+00  0.14999999963E+04  0.15000000000E+04  0.10566000000E+00 0.  1.
        994   -1    0    0    0    0 -0.00000000000E+00 -0.00000000000E+00  0.11368683772E-12  0.17120000000E+03  0.17120000000E+03 0.  0.
         13    1    1    2    0    0 -0.12886365408E+02 -0.14306181600E+02  0.38444278152E+02  0.42996499067E+02  0.10566000000E+00 0.  1.
        994    1    1    2    0    0  0.27479001788E+01 -0.12121139635E+01  0.47980198424E+01  0.17129355262E+03  0.17120000000E+03 0.  0.
        998    1    1    2    0    0  0.10138465229E+02  0.15518295563E+02  0.14567576983E+04  0.14569099483E+04  0.10000000000E+02 0.  1.
</event>
<event>
 5    1  0.1338396E-008  0.3797521E+03  0.7957747E-01  0.3452239E+00
         13   -1    0    0    0    0  0.00000000000E+00  0.00000000000E+00  0.14999999963E+04  0.15000000000E+04  0.10566000000E+00 0.  1.
        994   -1    0    0    0    0 -0.00000000000E+00 -0.00000000000E+00  0.11368683772E-12  0.17120000000E+03  0.17120000000E+03 0.  0.
         13    1    1    2    0    0 -0.25739269705E+02  0.19648157550E+02  0.12487024175E+03  0.12900057573E+03  0.10566000000E+00 0.  1.
        994    1    1    2    0    0  0.12763163353E+02 -0.76136241439E+01  0.49976100949E+01  0.17191649635E+03  0.17120000000E+03 0.  0.
        998    1    1    2    0    0  0.12976106352E+02 -0.12034533406E+02  0.13701321444E+04  0.13702829279E+04  0.10000000000E+02 0.  1.
</event>
<event>
 5    1  0.1338396E-008  0.3703903E+03  0.7957747E-01  0.3494099E+00
         13   -1    0    0    0    0  0.00000000000E+00  0.00000000000E+00  0.14999999963E+04  0.15000000000E+04  0.10566000000E+00 0.  1.
        994   -1    0    0    0    0 -0.00000000000E+00 -0.00000000000E+00  0.11368683772E-12  0.17120000000E+03  0.17120000000E+03 0.  0.
         13    1    1    2    0    0  0.36977034570E+02  0.14539254233E+03  0.66051674401E+03  0.67733940734E+03  0.10566000000E+00 0.  1.
        994    1    1    2    0    0 -0.18393442851E+02 -0.14780751420E+03  0.90069906873E+02  0.24414628426E+03  0.17120000000E+03 0.  0.
        998    1    1    2    0    0 -0.18583591719E+02  0.24149718670E+01  0.74941334540E+03  0.74971430841E+03  0.10000000000E+02 0.  1.
</event>
<event>
 5    1  0.1338396E-008  0.3825891E+03  0.7957747E-01  0.3439962E+00
         13   -1    0    0    0    0  0.00000000000E+00  0.00000000000E+00  0.14999999963E+04  0.15000000000E+04  0.10566000000E+00 0. -1.
        994   -1    0    0    0    0 -0.00000000000E+00 -0.00000000000E+00  0.11368683772E-12  0.17120000000E+03  0.17120000000E+03 0.  0.
         13    1    1    2    0    0  0.37018434056E+00 -0.10598121159E+02  0.18598656577E+02  0.21409773447E+02  0.10566000000E+00 0. -1.
        994    1    1    2    0    0 -0.28346761720E+01  0.10272419161E+02  0.32083628551E+01  0.17156133474E+03  0.17120000000E+03 0.  0.
        998    1    1    2    0    0  0.24644918314E+01  0.32570199753E+00  0.14781929768E+04  0.14782288918E+04  0.10000000000E+02 0. -1.
</event>
<event>
 5    1  0.2196223E-008  0.3861257E+03  0.7957747E-01  0.3424912E+00
         13   -1    0    0    0    0  0.00000000000E+00  0.00000000000E+00  0.14999999963E+04  0.15000000000E+04  0.10566000000E+00 0. -1.
        994   -1    0    0    0    0 -0.00000000000E+00 -0.00000000000E+00  0.11368683772E-12  0.17120000000E+03  0.17120000000E+03 0.  0.
         13    1    1    2    0    0  0.36574688697E+01  0.10487820599E+02  0.56283671277E+02  0.57369279897E+02  0.10566000000E+00 0. -1.
        994    1    1    2    0    0 -0.44332029681E+01 -0.11629121404E+02  0.15799756804E+01  0.17165904018E+03  0.17120000000E+03 0.  0.
        998    1    1    2    0    0  0.77573409845E+00  0.11413008050E+01  0.14421363493E+04  0.14421716799E+04  0.10000000000E+02 0. -1.
</event>
<event>
 5    1  0.1338396E-008  0.3747450E+03  0.7957747E-01  0.3474364E+00
         13   -1    0    0    0    0  0.00000000000E+00  0.00000000000E+00  0.14999999963E+04  0.15000000000E+04  0.10566000000E+00 0. -1.
        994   -1    0    0    0    0 -0.00000000000E+00 -0.00000000000E+00  0.11368683772E-12  0.17120000000E+03  0.17120000000E+03 0.  0.
         13    1    1    2    0    0 -0.38661845755E+02 -0.17149150711E+02  0.15631833354E+03  0.16193907574E+03  0.10566000000E+00 0. -1.
        994    1    1    2    0    0 -0.18836327014E+02  0.16754218856E+02  0.89748104283E+01  0.17327867234E+03  0.17120000000E+03 0.  0.
        998    1    1    2    0    0  0.57498172769E+02  0.39493185501E+00  0.13347068523E+04  0.13359822519E+04  0.10000000000E+02 0. -1.
</event>
<event>
 5    1  0.1338396E-008  0.3842318E+03  0.7957747E-01  0.3432937E+00
         13   -1    0    0    0    0  0.00000000000E+00  0.00000000000E+00  0.14999999963E+04  0.15000000000E+04  0.10566000000E+00 0. -1.
        994   -1    0    0    0    0 -0.00000000000E+00 -0.00000000000E+00  0.11368683772E-12  0.17120000000E+03  0.17120000000E+03 0.  0.
         13    1    1    2    0    0 -0.18411769194E+01  0.21089493068E+02  0.10512581944E+03  0.10723621462E+03  0.10566000000E+00 0. -1.
        994    1    1    2    0    0 -0.21284717454E+02 -0.23531376346E+02  0.53382490653E+01  0.17419730702E+03  0.17120000000E+03 0.  0.
        998    1    1    2    0    0  0.23125894373E+02  0.24418832782E+01  0.13895359278E+04  0.13897664784E+04  0.10000000000E+02 0. -1.
</event>
<event>
 5    1  0.1338396E-008  0.4047682E+03  0.7957747E-01  0.3349929E+00
         13   -1    0    0    0    0  0.00000000000E+00  0.00000000000E+00  0.14999999963E+04  0.15000000000E+04  0.10566000000E+00 0.  1.
        994   -1    0    0    0    0 -0.00000000000E+00 -0.00000000000E+00  0.11368683772E-12  0.17120000000E+03  0.17120000000E+03 0.  0.
         13    1    1    2    0    0 -0.23064457794E+02 -0.29265410437E+02  0.10567043958E+02  0.38731215362E+02  0.10566000000E+00 0.  1.
        994    1    1    2    0    0  0.47356843970E+01  0.29870250166E+02  0.34320083692E+02  0.17720600073E+03  0.17120000000E+03 0.  0.
        998    1    1    2    0    0  0.18328773397E+02 -0.60483972950E+00  0.14551128686E+04  0.14552627839E+04  0.10000000000E+02 0.  1.
</event>
<event>
 5    1  0.1338396E-008  0.3724089E+03  0.7957747E-01  0.3484893E+00
         13   -1    0    0    0    0  0.00000000000E+00  0.00000000000E+00  0.14999999963E+04  0.15000000000E+04  0.10566000000E+00 0.  1.
        994   -1    0    0    0    0 -0.00000000000E+00 -0.00000000000E+00  0.11368683772E-12  0.17120000000E+03  0.17120000000E+03 0.  0.
         13    1    1    2    0    0  0.11621030054E+03 -0.11998673065E+03  0.54280316201E+03  0.56792335164E+03  0.10566000000E+00 0.  1.
        994    1    1    2    0    0 -0.13226623836E+03  0.12949535618E+03  0.14510608612E+03  0.29090998834E+03  0.17120000000E+03 0.  0.
        998    1    1    2    0    0  0.16055937821E+02 -0.95086255311E+01  0.81209074815E+03  0.81236666003E+03  0.10000000000E+02 0.  1.
</event>
<event>
 5    1  0.1338396E-008  0.3783388E+03  0.7957747E-01  0.3458424E+00
         13   -1    0    0    0    0  0.00000000000E+00  0.00000000000E+00  0.14999999963E+04  0.15000000000E+04  0.10566000000E+00 0. -1.
        994   -1    0    0    0    0 -0.00000000000E+00 -0.00000000000E+00  0.11368683772E-12  0.17120000000E+03  0.17120000000E+03 0.  0.
         13    1    1    2    0    0 -0.42708378175E+02 -0.54691970879E+02  0.35093696110E+03  0.35773171382E+03  0.10566000000E+00 0. -1.
        994    1    1    2    0    0  0.39935453633E+02  0.63854285042E+02  0.24283602357E+02  0.18860366783E+03  0.17120000000E+03 0.  0.
        998    1    1    2    0    0  0.27729245414E+01 -0.91623141633E+01  0.11247794328E+04  0.11248646183E+04  0.10000000000E+02 0. -1.
</event>
<event>
 5    1  0.1338396E-008  0.3758192E+03  0.7957747E-01  0.3469567E+00
         13   -1    0    0    0    0  0.00000000000E+00  0.00000000000E+00  0.14999999963E+04  0.15000000000E+04  0.10566000000E+00 0.  1.
        994   -1    0    0    0    0 -0.00000000000E+00 -0.00000000000E+00  0.11368683772E-12  0.17120000000E+03  0.17120000000E+03 0.  0.
         13    1    1    2    0    0 -0.38216761059E+02 -0.31268969905E+02  0.17381752245E+03  0.18069535572E+03  0.10566000000E+00 0.  1.
        994    1    1    2    0    0  0.48890833062E+02  0.15110829098E+02  0.15187605654E+02  0.17932862036E+03  0.17120000000E+03 0.  0.
        998    1    1    2    0    0 -0.10674072003E+02  0.16158140806E+02  0.13109948682E+04  0.13111760239E+04  0.10000000000E+02 0.  1.
</event>
<event>
 5    1  0.1338396E-008  0.3828813E+03  0.7957747E-01  0.3438708E+00
         13   -1    0    0    0    0  0.00000000000E+00  0.00000000000E+00  0.14999999963E+04  0.15000000000E+04  0.10566000000E+00 0.  1.
        994   -1    0    0    0    0 -0.00000000000E+00 -0.00000000000E+00  0.11368683772E-12  0.17120000000E+03  0.17120000000E+03 0.  0.
         13    1    1    2    0    0  0.43883786243E+02  0.11945910120E+03  0.43993075218E+03  0.45796871229E+03  0.10566000000E+00 0.  1.
        994    1    1    2    0    0 -0.48204386636E+02 -0.65666570574E+02  0.42646712834E+02  0.19432947151E+03  0.17120000000E+03 0.  0.
        998    1    1    2    0    0  0.43206003931E+01 -0.53792530628E+02  0.10174225313E+04  0.10189018162E+04  0.10000000000E+02 0.  1.
</event>
<event>
 5    1  0.1338396E-008  0.3738141E+03  0.7957747E-01  0.3478544E+00
         13   -1    0    0    0    0  0.00000000000E+00  0.00000000000E+00  0.14999999963E+04  0.15000000000E+04  0.10566000000E+00 0. -1.
        994   -1    0    0    0    0 -0.00000000000E+00 -0.00000000000E+00  0.11368683772E-12  0.17120000000E+03  0.17120000000E+03 0.  0.
         13    1    1    2    0    0 -0.72021022709E+01  0.12854092044E+02  0.11645611342E+02  0.18781091208E+02  0.10566000000E+00 0. -1.
        994    1    1    2    0    0  0.73394788834E+01 -0.82352688943E+01  0.77043947990E+01  0.17172793979E+03  0.17120000000E+03 0.  0.
        998    1    1    2    0    0 -0.13737661247E+00 -0.46188231500E+01  0.14806499901E+04  0.14806909690E+04  0.10000000000E+02 0. -1.
</event>
<event>
 5    1  0.1338396E-008  0.3767492E+03  0.7957747E-01  0.3465436E+00
         13   -1    0    0    0    0  0.00000000000E+00  0.00000000000E+00  0.14999999963E+04  0.15000000000E+04  0.10566000000E+00 0. -1.
        994   -1    0    0    0    0 -0.00000000000E+00 -0.00000000000E+00  0.11368683772E-12  0.17120000000E+03  0.17120000000E+03 0.  0.
         13    1    1    2    0    0 -0.10954484998E+01 -0.13236677525E+02  0.12513612860E+02  0.18248597485E+02  0.10566000000E+00 0. -1.
        994    1    1    2    0    0 -0.18809088656E+01  0.15877719233E+02  0.66475333914E+01  0.17207344213E+03  0.17120000000E+03 0.  0.
        998    1    1    2    0    0  0.29763573654E+01 -0.26410417071E+01  0.14808388500E+04  0.14808779604E+04  0.10000000000E+02 0. -1.
</event>
<event>
 5    1  0.1338396E-008  0.3723749E+03  0.7957747E-01  0.3485047E+00
         13   -1    0    0    0    0  0.00000000000E+00  0.00000000000E+00  0.14999999963E+04  0.15000000000E+04  0.10566000000E+00 0.  1.
        994   -1    0    0    0    0 -0.00000000000E+00 -0.00000000000E+00  0.11368683772E-12  0.17120000000E+03  0.17120000000E+03 0.  0.
         13    1    1    2    0    0 -0.41706658164E+02 -0.59943788625E+02  0.43264596458E+03  0.43876559227E+03  0.10566000000E+00 0.  1.
        994    1    1    2    0    0 -0.11931088099E+02  0.24791521347E+02  0.10633456721E+02  0.17372242456E+03  0.17120000000E+03 0.  0.
        998    1    1    2    0    0  0.53637746262E+02  0.35152267278E+02  0.10567205750E+04  0.10587119832E+04  0.10000000000E+02 0.  1.
</event>
<event>
 5    1  0.1338396E-008  0.3832023E+03  0.7957747E-01  0.3437332E+00
         13   -1    0    0    0    0  0.00000000000E+00  0.00000000000E+00  0.14999999963E+04  0.15000000000E+04  0.10566000000E+00 0.  1.
        994   -1    0    0    0    0 -0.00000000000E+00 -0.00000000000E+00  0.11368683772E-12  0.17120000000E+03  0.17120000000E+03 0.  0.
         13    1    1    2    0    0  0.13338801027E+01 -0.11433230846E+02  0.24034636661E+02  0.26649069912E+02  0.10566000000E+00 0.  1.
        994    1    1    2    0    0 -0.15637026568E+02  0.22255030915E+02  0.49763476189E+01  0.17341858907E+03  0.17120000000E+03 0.  0.
        998    1    1    2    0    0  0.14303146465E+02 -0.10821800069E+02  0.14709890120E+04  0.14711323410E+04  0.10000000000E+02 0.  1.
</event>
<event>
 5    1  0.1338396E-008  0.3813256E+03  0.7957747E-01  0.3445407E+00
         13   -1    0    0    0    0  0.00000000000E+00  0.00000000000E+00  0.14999999963E+04  0.15000000000E+04  0.10566000000E+00 0. -1.
        994   -1    0    0    0    0 -0.00000000000E+00 -0.00000000000E+00  0.11368683772E-12  0.17120000000E+03  0.17120000000E+03 0.  0.
         13    1    1    2    0    0 -0.58903576244E+01 -0.23112306934E+02  0.83269620265E+02  0.86618219029E+02  0.10566000000E+00 0. -1.
        994    1    1    2    0    0  0.57090054009E+01  0.80900777684E+01  0.37918628390E+01  0.17152801615E+03  0.17120000000E+03 0.  0.
        998    1    1    2    0    0  0.18135222354E+00  0.15022229165E+02  0.14129385132E+04  0.14130537648E+04  0.10000000000E+02 0. -1.
</event>
<event>
 5    1  0.1338396E-008  0.3858053E+03  0.7957747E-01  0.3426264E+00
         13   -1    0    0    0    0  0.00000000000E+00  0.00000000000E+00  0.14999999963E+04  0.15000000000E+04  0.10566000000E+00 0.  1.
        994   -1    0    0    0    0 -0.00000000000E+00 -0.00000000000E+00  0.11368683772E-12  0.17120000000E+03  0.17120000000E+03 0.  0.
         13    1    1    2    0    0  0.22716103610E+01  0.10713660207E+02  0.48522236949E+02  0.49742952981E+02  0.10566000000E+00 0.  1.
        994    1    1    2    0    0 -0.48482633239E+01 -0.85789594965E+01  0.15494210721E+01  0.17149036390E+03  0.17120000000E+03 0.  0.
        998    1    1    2    0    0  0.25766529630E+01 -0.21347007100E+01  0.14499283383E+04  0.14499666831E+04  0.10000000000E+02 0.  1.
</event>
<event>
 5    1  0.1601527E-008  0.3865724E+03  0.7957747E-01  0.3423031E+00
         13   -1    0    0    0    0  0.00000000000E+00  0.00000000000E+00  0.14999999963E+04  0.15000000000E+04  0.10566000000E+00 0.  1.
        994   -1    0    0    0    0 -0.00000000000E+00 -0.00000000000E+00  0.11368683772E-12  0.17120000000E+03  0.17120000000E+03 0.  0.
         13    1    1    2    0    0  0.36096893239E+01  0.10630395729E+02  0.65903948425E+02  0.66853397464E+02  0.10566000000E+00 0.  1.
        994    1    1    2    0    0  0.13954092237E+01 -0.25819511227E+02  0.30421229087E+01  0.17316838291E+03  0.17120000000E+03 0.  0.
        998    1    1    2    0    0 -0.50050985476E+01  0.15189115498E+02  0.14310539249E+04  0.14311782196E+04  0.10000000000E+02 0.  1.
</event>
<event>
 5    1  0.1338396E-008  0.3858196E+03  0.7957747E-01  0.3426204E+00
         13   -1    0    0    0    0  0.00000000000E+00  0.00000000000E+00  0.14999999963E+04  0.15000000000E+04  0.10566000000E+00 0. -1.
        994   -1    0    0    0    0 -0.00000000000E+00 -0.00000000000E+00  0.11368683772E-12  0.17120000000E+03  0.17120000000E+03 0.  0.
         13    1    1    2    0    0 -0.12330786581E+02 -0.22971250045E+01  0.58117045777E+02  0.59455254224E+02  0.10566000000E+00 0. -1.
        994    1    1    2    0    0  0.22141976256E+02  0.16949018621E+02  0.37781935568E+01  0.17349712128E+03  0.17120000000E+03 0.  0.
        998    1    1    2    0    0 -0.98111896749E+01 -0.14651893616E+02  0.14381047569E+04  0.14382476245E+04  0.10000000000E+02 0. -1.
</event>
<event>
 5    1  0.1338396E-008  0.3764961E+03  0.7957747E-01  0.3466559E+00
         13   -1    0    0    0    0  0.00000000000E+00  0.00000000000E+00  0.14999999963E+04  0.15000000000E+04  0.10566000000E+00 0. -1.
        994   -1    0    0    0    0 -0.00000000000E+00 -0.00000000000E+00  0.11368683772E-12  0.17120000000E+03  0.17120000000E+03 0.  0.
         13    1    1    2    0    0 -0.10219315058E+02 -0.18520837366E+02  0.91848271039E+01  0.23061396965E+02  0.10566000000E+00 0. -1.
        994    1    1    2    0    0  0.48164293873E+01  0.16749989094E+02  0.15503210437E+02  0.17278179783E+03  0.17120000000E+03 0.  0.
        998    1    1    2    0    0  0.54028856703E+01  0.17708482721E+01  0.14753119587E+04  0.14753568052E+04  0.10000000000E+02 0. -1.
</event>
<event>
 5    1  0.1338396E-008  0.3763002E+03  0.7957747E-01  0.3467428E+00
         13   -1    0    0    0    0  0.00000000000E+00  0.00000000000E+00  0.14999999963E+04  0.15000000000E+04  0.10566000000E+00 0. -1.
        994   -1    0    0    0    0 -0.00000000000E+00 -0.00000000000E+00  0.11368683772E-12  0.17120000000E+03  0.17120000000E+03 0.  0.
         13    1    1    2    0    0  0.55139377134E+02 -0.24676715886E+02  0.27354441349E+03  0.28013541106E+03  0.10566000000E+00 0. -1.
        994    1    1    2    0    0 -0.40216695214E+02  0.27089625270E+02  0.14011752334E+02  0.17848529232E+03  0.17120000000E+03 0.  0.
        998    1    1    2    0    0 -0.14922681920E+02 -0.24129093841E+01  0.12124438305E+04  0.12125792966E+04  0.10000000000E+02 0. -1.
</event>
<event>
 5    1  0.1338396E-008  0.3804086E+03  0.7957747E-01  0.3449381E+00
         13   -1    0    0    0    0  0.00000000000E+00  0.00000000000E+00  0.14999999963E+04  0.15000000000E+04  0.10566000000E+00 0. -1.
        994   -1    0    0    0    0 -0.00000000000E+00 -0.00000000000E+00  0.11368683772E-12  0.17120000000E+03  0.17120000000E+03 0.  0.
         13    1    1    2    0    0 -0.10380419370E+02  0.16070886108E+01  0.12924396830E+02  0.16654940335E+02  0.10566000000E+00 0. -1.
        994    1    1    2    0    0 -0.18134206665E+02 -0.35949442740E+02  0.93583120003E+01  0.17611993041E+03  0.17120000000E+03 0.  0.
        998    1    1    2    0    0  0.28514626035E+02  0.34342354129E+02  0.14777172874E+04  0.14784251293E+04  0.10000000000E+02 0. -1.
</event>
<event>
 5    1  0.1338396E-008  0.3857867E+03  0.7957747E-01  0.3426342E+00
         13   -1    0    0    0    0  0.00000000000E+00  0.00000000000E+00  0.14999999963E+04  0.15000000000E+04  0.10566000000E+00 0. -1.
        994   -1    0    0    0    0 -0.00000000000E+00 -0.00000000000E+00  0.11368683772E-12  0.17120000000E+03  0.17120000000E+03 0.  0.
         13    1    1    2    0    0  0.16036348115E+02 -0.62828552541E+01  0.10188422177E+03  0.10332978535E+03  0.10566000000E+00 0. -1.
        994    1    1    2    0    0 -0.32084438969E+02  0.12919462582E+01  0.46295988757E+01  0.17424681786E+03  0.17120000000E+03 0.  0.
        998    1    1    2    0    0  0.16048090854E+02  0.49909089960E+01  0.13934861756E+04  0.13936233968E+04  0.10000000000E+02 0. -1.
</event>
<event>
 5    1  0.1338396E-008  0.3807858E+03  0.7957747E-01  0.3447744E+00
         13   -1    0    0    0    0  0.00000000000E+00  0.00000000000E+00  0.14999999963E+04  0.15000000000E+04  0.10566000000E+00 0.  1.
        994   -1    0    0    0    0 -0.00000000000E+00 -0.00000000000E+00  0.11368683772E-12  0.17120000000E+03  0.17120000000E+03 0.  0.
         13    1    1    2    0    0  0.12364430148E+02 -0.74480952443E+01  0.26192940924E+02  0.29907099056E+02  0.10566000000E+00 0.  1.
        994    1    1    2    0    0 -0.12049804434E+02  0.41853322574E+01  0.42797321293E+01  0.17172789785E+03  0.17120000000E+03 0.  0.
        998    1    1    2    0    0 -0.31462571442E+00  0.32627629868E+01  0.14695273232E+04  0.14695650031E+04  0.10000000000E+02 0.  1.
</event>
<event>
 5    1  0.1338396E-008  0.3860396E+03  0.7957747E-01  0.3425275E+00
         13   -1    0    0    0    0  0.00000000000E+00  0.00000000000E+00  0.14999999963E+04  0.15000000000E+04  0.10566000000E+00 0. -1.
        994   -1    0    0    0    0 -0.00000000000E+00 -0.00000000000E+00  0.11368683772E-12  0.17120000000E+03  0.17120000000E+03 0.  0.
         13    1    1    2    0    0  0.55996078132E+01 -0.10528837276E+02  0.68357723555E+02  0.69390212247E+02  0.10566000000E+00 0. -1.
        994    1    1    2    0    0 -0.61789325847E+01 -0.24005149696E+01  0.12589009814E+01  0.17133291135E+03  0.17120000000E+03 0.  0.
        998    1    1    2    0    0  0.57932477153E+00  0.12929352245E+02  0.14303833717E+04  0.14304768764E+04  0.10000000000E+02 0. -1.
</event>
<event>
 5    1  0.1338396E-008  0.3840556E+03  0.7957747E-01  0.3433687E+00
         13   -1    0    0    0    0  0.00000000000E+00  0.00000000000E+00  0.14999999963E+04  0.15000000000E+04  0.10566000000E+00 0.  1.
        994   -1    0    0    0    0 -0.00000000000E+00 -0.00000000000E+00  0.11368683772E-12  0.17120000000E+03  0.17120000000E+03 0.  0.
         13    1    1    2    0    0  0.31333619775E+01  0.19620461131E+02  0.93262039013E+02  0.95355123288E+02  0.10566000000E+00 0.  1.
        994    1    1    2    0    0 -0.46129987341E+02 -0.85414882164E+01  0.93941075355E+01  0.17776001240E+03  0.17120000000E+03 0.  0.
        998    1    1    2    0    0  0.42996625363E+02 -0.11078972914E+02  0.13973438497E+04  0.13980848643E+04  0.10000000000E+02 0.  1.
</event>
<event>
 5    1  0.1338396E-008  0.3855014E+03  0.7957747E-01  0.3427548E+00
         13   -1    0    0    0    0  0.00000000000E+00  0.00000000000E+00  0.14999999963E+04  0.15000000000E+04  0.10566000000E+00 0.  1.
        994   -1    0    0    0    0 -0.00000000000E+00 -0.00000000000E+00  0.11368683772E-12  0.17120000000E+03  0.17120000000E+03 0.  0.
         13    1    1    2    0    0 -0.68629031008E+01 -0.83033716718E+01  0.44241420796E+02  0.45534161881E+02  0.10566000000E+00 0.  1.
        994    1    1    2    0    0  0.27575947266E+01 -0.37925936111E+01  0.14535867947E+01  0.17127037400E+03  0.17120000000E+03 0.  0.
        998    1    1    2    0    0  0.41053083741E+01  0.12095965283E+02  0.14543049887E+04  0.14543954641E+04  0.10000000000E+02 0.  1.
</event>
<event>
 5    1  0.1338396E-008  0.3841211E+03  0.7957747E-01  0.3433408E+00
         13   -1    0    0    0    0  0.00000000000E+00  0.00000000000E+00  0.14999999963E+04  0.15000000000E+04  0.10566000000E+00 0. -1.
        994   -1    0    0    0    0 -0.00000000000E+00 -0.00000000000E+00  0.11368683772E-12  0.17120000000E+03  0.17120000000E+03 0.  0.
         13    1    1    2    0    0 -0.10114371310E+02  0.19232403550E+02  0.13002920080E+03  0.13183243182E+03  0.10566000000E+00 0. -1.
        994    1    1    2    0    0 -0.10364306565E+02 -0.26712806340E+01  0.24450349302E+01  0.17155166215E+03  0.17120000000E+03 0.  0.
        998    1    1    2    0    0  0.20478677875E+02 -0.16561122916E+02  0.13675257605E+04  0.13678159060E+04  0.10000000000E+02 0. -1.
</event>
<event>
 5    1  0.1338396E-008  0.3685578E+03  0.7957747E-01  0.3502545E+00
         13   -1    0    0    0    0  0.00000000000E+00  0.00000000000E+00  0.14999999963E+04  0.15000000000E+04  0.10566000000E+00 0.  1.
        994   -1    0    0    0    0 -0.00000000000E+00 -0.00000000000E+00  0.11368683772E-12  0.17120000000E+03  0.17120000000E+03 0.  0.
         13    1    1    2    0    0  0.30535601674E+02  0.74941904993E+02  0.23898484964E+03  0.25231425170E+03  0.10566000000E+00 0.  1.
        994    1    1    2    0    0 -0.34668312697E+02 -0.93740598792E+02  0.45778956021E+02  0.20345600159E+03  0.17120000000E+03 0.  0.
        998    1    1    2    0    0  0.41327110227E+01  0.18798693799E+02  0.12152361906E+04  0.12154297467E+04  0.10000000000E+02 0.  1.
</event>
<event>
 5    1  0.1338396E-008  0.3771355E+03  0.7957747E-01  0.3463727E+00
         13   -1    0    0    0    0  0.00000000000E+00  0.00000000000E+00  0.14999999963E+04  0.15000000000E+04  0.10566000000E+00 0. -1.
        994   -1    0    0    0    0 -0.00000000000E+00 -0.00000000000E+00  0.11368683772E-12  0.17120000000E+03  0.17120000000E+03 0.  0.
         13    1    1    2    0    0 -0.93958917306E+01 -0.48288193084E+01  0.77741025671E+01  0.13116711176E+02  0.10566000000E+00 0. -1.
        994    1    1    2    0    0 -0.15857087690E+02  0.50485995634E+01  0.65213552227E+01  0.17213048441E+03  0.17120000000E+03 0.  0.
        998    1    1    2    0    0  0.25252979421E+02 -0.21978025494E+00  0.14857045385E+04  0.14859528044E+04  0.10000000000E+02 0. -1.
</event>
<event>
 5    1  0.1338396E-008  0.3747163E+03  0.7957747E-01  0.3474492E+00
         13   -1    0    0    0    0  0.00000000000E+00  0.00000000000E+00  0.14999999963E+04  0.15000000000E+04  0.10566000000E+00 0. -1.
        994   -1    0    0    0    0 -0.00000000000E+00 -0.00000000000E+00  0.11368683772E-12  0.17120000000E+03  0.17120000000E+03 0.  0.
         13    1    1    2    0    0  0.92650448523E+01 -0.33733694165E+02  0.85405083728E+02  0.92292159303E+02  0.10566000000E+00 0. -1.
        994    1    1    2    0    0  0.53953478652E+00  0.28262514815E+02  0.95480265296E+01  0.17378050999E+03  0.17120000000E+03 0.  0.
        998    1    1    2    0    0 -0.98045796389E+01  0.54711793505E+01  0.14050468860E+04  0.14051273307E+04  0.10000000000E+02 0. -1.
</event>
<event>
 5    1  0.1338396E-008  0.3792973E+03  0.7957747E-01  0.3454224E+00
         13   -1    0    0    0    0  0.00000000000E+00  0.00000000000E+00  0.14999999963E+04  0.15000000000E+04  0.10566000000E+00 0.  1.
        994   -1    0    0    0    0 -0.00000000000E+00 -0.00000000000E+00  0.11368683772E-12  0.17120000000E+03  0.17120000000E+03 0.  0.
         13    1    1    2    0    0  0.52858260664E+01  0.24410709561E+02  0.68868175968E+02  0.73257487833E+02  0.10566000000E+00 0.  1.
        994    1    1    2    0    0  0.41027444038E+01 -0.13450626494E+02  0.51511883866E+01  0.17185379427E+03  0.17120000000E+03 0.  0.
        998    1    1    2    0    0 -0.93885704702E+01 -0.10960083068E+02  0.14259806319E+04  0.14260887179E+04  0.10000000000E+02 0.  1.
</event>
<event>
 5    1  0.1338396E-008  0.3835905E+03  0.7957747E-01  0.3435672E+00
         13   -1    0    0    0    0  0.00000000000E+00  0.00000000000E+00  0.14999999963E+04  0.15000000000E+04  0.10566000000E+00 0. -1.
        994   -1    0    0    0    0 -0.00000000000E+00 -0.00000000000E+00  0.11368683772E-12  0.17120000000E+03  0.17120000000E+03 0.  0.
         13    1    1    2    0    0  0.42982859670E+00 -0.23368048588E+02  0.10589345530E+03  0.10844208356E+03  0.10566000000E+00 0. -1.
        994    1    1    2    0    0 -0.44221189254E+01  0.28636107233E+02  0.51102691883E+01  0.17370992092E+03  0.17120000000E+03 0.  0.
        998    1    1    2    0    0  0.39922903287E+01 -0.52680586452E+01  0.13889962718E+04  0.13890479955E+04  0.10000000000E+02 0. -1.
</event>
<event>
 5    1  0.1338396E-008  0.3778737E+03  0.7957747E-01  0.3460469E+00
         13   -1    0    0    0    0  0.00000000000E+00  0.00000000000E+00  0.14999999963E+04  0.15000000000E+04  0.10566000000E+00 0. -1.
        994   -1    0    0    0    0 -0.00000000000E+00 -0.00000000000E+00  0.11368683772E-12  0.17120000000E+03  0.17120000000E+03 0.  0.
         13    1    1    2    0    0  0.55502883016E+02  0.57594364461E+01  0.24744720197E+03  0.25366093522E+03  0.10566000000E+00 0. -1.
        994    1    1    2    0    0 -0.56757174097E+02 -0.41006679006E+01  0.16190585339E+02  0.18113466632E+03  0.17120000000E+03 0.  0.
        998    1    1    2    0    0  0.12542910807E+01 -0.16587685455E+01  0.12363622090E+04  0.12364043985E+04  0.10000000000E+02 0. -1.
</event>
<event>
 5    1  0.1338396E-008  0.3757362E+03  0.7957747E-01  0.3469937E+00
         13   -1    0    0    0    0  0.00000000000E+00  0.00000000000E+00  0.14999999963E+04  0.15000000000E+04  0.10566000000E+00 0.  1.
        994   -1    0    0    0    0 -0.00000000000E+00 -0.00000000000E+00  0.11368683772E-12  0.17120000000E+03  0.17120000000E+03 0.  0.
         13    1    1    2    0    0  0.30084199110E+02  0.21702021670E+02  0.10276626107E+03  0.10925636072E+03  0.10566000000E+00 0.  1.
        994    1    1    2    0    0 -0.23388688896E+02 -0.21875986881E+02  0.97865783909E+01  0.17444427961E+03  0.17120000000E+03 0.  0.
        998    1    1    2    0    0 -0.66955102137E+01  0.17396521146E+00  0.13874471568E+04  0.13874993597E+04  0.10000000000E+02 0.  1.
</event>
<event>
 5    1  0.1338396E-008  0.3710702E+03  0.7957747E-01  0.3490987E+00
         13   -1    0    0    0    0  0.00000000000E+00  0.00000000000E+00  0.14999999963E+04  0.15000000000E+04  0.10566000000E+00 0.  1.
        994   -1    0    0    0    0 -0.00000000000E+00 -0.00000000000E+00  0.11368683772E-12  0.17120000000E+03  0.17120000000E+03 0.  0.
         13    1    1    2    0    0  0.39122184132E+02 -0.15375177915E+02  0.91623854867E+02  0.10080616713E+03  0.10566000000E+00 0.  1.
        994    1    1    2    0    0 -0.41925007152E+02  0.17638071451E+02  0.15871557082E+02  0.17784868319E+03  0.17120000000E+03 0.  0.
        998    1    1    2    0    0  0.28028230201E+01 -0.22628935353E+01  0.13925045843E+04  0.13925451497E+04  0.10000000000E+02 0.  1.
</event>
<event>
 5    1  0.1338396E-008  0.3957805E+03  0.7957747E-01  0.3385199E+00
         13   -1    0    0    0    0  0.00000000000E+00  0.00000000000E+00  0.14999999963E+04  0.15000000000E+04  0.10566000000E+00 0. -1.
        994   -1    0    0    0    0 -0.00000000000E+00 -0.00000000000E+00  0.11368683772E-12  0.17120000000E+03  0.17120000000E+03 0.  0.
         13    1    1    2    0    0  0.89111478666E+00 -0.57771680414E+02  0.63369488278E+02  0.85755841504E+02  0.10566000000E+00 0. -1.
        994    1    1    2    0    0 -0.23261840306E+02  0.34994640842E+01  0.27413299157E+02  0.17496939285E+03  0.17120000000E+03 0.  0.
        998    1    1    2    0    0  0.22370725519E+02  0.54272216330E+02  0.14092172088E+04  0.14104747656E+04  0.10000000000E+02 0. -1.
</event>
<event>
 5    1  0.1338396E-008  0.3851827E+03  0.7957747E-01  0.3428898E+00
         13   -1    0    0    0    0  0.00000000000E+00  0.00000000000E+00  0.14999999963E+04  0.15000000000E+04  0.10566000000E+00 0. -1.
        994   -1    0    0    0    0 -0.00000000000E+00 -0.00000000000E+00  0.11368683772E-12  0.17120000000E+03  0.17120000000E+03 0.  0.
         13    1    1    2    0    0 -0.23963860753E+01 -0.10994952049E+02  0.43434151687E+02  0.44868344449E+02  0.10566000000E+00 0. -1.
        994    1    1    2    0    0  0.27605926128E+02 -0.79440302024E+01  0.42563279030E+01  0.17364547532E+03  0.17120000000E+03 0.  0.
        998    1    1    2    0    0 -0.25209540053E+02  0.18938982252E+02  0.14523095167E+04  0.14526861802E+04  0.10000000000E+02 0. -1.
</event>
<event>
 5    1  0.1338396E-008  0.3776285E+03  0.7957747E-01  0.3461550E+00
         13   -1    0    0    0    0  0.00000000000E+00  0.00000000000E+00  0.14999999963E+04  0.15000000000E+04  0.10566000000E+00 0. -1.
        994   -1    0    0    0    0 -0.00000000000E+00 -0.00000000000E+00  0.11368683772E-12  0.17120000000E+03  0.17120000000E+03 0.  0.
         13    1    1    2    0    0 -0.27320051777E+02  0.98304828918E+01  0.81689812017E+02  0.86696367711E+02  0.10566000000E+00 0. -1.
        994    1    1    2    0    0  0.29015280610E+01 -0.46581720104E+01  0.54365891176E+01  0.17137419273E+03  0.17120000000E+03 0.  0.
        998    1    1    2    0    0  0.24418523716E+02 -0.51723108814E+01  0.14128735951E+04  0.14131294396E+04  0.10000000000E+02 0. -1.
</event>
<event>
 5    1  0.1338396E-008  0.3742250E+03  0.7957747E-01  0.3476696E+00
         13   -1    0    0    0    0  0.00000000000E+00  0.00000000000E+00  0.14999999963E+04  0.15000000000E+04  0.10566000000E+00 0.  1.
        994   -1    0    0    0    0 -0.00000000000E+00 -0.00000000000E+00  0.11368683772E-12  0.17120000000E+03  0.17120000000E+03 0.  0.
         13    1    1    2    0    0 -0.44988698551E+01 -0.29883326975E+02  0.61816480436E+02  0.68808004466E+02  0.10566000000E+00 0.  1.
        994    1    1    2    0    0 -0.20712269126E+02  0.22973855305E+02  0.10345052363E+02  0.17427924784E+03  0.17120000000E+03 0.  0.
        998    1    1    2    0    0  0.25211138981E+02  0.69094716703E+01  0.14278384635E+04  0.14281127477E+04  0.10000000000E+02 0.  1.
</event>
<event>
 5    1  0.1338396E-008  0.3780871E+03  0.7957747E-01  0.3459530E+00
         13   -1    0    0    0    0  0.00000000000E+00  0.00000000000E+00  0.14999999963E+04  0.15000000000E+04  0.10566000000E+00 0. -1.
        994   -1    0    0    0    0 -0.00000000000E+00 -0.00000000000E+00  0.11368683772E-12  0.17120000000E+03  0.17120000000E+03 0.  0.
         13    1    1    2    0    0 -0.13404675059E+02 -0.89941054891E+01  0.23912738959E+02  0.28851507682E+02  0.10566000000E+00 0. -1.
        994    1    1    2    0    0  0.17006157177E+02 -0.20063391220E+02  0.74325513399E+01  0.17336790899E+03  0.17120000000E+03 0.  0.
        998    1    1    2    0    0 -0.36014821185E+01  0.29057496709E+02  0.14686547060E+04  0.14689805833E+04  0.10000000000E+02 0. -1.
</event>
<event>
 5    1  0.1338396E-008  0.3750218E+03  0.7957747E-01  0.3473125E+00
         13   -1    0    0    0    0  0.00000000000E+00  0.00000000000E+00  0.14999999963E+04  0.15000000000E+04  0.10566000000E+00 0. -1.
        994   -1    0    0    0    0 -0.00000000000E+00 -0.00000000000E+00  0.11368683772E-12  0.17120000000E+03  0.17120000000E+03 0.  0.
         13    1    1    2    0    0  0.58431816179E+02 -0.23589052045E+02  0.12872028439E+03  0.14331658416E+03  0.10566000000E+00 0. -1.
        994    1    1    2    0    0 -0.59055343084E+02  0.27366893635E+02  0.28853208700E+02  0.18541420675E+03  0.17120000000E+03 0.  0.
        998    1    1    2    0    0  0.62352690513E+00 -0.37778415903E+01  0.13424265032E+04  0.13424692091E+04  0.10000000000E+02 0. -1.
</event>
<event>
 5    1  0.1338396E-008  0.3809103E+03  0.7957747E-01  0.3447204E+00
         13   -1    0    0    0    0  0.00000000000E+00  0.00000000000E+00  0.14999999963E+04  0.15000000000E+04  0.10566000000E+00 0.  1.
        994   -1    0    0    0    0 -0.00000000000E+00 -0.00000000000E+00  0.11368683772E-12  0.17120000000E+03  0.17120000000E+03 0.  0.
         13    1    1    2    0    0 -0.21340791385E+02 -0.13703230501E+02  0.80979135882E+02  0.84857760490E+02  0.10566000000E+00 0.  1.
        994    1    1    2    0    0  0.23791766372E+02  0.16207905290E+02  0.64413478450E+01  0.17372298438E+03  0.17120000000E+03 0.  0.
        998    1    1    2    0    0 -0.24509749872E+01 -0.25046747890E+01  0.14125795126E+04  0.14126192551E+04  0.10000000000E+02 0.  1.
</event>
<event>
 5    1  0.1338396E-008  0.3844331E+03  0.7957747E-01  0.3432080E+00
         13   -1    0    0    0    0  0.00000000000E+00  0.00000000000E+00  0.14999999963E+04  0.15000000000E+04  0.10566000000E+00 0. -1.
        994   -1    0    0    0    0 -0.00000000000E+00 -0.00000000000E+00  0.11368683772E-12  0.17120000000E+03  0.17120000000E+03 0.  0.
         13    1    1    2    0    0  0.91964254362E+01  0.48319198789E+01  0.28171032503E+02  0.30025654478E+02  0.10566000000E+00 0. -1.
        994    1    1    2    0    0 -0.42601401495E+01  0.74431867083E+00  0.19734850135E+01  0.17126598450E+03  0.17120000000E+03 0.  0.
        998    1    1    2    0    0 -0.49362852866E+01 -0.55762385497E+01  0.14698554788E+04  0.14699083610E+04  0.10000000000E+02 0. -1.
</event>
<event>
 5    1  0.1338396E-008  0.3223682E+03  0.7957747E-01  0.3748231E+00
         13   -1    0    0    0    0  0.00000000000E+00  0.00000000000E+00  0.14999999963E+04  0.15000000000E+04  0.10566000000E+00 0. -1.
        994   -1    0    0    0    0 -0.00000000000E+00 -0.00000000000E+00  0.11368683772E-12  0.17120000000E+03  0.17120000000E+03 0.  0.
         13    1    1    2    0    0  0.18138886173E+03  0.10239762549E+03  0.80360033725E+03  0.83015703699E+03  0.10566000000E+00 0. -1.
        994    1    1    2    0    0 -0.16452012698E+03 -0.89394855875E+02  0.15122068128E+03  0.29535647426E+03  0.17120000000E+03 0.  0.
        998    1    1    2    0    0 -0.16868734750E+02 -0.13002769611E+02  0.54517897775E+03  0.54568648875E+03  0.10000000000E+02 0. -1.
</event>
<event>
 5    1  0.1338396E-008  0.3853116E+03  0.7957747E-01  0.3428352E+00
         13   -1    0    0    0    0  0.00000000000E+00  0.00000000000E+00  0.14999999963E+04  0.15000000000E+04  0.10566000000E+00 0.  1.
        994   -1    0    0    0    0 -0.00000000000E+00 -0.00000000000E+00  0.11368683772E-12  0.17120000000E+03  0.17120000000E+03 0.  0.
         13    1    1    2    0    0  0.76746158551E+01  0.71878573048E+01  0.39917309643E+02  0.41279144787E+02  0.10566000000E+00 0.  1.
        994    1    1    2    0    0  0.59433195951E+01  0.74230181669E+00  0.15933937675E+01  0.17131215066E+03  0.17120000000E+03 0.  0.
        998    1    1    2    0    0 -0.13617935450E+02 -0.79301591215E+01  0.14584892929E+04  0.14586087046E+04  0.10000000000E+02 0.  1.
</event>
<event>
 5    1  0.1467272E-008  0.3856207E+03  0.7957747E-01  0.3427044E+00
         13   -1    0    0    0    0  0.00000000000E+00  0.00000000000E+00  0.14999999963E+04  0.15000000000E+04  0.10566000000E+00 0.  1.
        994   -1    0    0    0    0 -0.00000000000E+00 -0.00000000000E+00  0.11368683772E-12  0.17120000000E+03  0.17120000000E+03 0.  0.
         13    1    1    2    0    0  0.15047106199E+02 -0.15770252352E+01  0.85329713557E+02  0.86660680781E+02  0.10566000000E+00 0.  1.
        994    1    1    2    0    0 -0.12411560735E+02  0.63334608537E+00  0.18293558778E+01  0.17166022984E+03  0.17120000000E+03 0.  0.
        998    1    1    2    0    0 -0.26355454642E+01  0.94367914985E+00  0.14128409268E+04  0.14128790894E+04  0.10000000000E+02 0.  0.
</event>
<event>
 5    1  0.1338396E-008  0.3000687E+03  0.7957747E-01  0.3895528E+00
         13   -1    0    0    0    0  0.00000000000E+00  0.00000000000E+00  0.14999999963E+04  0.15000000000E+04  0.10566000000E+00 0. -1.
        994   -1    0    0    0    0 -0.00000000000E+00 -0.00000000000E+00  0.11368683772E-12  0.17120000000E+03  0.17120000000E+03 0.  0.
         13    1    1    2    0    0 -0.56316242910E+01  0.15436759348E+03  0.74917146884E+03  0.76493069621E+03  0.10566000000E+00 0. -1.
        994    1    1    2    0    0  0.39523738797E+02 -0.10699205496E+03  0.61923123667E+02  0.21483328187E+03  0.17120000000E+03 0.  0.
        998    1    1    2    0    0 -0.33892114506E+02 -0.47375538521E+02  0.68890540377E+03  0.69143602193E+03  0.10000000000E+02 0. -1.
</event>
<event>
 5    1  0.1338396E-008  0.3820338E+03  0.7957747E-01  0.3442350E+00
         13   -1    0    0    0    0  0.00000000000E+00  0.00000000000E+00  0.14999999963E+04  0.15000000000E+04  0.10566000000E+00 0. -1.
        994   -1    0    0    0    0 -0.00000000000E+00 -0.00000000000E+00  0.11368683772E-12  0.17120000000E+03  0.17120000000E+03 0.  0.
         13    1    1    2    0    0  0.18612344416E+02 -0.96864113601E+01  0.65266315140E+02  0.68556173943E+02  0.10566000000E+00 0. -1.
        994    1    1    2    0    0 -0.20964551306E+02  0.19405310922E+02  0.58245799544E+01  0.17366474667E+03  0.17120000000E+03 0.  0.
        998    1    1    2    0    0  0.23522068903E+01 -0.97188995620E+01  0.14289091012E+04  0.14289790794E+04  0.10000000000E+02 0. -1.
</event>
<event>
 5    1  0.1338396E-008  0.3690511E+03  0.7957747E-01  0.3500263E+00
         13   -1    0    0    0    0  0.00000000000E+00  0.00000000000E+00  0.14999999963E+04  0.15000000000E+04  0.10566000000E+00 0.  1.
        994   -1    0    0    0    0 -0.00000000000E+00 -0.00000000000E+00  0.11368683772E-12  0.17120000000E+03  0.17120000000E+03 0.  0.
         13    1    1    2    0    0 -0.60422297718E+02 -0.13458329696E+02  0.20328684172E+03  0.21250301617E+03  0.10566000000E+00 0.  1.
        994    1    1    2    0    0  0.43727294835E+02 -0.58655435614E+02  0.28570731203E+02  0.18835674430E+03  0.17120000000E+03 0.  0.
        998    1    1    2    0    0  0.16695002882E+02  0.72113765310E+02  0.12681424234E+04  0.12703402395E+04  0.10000000000E+02 0.  1.
</event>
<event>
 5    1  0.1667358E-008  0.3863094E+03  0.7957747E-01  0.3424138E+00
         13   -1    0    0    0    0  0.00000000000E+00  0.00000000000E+00  0.14999999963E+04  0.15000000000E+04  0.10566000000E+00 0.  1.
        994   -1    0    0    0    0 -0.00000000000E+00 -0.00000000000E+00  0.11368683772E-12  0.17120000000E+03  0.17120000000E+03 0.  0.
         13    1    1    2    0    0 -0.11365866942E+02  0.37914629758E+01  0.61267540163E+02  0.62428204879E+02  0.10566000000E+00 0.  1.
        994    1    1    2    0    0  0.43158890472E+02  0.18259674553E+02  0.82063750448E+01  0.17768761953E+03  0.17120000000E+03 0.  0.
        998    1    1    2    0    0 -0.31793023530E+02 -0.22051137529E+02  0.14305260811E+04  0.14310841756E+04  0.10000000000E+02 0.  1.
</event>
<event>
 5    1  0.1338396E-008  0.3738250E+03  0.7957747E-01  0.3478495E+00
         13   -1    0    0    0    0  0.00000000000E+00  0.00000000000E+00  0.14999999963E+04  0.15000000000E+04  0.10566000000E+00 0.  1.
        994   -1    0    0    0    0 -0.00000000000E+00 -0.00000000000E+00  0.11368683772E-12  0.17120000000E+03  0.17120000000E+03 0.  0.
         13    1    1    2    0    0  0.19980111070E+02  0.30177173262E+02  0.86444945551E+02  0.93715561140E+02  0.10566000000E+00 0.  1.
        994    1    1    2    0    0 -0.18724029925E+02 -0.17759594590E+02  0.95595561118E+01  0.17339785930E+03  0.17120000000E+03 0.  0.
        998    1    1    2    0    0 -0.12560811451E+01 -0.12417578672E+02  0.14039954946E+04  0.14040865796E+04  0.10000000000E+02 0.  1.
</event>
<event>
 5    1  0.1338396E-008  0.3789292E+03  0.7957747E-01  0.3455834E+00
         13   -1    0    0    0    0  0.00000000000E+00  0.00000000000E+00  0.14999999963E+04  0.15000000000E+04  0.10566000000E+00 0. -1.
        994   -1    0    0    0    0 -0.00000000000E+00 -0.00000000000E+00  0.11368683772E-12  0.17120000000E+03  0.17120000000E+03 0.  0.
         13    1    1    2    0    0  0.34957839134E+02 -0.94505395108E+01  0.12920294755E+03  0.13418187669E+03  0.10566000000E+00 0. -1.
        994    1    1    2    0    0 -0.38752430508E+02 -0.10445761854E+02  0.10097814014E+02  0.17613140168E+03  0.17120000000E+03 0.  0.
        998    1    1    2    0    0  0.37945913741E+01  0.19896301365E+02  0.13606992347E+04  0.13608867216E+04  0.10000000000E+02 0. -1.
</event>
<event>
 5    1  0.1338396E-008  0.3831455E+03  0.7957747E-01  0.3437576E+00
         13   -1    0    0    0    0  0.00000000000E+00  0.00000000000E+00  0.14999999963E+04  0.15000000000E+04  0.10566000000E+00 0.  1.
        994   -1    0    0    0    0 -0.00000000000E+00 -0.00000000000E+00  0.11368683772E-12  0.17120000000E+03  0.17120000000E+03 0.  0.
         13    1    1    2    0    0  0.84646976553E+01  0.25653534587E+02  0.15272122877E+03  0.15509203662E+03  0.10566000000E+00 0.  1.
        994    1    1    2    0    0 -0.63308720478E+01 -0.56192728557E+01  0.27908049866E+01  0.17143186623E+03  0.17120000000E+03 0.  0.
        998    1    1    2    0    0 -0.21338256075E+01 -0.20034261732E+02  0.13444879625E+04  0.13446760971E+04  0.10000000000E+02 0.  1.
</event>
<event>
 5    1  0.1338396E-008  0.3849764E+03  0.7957747E-01  0.3429772E+00
         13   -1    0    0    0    0  0.00000000000E+00  0.00000000000E+00  0.14999999963E+04  0.15000000000E+04  0.10566000000E+00 0. -1.
        994   -1    0    0    0    0 -0.00000000000E+00 -0.00000000000E+00  0.11368683772E-12  0.17120000000E+03  0.17120000000E+03 0.  0.
         13    1    1    2    0    0  0.12361663838E+02 -0.42652177535E+01  0.54342640450E+02  0.55893975976E+02  0.10566000000E+00 0. -1.
        994    1    1    2    0    0 -0.34520902128E+01 -0.60596899350E+01  0.18018247755E+01  0.17135146145E+03  0.17120000000E+03 0.  0.
        998    1    1    2    0    0 -0.89095736254E+01  0.10324907689E+02  0.14438555311E+04  0.14439545626E+04  0.10000000000E+02 0. -1.
</event>
<event>
 5    1  0.1338396E-008  0.3699802E+03  0.7957747E-01  0.3495982E+00
         13   -1    0    0    0    0  0.00000000000E+00  0.00000000000E+00  0.14999999963E+04  0.15000000000E+04  0.10566000000E+00 0.  1.
        994   -1    0    0    0    0 -0.00000000000E+00 -0.00000000000E+00  0.11368683772E-12  0.17120000000E+03  0.17120000000E+03 0.  0.
         13    1    1    2    0    0  0.21222236118E+02 -0.36009652868E+02  0.99412736797E+02  0.10784239337E+03  0.10566000000E+00 0.  1.
        994    1    1    2    0    0 -0.13948079151E+02 -0.56453282034E+01  0.10062726949E+02  0.17215434097E+03  0.17120000000E+03 0.  0.
        998    1    1    2    0    0 -0.72741569671E+01  0.41654981071E+02  0.13905245325E+04  0.13912032657E+04  0.10000000000E+02 0.  1.
</event>
<event>
 5    1  0.1338396E-008  0.3798719E+03  0.7957747E-01  0.3451717E+00
         13   -1    0    0    0    0  0.00000000000E+00  0.00000000000E+00  0.14999999963E+04  0.15000000000E+04  0.10566000000E+00 0.  1.
        994   -1    0    0    0    0 -0.00000000000E+00 -0.00000000000E+00  0.11368683772E-12  0.17120000000E+03  0.17120000000E+03 0.  0.
         13    1    1    2    0    0 -0.30387417400E+02  0.53513630083E+01  0.13517768803E+03  0.13865442916E+03  0.10566000000E+00 0.  1.
        994    1    1    2    0    0 -0.58194164878E+01  0.31898224809E+02  0.77219288239E+01  0.17441453649E+03  0.17120000000E+03 0.  0.
        998    1    1    2    0    0  0.36206833888E+02 -0.37249587817E+02  0.13571003794E+04  0.13581310343E+04  0.10000000000E+02 0.  1.
</event>
<event>
 5    1  0.1338396E-008  0.3819456E+03  0.7957747E-01  0.3442730E+00
         13   -1    0    0    0    0  0.00000000000E+00  0.00000000000E+00  0.14999999963E+04  0.15000000000E+04  0.10566000000E+00 0.  1.
        994   -1    0    0    0    0 -0.00000000000E+00 -0.00000000000E+00  0.11368683772E-12  0.17120000000E+03  0.17120000000E+03 0.  0.
         13    1    1    2    0    0  0.18299979967E+02 -0.29666104761E+01  0.53558367563E+02  0.56676273207E+02  0.10566000000E+00 0.  1.
        994    1    1    2    0    0 -0.14079106917E+02 -0.14380888813E+02  0.45007035160E+01  0.17243760479E+03  0.17120000000E+03 0.  0.
        998    1    1    2    0    0 -0.42208730503E+01  0.17347499289E+02  0.14419409252E+04  0.14420861220E+04  0.10000000000E+02 0.  1.
</event>
<event>
 5    1  0.1338396E-008  0.3794922E+03  0.7957747E-01  0.3453373E+00
         13   -1    0    0    0    0  0.00000000000E+00  0.00000000000E+00  0.14999999963E+04  0.15000000000E+04  0.10566000000E+00 0.  1.
        994   -1    0    0    0    0 -0.00000000000E+00 -0.00000000000E+00  0.11368683772E-12  0.17120000000E+03  0.17120000000E+03 0.  0.
         13    1    1    2    0    0  0.22204331818E+01  0.28572203002E+02  0.10146448107E+03  0.10543411778E+03  0.10566000000E+00 0.  1.
        994    1    1    2    0    0 -0.15801549154E+01  0.17496025387E+01  0.44083142625E+01  0.17127297286E+03  0.17120000000E+03 0.  0.
        998    1    1    2    0    0 -0.64027826637E+00 -0.30321805541E+02  0.13941272009E+04  0.13944929094E+04  0.10000000000E+02 0.  1.
</event>
<event>
 5    1  0.1338396E-008  0.3830395E+03  0.7957747E-01  0.3438030E+00
         13   -1    0    0    0    0  0.00000000000E+00  0.00000000000E+00  0.14999999963E+04  0.15000000000E+04  0.10566000000E+00 0.  1.
        994   -1    0    0    0    0 -0.00000000000E+00 -0.00000000000E+00  0.11368683772E-12  0.17120000000E+03  0.17120000000E+03 0.  0.
         13    1    1    2    0    0  0.57683536536E+01  0.11492278531E+02  0.27118572542E+02  0.30012905732E+02  0.10566000000E+00 0.  1.
        994    1    1    2    0    0 -0.51897341666E+02 -0.25009730046E+02  0.13669522830E+02  0.18114943147E+03  0.17120000000E+03 0.  0.
        998    1    1    2    0    0  0.46128988012E+02  0.13517451515E+02  0.14592119009E+04  0.14600376628E+04  0.10000000000E+02 0.  1.
</event>
<event>
 5    1  0.1338396E-008  0.3794856E+03  0.7957747E-01  0.3453402E+00
         13   -1    0    0    0    0  0.00000000000E+00  0.00000000000E+00  0.14999999963E+04  0.15000000000E+04  0.10566000000E+00 0. -1.
        994   -1    0    0    0    0 -0.00000000000E+00 -0.00000000000E+00  0.11368683772E-12  0.17120000000E+03  0.17120000000E+03 0.  0.
         13    1    1    2    0    0 -0.11476445272E+02 -0.11406762317E+02  0.28531379478E+02  0.32800515264E+02  0.10566000000E+00 0. -1.
        994    1    1    2    0    0  0.68336235351E+01  0.28092710819E+00  0.45497119303E+01  0.17139695799E+03  0.17120000000E+03 0.  0.
        998    1    1    2    0    0  0.46428217373E+01  0.11125835209E+02  0.14669189049E+04  0.14670025267E+04  0.10000000000E+02 0. -1.
</event>
<event>
 5    1  0.1350979E-008  0.3853909E+03  0.7957747E-01  0.3428016E+00
         13   -1    0    0    0    0  0.00000000000E+00  0.00000000000E+00  0.14999999963E+04  0.15000000000E+04  0.10566000000E+00 0.  1.
        994   -1    0    0    0    0 -0.00000000000E+00 -0.00000000000E+00  0.11368683772E-12  0.17120000000E+03  0.17120000000E+03 0.  0.
         13    1    1    2    0    0 -0.48812502795E+01  0.10739324863E+02  0.48598469362E+02  0.50009819947E+02  0.10566000000E+00 0.  1.
        994    1    1    2    0    0  0.17779523664E+01 -0.78606012561E+01  0.16495381956E+01  0.17139752374E+03  0.17120000000E+03 0.  0.
        998    1    1    2    0    0  0.31032979131E+01 -0.28787236069E+01  0.14497519887E+04  0.14497926563E+04  0.10000000000E+02 0.  1.
</event>
<event>
 5    1  0.1338396E-008  0.3789907E+03  0.7957747E-01  0.3455565E+00
         13   -1    0    0    0    0  0.00000000000E+00  0.00000000000E+00  0.14999999963E+04  0.15000000000E+04  0.10566000000E+00 0. -1.
        994   -1    0    0    0    0 -0.00000000000E+00 -0.00000000000E+00  0.11368683772E-12  0.17120000000E+03  0.17120000000E+03 0.  0.
         13    1    1    2    0    0 -0.71276930481E+00 -0.12863115466E+02  0.14987635010E+02  0.19763809016E+02  0.10566000000E+00 0. -1.
        994    1    1    2    0    0  0.32453592748E+01  0.31929962693E+02  0.81061460943E+01  0.17437088197E+03  0.17120000000E+03 0.  0.
        998    1    1    2    0    0 -0.25325899699E+01 -0.19066847227E+02  0.14769062152E+04  0.14770653090E+04  0.10000000000E+02 0. -1.
</event>
<event>
 5    1  0.1338396E-008  0.3750383E+03  0.7957747E-01  0.3473051E+00
         13   -1    0    0    0    0  0.00000000000E+00  0.00000000000E+00  0.14999999963E+04  0.15000000000E+04  0.10566000000E+00 0. -1.
        994   -1    0    0    0    0 -0.00000000000E+00 -0.00000000000E+00  0.11368683772E-12  0.17120000000E+03  0.17120000000E+03 0.  0.
         13    1    1    2    0    0 -0.14601206487E+02 -0.26090787268E+01  0.13525492685E+02  0.20073680257E+02  0.10566000000E+00 0. -1.
        994    1    1    2    0    0  0.12319390086E+02  0.20117965564E+01  0.71887923955E+01  0.17180492843E+03  0.17120000000E+03 0.  0.
        998    1    1    2    0    0  0.22818164012E+01  0.59728217048E+00  0.14792857112E+04  0.14793213913E+04  0.10000000000E+02 0. -1.
</event>
<event>
 5    1  0.1338396E-008  0.3776755E+03  0.7957747E-01  0.3461343E+00
         13   -1    0    0    0    0  0.00000000000E+00  0.00000000000E+00  0.14999999963E+04  0.15000000000E+04  0.10566000000E+00 0.  1.
        994   -1    0    0    0    0 -0.00000000000E+00 -0.00000000000E+00  0.11368683772E-12  0.17120000000E+03  0.17120000000E+03 0.  0.
         13    1    1    2    0    0  0.16531995706E+02  0.26456466191E+01  0.23878737110E+02  0.29163531645E+02  0.10566000000E+00 0.  1.
        994    1    1    2    0    0 -0.15896256761E+02 -0.29150247185E+01  0.61915201519E+01  0.17207255234E+03  0.17120000000E+03 0.  0.
        998    1    1    2    0    0 -0.63573894516E+00  0.26937809948E+00  0.14699297390E+04  0.14699639160E+04  0.10000000000E+02 0.  1.
</event>
<event>
 5    1  0.1338396E-008  0.3851821E+03  0.7957747E-01  0.3428900E+00
         13   -1    0    0    0    0  0.00000000000E+00  0.00000000000E+00  0.14999999963E+04  0.15000000000E+04  0.10566000000E+00 0. -1.
        994   -1    0    0    0    0 -0.00000000000E+00 -0.00000000000E+00  0.11368683772E-12  0.17120000000E+03  0.17120000000E+03 0.  0.
         13    1    1    2    0    0  0.44309329839E+01 -0.10877435256E+02  0.53202590286E+02  0.54483745669E+02  0.10566000000E+00 0. -1.
        994    1    1    2    0    0  0.24070653381E+01 -0.20947600464E+02  0.30023829966E+01  0.17251970969E+03  0.17120000000E+03 0.  0.
        998    1    1    2    0    0 -0.68379983220E+01  0.31825035720E+02  0.14437950230E+04  0.14441965446E+04  0.10000000000E+02 0. -1.
</event>
<event>
 5    1  0.1338396E-008  0.3788555E+03  0.7957747E-01  0.3456157E+00
         13   -1    0    0    0    0  0.00000000000E+00  0.00000000000E+00  0.14999999963E+04  0.15000000000E+04  0.10566000000E+00 0. -1.
        994   -1    0    0    0    0 -0.00000000000E+00 -0.00000000000E+00  0.11368683772E-12  0.17120000000E+03  0.17120000000E+03 0.  0.
         13    1    1    2    0    0 -0.89659997619E+01 -0.14464821180E+02  0.31028975368E+02  0.35389669113E+02  0.10566000000E+00 0. -1.
        994    1    1    2    0    0 -0.10678276826E+02 -0.89489898404E+01  0.53636169050E+01  0.17184969712E+03  0.17120000000E+03 0.  0.
        998    1    1    2    0    0  0.19644276588E+02  0.23413811020E+02  0.14636074040E+04  0.14639606338E+04  0.10000000000E+02 0. -1.
</event>
<event>
 5    1  0.1338396E-008  0.3988779E+03  0.7957747E-01  0.3372865E+00
         13   -1    0    0    0    0  0.00000000000E+00  0.00000000000E+00  0.14999999963E+04  0.15000000000E+04  0.10566000000E+00 0.  1.
        994   -1    0    0    0    0 -0.00000000000E+00 -0.00000000000E+00  0.11368683772E-12  0.17120000000E+03  0.17120000000E+03 0.  0.
         13    1    1    2    0    0  0.31084975490E+02 -0.12086069483E+03  0.30705833740E+03  0.33144896589E+03  0.10566000000E+00 0.  1.
        994    1    1    2    0    0 -0.35237667697E+02  0.51311689600E+02  0.42368662466E+02  0.18702707364E+03  0.17120000000E+03 0.  0.
        998    1    1    2    0    0  0.41526922062E+01  0.69549005231E+02  0.11505729964E+04  0.11527239605E+04  0.10000000000E+02 0.  1.
</event>
<event>
 5    1  0.1338396E-008  0.3806567E+03  0.7957747E-01  0.3448304E+00
         13   -1    0    0    0    0  0.00000000000E+00  0.00000000000E+00  0.14999999963E+04  0.15000000000E+04  0.10566000000E+00 0.  1.
        994   -1    0    0    0    0 -0.00000000000E+00 -0.00000000000E+00  0.11368683772E-12  0.17120000000E+03  0.17120000000E+03 0.  0.
         13    1    1    2    0    0  0.52818948959E+02  0.62011875428E+01  0.28839051229E+03  0.29325312418E+03  0.10566000000E+00 0.  1.
        994    1    1    2    0    0 -0.59925331511E+02  0.93805024858E+01  0.16173046236E+02  0.18234595309E+03  0.17120000000E+03 0.  0.
        998    1    1    2    0    0  0.71063825517E+01 -0.15581690029E+02  0.11954364378E+04  0.11956009227E+04  0.10000000000E+02 0.  1.
</event>
<event>
 5    1  0.1338396E-008  0.3716868E+03  0.7957747E-01  0.3488174E+00
         13   -1    0    0    0    0  0.00000000000E+00  0.00000000000E+00  0.14999999963E+04  0.15000000000E+04  0.10566000000E+00 0.  1.
        994   -1    0    0    0    0 -0.00000000000E+00 -0.00000000000E+00  0.11368683772E-12  0.17120000000E+03  0.17120000000E+03 0.  0.
         13    1    1    2    0    0  0.22240480955E+02 -0.77104968867E+01  0.18477552831E+02  0.29925271561E+02  0.10566000000E+00 0.  1.
        994    1    1    2    0    0 -0.11061446910E+02  0.13640420441E+02  0.12918878495E+02  0.17258260080E+03  0.17120000000E+03 0.  0.
        998    1    1    2    0    0 -0.11179034045E+02 -0.59299235543E+01  0.14686035650E+04  0.14686921276E+04  0.10000000000E+02 0.  1.
</event>
<event>
 5    1  0.1338396E-008  0.3793910E+03  0.7957747E-01  0.3453815E+00
         13   -1    0    0    0    0  0.00000000000E+00  0.00000000000E+00  0.14999999963E+04  0.15000000000E+04  0.10566000000E+00 0.  1.
        994   -1    0    0    0    0 -0.00000000000E+00 -0.00000000000E+00  0.11368683772E-12  0.17120000000E+03  0.17120000000E+03 0.  0.
         13    1    1    2    0    0 -0.43528569713E+02 -0.12721384240E+02  0.20265628141E+03  0.20766836437E+03  0.10566000000E+00 0.  1.
        994    1    1    2    0    0  0.48322282121E+02 -0.64631113914E+01  0.12443901800E+02  0.17844076174E+03  0.17120000000E+03 0.  0.
        998    1    1    2    0    0 -0.47937124082E+01  0.19184495631E+02  0.12848998131E+04  0.12850908739E+04  0.10000000000E+02 0.  1.
</event>
<event>
 5    1  0.1338396E-008  0.3829538E+03  0.7957747E-01  0.3438397E+00
         13   -1    0    0    0    0  0.00000000000E+00  0.00000000000E+00  0.14999999963E+04  0.15000000000E+04  0.10566000000E+00 0. -1.
        994   -1    0    0    0    0 -0.00000000000E+00 -0.00000000000E+00  0.11368683772E-12  0.17120000000E+03  0.17120000000E+03 0.  0.
         13    1    1    2    0    0  0.12674533561E+02 -0.21657815244E+01  0.29981191403E+02  0.32622345296E+02  0.10566000000E+00 0. -1.
        994    1    1    2    0    0 -0.12103767722E+02 -0.11591483087E+01  0.31390652707E+01  0.17165995033E+03  0.17120000000E+03 0.  0.
        998    1    1    2    0    0 -0.57076583919E+00  0.33249298331E+01  0.14668797396E+04  0.14669177044E+04  0.10000000000E+02 0. -1.
</event>
<event>
 5    1  0.1338396E-008  0.3836028E+03  0.7957747E-01  0.3435620E+00
         13   -1    0    0    0    0  0.00000000000E+00  0.00000000000E+00  0.14999999963E+04  0.15000000000E+04  0.10566000000E+00 0.  1.
        994   -1    0    0    0    0 -0.00000000000E+00 -0.00000000000E+00  0.11368683772E-12  0.17120000000E+03  0.17120000000E+03 0.  0.
         13    1    1    2    0    0  0.15072989045E+02 -0.18807789235E+02  0.11936499267E+03  0.12177413754E+03  0.10566000000E+00 0.  1.
        994    1    1    2    0    0 -0.18411970587E+02  0.11471505617E+02  0.38816336657E+01  0.17261258118E+03  0.17120000000E+03 0.  0.
        998    1    1    2    0    0  0.33389815422E+01  0.73362836176E+01  0.13767533699E+04  0.13768132813E+04  0.10000000000E+02 0.  1.
</event>
<event>
 5    1  0.1338396E-008  0.3707688E+03  0.7957747E-01  0.3492365E+00
         13   -1    0    0    0    0  0.00000000000E+00  0.00000000000E+00  0.14999999963E+04  0.15000000000E+04  0.10566000000E+00 0. -1.
        994   -1    0    0    0    0 -0.00000000000E+00 -0.00000000000E+00  0.11368683772E-12  0.17120000000E+03  0.17120000000E+03 0.  0.
         13    1    1    2    0    0 -0.54732507116E+02  0.28580177400E+02  0.20259051052E+03  0.21179093464E+03  0.10566000000E+00 0. -1.
        994    1    1    2    0    0  0.11466952744E+01  0.13180676210E+02  0.11959726620E+02  0.17212646571E+03  0.17120000000E+03 0.  0.
        998    1    1    2    0    0  0.53585811842E+02 -0.41760853610E+02  0.12854497591E+04  0.12872825997E+04  0.10000000000E+02 0. -1.
</event>
<event>
 5    1  0.1338396E-008  0.3727261E+03  0.7957747E-01  0.3483455E+00
         13   -1    0    0    0    0  0.00000000000E+00  0.00000000000E+00  0.14999999963E+04  0.15000000000E+04  0.10566000000E+00 0.  1.
        994   -1    0    0    0    0 -0.00000000000E+00 -0.00000000000E+00  0.11368683772E-12  0.17120000000E+03  0.17120000000E+03 0.  0.
         13    1    1    2    0    0 -0.15280102344E+02 -0.96056936740E+02  0.45746505439E+03  0.46769082071E+03  0.10566000000E+00 0.  1.
        994    1    1    2    0    0 -0.21637321811E+02  0.93280708733E+02  0.39945098283E+02  0.20018620131E+03  0.17120000000E+03 0.  0.
        998    1    1    2    0    0  0.36917424155E+02  0.27762280065E+01  0.10025898436E+04  0.10033229780E+04  0.10000000000E+02 0.  1.
</event>
<event>
 5    1  0.1338396E-008  0.3857456E+03  0.7957747E-01  0.3426516E+00
         13   -1    0    0    0    0  0.00000000000E+00  0.00000000000E+00  0.14999999963E+04  0.15000000000E+04  0.10566000000E+00 0.  1.
        994   -1    0    0    0    0 -0.00000000000E+00 -0.00000000000E+00  0.11368683772E-12  0.17120000000E+03  0.17120000000E+03 0.  0.
         13    1    1    2    0    0  0.10826188846E+02 -0.35173753044E+01  0.54112322377E+02  0.55296771072E+02  0.10566000000E+00 0.  1.
        994    1    1    2    0    0 -0.22633875056E+01 -0.35597636390E+01  0.13188106242E+01  0.17125704103E+03  0.17120000000E+03 0.  0.
        998    1    1    2    0    0 -0.85628013407E+01  0.70771389434E+01  0.14445688633E+04  0.14446461879E+04  0.10000000000E+02 0.  1.
</event>
<event>
 5    1  0.1338396E-008  0.3774890E+03  0.7957747E-01  0.3462165E+00
         13   -1    0    0    0    0  0.00000000000E+00  0.00000000000E+00  0.14999999963E+04  0.15000000000E+04  0.10566000000E+00 0.  1.
        994   -1    0    0    0    0 -0.00000000000E+00 -0.00000000000E+00  0.11368683772E-12  0.17120000000E+03  0.17120000000E+03 0.  0.
         13    1    1    2    0    0  0.55347260017E+02 -0.29932008040E+01  0.32377396976E+03  0.32848420525E+03  0.10566000000E+00 0.  1.
        994    1    1    2    0    0 -0.15905093816E+02  0.66066903429E+01  0.64066091338E+01  0.17218334707E+03  0.17120000000E+03 0.  0.
        998    1    1    2    0    0 -0.39442166201E+02 -0.36134895389E+01  0.11698194174E+04  0.11705324477E+04  0.10000000000E+02 0.  1.
</event>
<event>
 5    1  0.1338396E-008  0.3842829E+03  0.7957747E-01  0.3432719E+00
         13   -1    0    0    0    0  0.00000000000E+00  0.00000000000E+00  0.14999999963E+04  0.15000000000E+04  0.10566000000E+00 0. -1.
        994   -1    0    0    0    0 -0.00000000000E+00 -0.00000000000E+00  0.11368683772E-12  0.17120000000E+03  0.17120000000E+03 0.  0.
         13    1    1    2    0    0  0.10264128312E+02  0.51980543963E+01  0.32453231980E+02  0.34432477829E+02  0.10566000000E+00 0. -1.
        994    1    1    2    0    0 -0.93863388129E+01 -0.51077527553E+01  0.23630913148E+01  0.17154945845E+03  0.17120000000E+03 0.  0.
        998    1    1    2    0    0 -0.87778949877E+00 -0.90301640965E-01  0.14651836730E+04  0.14652180637E+04  0.10000000000E+02 0. -1.
</event>
<event>
 5    1  0.1338396E-008  0.3817820E+03  0.7957747E-01  0.3443436E+00
         13   -1    0    0    0    0  0.00000000000E+00  0.00000000000E+00  0.14999999963E+04  0.15000000000E+04  0.10566000000E+00 0.  1.
        994   -1    0    0    0    0 -0.00000000000E+00 -0.00000000000E+00  0.11368683772E-12  0.17120000000E+03  0.17120000000E+03 0.  0.
         13    1    1    2    0    0  0.44420498077E+01  0.11770970770E+02  0.23206502857E+02  0.26397736612E+02  0.10566000000E+00 0.  1.
        994    1    1    2    0    0 -0.85395930463E+01 -0.59207888400E+01  0.35952332762E+01  0.17155275017E+03  0.17120000000E+03 0.  0.
        998    1    1    2    0    0  0.40975432387E+01 -0.58501819303E+01  0.14731982601E+04  0.14732495132E+04  0.10000000000E+02 0.  1.
</event>
<event>
 5    1  0.1659530E-008  0.3857889E+03  0.7957747E-01  0.3426333E+00
         13   -1    0    0    0    0  0.00000000000E+00  0.00000000000E+00  0.14999999963E+04  0.15000000000E+04  0.10566000000E+00 0.  1.
        994   -1    0    0    0    0 -0.00000000000E+00 -0.00000000000E+00  0.11368683772E-12  0.17120000000E+03  0.17120000000E+03 0.  0.
         13    1    1    2    0    0 -0.42357710133E+01 -0.98275034411E+01  0.46898418565E+02  0.48103995758E+02  0.10566000000E+00 0.  1.
        994    1    1    2    0    0  0.28508717424E+01  0.54577902817E+01  0.13633735218E+01  0.17131612222E+03  0.17120000000E+03 0.  0.
        998    1    1    2    0    0  0.13848992709E+01  0.43697131593E+01  0.14517382042E+04  0.14517798820E+04  0.10000000000E+02 0.  1.
</event>
<event>
 5    1  0.1338396E-008  0.3786086E+03  0.7957747E-01  0.3457239E+00
         13   -1    0    0    0    0  0.00000000000E+00  0.00000000000E+00  0.14999999963E+04  0.15000000000E+04  0.10566000000E+00 0.  1.
        994   -1    0    0    0    0 -0.00000000000E+00 -0.00000000000E+00  0.11368683772E-12  0.17120000000E+03  0.17120000000E+03 0.  0.
         13    1    1    2    0    0 -0.16092259149E+02  0.43380411894E+01  0.26132670592E+02  0.30995274514E+02  0.10566000000E+00 0.  1.
        994    1    1    2    0    0  0.67627223619E+01 -0.47220999363E+02  0.12517596262E+02  0.17816196960E+03  0.17120000000E+03 0.  0.
        998    1    1    2    0    0  0.93295367871E+01  0.42882958173E+02  0.14613497294E+04  0.14620427559E+04  0.10000000000E+02 0.  1.
</event>
<event>
 5    1  0.1338396E-008  0.3838968E+03  0.7957747E-01  0.3434365E+00
         13   -1    0    0    0    0  0.00000000000E+00  0.00000000000E+00  0.14999999963E+04  0.15000000000E+04  0.10566000000E+00 0.  1.
        994   -1    0    0    0    0 -0.00000000000E+00 -0.00000000000E+00  0.11368683772E-12  0.17120000000E+03  0.17120000000E+03 0.  0.
         13    1    1    2    0    0  0.87018214034E+01 -0.19836911021E+02  0.11458029633E+03  0.11660994900E+03  0.10566000000E+00 0.  1.
        994    1    1    2    0    0 -0.12309502522E+02 -0.23977638899E+00  0.26792964025E+01  0.17166304196E+03  0.17120000000E+03 0.  0.
        998    1    1    2    0    0  0.36076811183E+01  0.20076687410E+02  0.13827404035E+04  0.13829270090E+04  0.10000000000E+02 0.  1.
</event>
<event>
 5    1  0.1338396E-008  0.3762785E+03  0.7957747E-01  0.3467525E+00
         13   -1    0    0    0    0  0.00000000000E+00  0.00000000000E+00  0.14999999963E+04  0.15000000000E+04  0.10566000000E+00 0. -1.
        994   -1    0    0    0    0 -0.00000000000E+00 -0.00000000000E+00  0.11368683772E-12  0.17120000000E+03  0.17120000000E+03 0.  0.
         13    1    1    2    0    0  0.35528902311E+02 -0.28903700201E+01  0.11601667424E+03  0.12136942368E+03  0.10566000000E+00 0. -1.
        994    1    1    2    0    0  0.18421182781E+01 -0.89593475170E+01  0.63068722727E+01  0.17156013507E+03  0.17120000000E+03 0.  0.
        998    1    1    2    0    0 -0.37371020590E+02  0.11849717537E+02  0.13776764498E+04  0.13782704412E+04  0.10000000000E+02 0. -1.
</event>
<event>
 5    1  0.1338396E-008  0.3218547E+03  0.7957747E-01  0.3751378E+00
         13   -1    0    0    0    0  0.00000000000E+00  0.00000000000E+00  0.14999999963E+04  0.15000000000E+04  0.10566000000E+00 0.  1.
        994   -1    0    0    0    0 -0.00000000000E+00 -0.00000000000E+00  0.11368683772E-12  0.17120000000E+03  0.17120000000E+03 0.  0.
         13    1    1    2    0    0 -0.24770837898E+03  0.17578706023E+02  0.53563531436E+03  0.59040126446E+03  0.10566000000E+00 0.  1.
        994    1    1    2    0    0  0.28255956622E+03 -0.52728348298E+02  0.43374390590E+03  0.54778043328E+03  0.17120000000E+03 0.  0.
        998    1    1    2    0    0 -0.34851187241E+02  0.35149642275E+02  0.53062077602E+03  0.53301830226E+03  0.10000000000E+02 0.  1.
</event>
<event>
 5    1  0.1338396E-008  0.3854537E+03  0.7957747E-01  0.3427750E+00
         13   -1    0    0    0    0  0.00000000000E+00  0.00000000000E+00  0.14999999963E+04  0.15000000000E+04  0.10566000000E+00 0. -1.
        994   -1    0    0    0    0 -0.00000000000E+00 -0.00000000000E+00  0.11368683772E-12  0.17120000000E+03  0.17120000000E+03 0.  0.
         13    1    1    2    0    0  0.46785074162E+02 -0.61406376180E+02  0.13327798658E+03  0.15402148899E+03  0.10566000000E+00 0. -1.
        994    1    1    2    0    0 -0.82126494460E+02  0.38573859943E+02  0.50479464422E+02  0.20022567291E+03  0.17120000000E+03 0.  0.
        998    1    1    2    0    0  0.35341420298E+02  0.22832516237E+02  0.13162425453E+04  0.13169528381E+04  0.10000000000E+02 0. -1.
</event>
<event>
 5    1  0.1338396E-008  0.3815982E+03  0.7957747E-01  0.3444229E+00
         13   -1    0    0    0    0  0.00000000000E+00  0.00000000000E+00  0.14999999963E+04  0.15000000000E+04  0.10566000000E+00 0. -1.
        994   -1    0    0    0    0 -0.00000000000E+00 -0.00000000000E+00  0.11368683772E-12  0.17120000000E+03  0.17120000000E+03 0.  0.
         13    1    1    2    0    0 -0.84174770141E+01  0.87294860570E+01  0.21257286463E+02  0.24473275995E+02  0.10566000000E+00 0. -1.
        994    1    1    2    0    0  0.13081620242E+02  0.12104107647E+02  0.43855011186E+01  0.17218104086E+03  0.17120000000E+03 0.  0.
        998    1    1    2    0    0 -0.46641432280E+01 -0.20833593704E+02  0.14743572087E+04  0.14745456831E+04  0.10000000000E+02 0. -1.
</event>
<event>
 5    1  0.1338396E-008  0.3819732E+03  0.7957747E-01  0.3442611E+00
         13   -1    0    0    0    0  0.00000000000E+00  0.00000000000E+00  0.14999999963E+04  0.15000000000E+04  0.10566000000E+00 0. -1.
        994   -1    0    0    0    0 -0.00000000000E+00 -0.00000000000E+00  0.11368683772E-12  0.17120000000E+03  0.17120000000E+03 0.  0.
         13    1    1    2    0    0 -0.75232131952E+01  0.72991832359E+01  0.16070898798E+02  0.19187541920E+02  0.10566000000E+00 0. -1.
        994    1    1    2    0    0  0.68822928769E+01 -0.82511932827E+01  0.35238922892E+01  0.17157303390E+03  0.17120000000E+03 0.  0.
        998    1    1    2    0    0  0.64092031824E+00  0.95201004684E+00  0.14804052052E+04  0.14804394242E+04  0.10000000000E+02 0. -1.
</event>
<event>
 5    1  0.1338396E-008  0.2656355E+03  0.7957747E-01  0.4176672E+00
         13   -1    0    0    0    0  0.00000000000E+00  0.00000000000E+00  0.14999999963E+04  0.15000000000E+04  0.10566000000E+00 0. -1.
        994   -1    0    0    0    0 -0.00000000000E+00 -0.00000000000E+00  0.11368683772E-12  0.17120000000E+03  0.17120000000E+03 0.  0.
         13    1    1    2    0    0  0.10690574114E+02 -0.15390422795E+03  0.62893090259E+03  0.64757616630E+03  0.10566000000E+00 0. -1.
        994    1    1    2    0    0  0.65454983467E+02  0.29395714483E+02  0.53661641655E+02  0.19322907306E+03  0.17120000000E+03 0.  0.
        998    1    1    2    0    0 -0.76145557581E+02  0.12450851347E+03  0.81740745203E+03  0.83039476064E+03  0.10000000000E+02 0. -1.
</event>
<event>
 5    1  0.1338396E-008  0.3837329E+03  0.7957747E-01  0.3435064E+00
         13   -1    0    0    0    0  0.00000000000E+00  0.00000000000E+00  0.14999999963E+04  0.15000000000E+04  0.10566000000E+00 0.  1.
        994   -1    0    0    0    0 -0.00000000000E+00 -0.00000000000E+00  0.11368683772E-12  0.17120000000E+03  0.17120000000E+03 0.  0.
         13    1    1    2    0    0 -0.84994933228E+01  0.18618773942E+02  0.10443576141E+03  0.10642245794E+03  0.10566000000E+00 0.  1.
        994    1    1    2    0    0  0.56400346497E+00  0.56497300589E+01  0.23670043322E+01  0.17131047913E+03  0.17120000000E+03 0.  0.
        998    1    1    2    0    0  0.79354898579E+01 -0.24268504001E+02  0.13931972305E+04  0.13934670629E+04  0.10000000000E+02 0.  1.
</event>
<event>
 5    1  0.1338396E-008  0.3848760E+03  0.7957747E-01  0.3430198E+00
         13   -1    0    0    0    0  0.00000000000E+00  0.00000000000E+00  0.14999999963E+04  0.15000000000E+04  0.10566000000E+00 0. -1.
        994   -1    0    0    0    0 -0.00000000000E+00 -0.00000000000E+00  0.11368683772E-12  0.17120000000E+03  0.17120000000E+03 0.  0.
         13    1    1    2    0    0  0.98298045925E+00 -0.11553498982E+02  0.39724555685E+02  0.41382376414E+02  0.10566000000E+00 0. -1.
        994    1    1    2    0    0 -0.57258513659E+01  0.64906258458E+01  0.19382098512E+01  0.17142960729E+03  0.17120000000E+03 0.  0.
        998    1    1    2    0    0  0.47428709066E+01  0.50628731357E+01  0.14583372307E+04  0.14583880163E+04  0.10000000000E+02 0. -1.
</event>
<event>
 5    1  0.1338396E-008  0.3751413E+03  0.7957747E-01  0.3472591E+00
         13   -1    0    0    0    0  0.00000000000E+00  0.00000000000E+00  0.14999999963E+04  0.15000000000E+04  0.10566000000E+00 0. -1.
        994   -1    0    0    0    0 -0.00000000000E+00 -0.00000000000E+00  0.11368683772E-12  0.17120000000E+03  0.17120000000E+03 0.  0.
         13    1    1    2    0    0 -0.11963644622E+02 -0.11194333243E+03  0.60567901401E+03  0.61605317761E+03  0.10566000000E+00 0. -1.
        994    1    1    2    0    0  0.91924084182E+02  0.43225037290E+02  0.51396494011E+02  0.20559542966E+03  0.17120000000E+03 0.  0.
        998    1    1    2    0    0 -0.79960439560E+02  0.68718295138E+02  0.84292448826E+03  0.84955139273E+03  0.10000000000E+02 0. -1.
</event>
<event>
 5    1  0.1338396E-008  0.3920502E+03  0.7957747E-01  0.3400311E+00
         13   -1    0    0    0    0  0.00000000000E+00  0.00000000000E+00  0.14999999963E+04  0.15000000000E+04  0.10566000000E+00 0. -1.
        994   -1    0    0    0    0 -0.00000000000E+00 -0.00000000000E+00  0.11368683772E-12  0.17120000000E+03  0.17120000000E+03 0.  0.
         13    1    1    2    0    0 -0.21411660551E+02 -0.34785965262E+02  0.30346094434E+02  0.50886336066E+02  0.10566000000E+00 0. -1.
        994    1    1    2    0    0  0.49837909536E+02 -0.57431223151E+02  0.45388376484E+02  0.19274778167E+03  0.17120000000E+03 0.  0.
        998    1    1    2    0    0 -0.28426248985E+02  0.92217188413E+02  0.14242655254E+04  0.14275658823E+04  0.10000000000E+02 0. -1.
</event>
<event>
 5    1  0.1338396E-008  0.3855672E+03  0.7957747E-01  0.3427270E+00
         13   -1    0    0    0    0  0.00000000000E+00  0.00000000000E+00  0.14999999963E+04  0.15000000000E+04  0.10566000000E+00 0. -1.
        994   -1    0    0    0    0 -0.00000000000E+00 -0.00000000000E+00  0.11368683772E-12  0.17120000000E+03  0.17120000000E+03 0.  0.
         13    1    1    2    0    0 -0.77882363290E+01  0.98133760794E+01  0.46772698642E+02  0.48421642655E+02  0.10566000000E+00 0. -1.
        994    1    1    2    0    0  0.21885961597E+02 -0.43553407119E+02  0.91871385126E+01  0.17824067465E+03  0.17120000000E+03 0.  0.
        998    1    1    2    0    0 -0.14097725268E+02  0.33740031039E+02  0.14440401591E+04  0.14445376827E+04  0.10000000000E+02 0. -1.
</event>
<event>
 5    1  0.1338396E-008  0.3773409E+03  0.7957747E-01  0.3462819E+00
         13   -1    0    0    0    0  0.00000000000E+00  0.00000000000E+00  0.14999999963E+04  0.15000000000E+04  0.10566000000E+00 0.  1.
        994   -1    0    0    0    0 -0.00000000000E+00 -0.00000000000E+00  0.11368683772E-12  0.17120000000E+03  0.17120000000E+03 0.  0.
         13    1    1    2    0    0 -0.18848197090E+02  0.19664922746E+02  0.63896421304E+02  0.69460258708E+02  0.10566000000E+00 0.  1.
        994    1    1    2    0    0  0.21155544510E+02 -0.13669421995E+02  0.76240669610E+01  0.17321078649E+03  0.17120000000E+03 0.  0.
        998    1    1    2    0    0 -0.23073474194E+01 -0.59955007517E+01  0.14284795080E+04  0.14285289548E+04  0.10000000000E+02 0.  1.
</event>
<event>
 5    1  0.1338396E-008  0.3841234E+03  0.7957747E-01  0.3433399E+00
         13   -1    0    0    0    0  0.00000000000E+00  0.00000000000E+00  0.14999999963E+04  0.15000000000E+04  0.10566000000E+00 0.  1.
        994   -1    0    0    0    0 -0.00000000000E+00 -0.00000000000E+00  0.11368683772E-12  0.17120000000E+03  0.17120000000E+03 0.  0.
         13    1    1    2    0    0 -0.52804936151E+01 -0.12242571356E+02  0.42679796757E+02  0.44713984183E+02  0.10566000000E+00 0.  1.
        994    1    1    2    0    0  0.75637771664E+01  0.58453832233E+01  0.23674169290E+01  0.17148301342E+03  0.17120000000E+03 0.  0.
        998    1    1    2    0    0 -0.22832835513E+01  0.63971881330E+01  0.14549527826E+04  0.14550030024E+04  0.10000000000E+02 0.  1.
</event>
<event>
 5    1  0.1338396E-008  0.3834369E+03  0.7957747E-01  0.3436329E+00
         13   -1    0    0    0    0  0.00000000000E+00  0.00000000000E+00  0.14999999963E+04  0.15000000000E+04  0.10566000000E+00 0. -1.
        994   -1    0    0    0    0 -0.00000000000E+00 -0.00000000000E+00  0.11368683772E-12  0.17120000000E+03  0.17120000000E+03 0.  0.
         13    1    1    2    0    0  0.93563923651E+01  0.21068249935E+02  0.11453582516E+03  0.11683269937E+03  0.10566000000E+00 0. -1.
        994    1    1    2    0    0 -0.51690093722E+01 -0.66007860301E+01  0.26405429337E+01  0.17142549840E+03  0.17120000000E+03 0.  0.
        998    1    1    2    0    0 -0.41873829929E+01 -0.14467463904E+02  0.13828236282E+04  0.13829418022E+04  0.10000000000E+02 0. -1.
</event>
<event>
 5    1  0.1338396E-008  0.3715444E+03  0.7957747E-01  0.3488823E+00
         13   -1    0    0    0    0  0.00000000000E+00  0.00000000000E+00  0.14999999963E+04  0.15000000000E+04  0.10566000000E+00 0.  1.
        994   -1    0    0    0    0 -0.00000000000E+00 -0.00000000000E+00  0.11368683772E-12  0.17120000000E+03  0.17120000000E+03 0.  0.
         13    1    1    2    0    0  0.19042246012E+02 -0.84512464952E+01  0.21645397534E+02  0.30042721231E+02  0.10566000000E+00 0.  1.
        994    1    1    2    0    0 -0.18583368636E+02  0.13349048184E+02  0.10266740033E+02  0.17302712108E+03  0.17120000000E+03 0.  0.
        998    1    1    2    0    0 -0.45887737593E+00 -0.48978016887E+01  0.14680878587E+04  0.14681301577E+04  0.10000000000E+02 0.  1.
</event>
<event>
 5    1  0.1338396E-008  0.3785724E+03  0.7957747E-01  0.3457398E+00
         13   -1    0    0    0    0  0.00000000000E+00  0.00000000000E+00  0.14999999963E+04  0.15000000000E+04  0.10566000000E+00 0.  1.
        994   -1    0    0    0    0 -0.00000000000E+00 -0.00000000000E+00  0.11368683772E-12  0.17120000000E+03  0.17120000000E+03 0.  0.
         13    1    1    2    0    0 -0.85427871547E+01 -0.13091505639E+02  0.23048852114E+02  0.27850089409E+02  0.10566000000E+00 0.  1.
        994    1    1    2    0    0  0.69461756488E+01  0.10179161001E+02  0.53657646222E+01  0.17172680660E+03  0.17120000000E+03 0.  0.
        998    1    1    2    0    0  0.15966115060E+01  0.29123446378E+01  0.14715853795E+04  0.14716231040E+04  0.10000000000E+02 0.  1.
</event>
<event>
 5    1  0.1338396E-008  0.3812965E+03  0.7957747E-01  0.3445533E+00
         13   -1    0    0    0    0  0.00000000000E+00  0.00000000000E+00  0.14999999963E+04  0.15000000000E+04  0.10566000000E+00 0. -1.
        994   -1    0    0    0    0 -0.00000000000E+00 -0.00000000000E+00  0.11368683772E-12  0.17120000000E+03  0.17120000000E+03 0.  0.
         13    1    1    2    0    0 -0.11296847607E+02 -0.72634931142E+02  0.14330903943E+03  0.16106192577E+03  0.10566000000E+00 0. -1.
        994    1    1    2    0    0  0.10781896184E+02  0.64642340819E+02  0.32849749558E+02  0.18623487202E+03  0.17120000000E+03 0.  0.
        998    1    1    2    0    0  0.51495142321E+00  0.79925903226E+01  0.13238412073E+04  0.13239032022E+04  0.10000000000E+02 0. -1.
</event>
<event>
 5    1  0.1338396E-008  0.3728540E+03  0.7957747E-01  0.3482876E+00
         13   -1    0    0    0    0  0.00000000000E+00  0.00000000000E+00  0.14999999963E+04  0.15000000000E+04  0.10566000000E+00 0. -1.
        994   -1    0    0    0    0 -0.00000000000E+00 -0.00000000000E+00  0.11368683772E-12  0.17120000000E+03  0.17120000000E+03 0.  0.
         13    1    1    2    0    0  0.29693833396E+02  0.69168603656E+02  0.45349720454E+03  0.45970180026E+03  0.10566000000E+00 0. -1.
        994    1    1    2    0    0  0.22650771359E+02 -0.33659731849E+02  0.13441901060E+02  0.17645441251E+03  0.17120000000E+03 0.  0.
        998    1    1    2    0    0 -0.52344604755E+02 -0.35508871806E+02  0.10330608907E+04  0.10350437872E+04  0.10000000000E+02 0. -1.
</event>
<event>
 5    1  0.1338396E-008  0.3862372E+03  0.7957747E-01  0.3424442E+00
         13   -1    0    0    0    0  0.00000000000E+00  0.00000000000E+00  0.14999999963E+04  0.15000000000E+04  0.10566000000E+00 0.  1.
        994   -1    0    0    0    0 -0.00000000000E+00 -0.00000000000E+00  0.11368683772E-12  0.17120000000E+03  0.17120000000E+03 0.  0.
         13    1    1    2    0    0  0.30829539793E+01  0.10289309963E+02  0.63669470554E+02  0.64569243061E+02  0.10566000000E+00 0.  1.
        994    1    1    2    0    0 -0.12395160687E+02  0.87756933135E+01  0.17729793673E+01  0.17188145990E+03  0.17120000000E+03 0.  0.
        998    1    1    2    0    0  0.93122067076E+01 -0.19065003277E+02  0.14345575464E+04  0.14347492970E+04  0.10000000000E+02 0.  1.
</event>
<event>
 5    1  0.1338396E-008  0.3800890E+03  0.7957747E-01  0.3450771E+00
         13   -1    0    0    0    0  0.00000000000E+00  0.00000000000E+00  0.14999999963E+04  0.15000000000E+04  0.10566000000E+00 0. -1.
        994   -1    0    0    0    0 -0.00000000000E+00 -0.00000000000E+00  0.11368683772E-12  0.17120000000E+03  0.17120000000E+03 0.  0.
         13    1    1    2    0    0  0.10030885376E+02 -0.64654407892E+00  0.10557847414E+02  0.14577928067E+02  0.10566000000E+00 0. -1.
        994    1    1    2    0    0 -0.70462466419E+01  0.10415672177E+01  0.42577952230E+01  0.17140100138E+03  0.17120000000E+03 0.  0.
        998    1    1    2    0    0 -0.29846387341E+01 -0.39502313875E+00  0.14851843536E+04  0.14852210706E+04  0.10000000000E+02 0. -1.
</event>
<event>
 5    1  0.1338396E-008  0.3817093E+03  0.7957747E-01  0.3443749E+00
         13   -1    0    0    0    0  0.00000000000E+00  0.00000000000E+00  0.14999999963E+04  0.15000000000E+04  0.10566000000E+00 0.  1.
        994   -1    0    0    0    0 -0.00000000000E+00 -0.00000000000E+00  0.11368683772E-12  0.17120000000E+03  0.17120000000E+03 0.  0.
         13    1    1    2    0    0  0.78642259809E+01 -0.14640063897E+02  0.40292152778E+02  0.43584931578E+02  0.10566000000E+00 0.  1.
        994    1    1    2    0    0 -0.64274808385E+01  0.14563540375E+02  0.41155893436E+01  0.17198775333E+03  0.17120000000E+03 0.  0.
        998    1    1    2    0    0 -0.14367451424E+01  0.76523521863E-01  0.14555922542E+04  0.14556273151E+04  0.10000000000E+02 0.  1.
</event>
<event>
 5    1  0.1338396E-008  0.3802569E+03  0.7957747E-01  0.3450040E+00
         13   -1    0    0    0    0  0.00000000000E+00  0.00000000000E+00  0.14999999963E+04  0.15000000000E+04  0.10566000000E+00 0. -1.
        994   -1    0    0    0    0 -0.00000000000E+00 -0.00000000000E+00  0.11368683772E-12  0.17120000000E+03  0.17120000000E+03 0.  0.
         13    1    1    2    0    0  0.20816741597E+02  0.10772491431E+02  0.77044036808E+02  0.80530603339E+02  0.10566000000E+00 0. -1.
        994    1    1    2    0    0  0.64410296246E+01  0.18767804533E+02  0.53196492107E+01  0.17242811841E+03  0.17120000000E+03 0.  0.
        998    1    1    2    0    0 -0.27257771222E+02 -0.29540295964E+02  0.14176363103E+04  0.14182412783E+04  0.10000000000E+02 0. -1.
</event>
<event>
 5    1  0.1338396E-008  0.3724976E+03  0.7957747E-01  0.3484491E+00
         13   -1    0    0    0    0  0.00000000000E+00  0.00000000000E+00  0.14999999963E+04  0.15000000000E+04  0.10566000000E+00 0. -1.
        994   -1    0    0    0    0 -0.00000000000E+00 -0.00000000000E+00  0.11368683772E-12  0.17120000000E+03  0.17120000000E+03 0.  0.
         13    1    1    2    0    0 -0.74791340982E+02 -0.11773482996E+03  0.64843476003E+03  0.66326682719E+03  0.10566000000E+00 0. -1.
        994    1    1    2    0    0  0.67337535742E+02  0.12209593334E+03  0.77871165209E+02  0.23412628864E+03  0.17120000000E+03 0.  0.
        998    1    1    2    0    0  0.74538052392E+01 -0.43611033878E+01  0.77369407104E+03  0.77380688417E+03  0.10000000000E+02 0. -1.
</event>
<event>
 5    1  0.1338396E-008  0.3811911E+03  0.7957747E-01  0.3445988E+00
         13   -1    0    0    0    0  0.00000000000E+00  0.00000000000E+00  0.14999999963E+04  0.15000000000E+04  0.10566000000E+00 0.  1.
        994   -1    0    0    0    0 -0.00000000000E+00 -0.00000000000E+00  0.11368683772E-12  0.17120000000E+03  0.17120000000E+03 0.  0.
         13    1    1    2    0    0 -0.10816236810E+02  0.23222614564E+02  0.87393995590E+02  0.91071413929E+02  0.10566000000E+00 0.  1.
        994    1    1    2    0    0  0.99557091033E+01 -0.23128987513E+02  0.56472638264E+01  0.17313404574E+03  0.17120000000E+03 0.  0.
        998    1    1    2    0    0  0.86052770629E+00 -0.93627051462E-01  0.14069587369E+04  0.14069945403E+04  0.10000000000E+02 0.  1.
</event>
<event>
 5    1  0.1338396E-008  0.3832953E+03  0.7957747E-01  0.3436934E+00
         13   -1    0    0    0    0  0.00000000000E+00  0.00000000000E+00  0.14999999963E+04  0.15000000000E+04  0.10566000000E+00 0. -1.
        994   -1    0    0    0    0 -0.00000000000E+00 -0.00000000000E+00  0.11368683772E-12  0.17120000000E+03  0.17120000000E+03 0.  0.
         13    1    1    2    0    0  0.25203687491E+02  0.84156468693E+01  0.15461214464E+03  0.15687885584E+03  0.10566000000E+00 0. -1.
        994    1    1    2    0    0 -0.14479625166E+01 -0.13575945046E+02  0.30954969468E+01  0.17177143238E+03  0.17120000000E+03 0.  0.
        998    1    1    2    0    0 -0.23755724974E+02  0.51602981766E+01  0.13422923547E+04  0.13425497118E+04  0.10000000000E+02 0. -1.
</event>
<event>
 5    1  0.1338396E-008  0.3844670E+03  0.7957747E-01  0.3431936E+00
         13   -1    0    0    0    0  0.00000000000E+00  0.00000000000E+00  0.14999999963E+04  0.15000000000E+04  0.10566000000E+00 0. -1.
        994   -1    0    0    0    0 -0.00000000000E+00 -0.00000000000E+00  0.11368683772E-12  0.17120000000E+03  0.17120000000E+03 0.  0.
         13    1    1    2    0    0 -0.13819733115E+02  0.82072490552E+01  0.64150393588E+02  0.66133411541E+02  0.10566000000E+00 0. -1.
        994    1    1    2    0    0  0.16357299331E+02 -0.12303396771E+02  0.32763284942E+01  0.17245030920E+03  0.17120000000E+03 0.  0.
        998    1    1    2    0    0 -0.25375662162E+01  0.40961477157E+01  0.14325732742E+04  0.14326162793E+04  0.10000000000E+02 0. -1.
</event>
<event>
 5    1  0.1338396E-008  0.3686493E+03  0.7957747E-01  0.3502121E+00
         13   -1    0    0    0    0  0.00000000000E+00  0.00000000000E+00  0.14999999963E+04  0.15000000000E+04  0.10566000000E+00 0. -1.
        994   -1    0    0    0    0 -0.00000000000E+00 -0.00000000000E+00  0.11368683772E-12  0.17120000000E+03  0.17120000000E+03 0.  0.
         13    1    1    2    0    0 -0.23855613106E+02  0.60328561756E+02  0.28620502546E+03  0.29346542114E+03  0.10566000000E+00 0. -1.
        994    1    1    2    0    0 -0.39282002298E+02 -0.48501364319E+01  0.15438568770E+02  0.17639271225E+03  0.17120000000E+03 0.  0.
        998    1    1    2    0    0  0.63137615404E+02 -0.55478425324E+02  0.11983564021E+04  0.12013418666E+04  0.10000000000E+02 0. -1.
</event>
<event>
 5    1  0.1338396E-008  0.3828607E+03  0.7957747E-01  0.3438796E+00
         13   -1    0    0    0    0  0.00000000000E+00  0.00000000000E+00  0.14999999963E+04  0.15000000000E+04  0.10566000000E+00 0.  1.
        994   -1    0    0    0    0 -0.00000000000E+00 -0.00000000000E+00  0.11368683772E-12  0.17120000000E+03  0.17120000000E+03 0.  0.
         13    1    1    2    0    0  0.16180374235E+02  0.19453046104E+02  0.11513917022E+03  0.11788666251E+03  0.10566000000E+00 0.  1.
        994    1    1    2    0    0 -0.10217269249E+02 -0.16281024085E+02  0.39204798527E+01  0.17232026723E+03  0.17120000000E+03 0.  0.
        998    1    1    2    0    0 -0.59631049853E+01 -0.31720220191E+01  0.13809403462E+04  0.13809930703E+04  0.10000000000E+02 0.  1.
</event>
<event>
 5    1  0.1338396E-008  0.3826587E+03  0.7957747E-01  0.3439663E+00
         13   -1    0    0    0    0  0.00000000000E+00  0.00000000000E+00  0.14999999963E+04  0.15000000000E+04  0.10566000000E+00 0.  1.
        994   -1    0    0    0    0 -0.00000000000E+00 -0.00000000000E+00  0.11368683772E-12  0.17120000000E+03  0.17120000000E+03 0.  0.
         13    1    1    2    0    0  0.30733343827E+02  0.52834579196E+01  0.17741345142E+03  0.18013327638E+03  0.10566000000E+00 0.  1.
        994    1    1    2    0    0 -0.14389121623E+02 -0.67053700804E+01  0.36325573072E+01  0.17197280099E+03  0.17120000000E+03 0.  0.
        998    1    1    2    0    0 -0.16344222204E+02  0.14219121608E+01  0.13189539875E+04  0.13190939226E+04  0.10000000000E+02 0.  1.
</event>
<event>
 5    1  0.1338396E-008  0.3779549E+03  0.7957747E-01  0.3460112E+00
         13   -1    0    0    0    0  0.00000000000E+00  0.00000000000E+00  0.14999999963E+04  0.15000000000E+04  0.10566000000E+00 0. -1.
        994   -1    0    0    0    0 -0.00000000000E+00 -0.00000000000E+00  0.11368683772E-12  0.17120000000E+03  0.17120000000E+03 0.  0.
         13    1    1    2    0    0 -0.47148695638E+02 -0.61113959602E+01  0.65187241345E+02  0.80682936604E+02  0.10566000000E+00 0. -1.
        994    1    1    2    0    0  0.51809357769E+02  0.50172557259E+01  0.25017758601E+02  0.18067847313E+03  0.17120000000E+03 0.  0.
        998    1    1    2    0    0 -0.46606621311E+01  0.10941402343E+01  0.14097949963E+04  0.14098385903E+04  0.10000000000E+02 0. -1.
</event>
<event>
 5    1  0.1376387E-008  0.3856986E+03  0.7957747E-01  0.3426715E+00
         13   -1    0    0    0    0  0.00000000000E+00  0.00000000000E+00  0.14999999963E+04  0.15000000000E+04  0.10566000000E+00 0. -1.
        994   -1    0    0    0    0 -0.00000000000E+00 -0.00000000000E+00  0.11368683772E-12  0.17120000000E+03  0.17120000000E+03 0.  0.
         13    1    1    2    0    0 -0.90159383366E+01 -0.12567605317E+02  0.86638610419E+02  0.88008475881E+02  0.10566000000E+00 0. -1.
        994    1    1    2    0    0  0.97169842583E+01  0.17553765063E+02  0.26056571410E+01  0.17239136840E+03  0.17120000000E+03 0.  0.
        998    1    1    2    0    0 -0.70104592172E+00 -0.49861597456E+01  0.14107557287E+04  0.14108001557E+04  0.10000000000E+02 0. -1.
</event>
<event>
 5    1  0.1338396E-008  0.3818585E+03  0.7957747E-01  0.3443106E+00
         13   -1    0    0    0    0  0.00000000000E+00  0.00000000000E+00  0.14999999963E+04  0.15000000000E+04  0.10566000000E+00 0.  1.
        994   -1    0    0    0    0 -0.00000000000E+00 -0.00000000000E+00  0.11368683772E-12  0.17120000000E+03  0.17120000000E+03 0.  0.
         13    1    1    2    0    0 -0.21682031230E+02  0.10735316406E+02  0.85764140673E+02  0.89111483468E+02  0.10566000000E+00 0.  1.
        994    1    1    2    0    0  0.20661659581E+02 -0.14915902946E+02  0.53585136510E+01  0.17316911389E+03  0.17120000000E+03 0.  0.
        998    1    1    2    0    0  0.10203716483E+01  0.41805865396E+01  0.14088773420E+04  0.14089194026E+04  0.10000000000E+02 0.  1.
</event>
<event>
 5    1  0.1338396E-008  0.3802768E+03  0.7957747E-01  0.3449954E+00
         13   -1    0    0    0    0  0.00000000000E+00  0.00000000000E+00  0.14999999963E+04  0.15000000000E+04  0.10566000000E+00 0. -1.
        994   -1    0    0    0    0 -0.00000000000E+00 -0.00000000000E+00  0.11368683772E-12  0.17120000000E+03  0.17120000000E+03 0.  0.
         13    1    1    2    0    0  0.14361582716E+02  0.93504984782E+00  0.22557561806E+02  0.26757879867E+02  0.10566000000E+00 0. -1.
        994    1    1    2    0    0 -0.35227006147E+02 -0.14806772651E+02  0.88857185314E+01  0.17563763399E+03  0.17120000000E+03 0.  0.
        998    1    1    2    0    0  0.20865423432E+02  0.13871722803E+02  0.14685567159E+04  0.14688044861E+04  0.10000000000E+02 0. -1.
</event>
<event>
 5    1  0.1338396E-008  0.3820089E+03  0.7957747E-01  0.3442458E+00
         13   -1    0    0    0    0  0.00000000000E+00  0.00000000000E+00  0.14999999963E+04  0.15000000000E+04  0.10566000000E+00 0.  1.
        994   -1    0    0    0    0 -0.00000000000E+00 -0.00000000000E+00  0.11368683772E-12  0.17120000000E+03  0.17120000000E+03 0.  0.
         13    1    1    2    0    0 -0.94243257093E+01 -0.14261403192E+02  0.44956037733E+02  0.48096382700E+02  0.10566000000E+00 0.  1.
        994    1    1    2    0    0  0.68208564942E+01  0.14061460756E+02  0.39340167253E+01  0.17195687032E+03  0.17120000000E+03 0.  0.
        998    1    1    2    0    0  0.26034692151E+01  0.19994243590E+00  0.14511099418E+04  0.14511467470E+04  0.10000000000E+02 0.  1.
</event>
<event>
 5    1  0.1338396E-008  0.3731778E+03  0.7957747E-01  0.3481413E+00
         13   -1    0    0    0    0  0.00000000000E+00  0.00000000000E+00  0.14999999963E+04  0.15000000000E+04  0.10566000000E+00 0. -1.
        994   -1    0    0    0    0 -0.00000000000E+00 -0.00000000000E+00  0.11368683772E-12  0.17120000000E+03  0.17120000000E+03 0.  0.
         13    1    1    2    0    0 -0.50391268147E+02 -0.17137712111E+01  0.94967961404E+02  0.10752275003E+03  0.10566000000E+00 0. -1.
        994    1    1    2    0    0  0.37050106036E+02 -0.55022212283E+01  0.17605425810E+02  0.17613170020E+03  0.17120000000E+03 0.  0.
        998    1    1    2    0    0  0.13341162111E+02  0.72159924395E+01  0.13874266091E+04  0.13875455498E+04  0.10000000000E+02 0. -1.
</event>
<event>
 5    1  0.1338396E-008  0.3716620E+03  0.7957747E-01  0.3488287E+00
         13   -1    0    0    0    0  0.00000000000E+00  0.00000000000E+00  0.14999999963E+04  0.15000000000E+04  0.10566000000E+00 0. -1.
        994   -1    0    0    0    0 -0.00000000000E+00 -0.00000000000E+00  0.11368683772E-12  0.17120000000E+03  0.17120000000E+03 0.  0.
         13    1    1    2    0    0  0.22800030830E+02 -0.76457883369E+02  0.33070414330E+03  0.34019243216E+03  0.10566000000E+00 0. -1.
        994    1    1    2    0    0 -0.29712578640E+02  0.57896458871E+02  0.23105708520E+02  0.18460268429E+03  0.17120000000E+03 0.  0.
        998    1    1    2    0    0  0.69125478098E+01  0.18561424498E+02  0.11461901445E+04  0.11464048836E+04  0.10000000000E+02 0. -1.
</event>
<event>
 5    1  0.1338396E-008  0.3748603E+03  0.7957747E-01  0.3473848E+00
         13   -1    0    0    0    0  0.00000000000E+00  0.00000000000E+00  0.14999999963E+04  0.15000000000E+04  0.10566000000E+00 0.  1.
        994   -1    0    0    0    0 -0.00000000000E+00 -0.00000000000E+00  0.11368683772E-12  0.17120000000E+03  0.17120000000E+03 0.  0.
         13    1    1    2    0    0  0.97967156315E+02 -0.68132681548E+02  0.64778348121E+03  0.65868283393E+03  0.10566000000E+00 0.  1.
        994    1    1    2    0    0 -0.91303740919E+02  0.62544947263E+02  0.49617090069E+02  0.20980833911E+03  0.17120000000E+03 0.  0.
        998    1    1    2    0    0 -0.66634153960E+01  0.55877342843E+01  0.80259942500E+03  0.80270882696E+03  0.10000000000E+02 0. -1.
</event>
<event>
 5    1  0.1338396E-008  0.3808713E+03  0.7957747E-01  0.3447373E+00
         13   -1    0    0    0    0  0.00000000000E+00  0.00000000000E+00  0.14999999963E+04  0.15000000000E+04  0.10566000000E+00 0. -1.
        994   -1    0    0    0    0 -0.00000000000E+00 -0.00000000000E+00  0.11368683772E-12  0.17120000000E+03  0.17120000000E+03 0.  0.
         13    1    1    2    0    0 -0.36671967348E+02 -0.29196493665E+02  0.24446735493E+03  0.24892080512E+03  0.10566000000E+00 0. -1.
        994    1    1    2    0    0  0.40526843011E+02  0.28649492258E+02  0.11948644288E+02  0.17864889731E+03  0.17120000000E+03 0.  0.
        998    1    1    2    0    0 -0.38548756638E+01  0.54700140743E+00  0.12435839971E+04  0.12436302976E+04  0.10000000000E+02 0. -1.
</event>
<event>
 5    1  0.1338396E-008  0.3805199E+03  0.7957747E-01  0.3448898E+00
         13   -1    0    0    0    0  0.00000000000E+00  0.00000000000E+00  0.14999999963E+04  0.15000000000E+04  0.10566000000E+00 0. -1.
        994   -1    0    0    0    0 -0.00000000000E+00 -0.00000000000E+00  0.11368683772E-12  0.17120000000E+03  0.17120000000E+03 0.  0.
         13    1    1    2    0    0  0.26809416192E+02  0.27524967069E+02  0.35490574758E+02  0.52306411361E+02  0.10566000000E+00 0. -1.
        994    1    1    2    0    0 -0.27022126286E+02 -0.50283735249E+02  0.28540142719E+02  0.18270913794E+03  0.17120000000E+03 0.  0.
        998    1    1    2    0    0  0.21271009455E+00  0.22758768180E+02  0.14359692788E+04  0.14361844507E+04  0.10000000000E+02 0. -1.
</event>
<event>
 5    1  0.1338396E-008  0.3843076E+03  0.7957747E-01  0.3432614E+00
         13   -1    0    0    0    0  0.00000000000E+00  0.00000000000E+00  0.14999999963E+04  0.15000000000E+04  0.10566000000E+00 0.  1.
        994   -1    0    0    0    0 -0.00000000000E+00 -0.00000000000E+00  0.11368683772E-12  0.17120000000E+03  0.17120000000E+03 0.  0.
         13    1    1    2    0    0  0.70789048809E+01  0.74977635545E+01  0.26563470697E+02  0.28494850274E+02  0.10566000000E+00 0.  1.
        994    1    1    2    0    0 -0.12579435270E+01 -0.63996869691E+01  0.21145220564E+01  0.17133723944E+03  0.17120000000E+03 0.  0.
        998    1    1    2    0    0 -0.58209613538E+01 -0.10980765855E+01  0.14713220035E+04  0.14713679103E+04  0.10000000000E+02 0.  1.
</event>
<event>
 5    1  0.1338396E-008  0.3807162E+03  0.7957747E-01  0.3448046E+00
         13   -1    0    0    0    0  0.00000000000E+00  0.00000000000E+00  0.14999999963E+04  0.15000000000E+04  0.10566000000E+00 0. -1.
        994   -1    0    0    0    0 -0.00000000000E+00 -0.00000000000E+00  0.11368683772E-12  0.17120000000E+03  0.17120000000E+03 0.  0.
         13    1    1    2    0    0  0.10595828207E+02 -0.10929196544E+01  0.13248978763E+02  0.17000372086E+02  0.10566000000E+00 0. -1.
        994    1    1    2    0    0 -0.12782420922E+02  0.10737838593E+01  0.43209849388E+01  0.17173425461E+03  0.17120000000E+03 0.  0.
        998    1    1    2    0    0  0.21865927151E+01  0.19135795123E-01  0.14824300326E+04  0.14824653733E+04  0.10000000000E+02 0. -1.
</event>
<event>
 5    1  0.1338396E-008  0.3839306E+03  0.7957747E-01  0.3434221E+00
         13   -1    0    0    0    0  0.00000000000E+00  0.00000000000E+00  0.14999999963E+04  0.15000000000E+04  0.10566000000E+00 0. -1.
        994   -1    0    0    0    0 -0.00000000000E+00 -0.00000000000E+00  0.11368683772E-12  0.17120000000E+03  0.17120000000E+03 0.  0.
         13    1    1    2    0    0 -0.12968451867E+02 -0.33588585725E+01  0.40746593628E+02  0.42892408781E+02  0.10566000000E+00 0. -1.
        994    1    1    2    0    0  0.92708878260E+01  0.49349263193E+01  0.25261243841E+01  0.17154044469E+03  0.17120000000E+03 0.  0.
        998    1    1    2    0    0  0.36975640412E+01 -0.15760677468E+01  0.14567272783E+04  0.14567671465E+04  0.10000000000E+02 0. -1.
</event>
<event>
 5    1  0.1338396E-008  0.3765235E+03  0.7957747E-01  0.3466437E+00
         13   -1    0    0    0    0  0.00000000000E+00  0.00000000000E+00  0.14999999963E+04  0.15000000000E+04  0.10566000000E+00 0.  1.
        994   -1    0    0    0    0 -0.00000000000E+00 -0.00000000000E+00  0.11368683772E-12  0.17120000000E+03  0.17120000000E+03 0.  0.
         13    1    1    2    0    0  0.23085097526E+02 -0.10940417315E+02  0.55299755077E+02  0.60915421155E+02  0.10566000000E+00 0.  1.
        994    1    1    2    0    0 -0.10066727406E+01  0.84522309393E+01  0.61435153935E+01  0.17152153328E+03  0.17120000000E+03 0.  0.
        998    1    1    2    0    0 -0.22078424786E+02  0.24881863756E+01  0.14385567258E+04  0.14387630456E+04  0.10000000000E+02 0.  1.
</event>
<event>
 5    1  0.1338396E-008  0.3811092E+03  0.7957747E-01  0.3446343E+00
         13   -1    0    0    0    0  0.00000000000E+00  0.00000000000E+00  0.14999999963E+04  0.15000000000E+04  0.10566000000E+00 0. -1.
        994   -1    0    0    0    0 -0.00000000000E+00 -0.00000000000E+00  0.11368683772E-12  0.17120000000E+03  0.17120000000E+03 0.  0.
         13    1    1    2    0    0 -0.43894414568E+02 -0.85164875648E+01  0.25339146825E+03  0.25730623299E+03  0.10566000000E+00 0. -1.
        994    1    1    2    0    0  0.33847486218E+02  0.16375028819E+02  0.82975590772E+01  0.17547673173E+03  0.17120000000E+03 0.  0.
        998    1    1    2    0    0  0.10046928350E+02 -0.78585412541E+01  0.12383109690E+04  0.12384170353E+04  0.10000000000E+02 0. -1.
</event>
<event>
 5    1  0.1338396E-008  0.3776824E+03  0.7957747E-01  0.3461312E+00
         13   -1    0    0    0    0  0.00000000000E+00  0.00000000000E+00  0.14999999963E+04  0.15000000000E+04  0.10566000000E+00 0.  1.
        994   -1    0    0    0    0 -0.00000000000E+00 -0.00000000000E+00  0.11368683772E-12  0.17120000000E+03  0.17120000000E+03 0.  0.
         13    1    1    2    0    0  0.89302791295E+01 -0.48728012983E+01  0.72901463183E+01  0.12516048706E+02  0.10566000000E+00 0.  1.
        994    1    1    2    0    0 -0.93153920384E+01  0.36927462932E+01  0.56459651499E+01  0.17158592549E+03  0.17120000000E+03 0.  0.
        998    1    1    2    0    0  0.38511290893E+00  0.11800550051E+01  0.14870638848E+04  0.14870980258E+04  0.10000000000E+02 0.  1.
</event>
<event>
 5    1  0.1338396E-008  0.3858320E+03  0.7957747E-01  0.3426151E+00
         13   -1    0    0    0    0  0.00000000000E+00  0.00000000000E+00  0.14999999963E+04  0.15000000000E+04  0.10566000000E+00 0. -1.
        994   -1    0    0    0    0 -0.00000000000E+00 -0.00000000000E+00  0.11368683772E-12  0.17120000000E+03  0.17120000000E+03 0.  0.
         13    1    1    2    0    0 -0.10880406160E+02 -0.65510258929E+01  0.60792881516E+02  0.62105432818E+02  0.10566000000E+00 0. -1.
        994    1    1    2    0    0  0.21692141239E+02  0.70139019519E+01  0.29241507579E+01  0.17273602540E+03  0.17120000000E+03 0.  0.
        998    1    1    2    0    0 -0.10811735079E+02 -0.46287605895E+00  0.14362829640E+04  0.14363585418E+04  0.10000000000E+02 0. -1.
</event>
<event>
 5    1  0.1338396E-008  0.3796110E+03  0.7957747E-01  0.3452854E+00
         13   -1    0    0    0    0  0.00000000000E+00  0.00000000000E+00  0.14999999963E+04  0.15000000000E+04  0.10566000000E+00 0.  1.
        994   -1    0    0    0    0 -0.00000000000E+00 -0.00000000000E+00  0.11368683772E-12  0.17120000000E+03  0.17120000000E+03 0.  0.
         13    1    1    2    0    0  0.34630608129E+01  0.10337495801E+02  0.11772218128E+02  0.16045338679E+02  0.10566000000E+00 0.  1.
        994    1    1    2    0    0 -0.22150660806E+01 -0.95050645483E+01  0.46485392811E+01  0.17154096213E+03  0.17120000000E+03 0.  0.
        998    1    1    2    0    0 -0.12479947323E+01 -0.83243125296E+00  0.14835792389E+04  0.14836136992E+04  0.10000000000E+02 0.  1.
</event>
<event>
 5    1  0.1338396E-008  0.3747192E+03  0.7957747E-01  0.3474480E+00
         13   -1    0    0    0    0  0.00000000000E+00  0.00000000000E+00  0.14999999963E+04  0.15000000000E+04  0.10566000000E+00 0. -1.
        994   -1    0    0    0    0 -0.00000000000E+00 -0.00000000000E+00  0.11368683772E-12  0.17120000000E+03  0.17120000000E+03 0.  0.
         13    1    1    2    0    0  0.22735576605E+01  0.23931710039E+02  0.45028477664E+02  0.51043812305E+02  0.10566000000E+00 0. -1.
        994    1    1    2    0    0 -0.87502658939E+00  0.26659163826E+02  0.92475297214E+01  0.17351205576E+03  0.17120000000E+03 0.  0.
        998    1    1    2    0    0 -0.13985310711E+01 -0.50590873865E+02  0.14457239889E+04  0.14466441319E+04  0.10000000000E+02 0. -1.
</event>
<event>
 5    1  0.1338396E-008  0.3855809E+03  0.7957747E-01  0.3427212E+00
         13   -1    0    0    0    0  0.00000000000E+00  0.00000000000E+00  0.14999999963E+04  0.15000000000E+04  0.10566000000E+00 0. -1.
        994   -1    0    0    0    0 -0.00000000000E+00 -0.00000000000E+00  0.11368683772E-12  0.17120000000E+03  0.17120000000E+03 0.  0.
         13    1    1    2    0    0 -0.12404496283E+02 -0.36835046205E+01  0.67192036447E+02  0.68426753980E+02  0.10566000000E+00 0. -1.
        994    1    1    2    0    0  0.91252690347E+00 -0.62125501439E+01  0.14714185291E+01  0.17132143344E+03  0.17120000000E+03 0.  0.
        998    1    1    2    0    0  0.11491969380E+02  0.98960547643E+01  0.14313365413E+04  0.14314518126E+04  0.10000000000E+02 0. -1.
</event>
<event>
 5    1  0.1338396E-008  0.3231181E+03  0.7957747E-01  0.3743654E+00
         13   -1    0    0    0    0  0.00000000000E+00  0.00000000000E+00  0.14999999963E+04  0.15000000000E+04  0.10566000000E+00 0.  1.
        994   -1    0    0    0    0 -0.00000000000E+00 -0.00000000000E+00  0.11368683772E-12  0.17120000000E+03  0.17120000000E+03 0.  0.
         13    1    1    2    0    0  0.18254786843E+03  0.11405081402E+03  0.75493955438E+03  0.78502551193E+03  0.10566000000E+00 0.  1.
        994    1    1    2    0    0 -0.19157897549E+03 -0.10499715485E+03  0.20299313694E+03  0.34386415925E+03  0.17120000000E+03 0.  0.
        998    1    1    2    0    0  0.90311070549E+01 -0.90536591712E+01  0.54206730495E+03  0.54231032882E+03  0.10000000000E+02 0.  1.
</event>
<event>
 5    1  0.1338396E-008  0.3826318E+03  0.7957747E-01  0.3439779E+00
         13   -1    0    0    0    0  0.00000000000E+00  0.00000000000E+00  0.14999999963E+04  0.15000000000E+04  0.10566000000E+00 0. -1.
        994   -1    0    0    0    0 -0.00000000000E+00 -0.00000000000E+00  0.11368683772E-12  0.17120000000E+03  0.17120000000E+03 0.  0.
         13    1    1    2    0    0  0.17723310001E+01  0.15579979725E+02  0.42337209857E+02  0.45147839682E+02  0.10566000000E+00 0. -1.
        994    1    1    2    0    0  0.71340398393E+00 -0.13416387307E+02  0.34089501975E+01  0.17176020882E+03  0.17120000000E+03 0.  0.
        998    1    1    2    0    0 -0.24857349841E+01 -0.21635924174E+01  0.14542538362E+04  0.14542919515E+04  0.10000000000E+02 0. -1.
</event>
<event>
 5    1  0.1338396E-008  0.3808116E+03  0.7957747E-01  0.3447632E+00
         13   -1    0    0    0    0  0.00000000000E+00  0.00000000000E+00  0.14999999963E+04  0.15000000000E+04  0.10566000000E+00 0. -1.
        994   -1    0    0    0    0 -0.00000000000E+00 -0.00000000000E+00  0.11368683772E-12  0.17120000000E+03  0.17120000000E+03 0.  0.
         13    1    1    2    0    0 -0.26426837583E+02  0.12619898978E+02  0.10789801094E+03  0.11180175099E+03  0.10566000000E+00 0. -1.
        994    1    1    2    0    0  0.24526008035E+02 -0.12309909932E+02  0.62387639655E+01  0.17349761130E+03  0.17120000000E+03 0.  0.
        998    1    1    2    0    0  0.19008295478E+01 -0.30998904670E+00  0.13858632214E+04  0.13859006377E+04  0.10000000000E+02 0. -1.
</event>
<event>
 5    1  0.1338396E-008  0.3837379E+03  0.7957747E-01  0.3435043E+00
         13   -1    0    0    0    0  0.00000000000E+00  0.00000000000E+00  0.14999999963E+04  0.15000000000E+04  0.10566000000E+00 0.  1.
        994   -1    0    0    0    0 -0.00000000000E+00 -0.00000000000E+00  0.11368683772E-12  0.17120000000E+03  0.17120000000E+03 0.  0.
         13    1    1    2    0    0 -0.93122487262E+01  0.44915888401E+01  0.24120350519E+02  0.26242995634E+02  0.10566000000E+00 0.  1.
        994    1    1    2    0    0 -0.11133868592E+02 -0.66361712644E+01  0.28130320300E+01  0.17171300169E+03  0.17120000000E+03 0.  0.
        998    1    1    2    0    0  0.20446117318E+02  0.21445824243E+01  0.14730666137E+04  0.14732440027E+04  0.10000000000E+02 0.  1.
</event>
<event>
 5    1  0.1338396E-008  0.3865643E+03  0.7957747E-01  0.3423065E+00
         13   -1    0    0    0    0  0.00000000000E+00  0.00000000000E+00  0.14999999963E+04  0.15000000000E+04  0.10566000000E+00 0.  1.
        994   -1    0    0    0    0 -0.00000000000E+00 -0.00000000000E+00  0.11368683772E-12  0.17120000000E+03  0.17120000000E+03 0.  0.
         13    1    1    2    0    0  0.14216752885E+02  0.10544273154E+02 -0.15082985630E+01  0.17764680902E+02  0.10566000000E+00 0.  1.
        994    1    1    2    0    0 -0.26213279430E+02 -0.35831872977E+02  0.27335487546E+02  0.17896292359E+03  0.17120000000E+03 0.  0.
        998    1    1    2    0    0  0.11996526544E+02  0.25287599822E+02  0.14741728073E+04  0.14744723955E+04  0.10000000000E+02 0.  1.
</event>
<event>
 5    1  0.1338396E-008  0.3757062E+03  0.7957747E-01  0.3470070E+00
         13   -1    0    0    0    0  0.00000000000E+00  0.00000000000E+00  0.14999999963E+04  0.15000000000E+04  0.10566000000E+00 0. -1.
        994   -1    0    0    0    0 -0.00000000000E+00 -0.00000000000E+00  0.11368683772E-12  0.17120000000E+03  0.17120000000E+03 0.  0.
         13    1    1    2    0    0 -0.11112430082E+02  0.74147439609E+02  0.33080853062E+03  0.33919850235E+03  0.10566000000E+00 0. -1.
        994    1    1    2    0    0  0.93076812162E+01 -0.79295059459E+02  0.28248865842E+02  0.19100203613E+03  0.17120000000E+03 0.  0.
        998    1    1    2    0    0  0.18047488663E+01  0.51476198499E+01  0.11409425998E+04  0.11409994615E+04  0.10000000000E+02 0. -1.
</event>
<event>
 5    1  0.1338396E-008  0.3769493E+03  0.7957747E-01  0.3464550E+00
         13   -1    0    0    0    0  0.00000000000E+00  0.00000000000E+00  0.14999999963E+04  0.15000000000E+04  0.10566000000E+00 0. -1.
        994   -1    0    0    0    0 -0.00000000000E+00 -0.00000000000E+00  0.11368683772E-12  0.17120000000E+03  0.17120000000E+03 0.  0.
         13    1    1    2    0    0 -0.20524162997E+02  0.16650192174E+02  0.59625231976E+02  0.65220009341E+02  0.10566000000E+00 0. -1.
        994    1    1    2    0    0  0.15065030052E+02 -0.61467471142E+01  0.65756217156E+01  0.17209711337E+03  0.17120000000E+03 0.  0.
        998    1    1    2    0    0  0.54591329445E+01 -0.10503445060E+02  0.14337991426E+04  0.14338828773E+04  0.10000000000E+02 0. -1.
</event>
<event>
 5    1  0.1338396E-008  0.4353755E+03  0.7957747E-01  0.3240605E+00
         13   -1    0    0    0    0  0.00000000000E+00  0.00000000000E+00  0.14999999963E+04  0.15000000000E+04  0.10566000000E+00 0. -1.
        994   -1    0    0    0    0 -0.00000000000E+00 -0.00000000000E+00  0.11368683772E-12  0.17120000000E+03  0.17120000000E+03 0.  0.
         13    1    1    2    0    0 -0.64979205942E+02  0.83642069935E+02  0.90738884081E+02  0.13946988677E+03  0.10566000000E+00 0. -1.
        994    1    1    2    0    0  0.65851133564E+02 -0.79970619887E+02  0.10232018720E+03  0.22474548393E+03  0.17120000000E+03 0.  0.
        998    1    1    2    0    0 -0.87192762190E+00 -0.36714500478E+01  0.13069409250E+04  0.13069846293E+04  0.10000000000E+02 0. -1.
</event>
<event>
 5    1  0.1338396E-008  0.3970759E+03  0.7957747E-01  0.3380018E+00
         13   -1    0    0    0    0  0.00000000000E+00  0.00000000000E+00  0.14999999963E+04  0.15000000000E+04  0.10566000000E+00 0.  1.
        994   -1    0    0    0    0 -0.00000000000E+00 -0.00000000000E+00  0.11368683772E-12  0.17120000000E+03  0.17120000000E+03 0.  0.
         13    1    1    2    0    0  0.49073656387E+01 -0.28871848267E+02  0.53886911524E+01  0.29777760430E+02  0.10566000000E+00 0.  1.
        994    1    1    2    0    0  0.41992910097E+01  0.30555972410E+02  0.29731009335E+02  0.17647853810E+03  0.17120000000E+03 0.  0.
        998    1    1    2    0    0 -0.91066566484E+01 -0.16841241431E+01  0.14648802958E+04  0.14649437015E+04  0.10000000000E+02 0.  1.
</event>
<event>
 5    1  0.1338396E-008  0.3818127E+03  0.7957747E-01  0.3443304E+00
         13   -1    0    0    0    0  0.00000000000E+00  0.00000000000E+00  0.14999999963E+04  0.15000000000E+04  0.10566000000E+00 0.  1.
        994   -1    0    0    0    0 -0.00000000000E+00 -0.00000000000E+00  0.11368683772E-12  0.17120000000E+03  0.17120000000E+03 0.  0.
         13    1    1    2    0    0 -0.35354995091E+01 -0.28489002690E+02  0.12842148368E+03  0.13159107745E+03  0.10566000000E+00 0.  1.
        994    1    1    2    0    0  0.96711862595E+01  0.14369430682E+02  0.42184931527E+01  0.17212567521E+03  0.17120000000E+03 0.  0.
        998    1    1    2    0    0 -0.61356867503E+01  0.14119572008E+02  0.13673600194E+04  0.13674832473E+04  0.10000000000E+02 0.  1.
</event>
<event>
 5    1  0.1338396E-008  0.3835081E+03  0.7957747E-01  0.3436024E+00
         13   -1    0    0    0    0  0.00000000000E+00  0.00000000000E+00  0.14999999963E+04  0.15000000000E+04  0.10566000000E+00 0. -1.
        994   -1    0    0    0    0 -0.00000000000E+00 -0.00000000000E+00  0.11368683772E-12  0.17120000000E+03  0.17120000000E+03 0.  0.
         13    1    1    2    0    0  0.78107582624E+01 -0.18688163143E+02  0.82622541559E+02  0.85069094999E+02  0.10566000000E+00 0. -1.
        994    1    1    2    0    0 -0.47719961370E+01  0.18921050554E+02  0.36319717906E+01  0.17234677055E+03  0.17120000000E+03 0.  0.
        998    1    1    2    0    0 -0.30387621254E+01 -0.23288741034E+00  0.14137454829E+04  0.14137841344E+04  0.10000000000E+02 0. -1.
</event>
<event>
 5    1  0.1402922E-008  0.3848661E+03  0.7957747E-01  0.3430240E+00
         13   -1    0    0    0    0  0.00000000000E+00  0.00000000000E+00  0.14999999963E+04  0.15000000000E+04  0.10566000000E+00 0.  1.
        994   -1    0    0    0    0 -0.00000000000E+00 -0.00000000000E+00  0.11368683772E-12  0.17120000000E+03  0.17120000000E+03 0.  0.
         13    1    1    2    0    0 -0.27867347048E+01 -0.11774436501E+02  0.42404435800E+02  0.44097058686E+02  0.10566000000E+00 0.  1.
        994    1    1    2    0    0  0.15120235084E+01  0.10741570985E+02  0.20838632604E+01  0.17155596769E+03  0.17120000000E+03 0.  0.
        998    1    1    2    0    0  0.12747111965E+01  0.10328655160E+01  0.14555116972E+04  0.14555469736E+04  0.10000000000E+02 0.  1.
</event>
<event>
 5    1  0.1338396E-008  0.3725339E+03  0.7957747E-01  0.3484326E+00
         13   -1    0    0    0    0  0.00000000000E+00  0.00000000000E+00  0.14999999963E+04  0.15000000000E+04  0.10566000000E+00 0. -1.
        994   -1    0    0    0    0 -0.00000000000E+00 -0.00000000000E+00  0.11368683772E-12  0.17120000000E+03  0.17120000000E+03 0.  0.
         13    1    1    2    0    0 -0.24267673300E+02  0.46249767619E+02  0.10581112081E+03  0.11799985348E+03  0.10566000000E+00 0. -1.
        994    1    1    2    0    0  0.19260442419E+02 -0.30731558087E+02  0.16938965664E+02  0.17581741058E+03  0.17120000000E+03 0.  0.
        998    1    1    2    0    0  0.50072308810E+01 -0.15518209532E+02  0.13772499098E+04  0.13773827359E+04  0.10000000000E+02 0. -1.
</event>
<event>
 5    1  0.1338396E-008  0.3838791E+03  0.7957747E-01  0.3434440E+00
         13   -1    0    0    0    0  0.00000000000E+00  0.00000000000E+00  0.14999999963E+04  0.15000000000E+04  0.10566000000E+00 0. -1.
        994   -1    0    0    0    0 -0.00000000000E+00 -0.00000000000E+00  0.11368683772E-12  0.17120000000E+03  0.17120000000E+03 0.  0.
         13    1    1    2    0    0  0.29136318690E+01  0.23184438010E+02  0.10910960455E+03  0.11158371021E+03  0.10566000000E+00 0. -1.
        994    1    1    2    0    0  0.37543614357E+01 -0.33880499720E+02  0.60324233502E+01  0.17466486087E+03  0.17120000000E+03 0.  0.
        998    1    1    2    0    0 -0.66679933047E+01  0.10696061711E+02  0.13848579684E+04  0.13849514289E+04  0.10000000000E+02 0. -1.
</event>
<event>
 5    1  0.1338396E-008  0.3848948E+03  0.7957747E-01  0.3430118E+00
         13   -1    0    0    0    0  0.00000000000E+00  0.00000000000E+00  0.14999999963E+04  0.15000000000E+04  0.10566000000E+00 0. -1.
        994   -1    0    0    0    0 -0.00000000000E+00 -0.00000000000E+00  0.11368683772E-12  0.17120000000E+03  0.17120000000E+03 0.  0.
         13    1    1    2    0    0 -0.16337973797E+02  0.95669989059E+01  0.11388321815E+03  0.11544633124E+03  0.10566000000E+00 0. -1.
        994    1    1    2    0    0  0.14836311975E+01 -0.54779472823E+01  0.17883356776E+01  0.17130337770E+03  0.17120000000E+03 0.  0.
        998    1    1    2    0    0  0.14854342599E+02 -0.40890516235E+01  0.13843284424E+04  0.13844502911E+04  0.10000000000E+02 0. -1.
</event>
<event>
 5    1  0.1338396E-008  0.3790166E+03  0.7957747E-01  0.3455452E+00
         13   -1    0    0    0    0  0.00000000000E+00  0.00000000000E+00  0.14999999963E+04  0.15000000000E+04  0.10566000000E+00 0.  1.
        994   -1    0    0    0    0 -0.00000000000E+00 -0.00000000000E+00  0.11368683772E-12  0.17120000000E+03  0.17120000000E+03 0.  0.
         13    1    1    2    0    0  0.43476276210E+02 -0.60467320372E+01  0.21252003314E+03  0.21700581838E+03  0.10566000000E+00 0.  1.
        994    1    1    2    0    0 -0.18641135946E+02  0.26531080929E+02  0.81646219413E+01  0.17443477651E+03  0.17120000000E+03 0.  0.
        998    1    1    2    0    0 -0.24835140264E+02 -0.20484348892E+02  0.12793153412E+04  0.12797594051E+04  0.10000000000E+02 0.  1.
</event>
<event>
 5    1  0.1338396E-008  0.3843350E+03  0.7957747E-01  0.3432497E+00
         13   -1    0    0    0    0  0.00000000000E+00  0.00000000000E+00  0.14999999963E+04  0.15000000000E+04  0.10566000000E+00 0.  1.
        994   -1    0    0    0    0 -0.00000000000E+00 -0.00000000000E+00  0.11368683772E-12  0.17120000000E+03  0.17120000000E+03 0.  0.
         13    1    1    2    0    0 -0.15046422499E+01 -0.25541453261E+02  0.14995783501E+03  0.15212492639E+03  0.10566000000E+00 0.  1.
        994    1    1    2    0    0  0.65506788090E+01  0.27234945538E+02  0.45509531443E+01  0.17353617728E+03  0.17120000000E+03 0.  0.
        998    1    1    2    0    0 -0.50460365591E+01 -0.16934922772E+01  0.13454912081E+04  0.13455388963E+04  0.10000000000E+02 0.  1.
</event>
<event>
 5    1  0.2694168E-008  0.3861709E+03  0.7957747E-01  0.3424721E+00
         13   -1    0    0    0    0  0.00000000000E+00  0.00000000000E+00  0.14999999963E+04  0.15000000000E+04  0.10566000000E+00 0. -1.
        994   -1    0    0    0    0 -0.00000000000E+00 -0.00000000000E+00  0.11368683772E-12  0.17120000000E+03  0.17120000000E+03 0.  0.
         13    1    1    2    0    0  0.59587009449E+01  0.87958641040E+01  0.55381270346E+02  0.56391219276E+02  0.10566000000E+00 0. -1.
        994    1    1    2    0    0 -0.35886668803E+01 -0.36847751709E+01  0.11365977068E+01  0.17128102041E+03  0.17120000000E+03 0.  0.
        998    1    1    2    0    0 -0.23700340646E+01 -0.51110889331E+01  0.14434821282E+04  0.14435277603E+04  0.10000000000E+02 0. -1.
</event>
<event>
 5    1  0.1338396E-008  0.3855138E+03  0.7957747E-01  0.3427496E+00
         13   -1    0    0    0    0  0.00000000000E+00  0.00000000000E+00  0.14999999963E+04  0.15000000000E+04  0.10566000000E+00 0.  1.
        994   -1    0    0    0    0 -0.00000000000E+00 -0.00000000000E+00  0.11368683772E-12  0.17120000000E+03  0.17120000000E+03 0.  0.
         13    1    1    2    0    0 -0.88368273891E+01 -0.11668613185E+02  0.85181735610E+02  0.86430233701E+02  0.10566000000E+00 0.  1.
        994    1    1    2    0    0  0.31053658374E+01 -0.35266386089E+01  0.14477629832E+01  0.17127059437E+03  0.17120000000E+03 0.  0.
        998    1    1    2    0    0  0.57314615517E+01  0.15195251794E+02  0.14133704977E+04  0.14134991719E+04  0.10000000000E+02 0.  1.
</event>
<event>
 5    1  0.1338396E-008  0.3844670E+03  0.7957747E-01  0.3431936E+00
         13   -1    0    0    0    0  0.00000000000E+00  0.00000000000E+00  0.14999999963E+04  0.15000000000E+04  0.10566000000E+00 0. -1.
        994   -1    0    0    0    0 -0.00000000000E+00 -0.00000000000E+00  0.11368683772E-12  0.17120000000E+03  0.17120000000E+03 0.  0.
         13    1    1    2    0    0  0.29982993932E+01  0.19211444505E+02  0.97216299757E+02  0.99141764669E+02  0.10566000000E+00 0. -1.
        994    1    1    2    0    0 -0.11699088335E+02 -0.14074262068E+02  0.29992409784E+01  0.17220159397E+03  0.17120000000E+03 0.  0.
        998    1    1    2    0    0  0.87007889419E+01 -0.51371824365E+01  0.13997844555E+04  0.13998566414E+04  0.10000000000E+02 0. -1.
</event>
<event>
 5    1  0.1338396E-008  0.3807759E+03  0.7957747E-01  0.3447787E+00
         13   -1    0    0    0    0  0.00000000000E+00  0.00000000000E+00  0.14999999963E+04  0.15000000000E+04  0.10566000000E+00 0. -1.
        994   -1    0    0    0    0 -0.00000000000E+00 -0.00000000000E+00  0.11368683772E-12  0.17120000000E+03  0.17120000000E+03 0.  0.
         13    1    1    2    0    0  0.19098834310E+02  0.30927351845E+01  0.36174688319E+01  0.19683183881E+02  0.10566000000E+00 0. -1.
        994    1    1    2    0    0 -0.20996703706E+02 -0.14961609107E+01  0.18365868397E+02  0.17346424757E+03  0.17120000000E+03 0.  0.
        998    1    1    2    0    0  0.18978693965E+01 -0.15965742738E+01  0.14780166590E+04  0.14780525685E+04  0.10000000000E+02 0. -1.
</event>
<event>
 5    1  0.1338396E-008  0.3853296E+03  0.7957747E-01  0.3428276E+00
         13   -1    0    0    0    0  0.00000000000E+00  0.00000000000E+00  0.14999999963E+04  0.15000000000E+04  0.10566000000E+00 0.  1.
        994   -1    0    0    0    0 -0.00000000000E+00 -0.00000000000E+00  0.11368683772E-12  0.17120000000E+03  0.17120000000E+03 0.  0.
         13    1    1    2    0    0 -0.15174807649E+02 -0.87965270136E+01  0.98355805223E+02  0.99907603613E+02  0.10566000000E+00 0.  1.
        994    1    1    2    0    0  0.18785282711E+02  0.66134802417E+01  0.27706424895E+01  0.17237674271E+03  0.17120000000E+03 0.  0.
        998    1    1    2    0    0 -0.36104750621E+01  0.21830467718E+01  0.13988735486E+04  0.13989156537E+04  0.10000000000E+02 0.  1.
</event>
<event>
 5    1  0.1338396E-008  0.3784354E+03  0.7957747E-01  0.3457999E+00
         13   -1    0    0    0    0  0.00000000000E+00  0.00000000000E+00  0.14999999963E+04  0.15000000000E+04  0.10566000000E+00 0. -1.
        994   -1    0    0    0    0 -0.00000000000E+00 -0.00000000000E+00  0.11368683772E-12  0.17120000000E+03  0.17120000000E+03 0.  0.
         13    1    1    2    0    0 -0.87777216218E+01  0.24412938838E+02  0.76068088110E+02  0.80370424737E+02  0.10566000000E+00 0. -1.
        994    1    1    2    0    0 -0.53593186366E+01  0.14199923588E+02  0.56994840965E+01  0.17196593920E+03  0.17120000000E+03 0.  0.
        998    1    1    2    0    0  0.14137040258E+02 -0.38612862427E+02  0.14182324241E+04  0.14188636361E+04  0.10000000000E+02 0. -1.
</event>
<event>
 5    1  0.1338396E-008  0.3733430E+03  0.7957747E-01  0.3480667E+00
         13   -1    0    0    0    0  0.00000000000E+00  0.00000000000E+00  0.14999999963E+04  0.15000000000E+04  0.10566000000E+00 0. -1.
        994   -1    0    0    0    0 -0.00000000000E+00 -0.00000000000E+00  0.11368683772E-12  0.17120000000E+03  0.17120000000E+03 0.  0.
         13    1    1    2    0    0 -0.14139993442E+02  0.34213841388E+02  0.84051462329E+02  0.91843267803E+02  0.10566000000E+00 0. -1.
        994    1    1    2    0    0  0.26458745473E+02 -0.28302969991E+02  0.12680782407E+02  0.17598683350E+03  0.17120000000E+03 0.  0.
        998    1    1    2    0    0 -0.12318752031E+02 -0.59108713968E+01  0.14032677515E+04  0.14033698987E+04  0.10000000000E+02 0. -1.
</event>
<event>
 5    1  0.1338396E-008  0.3686646E+03  0.7957747E-01  0.3502051E+00
         13   -1    0    0    0    0  0.00000000000E+00  0.00000000000E+00  0.14999999963E+04  0.15000000000E+04  0.10566000000E+00 0.  1.
        994   -1    0    0    0    0 -0.00000000000E+00 -0.00000000000E+00  0.11368683772E-12  0.17120000000E+03  0.17120000000E+03 0.  0.
         13    1    1    2    0    0 -0.57141360024E+01  0.69870590230E+02  0.23177992568E+03  0.24214973847E+03  0.10566000000E+00 0.  1.
        994    1    1    2    0    0  0.52533325260E+01 -0.49698778731E+02  0.18695085271E+02  0.17932236984E+03  0.17120000000E+03 0.  0.
        998    1    1    2    0    0  0.46080347634E+00 -0.20171811498E+02  0.12495249853E+04  0.12497278917E+04  0.10000000000E+02 0.  1.
</event>
<event>
 5    1  0.1338396E-008  0.3728972E+03  0.7957747E-01  0.3482681E+00
         13   -1    0    0    0    0  0.00000000000E+00  0.00000000000E+00  0.14999999963E+04  0.15000000000E+04  0.10566000000E+00 0.  1.
        994   -1    0    0    0    0 -0.00000000000E+00 -0.00000000000E+00  0.11368683772E-12  0.17120000000E+03  0.17120000000E+03 0.  0.
         13    1    1    2    0    0 -0.47860566809E+01  0.33734606116E+02  0.69709263836E+02  0.77590737958E+02  0.10566000000E+00 0.  1.
        994    1    1    2    0    0 -0.16403138961E+02 -0.33455336490E+02  0.12530359401E+02  0.17565526583E+03  0.17120000000E+03 0.  0.
        998    1    1    2    0    0  0.21189195642E+02 -0.27926962604E+00  0.14177603730E+04  0.14179539962E+04  0.10000000000E+02 0.  1.
</event>
<event>
 5    1  0.1338396E-008  0.3852724E+03  0.7957747E-01  0.3428518E+00
         13   -1    0    0    0    0  0.00000000000E+00  0.00000000000E+00  0.14999999963E+04  0.15000000000E+04  0.10566000000E+00 0.  1.
        994   -1    0    0    0    0 -0.00000000000E+00 -0.00000000000E+00  0.11368683772E-12  0.17120000000E+03  0.17120000000E+03 0.  0.
         13    1    1    2    0    0 -0.15050788278E+02 -0.54507022908E+01  0.92410118905E+02  0.93786340281E+02  0.10566000000E+00 0.  1.
        994    1    1    2    0    0  0.54241538814E+01 -0.10548247821E+02  0.19573497383E+01  0.17162155516E+03  0.17120000000E+03 0.  0.
        998    1    1    2    0    0  0.96266343968E+01  0.15998950112E+02  0.14056325276E+04  0.14057921046E+04  0.10000000000E+02 0.  1.
</event>
<event>
 5    1  0.1338396E-008  0.3692977E+03  0.7957747E-01  0.3499125E+00
         13   -1    0    0    0    0  0.00000000000E+00  0.00000000000E+00  0.14999999963E+04  0.15000000000E+04  0.10566000000E+00 0. -1.
        994   -1    0    0    0    0 -0.00000000000E+00 -0.00000000000E+00  0.11368683772E-12  0.17120000000E+03  0.17120000000E+03 0.  0.
         13    1    1    2    0    0 -0.96105776158E+02  0.24773852427E+02  0.37778403772E+03  0.39060319289E+03  0.10566000000E+00 0. -1.
        994    1    1    2    0    0  0.96542744702E+02 -0.18832028110E+02  0.43962120543E+02  0.20228013961E+03  0.17120000000E+03 0.  0.
        998    1    1    2    0    0 -0.43696854386E+00 -0.59418243162E+01  0.10782538380E+04  0.10783166675E+04  0.10000000000E+02 0. -1.
</event>
<event>
 5    1  0.1338396E-008  0.3888236E+03  0.7957747E-01  0.3413616E+00
         13   -1    0    0    0    0  0.00000000000E+00  0.00000000000E+00  0.14999999963E+04  0.15000000000E+04  0.10566000000E+00 0.  1.
        994   -1    0    0    0    0 -0.00000000000E+00 -0.00000000000E+00  0.11368683772E-12  0.17120000000E+03  0.17120000000E+03 0.  0.
         13    1    1    2    0    0  0.63446648516E+02  0.52767232025E+02  0.15580389967E+03  0.17630860529E+03  0.10566000000E+00 0.  1.
        994    1    1    2    0    0 -0.41576118671E+02 -0.29028624018E+02  0.30954276845E+02  0.18121490532E+03  0.17120000000E+03 0.  0.
        998    1    1    2    0    0 -0.21870529845E+02 -0.23738608007E+02  0.13132418198E+04  0.13136764894E+04  0.10000000000E+02 0.  1.
</event>
<event>
 5    1  0.1338396E-008  0.3830968E+03  0.7957747E-01  0.3437784E+00
         13   -1    0    0    0    0  0.00000000000E+00  0.00000000000E+00  0.14999999963E+04  0.15000000000E+04  0.10566000000E+00 0.  1.
        994   -1    0    0    0    0 -0.00000000000E+00 -0.00000000000E+00  0.11368683772E-12  0.17120000000E+03  0.17120000000E+03 0.  0.
         13    1    1    2    0    0  0.16058029202E+02 -0.30805947587E+01  0.50897971789E+02  0.53459938853E+02  0.10566000000E+00 0.  1.
        994    1    1    2    0    0 -0.12506407083E+02 -0.34503830723E+01  0.31351459216E+01  0.17171949366E+03  0.17120000000E+03 0.  0.
        998    1    1    2    0    0 -0.35516221185E+01  0.65309778310E+01  0.14459668786E+04  0.14460205675E+04  0.10000000000E+02 0.  1.
</event>
<event>
 5    1  0.1338396E-008  0.3793038E+03  0.7957747E-01  0.3454195E+00
         13   -1    0    0    0    0  0.00000000000E+00  0.00000000000E+00  0.14999999963E+04  0.15000000000E+04  0.10566000000E+00 0. -1.
        994   -1    0    0    0    0 -0.00000000000E+00 -0.00000000000E+00  0.11368683772E-12  0.17120000000E+03  0.17120000000E+03 0.  0.
         13    1    1    2    0    0  0.12952534668E+02 -0.16169192897E+01  0.17092167798E+02  0.21506648887E+02  0.10566000000E+00 0. -1.
        994    1    1    2    0    0 -0.87231586994E+01  0.25824650906E+01  0.47623439245E+01  0.17150767488E+03  0.17120000000E+03 0.  0.
        998    1    1    2    0    0 -0.42293759683E+01 -0.96554580091E+00  0.14781454846E+04  0.14781856762E+04  0.10000000000E+02 0. -1.
</event>
<event>
 5    1  0.1338396E-008  0.3807922E+03  0.7957747E-01  0.3447716E+00
         13   -1    0    0    0    0  0.00000000000E+00  0.00000000000E+00  0.14999999963E+04  0.15000000000E+04  0.10566000000E+00 0. -1.
        994   -1    0    0    0    0 -0.00000000000E+00 -0.00000000000E+00  0.11368683772E-12  0.17120000000E+03  0.17120000000E+03 0.  0.
         13    1    1    2    0    0 -0.25268988780E+02 -0.11510568260E+02  0.98758981438E+02  0.10258831588E+03  0.10566000000E+00 0. -1.
        994    1    1    2    0    0  0.18288520762E+02  0.15330800370E+02  0.56349319562E+01  0.17294708986E+03  0.17120000000E+03 0.  0.
        998    1    1    2    0    0  0.69804680174E+01 -0.38202321099E+01  0.13956060829E+04  0.13956645943E+04  0.10000000000E+02 0. -1.
</event>
<event>
 5    1  0.1338396E-008  0.3801179E+03  0.7957747E-01  0.3450645E+00
         13   -1    0    0    0    0  0.00000000000E+00  0.00000000000E+00  0.14999999963E+04  0.15000000000E+04  0.10566000000E+00 0. -1.
        994   -1    0    0    0    0 -0.00000000000E+00 -0.00000000000E+00  0.11368683772E-12  0.17120000000E+03  0.17120000000E+03 0.  0.
         13    1    1    2    0    0 -0.23984349746E+02  0.37128360743E+02  0.26321523043E+03  0.26690079224E+03  0.10566000000E+00 0. -1.
        994    1    1    2    0    0  0.15108125134E+02 -0.72173952277E+01  0.50110075630E+01  0.17208979178E+03  0.17120000000E+03 0.  0.
        998    1    1    2    0    0  0.88762246118E+01 -0.29910965516E+02  0.12317737583E+04  0.12322094160E+04  0.10000000000E+02 0. -1.
</event>
<event>
 5    1  0.1537406E-008  0.3851547E+03  0.7957747E-01  0.3429017E+00
         13   -1    0    0    0    0  0.00000000000E+00  0.00000000000E+00  0.14999999963E+04  0.15000000000E+04  0.10566000000E+00 0.  1.
        994   -1    0    0    0    0 -0.00000000000E+00 -0.00000000000E+00  0.11368683772E-12  0.17120000000E+03  0.17120000000E+03 0.  0.
         13    1    1    2    0    0  0.49028141879E+01  0.99189264665E+01  0.38303630241E+02  0.39869812426E+02  0.10566000000E+00 0.  1.
        994    1    1    2    0    0 -0.70315695981E+01 -0.10796755287E+02  0.20992501831E+01  0.17169699982E+03  0.17120000000E+03 0.  0.
        998    1    1    2    0    0  0.21287554102E+01  0.87782882032E+00  0.14595971159E+04  0.14596331878E+04  0.10000000000E+02 0.  1.
</event>
<event>
 5    1  0.1338396E-008  0.3832948E+03  0.7957747E-01  0.3436937E+00
         13   -1    0    0    0    0  0.00000000000E+00  0.00000000000E+00  0.14999999963E+04  0.15000000000E+04  0.10566000000E+00 0.  1.
        994   -1    0    0    0    0 -0.00000000000E+00 -0.00000000000E+00  0.11368683772E-12  0.17120000000E+03  0.17120000000E+03 0.  0.
         13    1    1    2    0    0  0.43223148865E+01  0.10666495448E+02  0.24965138308E+02  0.27490467910E+02  0.10566000000E+00 0.  1.
        994    1    1    2    0    0 -0.81454016700E+01 -0.16482520611E+02  0.35977297310E+01  0.17222196350E+03  0.17120000000E+03 0.  0.
        998    1    1    2    0    0  0.38230867835E+01  0.58160251632E+01  0.14714371282E+04  0.14714875686E+04  0.10000000000E+02 0.  1.
</event>
<event>
 5    1  0.1338396E-008  0.3789217E+03  0.7957747E-01  0.3455867E+00
         13   -1    0    0    0    0  0.00000000000E+00  0.00000000000E+00  0.14999999963E+04  0.15000000000E+04  0.10566000000E+00 0.  1.
        994   -1    0    0    0    0 -0.00000000000E+00 -0.00000000000E+00  0.11368683772E-12  0.17120000000E+03  0.17120000000E+03 0.  0.
         13    1    1    2    0    0  0.57214849684E+02  0.14921204541E+02  0.32630742423E+03  0.33162136186E+03  0.10566000000E+00 0.  1.
        994    1    1    2    0    0 -0.49432400177E+02 -0.15836513242E+01  0.12928866958E+02  0.17866915162E+03  0.17120000000E+03 0.  0.
        998    1    1    2    0    0 -0.77824495069E+01 -0.13337553216E+02  0.11607637051E+04  0.11609094865E+04  0.10000000000E+02 0.  1.
</event>
<event>
 5    1  0.1338396E-008  0.3825606E+03  0.7957747E-01  0.3440085E+00
         13   -1    0    0    0    0  0.00000000000E+00  0.00000000000E+00  0.14999999963E+04  0.15000000000E+04  0.10566000000E+00 0.  1.
        994   -1    0    0    0    0 -0.00000000000E+00 -0.00000000000E+00  0.11368683772E-12  0.17120000000E+03  0.17120000000E+03 0.  0.
         13    1    1    2    0    0  0.23799040703E+02 -0.41434983988E+01  0.10723750885E+03  0.10992478058E+03  0.10566000000E+00 0.  1.
        994    1    1    2    0    0 -0.59579489670E+01  0.32181846371E+01  0.29981596064E+01  0.17136009696E+03  0.17120000000E+03 0.  0.
        998    1    1    2    0    0 -0.17841091736E+02  0.92531376168E+00  0.13897643278E+04  0.13899151225E+04  0.10000000000E+02 0.  1.
</event>
<event>
 5    1  0.1338396E-008  0.4056445E+03  0.7957747E-01  0.3346573E+00
         13   -1    0    0    0    0  0.00000000000E+00  0.00000000000E+00  0.14999999963E+04  0.15000000000E+04  0.10566000000E+00 0.  1.
        994   -1    0    0    0    0 -0.00000000000E+00 -0.00000000000E+00  0.11368683772E-12  0.17120000000E+03  0.17120000000E+03 0.  0.
         13    1    1    2    0    0  0.59980999049E+02 -0.86911444608E+02  0.19611676086E+03  0.22274001550E+03  0.10566000000E+00 0.  1.
        994    1    1    2    0    0  0.31843760300E+02  0.60126775786E+02  0.49993588347E+02  0.19088754048E+03  0.17120000000E+03 0.  0.
        998    1    1    2    0    0 -0.91824759350E+02  0.26784668822E+02  0.12538896471E+04  0.12575724440E+04  0.10000000000E+02 0.  1.
</event>
<event>
 5    1  0.1338396E-008  0.3802316E+03  0.7957747E-01  0.3450151E+00
         13   -1    0    0    0    0  0.00000000000E+00  0.00000000000E+00  0.14999999963E+04  0.15000000000E+04  0.10566000000E+00 0. -1.
        994   -1    0    0    0    0 -0.00000000000E+00 -0.00000000000E+00  0.11368683772E-12  0.17120000000E+03  0.17120000000E+03 0.  0.
         13    1    1    2    0    0  0.27925703758E+02 -0.32216706530E+02  0.18021008075E+03  0.18518489538E+03  0.10566000000E+00 0. -1.
        994    1    1    2    0    0 -0.39227771278E+02  0.41592562737E+02  0.15013408336E+02  0.18111764614E+03  0.17120000000E+03 0.  0.
        998    1    1    2    0    0  0.11302067520E+02 -0.93758562065E+01  0.13047765072E+04  0.13048974585E+04  0.10000000000E+02 0. -1.
</event>
<event>
 5    1  0.1338396E-008  0.3853198E+03  0.7957747E-01  0.3428317E+00
         13   -1    0    0    0    0  0.00000000000E+00  0.00000000000E+00  0.14999999963E+04  0.15000000000E+04  0.10566000000E+00 0. -1.
        994   -1    0    0    0    0 -0.00000000000E+00 -0.00000000000E+00  0.11368683772E-12  0.17120000000E+03  0.17120000000E+03 0.  0.
         13    1    1    2    0    0 -0.10407685189E+02  0.41983949781E+01  0.42266137318E+02  0.43730812469E+02  0.10566000000E+00 0. -1.
        994    1    1    2    0    0  0.10159744203E+02 -0.18143549345E+01  0.18214519065E+01  0.17152046517E+03  0.17120000000E+03 0.  0.
        998    1    1    2    0    0  0.24794098602E+00 -0.23840400436E+01  0.14559124071E+04  0.14559487224E+04  0.10000000000E+02 0. -1.
</event>
<event>
 5    1  0.1338396E-008  0.3817941E+03  0.7957747E-01  0.3443384E+00
         13   -1    0    0    0    0  0.00000000000E+00  0.00000000000E+00  0.14999999963E+04  0.15000000000E+04  0.10566000000E+00 0.  1.
        994   -1    0    0    0    0 -0.00000000000E+00 -0.00000000000E+00  0.11368683772E-12  0.17120000000E+03  0.17120000000E+03 0.  0.
         13    1    1    2    0    0 -0.26949036723E+01  0.11525912112E+02  0.21085270841E+02  0.24180756115E+02  0.10566000000E+00 0.  1.
        994    1    1    2    0    0 -0.18309711169E+01  0.25122421118E+01  0.32623724710E+01  0.17125929724E+03  0.17120000000E+03 0.  0.
        998    1    1    2    0    0  0.45258747892E+01 -0.14038154224E+02  0.14756523530E+04  0.14757599466E+04  0.10000000000E+02 0.  1.
</event>
<event>
 5    1  0.1338396E-008  0.3838224E+03  0.7957747E-01  0.3434682E+00
         13   -1    0    0    0    0  0.00000000000E+00  0.00000000000E+00  0.14999999963E+04  0.15000000000E+04  0.10566000000E+00 0.  1.
        994   -1    0    0    0    0 -0.00000000000E+00 -0.00000000000E+00  0.11368683772E-12  0.17120000000E+03  0.17120000000E+03 0.  0.
         13    1    1    2    0    0  0.10273069429E+02 -0.23393984369E+02  0.13696600421E+03  0.13932879076E+03  0.10566000000E+00 0.  1.
        994    1    1    2    0    0 -0.54218805851E+01  0.24113398208E+02  0.42351004608E+01  0.17302667089E+03  0.17120000000E+03 0.  0.
        998    1    1    2    0    0 -0.48511888437E+01 -0.71941383934E+00  0.13587988916E+04  0.13588445384E+04  0.10000000000E+02 0.  1.
</event>
<event>
 5    1  0.1338396E-008  0.3820709E+03  0.7957747E-01  0.3442191E+00
         13   -1    0    0    0    0  0.00000000000E+00  0.00000000000E+00  0.14999999963E+04  0.15000000000E+04  0.10566000000E+00 0.  1.
        994   -1    0    0    0    0 -0.00000000000E+00 -0.00000000000E+00  0.11368683772E-12  0.17120000000E+03  0.17120000000E+03 0.  0.
         13    1    1    2    0    0  0.84183937722E+01  0.71250827845E+01  0.18547279810E+02  0.21578899666E+02  0.10566000000E+00 0.  1.
        994    1    1    2    0    0 -0.28540639895E+01 -0.55530579045E+01  0.32208343824E+01  0.17134408629E+03  0.17120000000E+03 0.  0.
        998    1    1    2    0    0 -0.55643297827E+01 -0.15720248800E+01  0.14782318821E+04  0.14782770140E+04  0.10000000000E+02 0.  1.
</event>
<event>
 5    1  0.1338396E-008  0.3705944E+03  0.7957747E-01  0.3493163E+00
         13   -1    0    0    0    0  0.00000000000E+00  0.00000000000E+00  0.14999999963E+04  0.15000000000E+04  0.10566000000E+00 0. -1.
        994   -1    0    0    0    0 -0.00000000000E+00 -0.00000000000E+00  0.11368683772E-12  0.17120000000E+03  0.17120000000E+03 0.  0.
         13    1    1    2    0    0  0.28334029276E+02  0.16948167567E+00  0.30538951824E+02  0.41659148834E+02  0.10566000000E+00 0. -1.
        994    1    1    2    0    0 -0.27453897108E+02  0.47239188691E+01  0.13976903970E+02  0.17401386646E+03  0.17120000000E+03 0.  0.
        998    1    1    2    0    0 -0.88013216867E+00 -0.48934005447E+01  0.14554841405E+04  0.14555269847E+04  0.10000000000E+02 0. -1.
</event>
<event>
 5    1  0.1338396E-008  0.3803852E+03  0.7957747E-01  0.3449483E+00
         13   -1    0    0    0    0  0.00000000000E+00  0.00000000000E+00  0.14999999963E+04  0.15000000000E+04  0.10566000000E+00 0. -1.
        994   -1    0    0    0    0 -0.00000000000E+00 -0.00000000000E+00  0.11368683772E-12  0.17120000000E+03  0.17120000000E+03 0.  0.
         13    1    1    2    0    0 -0.16967774830E+02 -0.14465663057E+02  0.62180779361E+02  0.66057711710E+02  0.10566000000E+00 0. -1.
        994    1    1    2    0    0  0.60672734960E+01  0.11998799598E+02  0.45426331126E+01  0.17178724782E+03  0.17120000000E+03 0.  0.
        998    1    1    2    0    0  0.10900501334E+02  0.24668634587E+01  0.14332765838E+04  0.14333550405E+04  0.10000000000E+02 0. -1.
</event>
<event>
 5    1  0.1338396E-008  0.3827768E+03  0.7957747E-01  0.3439156E+00
         13   -1    0    0    0    0  0.00000000000E+00  0.00000000000E+00  0.14999999963E+04  0.15000000000E+04  0.10566000000E+00 0. -1.
        994   -1    0    0    0    0 -0.00000000000E+00 -0.00000000000E+00  0.11368683772E-12  0.17120000000E+03  0.17120000000E+03 0.  0.
         13    1    1    2    0    0  0.22084909006E+02  0.62433077200E+01  0.10332321743E+03  0.10584148771E+03  0.10566000000E+00 0. -1.
        994    1    1    2    0    0 -0.75856267548E+00 -0.34010899221E+01  0.27781599309E+01  0.17125799544E+03  0.17120000000E+03 0.  0.
        998    1    1    2    0    0 -0.21326346330E+02 -0.28422177978E+01  0.13938986189E+04  0.13941005168E+04  0.10000000000E+02 0. -1.
</event>
<event>
 5    1  0.1338396E-008  0.3789749E+03  0.7957747E-01  0.3455634E+00
         13   -1    0    0    0    0  0.00000000000E+00  0.00000000000E+00  0.14999999963E+04  0.15000000000E+04  0.10566000000E+00 0.  1.
        994   -1    0    0    0    0 -0.00000000000E+00 -0.00000000000E+00  0.11368683772E-12  0.17120000000E+03  0.17120000000E+03 0.  0.
         13    1    1    2    0    0 -0.15337656087E+00 -0.29721453433E+02  0.11296781004E+03  0.11681235203E+03  0.10566000000E+00 0.  1.
        994    1    1    2    0    0 -0.48385341310E+00 -0.17769341922E+02  0.57121369331E+01  0.17221513329E+03  0.17120000000E+03 0.  0.
        998    1    1    2    0    0  0.63722997396E+00  0.47490795355E+02  0.13813200493E+04  0.13821725147E+04  0.10000000000E+02 0.  1.
</event>
<event>
 5    1  0.1338396E-008  0.3773192E+03  0.7957747E-01  0.3462915E+00
         13   -1    0    0    0    0  0.00000000000E+00  0.00000000000E+00  0.14999999963E+04  0.15000000000E+04  0.10566000000E+00 0.  1.
        994   -1    0    0    0    0 -0.00000000000E+00 -0.00000000000E+00  0.11368683772E-12  0.17120000000E+03  0.17120000000E+03 0.  0.
         13    1    1    2    0    0 -0.24810558242E+02  0.10664228663E+02  0.67043777686E+02  0.72278412156E+02  0.10566000000E+00 0.  1.
        994    1    1    2    0    0  0.63451513622E+00 -0.14817179796E+02  0.62347823977E+01  0.17195424955E+03  0.17120000000E+03 0.  0.
        998    1    1    2    0    0  0.24176043105E+02  0.41529511335E+01  0.14267214362E+04  0.14269673383E+04  0.10000000000E+02 0.  1.
</event>
<event>
 5    1  0.1338396E-008  0.3851146E+03  0.7957747E-01  0.3429186E+00
         13   -1    0    0    0    0  0.00000000000E+00  0.00000000000E+00  0.14999999963E+04  0.15000000000E+04  0.10566000000E+00 0. -1.
        994   -1    0    0    0    0 -0.00000000000E+00 -0.00000000000E+00  0.11368683772E-12  0.17120000000E+03  0.17120000000E+03 0.  0.
         13    1    1    2    0    0  0.10465387787E+02 -0.14182917939E+01  0.36521863689E+02  0.38018332217E+02  0.10566000000E+00 0. -1.
        994    1    1    2    0    0 -0.99740182128E+00 -0.43684448293E+01  0.16392552318E+01  0.17126647447E+03  0.17120000000E+03 0.  0.
        998    1    1    2    0    0 -0.94679859656E+01  0.57867366232E+01  0.14618388774E+04  0.14619151933E+04  0.10000000000E+02 0. -1.
</event>
<event>
 5    1  0.1338396E-008  0.3835524E+03  0.7957747E-01  0.3435835E+00
         13   -1    0    0    0    0  0.00000000000E+00  0.00000000000E+00  0.14999999963E+04  0.15000000000E+04  0.10566000000E+00 0.  1.
        994   -1    0    0    0    0 -0.00000000000E+00 -0.00000000000E+00  0.11368683772E-12  0.17120000000E+03  0.17120000000E+03 0.  0.
         13    1    1    2    0    0 -0.19886800807E+02 -0.63385087777E+01  0.10628818156E+03  0.10831828213E+03  0.10566000000E+00 0.  1.
        994    1    1    2    0    0 -0.12931495243E+02  0.18416580158E+02  0.40255316899E+01  0.17271953827E+03  0.17120000000E+03 0.  0.
        998    1    1    2    0    0  0.32818296050E+02 -0.12078071380E+02  0.13896862830E+04  0.13901621796E+04  0.10000000000E+02 0.  1.
</event>
<event>
 5    1  0.1338396E-008  0.3703670E+03  0.7957747E-01  0.3494206E+00
         13   -1    0    0    0    0  0.00000000000E+00  0.00000000000E+00  0.14999999963E+04  0.15000000000E+04  0.10566000000E+00 0. -1.
        994   -1    0    0    0    0 -0.00000000000E+00 -0.00000000000E+00  0.11368683772E-12  0.17120000000E+03  0.17120000000E+03 0.  0.
         13    1    1    2    0    0  0.13389589695E+02 -0.81012463686E+01  0.95111954560E+01  0.18313528004E+02  0.10566000000E+00 0. -1.
        994    1    1    2    0    0 -0.30722039270E+01  0.95873599405E+01  0.94274568618E+01  0.17175468800E+03  0.17120000000E+03 0.  0.
        998    1    1    2    0    0 -0.10317385768E+02 -0.14861135719E+01  0.14810613440E+04  0.14811317840E+04  0.10000000000E+02 0. -1.
</event>
<event>
 5    1  0.1338396E-008  0.3833088E+03  0.7957747E-01  0.3436877E+00
         13   -1    0    0    0    0  0.00000000000E+00  0.00000000000E+00  0.14999999963E+04  0.15000000000E+04  0.10566000000E+00 0. -1.
        994   -1    0    0    0    0 -0.00000000000E+00 -0.00000000000E+00  0.11368683772E-12  0.17120000000E+03  0.17120000000E+03 0.  0.
         13    1    1    2    0    0  0.87703980962E+01  0.77882929083E+01  0.27029544057E+02  0.29464975906E+02  0.10566000000E+00 0. -1.
        994    1    1    2    0    0 -0.25303458102E+01 -0.88657054808E+01  0.27532564894E+01  0.17147018343E+03  0.17120000000E+03 0.  0.
        998    1    1    2    0    0 -0.62400522861E+01  0.10774125725E+01  0.14702171957E+04  0.14702648407E+04  0.10000000000E+02 0. -1.
</event>
<event>
 5    1  0.1338396E-008  0.3832559E+03  0.7957747E-01  0.3437103E+00
         13   -1    0    0    0    0  0.00000000000E+00  0.00000000000E+00  0.14999999963E+04  0.15000000000E+04  0.10566000000E+00 0.  1.
        994   -1    0    0    0    0 -0.00000000000E+00 -0.00000000000E+00  0.11368683772E-12  0.17120000000E+03  0.17120000000E+03 0.  0.
         13    1    1    2    0    0  0.13520050436E+02 -0.54829633544E+01  0.42082290224E+02  0.44539701003E+02  0.10566000000E+00 0.  1.
        994    1    1    2    0    0 -0.78788413265E+01  0.31109380567E+01  0.27359007579E+01  0.17143126678E+03  0.17120000000E+03 0.  0.
        998    1    1    2    0    0 -0.56412091097E+01  0.23720252977E+01  0.14551818053E+04  0.14552290322E+04  0.10000000000E+02 0.  1.
</event>
<event>
 5    1  0.2825818E-008  0.3861845E+03  0.7957747E-01  0.3424664E+00
         13   -1    0    0    0    0  0.00000000000E+00  0.00000000000E+00  0.14999999963E+04  0.15000000000E+04  0.10566000000E+00 0. -1.
        994   -1    0    0    0    0 -0.00000000000E+00 -0.00000000000E+00  0.11368683772E-12  0.17120000000E+03  0.17120000000E+03 0.  0.
         13    1    1    2    0    0 -0.26549989596E+01 -0.11044432832E+02  0.60240666104E+02  0.61302345247E+02  0.10566000000E+00 0. -1.
        994    1    1    2    0    0 -0.29650033119E+00  0.13547398786E+02  0.16449632852E+01  0.17174331379E+03  0.17120000000E+03 0.  0.
        998    1    1    2    0    0  0.29514992907E+01 -0.25029659544E+01  0.14381143669E+04  0.14381543410E+04  0.10000000000E+02 0. -1.
</event>
<event>
 5    1  0.1338396E-008  0.3684313E+03  0.7957747E-01  0.3503132E+00
         13   -1    0    0    0    0  0.00000000000E+00  0.00000000000E+00  0.14999999963E+04  0.15000000000E+04  0.10566000000E+00 0. -1.
        994   -1    0    0    0    0 -0.00000000000E+00 -0.00000000000E+00  0.11368683772E-12  0.17120000000E+03  0.17120000000E+03 0.  0.
         13    1    1    2    0    0  0.73324250088E+02  0.20891323457E+01  0.18357000318E+03  0.19768350300E+03  0.10566000000E+00 0. -1.
        994    1    1    2    0    0 -0.11745266903E+03 -0.61635317162E+02  0.74041435267E+02  0.22887904211E+03  0.17120000000E+03 0.  0.
        998    1    1    2    0    0  0.44128418938E+02  0.59546184816E+02  0.12423885578E+04  0.12446374549E+04  0.10000000000E+02 0. -1.
</event>
<event>
 5    1  0.1338396E-008  0.4017751E+03  0.7957747E-01  0.3361500E+00
         13   -1    0    0    0    0  0.00000000000E+00  0.00000000000E+00  0.14999999963E+04  0.15000000000E+04  0.10566000000E+00 0. -1.
        994   -1    0    0    0    0 -0.00000000000E+00 -0.00000000000E+00  0.11368683772E-12  0.17120000000E+03  0.17120000000E+03 0.  0.
         13    1    1    2    0    0  0.94217337649E+00  0.39013682851E+02  0.19064667164E+02  0.43433027046E+02  0.10566000000E+00 0. -1.
        994    1    1    2    0    0  0.47179396316E+02  0.69487374959E+02  0.57241582054E+02  0.19909904428E+03  0.17120000000E+03 0.  0.
        998    1    1    2    0    0 -0.48121569692E+02 -0.10850105781E+03  0.14236937471E+04  0.14286679287E+04  0.10000000000E+02 0. -1.
</event>
<event>
 5    1  0.1338396E-008  0.3774488E+03  0.7957747E-01  0.3462343E+00
         13   -1    0    0    0    0  0.00000000000E+00  0.00000000000E+00  0.14999999963E+04  0.15000000000E+04  0.10566000000E+00 0. -1.
        994   -1    0    0    0    0 -0.00000000000E+00 -0.00000000000E+00  0.11368683772E-12  0.17120000000E+03  0.17120000000E+03 0.  0.
         13    1    1    2    0    0 -0.42351027249E+02 -0.20696468704E+02  0.17821234088E+03  0.18434099634E+03  0.10566000000E+00 0. -1.
        994    1    1    2    0    0  0.44066373241E+02  0.21008741838E+02  0.13503752338E+02  0.17853572139E+03  0.17120000000E+03 0.  0.
        998    1    1    2    0    0 -0.17153459926E+01 -0.31227313361E+00  0.13082839031E+04  0.13083232823E+04  0.10000000000E+02 0. -1.
</event>
<event>
 5    1  0.1338396E-008  0.3849722E+03  0.7957747E-01  0.3429790E+00
         13   -1    0    0    0    0  0.00000000000E+00  0.00000000000E+00  0.14999999963E+04  0.15000000000E+04  0.10566000000E+00 0.  1.
        994   -1    0    0    0    0 -0.00000000000E+00 -0.00000000000E+00  0.11368683772E-12  0.17120000000E+03  0.17120000000E+03 0.  0.
         13    1    1    2    0    0 -0.11144443502E+02  0.83644999219E+01  0.57645056884E+02  0.59305372666E+02  0.10566000000E+00 0.  1.
        994    1    1    2    0    0  0.10373002811E+02 -0.82457523458E+01  0.22216741851E+01  0.17172643202E+03  0.17120000000E+03 0.  0.
        998    1    1    2    0    0  0.77144069154E+00 -0.11874757609E+00  0.14401332652E+04  0.14401681953E+04  0.10000000000E+02 0.  1.
</event>
<event>
 5    1  0.1338396E-008  0.3805009E+03  0.7957747E-01  0.3448980E+00
         13   -1    0    0    0    0  0.00000000000E+00  0.00000000000E+00  0.14999999963E+04  0.15000000000E+04  0.10566000000E+00 0. -1.
        994   -1    0    0    0    0 -0.00000000000E+00 -0.00000000000E+00  0.11368683772E-12  0.17120000000E+03  0.17120000000E+03 0.  0.
         13    1    1    2    0    0  0.18631999054E+02  0.43621669200E+02  0.27813054746E+03  0.28214644071E+03  0.10566000000E+00 0. -1.
        994    1    1    2    0    0 -0.64454391290E+02 -0.12709042636E+02  0.18421166169E+02  0.18429505605E+03  0.17120000000E+03 0.  0.
        998    1    1    2    0    0  0.45822392236E+02 -0.30912626564E+02  0.12034482826E+04  0.12047585032E+04  0.10000000000E+02 0. -1.
</event>
<event>
 5    1  0.1338396E-008  0.3828133E+03  0.7957747E-01  0.3439000E+00
         13   -1    0    0    0    0  0.00000000000E+00  0.00000000000E+00  0.14999999963E+04  0.15000000000E+04  0.10566000000E+00 0.  1.
        994   -1    0    0    0    0 -0.00000000000E+00 -0.00000000000E+00  0.11368683772E-12  0.17120000000E+03  0.17120000000E+03 0.  0.
         13    1    1    2    0    0  0.19365768551E+02 -0.23881739500E+02  0.15838010415E+03  0.16133703551E+03  0.10566000000E+00 0.  1.
        994    1    1    2    0    0 -0.23441543091E+02  0.19111958446E+02  0.57554543696E+01  0.17394636574E+03  0.17120000000E+03 0.  0.
        998    1    1    2    0    0  0.40757745401E+01  0.47697810543E+01  0.13358644378E+04  0.13359165988E+04  0.10000000000E+02 0.  1.
</event>
<event>
 5    1  0.1338396E-008  0.3828113E+03  0.7957747E-01  0.3439008E+00
         13   -1    0    0    0    0  0.00000000000E+00  0.00000000000E+00  0.14999999963E+04  0.15000000000E+04  0.10566000000E+00 0.  1.
        994   -1    0    0    0    0 -0.00000000000E+00 -0.00000000000E+00  0.11368683772E-12  0.17120000000E+03  0.17120000000E+03 0.  0.
         13    1    1    2    0    0 -0.12194186245E+02  0.54514143907E+01  0.31866115426E+02  0.34552519061E+02  0.10566000000E+00 0.  1.
        994    1    1    2    0    0  0.79185894688E+01 -0.44514252791E+01  0.29940813413E+01  0.17146697574E+03  0.17120000000E+03 0.  0.
        998    1    1    2    0    0  0.42755967765E+01 -0.99998911166E+00  0.14651397995E+04  0.14651805052E+04  0.10000000000E+02 0.  1.
</event>
<event>
 5    1  0.1338396E-008  0.3815462E+03  0.7957747E-01  0.3444453E+00
         13   -1    0    0    0    0  0.00000000000E+00  0.00000000000E+00  0.14999999963E+04  0.15000000000E+04  0.10566000000E+00 0.  1.
        994   -1    0    0    0    0 -0.00000000000E+00 -0.00000000000E+00  0.11368683772E-12  0.17120000000E+03  0.17120000000E+03 0.  0.
         13    1    1    2    0    0  0.36698113398E+01 -0.20551500767E+02  0.64963841842E+02  0.68235940749E+02  0.10566000000E+00 0.  1.
        994    1    1    2    0    0  0.11133051007E+02  0.11720062721E+02  0.42242008107E+01  0.17201333834E+03  0.17120000000E+03 0.  0.
        998    1    1    2    0    0 -0.14802862346E+02  0.88314380463E+01  0.14308119536E+04  0.14309507209E+04  0.10000000000E+02 0.  1.
</event>
<event>
 5    1  0.1338396E-008  0.3693337E+03  0.7957747E-01  0.3498959E+00
         13   -1    0    0    0    0  0.00000000000E+00  0.00000000000E+00  0.14999999963E+04  0.15000000000E+04  0.10566000000E+00 0.  1.
        994   -1    0    0    0    0 -0.00000000000E+00 -0.00000000000E+00  0.11368683772E-12  0.17120000000E+03  0.17120000000E+03 0.  0.
         13    1    1    2    0    0 -0.19349216885E+02 -0.26356313330E+01  0.13917019659E+02  0.23979852936E+02  0.10566000000E+00 0.  1.
        994    1    1    2    0    0 -0.28761028105E+01  0.19565039335E+01  0.10629166246E+02  0.17156491206E+03  0.17120000000E+03 0.  0.
        998    1    1    2    0    0  0.22225319696E+02  0.67912739948E+00  0.14754538104E+04  0.14756552350E+04  0.10000000000E+02 0.  1.
</event>
<event>
 5    1  0.1338396E-008  0.3817677E+03  0.7957747E-01  0.3443498E+00
         13   -1    0    0    0    0  0.00000000000E+00  0.00000000000E+00  0.14999999963E+04  0.15000000000E+04  0.10566000000E+00 0. -1.
        994   -1    0    0    0    0 -0.00000000000E+00 -0.00000000000E+00  0.11368683772E-12  0.17120000000E+03  0.17120000000E+03 0.  0.
         13    1    1    2    0    0  0.12939423165E+02 -0.19500676012E+02  0.80229942957E+02  0.83573679754E+02  0.10566000000E+00 0. -1.
        994    1    1    2    0    0 -0.11049564071E+02  0.19226570631E+02  0.48795308315E+01  0.17269917112E+03  0.17120000000E+03 0.  0.
        998    1    1    2    0    0 -0.18898590939E+01  0.27410538096E+00  0.14148905225E+04  0.14149271491E+04  0.10000000000E+02 0. -1.
</event>
<event>
 5    1  0.1338396E-008  0.3809493E+03  0.7957747E-01  0.3447036E+00
         13   -1    0    0    0    0  0.00000000000E+00  0.00000000000E+00  0.14999999963E+04  0.15000000000E+04  0.10566000000E+00 0.  1.
        994   -1    0    0    0    0 -0.00000000000E+00 -0.00000000000E+00  0.11368683772E-12  0.17120000000E+03  0.17120000000E+03 0.  0.
         13    1    1    2    0    0 -0.11621960478E+02  0.10275335923E+02  0.30210979633E+02  0.33961256574E+02  0.10566000000E+00 0.  1.
        994    1    1    2    0    0  0.16000265316E+02 -0.17624886511E+02  0.55453403010E+01  0.17293593008E+03  0.17120000000E+03 0.  0.
        998    1    1    2    0    0 -0.43783048380E+01  0.73495505887E+01  0.14642436763E+04  0.14643028133E+04  0.10000000000E+02 0.  1.
</event>
<event>
 5    1  0.1338396E-008  0.3779294E+03  0.7957747E-01  0.3460224E+00
         13   -1    0    0    0    0  0.00000000000E+00  0.00000000000E+00  0.14999999963E+04  0.15000000000E+04  0.10566000000E+00 0. -1.
        994   -1    0    0    0    0 -0.00000000000E+00 -0.00000000000E+00  0.11368683772E-12  0.17120000000E+03  0.17120000000E+03 0.  0.
         13    1    1    2    0    0  0.17742398336E+02  0.64946360918E+02  0.34640546451E+03  0.35288748845E+03  0.10566000000E+00 0. -1.
        994    1    1    2    0    0 -0.28597233314E+02 -0.58860100744E+02  0.19734296769E+02  0.18433989173E+03  0.17120000000E+03 0.  0.
        998    1    1    2    0    0  0.10854834977E+02 -0.60862601736E+01  0.11338602350E+04  0.11339726198E+04  0.10000000000E+02 0. -1.
</event>
<event>
 5    1  0.1338396E-008  0.3769413E+03  0.7957747E-01  0.3464586E+00
         13   -1    0    0    0    0  0.00000000000E+00  0.00000000000E+00  0.14999999963E+04  0.15000000000E+04  0.10566000000E+00 0.  1.
        994   -1    0    0    0    0 -0.00000000000E+00 -0.00000000000E+00  0.11368683772E-12  0.17120000000E+03  0.17120000000E+03 0.  0.
         13    1    1    2    0    0 -0.48065044625E+02 -0.12584953702E+02  0.10733035133E+03  0.11827275703E+03  0.10566000000E+00 0.  1.
        994    1    1    2    0    0 -0.54551451635E+02 -0.26932229029E+02  0.28041738811E+02  0.18383956307E+03  0.17120000000E+03 0.  0.
        998    1    1    2    0    0  0.10261649626E+03  0.39517182731E+02  0.13646279061E+04  0.13690876799E+04  0.10000000000E+02 0.  1.
</event>
<event>
 5    1  0.2065876E-008  0.3865606E+03  0.7957747E-01  0.3423080E+00
         13   -1    0    0    0    0  0.00000000000E+00  0.00000000000E+00  0.14999999963E+04  0.15000000000E+04  0.10566000000E+00 0.  1.
        994   -1    0    0    0    0 -0.00000000000E+00 -0.00000000000E+00  0.11368683772E-12  0.17120000000E+03  0.17120000000E+03 0.  0.
         13    1    1    2    0    0  0.30941897441E+01 -0.10230196250E+02  0.63313053592E+02  0.64208915617E+02  0.10566000000E+00 0.  1.
        994    1    1    2    0    0 -0.84683962548E+01  0.14113773109E+02  0.17442618133E+01  0.17199824062E+03  0.17120000000E+03 0.  0.
        998    1    1    2    0    0  0.53742065107E+01 -0.38835768592E+01  0.14349426809E+04  0.14349928438E+04  0.10000000000E+02 0.  1.
</event>
<event>
 5    1  0.1338396E-008  0.3831401E+03  0.7957747E-01  0.3437599E+00
         13   -1    0    0    0    0  0.00000000000E+00  0.00000000000E+00  0.14999999963E+04  0.15000000000E+04  0.10566000000E+00 0.  1.
        994   -1    0    0    0    0 -0.00000000000E+00 -0.00000000000E+00  0.11368683772E-12  0.17120000000E+03  0.17120000000E+03 0.  0.
         13    1    1    2    0    0  0.68955185364E+01  0.25434469893E+02  0.11375823167E+03  0.11677074493E+03  0.10566000000E+00 0.  1.
        994    1    1    2    0    0 -0.18309611005E+01 -0.43149299648E+02  0.87522665199E+01  0.17678024960E+03  0.17120000000E+03 0.  0.
        998    1    1    2    0    0 -0.50645574359E+01  0.17714829754E+02  0.13774894981E+04  0.13776490055E+04  0.10000000000E+02 0.  1.
</event>
<event>
 5    1  0.1338396E-008  0.3840018E+03  0.7957747E-01  0.3433917E+00
         13   -1    0    0    0    0  0.00000000000E+00  0.00000000000E+00  0.14999999963E+04  0.15000000000E+04  0.10566000000E+00 0. -1.
        994   -1    0    0    0    0 -0.00000000000E+00 -0.00000000000E+00  0.11368683772E-12  0.17120000000E+03  0.17120000000E+03 0.  0.
         13    1    1    2    0    0 -0.20827355479E+02  0.38085549789E+01  0.98759841495E+02  0.10100396667E+03  0.10566000000E+00 0. -1.
        994    1    1    2    0    0  0.22271944139E+02 -0.17276973113E+01  0.37747349610E+01  0.17269253909E+03  0.17120000000E+03 0.  0.
        998    1    1    2    0    0 -0.14445886599E+01 -0.20808576675E+01  0.13974654198E+04  0.13975034942E+04  0.10000000000E+02 0. -1.
</event>
<event>
 5    1  0.1338396E-008  0.3831849E+03  0.7957747E-01  0.3437407E+00
         13   -1    0    0    0    0  0.00000000000E+00  0.00000000000E+00  0.14999999963E+04  0.15000000000E+04  0.10566000000E+00 0. -1.
        994   -1    0    0    0    0 -0.00000000000E+00 -0.00000000000E+00  0.11368683772E-12  0.17120000000E+03  0.17120000000E+03 0.  0.
         13    1    1    2    0    0 -0.59577287719E+01 -0.17019199597E+02  0.64812948016E+02  0.67274639215E+02  0.10566000000E+00 0. -1.
        994    1    1    2    0    0  0.50566204107E+01  0.62672229879E+01  0.27485510401E+01  0.17141132409E+03  0.17120000000E+03 0.  0.
        998    1    1    2    0    0  0.90110836112E+00  0.10751976609E+02  0.14324384972E+04  0.14325140367E+04  0.10000000000E+02 0. -1.
</event>
<event>
 5    1  0.1338396E-008  0.3823580E+03  0.7957747E-01  0.3440955E+00
         13   -1    0    0    0    0  0.00000000000E+00  0.00000000000E+00  0.14999999963E+04  0.15000000000E+04  0.10566000000E+00 0.  1.
        994   -1    0    0    0    0 -0.00000000000E+00 -0.00000000000E+00  0.11368683772E-12  0.17120000000E+03  0.17120000000E+03 0.  0.
         13    1    1    2    0    0  0.12023268796E+02  0.15442218126E+02  0.68578667485E+02  0.71316659283E+02  0.10566000000E+00 0.  1.
        994    1    1    2    0    0  0.49460698834E+01 -0.24798323047E+01  0.30491163877E+01  0.17131652076E+03  0.17120000000E+03 0.  0.
        998    1    1    2    0    0 -0.16969338679E+02 -0.12962385821E+02  0.14283722124E+04  0.14285668200E+04  0.10000000000E+02 0.  1.
</event>
<event>
 5    1  0.1338396E-008  0.3846092E+03  0.7957747E-01  0.3431331E+00
         13   -1    0    0    0    0  0.00000000000E+00  0.00000000000E+00  0.14999999963E+04  0.15000000000E+04  0.10566000000E+00 0.  1.
        994   -1    0    0    0    0 -0.00000000000E+00 -0.00000000000E+00  0.11368683772E-12  0.17120000000E+03  0.17120000000E+03 0.  0.
         13    1    1    2    0    0  0.32020213579E+01 -0.14735824080E+02  0.59220070803E+02  0.61109945198E+02  0.10566000000E+00 0.  1.
        994    1    1    2    0    0 -0.13918968693E+02  0.15874553373E+02  0.32933844027E+01  0.17252833250E+03  0.17120000000E+03 0.  0.
        998    1    1    2    0    0  0.10716947335E+02 -0.11387292926E+01  0.14374865411E+04  0.14375617223E+04  0.10000000000E+02 0.  1.
</event>
<event>
 5    1  0.1338396E-008  0.3828305E+03  0.7957747E-01  0.3438926E+00
         13   -1    0    0    0    0  0.00000000000E+00  0.00000000000E+00  0.14999999963E+04  0.15000000000E+04  0.10566000000E+00 0.  1.
        994   -1    0    0    0    0 -0.00000000000E+00 -0.00000000000E+00  0.11368683772E-12  0.17120000000E+03  0.17120000000E+03 0.  0.
         13    1    1    2    0    0 -0.31230348218E+02 -0.21940006817E+01  0.16165337308E+03  0.16465713613E+03  0.10566000000E+00 0.  1.
        994    1    1    2    0    0  0.31566326055E+02  0.11916165502E+02  0.64906764078E+01  0.17461385060E+03  0.17120000000E+03 0.  0.
        998    1    1    2    0    0 -0.33597783612E+00 -0.97221648204E+01  0.13318559468E+04  0.13319290133E+04  0.10000000000E+02 0.  1.
</event>
<event>
 5    1  0.1338396E-008  0.3834798E+03  0.7957747E-01  0.3436145E+00
         13   -1    0    0    0    0  0.00000000000E+00  0.00000000000E+00  0.14999999963E+04  0.15000000000E+04  0.10566000000E+00 0.  1.
        994   -1    0    0    0    0 -0.00000000000E+00 -0.00000000000E+00  0.11368683772E-12  0.17120000000E+03  0.17120000000E+03 0.  0.
         13    1    1    2    0    0  0.47089104650E+01  0.15519849135E+02  0.55656537263E+02  0.57971552153E+02  0.10566000000E+00 0.  1.
        994    1    1    2    0    0  0.95219013203E+00 -0.69019777523E+01  0.25472071522E+01  0.17136064959E+03  0.17120000000E+03 0.  0.
        998    1    1    2    0    0 -0.56611005971E+01 -0.86178713831E+01  0.14417962519E+04  0.14418677983E+04  0.10000000000E+02 0.  1.
</event>
<event>
 5    1  0.1338396E-008  0.3909466E+03  0.7957747E-01  0.3404837E+00
         13   -1    0    0    0    0  0.00000000000E+00  0.00000000000E+00  0.14999999963E+04  0.15000000000E+04  0.10566000000E+00 0. -1.
        994   -1    0    0    0    0 -0.00000000000E+00 -0.00000000000E+00  0.11368683772E-12  0.17120000000E+03  0.17120000000E+03 0.  0.
         13    1    1    2    0    0 -0.24025353885E+02 -0.71199334827E+02  0.14876434867E+03  0.16666554986E+03  0.10566000000E+00 0. -1.
        994    1    1    2    0    0  0.26838740281E+02 -0.26791701621E+02  0.27924363857E+02  0.17755935163E+03  0.17120000000E+03 0.  0.
        998    1    1    2    0    0 -0.28133863964E+01  0.97991036448E+02  0.13233112837E+04  0.13269750985E+04  0.10000000000E+02 0. -1.
</event>
<event>
 5    1  0.1338396E-008  0.3824289E+03  0.7957747E-01  0.3440650E+00
         13   -1    0    0    0    0  0.00000000000E+00  0.00000000000E+00  0.14999999963E+04  0.15000000000E+04  0.10566000000E+00 0.  1.
        994   -1    0    0    0    0 -0.00000000000E+00 -0.00000000000E+00  0.11368683772E-12  0.17120000000E+03  0.17120000000E+03 0.  0.
         13    1    1    2    0    0  0.24457218617E+02  0.14605053594E+02  0.14077313122E+03  0.14362642086E+03  0.10566000000E+00 0.  1.
        994    1    1    2    0    0 -0.14548694197E+02 -0.43045232966E+01  0.36757975703E+01  0.17191028158E+03  0.17120000000E+03 0.  0.
        998    1    1    2    0    0 -0.99085244203E+01 -0.10300530297E+02  0.13555510675E+04  0.13556632976E+04  0.10000000000E+02 0.  1.
</event>
<event>
 5    1  0.1338396E-008  0.3841459E+03  0.7957747E-01  0.3433303E+00
         13   -1    0    0    0    0  0.00000000000E+00  0.00000000000E+00  0.14999999963E+04  0.15000000000E+04  0.10566000000E+00 0.  1.
        994   -1    0    0    0    0 -0.00000000000E+00 -0.00000000000E+00  0.11368683772E-12  0.17120000000E+03  0.17120000000E+03 0.  0.
         13    1    1    2    0    0 -0.52805454879E+01 -0.12985566473E+02  0.47125460779E+02  0.49166343315E+02  0.10566000000E+00 0.  1.
        994    1    1    2    0    0  0.22715003276E+02  0.24014947563E+01  0.37772500146E+01  0.17275834616E+03  0.17120000000E+03 0.  0.
        998    1    1    2    0    0 -0.17434457788E+02  0.10584071717E+02  0.14490972855E+04  0.14492753105E+04  0.10000000000E+02 0.  1.
</event>
<event>
 5    1  0.1338396E-008  0.3763704E+03  0.7957747E-01  0.3467117E+00
         13   -1    0    0    0    0  0.00000000000E+00  0.00000000000E+00  0.14999999963E+04  0.15000000000E+04  0.10566000000E+00 0.  1.
        994   -1    0    0    0    0 -0.00000000000E+00 -0.00000000000E+00  0.11368683772E-12  0.17120000000E+03  0.17120000000E+03 0.  0.
         13    1    1    2    0    0  0.11076835181E+01  0.24597875316E+02  0.14411085693E+02  0.28530211841E+02  0.10566000000E+00 0.  1.
        994    1    1    2    0    0  0.31316500332E+02 -0.34439122195E+02  0.22136573054E+02  0.17879106297E+03  0.17120000000E+03 0.  0.
        998    1    1    2    0    0 -0.32424183850E+02  0.98412468790E+01  0.14634523375E+04  0.14638787252E+04  0.10000000000E+02 0.  1.
</event>
<event>
 5    1  0.1338396E-008  0.3850710E+03  0.7957747E-01  0.3429371E+00
         13   -1    0    0    0    0  0.00000000000E+00  0.00000000000E+00  0.14999999963E+04  0.15000000000E+04  0.10566000000E+00 0. -1.
        994   -1    0    0    0    0 -0.00000000000E+00 -0.00000000000E+00  0.11368683772E-12  0.17120000000E+03  0.17120000000E+03 0.  0.
         13    1    1    2    0    0 -0.12122692573E+02  0.28065312547E+01  0.50011092858E+02  0.51535976423E+02  0.10566000000E+00 0. -1.
        994    1    1    2    0    0  0.22620166093E+01 -0.34102755546E+01  0.16499444296E+01  0.17125685100E+03  0.17120000000E+03 0.  0.
        998    1    1    2    0    0  0.98606759639E+01  0.60374429983E+00  0.14483389590E+04  0.14484071726E+04  0.10000000000E+02 0. -1.
</event>
<event>
 5    1  0.1420838E-008  0.3859200E+03  0.7957747E-01  0.3425780E+00
         13   -1    0    0    0    0  0.00000000000E+00  0.00000000000E+00  0.14999999963E+04  0.15000000000E+04  0.10566000000E+00 0.  1.
        994   -1    0    0    0    0 -0.00000000000E+00 -0.00000000000E+00  0.11368683772E-12  0.17120000000E+03  0.17120000000E+03 0.  0.
         13    1    1    2    0    0  0.20503424918E+01  0.13384061870E+02  0.73502203176E+02  0.74739026300E+02  0.10566000000E+00 0.  1.
        994    1    1    2    0    0  0.64596173180E+00 -0.18322375313E+02  0.22769745545E+01  0.17219393519E+03  0.17120000000E+03 0.  0.
        998    1    1    2    0    0 -0.26963042236E+01  0.49383134433E+01  0.14242208185E+04  0.14242670385E+04  0.10000000000E+02 0.  1.
</event>
<event>
 5    1  0.1338396E-008  0.3846018E+03  0.7957747E-01  0.3431363E+00
         13   -1    0    0    0    0  0.00000000000E+00  0.00000000000E+00  0.14999999963E+04  0.15000000000E+04  0.10566000000E+00 0. -1.
        994   -1    0    0    0    0 -0.00000000000E+00 -0.00000000000E+00  0.11368683772E-12  0.17120000000E+03  0.17120000000E+03 0.  0.
         13    1    1    2    0    0 -0.14502302455E+02  0.56470665776E+01  0.67062464567E+02  0.68844690829E+02  0.10566000000E+00 0. -1.
        994    1    1    2    0    0  0.77375967693E+01 -0.14930229837E+01  0.20325057619E+01  0.17139332134E+03  0.17120000000E+03 0.  0.
        998    1    1    2    0    0  0.67647056860E+01 -0.41540435939E+01  0.14309050259E+04  0.14309619878E+04  0.10000000000E+02 0. -1.
</event>
<event>
 5    1  0.1338396E-008  0.3840489E+03  0.7957747E-01  0.3433716E+00
         13   -1    0    0    0    0  0.00000000000E+00  0.00000000000E+00  0.14999999963E+04  0.15000000000E+04  0.10566000000E+00 0.  1.
        994   -1    0    0    0    0 -0.00000000000E+00 -0.00000000000E+00  0.11368683772E-12  0.17120000000E+03  0.17120000000E+03 0.  0.
         13    1    1    2    0    0 -0.16803798000E+02  0.12984545013E+01  0.76974161356E+02  0.78797755627E+02  0.10566000000E+00 0.  1.
        994    1    1    2    0    0 -0.11388021971E+02 -0.61811725745E+01  0.26571317854E+01  0.17171020438E+03  0.17120000000E+03 0.  0.
        998    1    1    2    0    0  0.28191819971E+02  0.48827180732E+01  0.14203687031E+04  0.14206920400E+04  0.10000000000E+02 0.  1.
</event>
<event>
 5    1  0.1338396E-008  0.3817187E+03  0.7957747E-01  0.3443709E+00
         13   -1    0    0    0    0  0.00000000000E+00  0.00000000000E+00  0.14999999963E+04  0.15000000000E+04  0.10566000000E+00 0.  1.
        994   -1    0    0    0    0 -0.00000000000E+00 -0.00000000000E+00  0.11368683772E-12  0.17120000000E+03  0.17120000000E+03 0.  0.
         13    1    1    2    0    0 -0.31517900838E+01  0.24575200745E+02  0.87773337482E+02  0.91203312490E+02  0.10566000000E+00 0.  1.
        994    1    1    2    0    0  0.16582639495E+02 -0.24156040547E+02  0.61269665667E+01  0.17379723228E+03  0.17120000000E+03 0.  0.
        998    1    1    2    0    0 -0.13430849411E+02 -0.41916019708E+00  0.14060996922E+04  0.14061994552E+04  0.10000000000E+02 0.  1.
</event>
<event>
 5    1  0.1338396E-008  0.3840835E+03  0.7957747E-01  0.3433569E+00
         13   -1    0    0    0    0  0.00000000000E+00  0.00000000000E+00  0.14999999963E+04  0.15000000000E+04  0.10566000000E+00 0.  1.
        994   -1    0    0    0    0 -0.00000000000E+00 -0.00000000000E+00  0.11368683772E-12  0.17120000000E+03  0.17120000000E+03 0.  0.
         13    1    1    2    0    0  0.17495124744E+02  0.13348782494E+02  0.11226117702E+03  0.11439778151E+03  0.10566000000E+00 0.  1.
        994    1    1    2    0    0 -0.97422405272E+01 -0.16579514424E+02  0.33065351819E+01  0.17230834200E+03  0.17120000000E+03 0.  0.
        998    1    1    2    0    0 -0.77528842166E+01  0.32307319298E+01  0.13844322841E+04  0.13844938765E+04  0.10000000000E+02 0.  1.
</event>
<event>
 5    1  0.1338396E-008  0.3842437E+03  0.7957747E-01  0.3432886E+00
         13   -1    0    0    0    0  0.00000000000E+00  0.00000000000E+00  0.14999999963E+04  0.15000000000E+04  0.10566000000E+00 0.  1.
        994   -1    0    0    0    0 -0.00000000000E+00 -0.00000000000E+00  0.11368683772E-12  0.17120000000E+03  0.17120000000E+03 0.  0.
         13    1    1    2    0    0  0.87777287929E+00  0.10477371447E+02  0.26699378371E+02  0.28695187177E+02  0.10566000000E+00 0.  1.
        994    1    1    2    0    0 -0.25633321608E+01 -0.10073486917E+02  0.23623498812E+01  0.17153153211E+03  0.17120000000E+03 0.  0.
        998    1    1    2    0    0  0.16855592815E+01 -0.40388453073E+00  0.14709382680E+04  0.14709732807E+04  0.10000000000E+02 0.  1.
</event>
<event>
 5    1  0.1338396E-008  0.3824297E+03  0.7957747E-01  0.3440647E+00
         13   -1    0    0    0    0  0.00000000000E+00  0.00000000000E+00  0.14999999963E+04  0.15000000000E+04  0.10566000000E+00 0. -1.
        994   -1    0    0    0    0 -0.00000000000E+00 -0.00000000000E+00  0.11368683772E-12  0.17120000000E+03  0.17120000000E+03 0.  0.
         13    1    1    2    0    0  0.10478128146E+02  0.52394094131E+01  0.22840172204E+02  0.25669577534E+02  0.10566000000E+00 0. -1.
        994    1    1    2    0    0 -0.95041982475E+01  0.12576019454E+02  0.37361336157E+01  0.17196477763E+03  0.17120000000E+03 0.  0.
        998    1    1    2    0    0 -0.97392989888E+00 -0.17815428867E+02  0.14734236905E+04  0.14735656448E+04  0.10000000000E+02 0. -1.
</event>
<event>
 5    1  0.1338396E-008  0.3819303E+03  0.7957747E-01  0.3442797E+00
         13   -1    0    0    0    0  0.00000000000E+00  0.00000000000E+00  0.14999999963E+04  0.15000000000E+04  0.10566000000E+00 0. -1.
        994   -1    0    0    0    0 -0.00000000000E+00 -0.00000000000E+00  0.11368683772E-12  0.17120000000E+03  0.17120000000E+03 0.  0.
         13    1    1    2    0    0 -0.14914210024E+02 -0.19385679984E+02  0.10473317727E+03  0.10755132651E+03  0.10566000000E+00 0. -1.
        994    1    1    2    0    0  0.11411707243E+01 -0.54191396323E+01  0.32638103061E+01  0.17132064033E+03  0.17120000000E+03 0.  0.
        998    1    1    2    0    0  0.13773039300E+02  0.24804819617E+02  0.13920030087E+04  0.13923280332E+04  0.10000000000E+02 0. -1.
</event>
<event>
 5    1  0.1338396E-008  0.3822206E+03  0.7957747E-01  0.3441546E+00
         13   -1    0    0    0    0  0.00000000000E+00  0.00000000000E+00  0.14999999963E+04  0.15000000000E+04  0.10566000000E+00 0. -1.
        994   -1    0    0    0    0 -0.00000000000E+00 -0.00000000000E+00  0.11368683772E-12  0.17120000000E+03  0.17120000000E+03 0.  0.
         13    1    1    2    0    0 -0.20335002625E+02  0.11177428420E+02  0.77995077750E+02  0.81373770683E+02  0.10566000000E+00 0. -1.
        994    1    1    2    0    0  0.27499764290E+02 -0.30371536618E+02  0.86072347154E+01  0.17624469286E+03  0.17120000000E+03 0.  0.
        998    1    1    2    0    0 -0.71647616643E+01  0.19194108198E+02  0.14133976838E+04  0.14135815365E+04  0.10000000000E+02 0. -1.
</event>
<event>
 5    1  0.1338396E-008  0.3814623E+03  0.7957747E-01  0.3444816E+00
         13   -1    0    0    0    0  0.00000000000E+00  0.00000000000E+00  0.14999999963E+04  0.15000000000E+04  0.10566000000E+00 0.  1.
        994   -1    0    0    0    0 -0.00000000000E+00 -0.00000000000E+00  0.11368683772E-12  0.17120000000E+03  0.17120000000E+03 0.  0.
         13    1    1    2    0    0  0.32351307950E+02  0.33868658127E+01  0.18397797479E+03  0.18683143301E+03  0.10566000000E+00 0.  1.
        994    1    1    2    0    0  0.28790396991E+01 -0.10481225925E+01  0.34280525244E+01  0.17126172653E+03  0.17120000000E+03 0.  0.
        998    1    1    2    0    0 -0.35230347649E+02 -0.23387432202E+01  0.13125939690E+04  0.13131068405E+04  0.10000000000E+02 0.  1.
</event>
<event>
 5    1  0.1338396E-008  0.3754983E+03  0.7957747E-01  0.3470997E+00
         13   -1    0    0    0    0  0.00000000000E+00  0.00000000000E+00  0.14999999963E+04  0.15000000000E+04  0.10566000000E+00 0. -1.
        994   -1    0    0    0    0 -0.00000000000E+00 -0.00000000000E+00  0.11368683772E-12  0.17120000000E+03  0.17120000000E+03 0.  0.
         13    1    1    2    0    0  0.30036859595E+02 -0.30184930670E+02  0.13430834861E+03  0.14089743306E+03  0.10566000000E+00 0. -1.
        994    1    1    2    0    0 -0.10062355158E+02  0.35802072204E+02  0.11130832297E+02  0.17554593357E+03  0.17120000000E+03 0.  0.
        998    1    1    2    0    0 -0.19974504437E+02 -0.56171415339E+01  0.13545608154E+04  0.13547566334E+04  0.10000000000E+02 0. -1.
</event>
<event>
 5    1  0.1338396E-008  0.3859996E+03  0.7957747E-01  0.3425444E+00
         13   -1    0    0    0    0  0.00000000000E+00  0.00000000000E+00  0.14999999963E+04  0.15000000000E+04  0.10566000000E+00 0.  1.
        994   -1    0    0    0    0 -0.00000000000E+00 -0.00000000000E+00  0.11368683772E-12  0.17120000000E+03  0.17120000000E+03 0.  0.
         13    1    1    2    0    0  0.59503655611E+01  0.11096014699E+02  0.73031726550E+02  0.74109194028E+02  0.10566000000E+00 0.  1.
        994    1    1    2    0    0 -0.46604975003E+01 -0.23367298303E+01  0.12237580045E+01  0.17128373573E+03  0.17120000000E+03 0.  0.
        998    1    1    2    0    0 -0.12898680608E+01 -0.87592848685E+01  0.14257445117E+04  0.14258070702E+04  0.10000000000E+02 0.  1.
</event>
<event>
 5    1  0.1338396E-008  0.3801852E+03  0.7957747E-01  0.3450353E+00
         13   -1    0    0    0    0  0.00000000000E+00  0.00000000000E+00  0.14999999963E+04  0.15000000000E+04  0.10566000000E+00 0.  1.
        994   -1    0    0    0    0 -0.00000000000E+00 -0.00000000000E+00  0.11368683772E-12  0.17120000000E+03  0.17120000000E+03 0.  0.
         13    1    1    2    0    0 -0.19487137513E+02  0.52032195070E+01  0.47138055078E+02  0.51272111545E+02  0.10566000000E+00 0.  1.
        994    1    1    2    0    0  0.20120213376E+02 -0.13304208382E+02  0.59859235209E+01  0.17299449768E+03  0.17120000000E+03 0.  0.
        998    1    1    2    0    0 -0.63307586302E+00  0.81009888749E+01  0.14468760177E+04  0.14469333908E+04  0.10000000000E+02 0.  1.
</event>
<event>
 5    1  0.1338396E-008  0.3767147E+03  0.7957747E-01  0.3465589E+00
         13   -1    0    0    0    0  0.00000000000E+00  0.00000000000E+00  0.14999999963E+04  0.15000000000E+04  0.10566000000E+00 0.  1.
        994   -1    0    0    0    0 -0.00000000000E+00 -0.00000000000E+00  0.11368683772E-12  0.17120000000E+03  0.17120000000E+03 0.  0.
         13    1    1    2    0    0 -0.13068657655E+03  0.24480613602E+02  0.56532608254E+03  0.58075112785E+03  0.10566000000E+00 0.  1.
        994    1    1    2    0    0  0.18122045892E+03  0.18022710572E+02  0.12763704317E+03  0.28065339409E+03  0.17120000000E+03 0.  0.
        998    1    1    2    0    0 -0.50533882370E+02 -0.42503324175E+02  0.80703687056E+03  0.80979547806E+03  0.10000000000E+02 0. -1.
</event>
<event>
 5    1  0.1338396E-008  0.3749968E+03  0.7957747E-01  0.3473237E+00
         13   -1    0    0    0    0  0.00000000000E+00  0.00000000000E+00  0.14999999963E+04  0.15000000000E+04  0.10566000000E+00 0.  1.
        994   -1    0    0    0    0 -0.00000000000E+00 -0.00000000000E+00  0.11368683772E-12  0.17120000000E+03  0.17120000000E+03 0.  0.
         13    1    1    2    0    0  0.36716084176E+02 -0.25818184830E+02  0.14278924971E+03  0.14967775553E+03  0.10566000000E+00 0.  1.
        994    1    1    2    0    0 -0.49045551480E+02 -0.83286536656E+01  0.15139825827E+02  0.17892313131E+03  0.17120000000E+03 0.  0.
        998    1    1    2    0    0  0.12329467304E+02  0.34146838496E+02  0.13420709207E+04  0.13425991132E+04  0.10000000000E+02 0.  1.
</event>
<event>
 5    1  0.1338396E-008  0.3821879E+03  0.7957747E-01  0.3441687E+00
         13   -1    0    0    0    0  0.00000000000E+00  0.00000000000E+00  0.14999999963E+04  0.15000000000E+04  0.10566000000E+00 0. -1.
        994   -1    0    0    0    0 -0.00000000000E+00 -0.00000000000E+00  0.11368683772E-12  0.17120000000E+03  0.17120000000E+03 0.  0.
         13    1    1    2    0    0  0.18756139479E+02  0.73842468633E+01  0.67036951931E+02  0.70002028243E+02  0.10566000000E+00 0. -1.
        994    1    1    2    0    0 -0.13361748815E+02  0.71262718692E+01  0.37942112493E+01  0.17191031418E+03  0.17120000000E+03 0.  0.
        998    1    1    2    0    0 -0.53943906642E+01 -0.14510518733E+02  0.14291688331E+04  0.14292876576E+04  0.10000000000E+02 0. -1.
</event>
<event>
 5    1  0.1338396E-008  0.3746010E+03  0.7957747E-01  0.3475009E+00
         13   -1    0    0    0    0  0.00000000000E+00  0.00000000000E+00  0.14999999963E+04  0.15000000000E+04  0.10566000000E+00 0. -1.
        994   -1    0    0    0    0 -0.00000000000E+00 -0.00000000000E+00  0.11368683772E-12  0.17120000000E+03  0.17120000000E+03 0.  0.
         13    1    1    2    0    0 -0.10108312195E+02 -0.28606840468E+02  0.28370970394E+02  0.41538565480E+02  0.10566000000E+00 0. -1.
        994    1    1    2    0    0  0.76655765387E+01  0.29297194117E+02  0.16658175126E+02  0.17465400495E+03  0.17120000000E+03 0.  0.
        998    1    1    2    0    0  0.24427356566E+01 -0.69035364937E+00  0.14549708508E+04  0.14550074296E+04  0.10000000000E+02 0. -1.
</event>
<event>
 5    1  0.1338396E-008  0.3856993E+03  0.7957747E-01  0.3426712E+00
         13   -1    0    0    0    0  0.00000000000E+00  0.00000000000E+00  0.14999999963E+04  0.15000000000E+04  0.10566000000E+00 0. -1.
        994   -1    0    0    0    0 -0.00000000000E+00 -0.00000000000E+00  0.11368683772E-12  0.17120000000E+03  0.17120000000E+03 0.  0.
         13    1    1    2    0    0  0.11432274132E+02 -0.43155709653E+01  0.64522769380E+02  0.65669779785E+02  0.10566000000E+00 0. -1.
        994    1    1    2    0    0  0.84708678505E+01  0.82119964239E+01  0.17401733426E+01  0.17161486151E+03  0.17120000000E+03 0.  0.
        998    1    1    2    0    0 -0.19903141983E+02 -0.38964254585E+01  0.14337370536E+04  0.14339153587E+04  0.10000000000E+02 0. -1.
</event>
<event>
 5    1  0.1338396E-008  0.3861055E+03  0.7957747E-01  0.3424997E+00
         13   -1    0    0    0    0  0.00000000000E+00  0.00000000000E+00  0.14999999963E+04  0.15000000000E+04  0.10566000000E+00 0.  1.
        994   -1    0    0    0    0 -0.00000000000E+00 -0.00000000000E+00  0.11368683772E-12  0.17120000000E+03  0.17120000000E+03 0.  0.
         13    1    1    2    0    0  0.38166758537E+01  0.13063777096E+02  0.74703802357E+02  0.75933513926E+02  0.10566000000E+00 0.  1.
        994    1    1    2    0    0  0.50195834693E+01 -0.30393605240E+02  0.41981100385E+01  0.17400009076E+03  0.17120000000E+03 0.  0.
        998    1    1    2    0    0 -0.88362593229E+01  0.17329828144E+02  0.14210980839E+04  0.14212663953E+04  0.10000000000E+02 0.  1.
</event>
<event>
 5    1  0.1338396E-008  0.3822415E+03  0.7957747E-01  0.3441456E+00
         13   -1    0    0    0    0  0.00000000000E+00  0.00000000000E+00  0.14999999963E+04  0.15000000000E+04  0.10566000000E+00 0. -1.
        994   -1    0    0    0    0 -0.00000000000E+00 -0.00000000000E+00  0.11368683772E-12  0.17120000000E+03  0.17120000000E+03 0.  0.
         13    1    1    2    0    0  0.66118165922E+01  0.94531241217E+01  0.20458780002E+02  0.23487241590E+02  0.10566000000E+00 0. -1.
        994    1    1    2    0    0 -0.14684420689E+02 -0.96318554844E+01  0.40299729303E+01  0.17214553591E+03  0.17120000000E+03 0.  0.
        998    1    1    2    0    0  0.80726040972E+01  0.17873136268E+00  0.14755112433E+04  0.14755672225E+04  0.10000000000E+02 0. -1.
</event>
<event>
 5    1  0.1338396E-008  0.3792258E+03  0.7957747E-01  0.3454536E+00
         13   -1    0    0    0    0  0.00000000000E+00  0.00000000000E+00  0.14999999963E+04  0.15000000000E+04  0.10566000000E+00 0. -1.
        994   -1    0    0    0    0 -0.00000000000E+00 -0.00000000000E+00  0.11368683772E-12  0.17120000000E+03  0.17120000000E+03 0.  0.
         13    1    1    2    0    0 -0.31526949652E+02 -0.13771259187E+02  0.12123704930E+03  0.12602392400E+03  0.10566000000E+00 0. -1.
        994    1    1    2    0    0  0.28572751969E+02  0.15429171996E+02  0.80665516725E+01  0.17443901731E+03  0.17120000000E+03 0.  0.
        998    1    1    2    0    0  0.29541976832E+01 -0.16579128090E+01  0.13706963953E+04  0.13707370587E+04  0.10000000000E+02 0.  0.
</event>
<event>
 5    1  0.1338396E-008  0.3703946E+03  0.7957747E-01  0.3494079E+00
         13   -1    0    0    0    0  0.00000000000E+00  0.00000000000E+00  0.14999999963E+04  0.15000000000E+04  0.10566000000E+00 0.  1.
        994   -1    0    0    0    0 -0.00000000000E+00 -0.00000000000E+00  0.11368683772E-12  0.17120000000E+03  0.17120000000E+03 0.  0.
         13    1    1    2    0    0 -0.33206708587E+02  0.15636278407E+02  0.53385647305E+02  0.64785933657E+02  0.10566000000E+00 0.  1.
        994    1    1    2    0    0  0.38459923066E+02 -0.19087718589E+02  0.17629306346E+02  0.17738021064E+03  0.17120000000E+03 0.  0.
        998    1    1    2    0    0 -0.52532144794E+01  0.34514401815E+01  0.14289850426E+04  0.14290338557E+04  0.10000000000E+02 0.  1.
</event>
<event>
 5    1  0.1338396E-008  0.3695601E+03  0.7957747E-01  0.3497915E+00
         13   -1    0    0    0    0  0.00000000000E+00  0.00000000000E+00  0.14999999963E+04  0.15000000000E+04  0.10566000000E+00 0.  1.
        994   -1    0    0    0    0 -0.00000000000E+00 -0.00000000000E+00  0.11368683772E-12  0.17120000000E+03  0.17120000000E+03 0.  0.
         13    1    1    2    0    0  0.70361102272E+02  0.53983361044E+01  0.32069483584E+03  0.32836719635E+03  0.10566000000E+00 0.  1.
        994    1    1    2    0    0 -0.13576030290E+02  0.28677912400E+02  0.12993354419E+02  0.17459953756E+03  0.17120000000E+03 0.  0.
        998    1    1    2    0    0 -0.56785071983E+02 -0.34076248504E+02  0.11663118060E+04  0.11682332661E+04  0.10000000000E+02 0.  1.
</event>
<event>
 5    1  0.1338396E-008  0.4238063E+03  0.7957747E-01  0.3280107E+00
         13   -1    0    0    0    0  0.00000000000E+00  0.00000000000E+00  0.14999999963E+04  0.15000000000E+04  0.10566000000E+00 0.  1.
        994   -1    0    0    0    0 -0.00000000000E+00 -0.00000000000E+00  0.11368683772E-12  0.17120000000E+03  0.17120000000E+03 0.  0.
         13    1    1    2    0    0 -0.72192805182E+02  0.96683374926E+02  0.26751062241E+03  0.29346451297E+03  0.10566000000E+00 0.  1.
        994    1    1    2    0    0 -0.13849709891E+02  0.57001634584E+02  0.57952202210E+02  0.19002341579E+03  0.17120000000E+03 0.  0.
        998    1    1    2    0    0  0.86042515072E+02 -0.15368500951E+03  0.11745371717E+04  0.11877120712E+04  0.10000000000E+02 0.  1.
</event>
<event>
 5    1  0.1338396E-008  0.3835217E+03  0.7957747E-01  0.3435966E+00
         13   -1    0    0    0    0  0.00000000000E+00  0.00000000000E+00  0.14999999963E+04  0.15000000000E+04  0.10566000000E+00 0. -1.
        994   -1    0    0    0    0 -0.00000000000E+00 -0.00000000000E+00  0.11368683772E-12  0.17120000000E+03  0.17120000000E+03 0.  0.
         13    1    1    2    0    0 -0.22163656486E+01  0.10003889161E+02  0.21229399341E+02  0.23573048921E+02  0.10566000000E+00 0. -1.
        994    1    1    2    0    0 -0.52822923745E+01 -0.10554102021E+02  0.28262725738E+01  0.17162959972E+03  0.17120000000E+03 0.  0.
        998    1    1    2    0    0  0.74986580231E+01  0.55021286028E+00  0.14759443244E+04  0.14759973514E+04  0.10000000000E+02 0. -1.
</event>
<event>
 5    1  0.1338396E-008  0.3723130E+03  0.7957747E-01  0.3485328E+00
         13   -1    0    0    0    0  0.00000000000E+00  0.00000000000E+00  0.14999999963E+04  0.15000000000E+04  0.10566000000E+00 0.  1.
        994   -1    0    0    0    0 -0.00000000000E+00 -0.00000000000E+00  0.11368683772E-12  0.17120000000E+03  0.17120000000E+03 0.  0.
         13    1    1    2    0    0  0.98830517306E+01 -0.53344729179E+02  0.26382504071E+03  0.26934549952E+03  0.10566000000E+00 0.  1.
        994    1    1    2    0    0  0.31235379718E+02 -0.18096126492E+02  0.12548318904E+02  0.17541385079E+03  0.17120000000E+03 0.  0.
        998    1    1    2    0    0 -0.41118431448E+02  0.71440855671E+02  0.12236266367E+04  0.12264406497E+04  0.10000000000E+02 0.  1.
</event>
<event>
 5    1  0.1338396E-008  0.3846199E+03  0.7957747E-01  0.3431286E+00
         13   -1    0    0    0    0  0.00000000000E+00  0.00000000000E+00  0.14999999963E+04  0.15000000000E+04  0.10566000000E+00 0. -1.
        994   -1    0    0    0    0 -0.00000000000E+00 -0.00000000000E+00  0.11368683772E-12  0.17120000000E+03  0.17120000000E+03 0.  0.
         13    1    1    2    0    0 -0.31365287049E+01  0.12570021003E+02  0.44762518952E+02  0.46599758662E+02  0.10566000000E+00 0. -1.
        994    1    1    2    0    0  0.15229484863E+02 -0.10343429766E+02  0.29357431580E+01  0.17221202727E+03  0.17120000000E+03 0.  0.
        998    1    1    2    0    0 -0.12092956158E+02 -0.22265912369E+01  0.14523017342E+04  0.14523882141E+04  0.10000000000E+02 0. -1.
</event>
<event>
 5    1  0.1338396E-008  0.3783954E+03  0.7957747E-01  0.3458175E+00
         13   -1    0    0    0    0  0.00000000000E+00  0.00000000000E+00  0.14999999963E+04  0.15000000000E+04  0.10566000000E+00 0.  1.
        994   -1    0    0    0    0 -0.00000000000E+00 -0.00000000000E+00  0.11368683772E-12  0.17120000000E+03  0.17120000000E+03 0.  0.
         13    1    1    2    0    0 -0.34706066772E+02 -0.36476640959E+01  0.13115839376E+03  0.13572159718E+03  0.10566000000E+00 0.  1.
        994    1    1    2    0    0  0.69649560096E+01 -0.13987083099E+01  0.51149744045E+01  0.17142365636E+03  0.17120000000E+03 0.  0.
        998    1    1    2    0    0  0.27741110763E+02  0.50463724058E+01  0.13637266281E+04  0.13640547465E+04  0.10000000000E+02 0.  1.
</event>
<event>
 5    1  0.1338396E-008  0.3822553E+03  0.7957747E-01  0.3441397E+00
         13   -1    0    0    0    0  0.00000000000E+00  0.00000000000E+00  0.14999999963E+04  0.15000000000E+04  0.10566000000E+00 0. -1.
        994   -1    0    0    0    0 -0.00000000000E+00 -0.00000000000E+00  0.11368683772E-12  0.17120000000E+03  0.17120000000E+03 0.  0.
         13    1    1    2    0    0 -0.42907979021E+00  0.11433002422E+02  0.20746433329E+02  0.23692262741E+02  0.10566000000E+00 0. -1.
        994    1    1    2    0    0  0.71586947729E+01 -0.63406286942E+01  0.33025072282E+01  0.17149867940E+03  0.17120000000E+03 0.  0.
        998    1    1    2    0    0 -0.67296149827E+01 -0.50923737283E+01  0.14759510557E+04  0.14760090579E+04  0.10000000000E+02 0. -1.
</event>
<event>
 5    1  0.1338396E-008  0.3737909E+03  0.7957747E-01  0.3478648E+00
         13   -1    0    0    0    0  0.00000000000E+00  0.00000000000E+00  0.14999999963E+04  0.15000000000E+04  0.10566000000E+00 0. -1.
        994   -1    0    0    0    0 -0.00000000000E+00 -0.00000000000E+00  0.11368683772E-12  0.17120000000E+03  0.17120000000E+03 0.  0.
         13    1    1    2    0    0 -0.14292396521E+02  0.89960398776E+01  0.16167428451E+02  0.23379440510E+02  0.10566000000E+00 0. -1.
        994    1    1    2    0    0  0.16274502324E+02 -0.59424917690E+01  0.83261450154E+01  0.17227575954E+03  0.17120000000E+03 0.  0.
        998    1    1    2    0    0 -0.19821058026E+01 -0.30535481086E+01  0.14755064228E+04  0.14755448000E+04  0.10000000000E+02 0. -1.
</event>
<event>
 5    1  0.1338396E-008  0.3750126E+03  0.7957747E-01  0.3473167E+00
         13   -1    0    0    0    0  0.00000000000E+00  0.00000000000E+00  0.14999999963E+04  0.15000000000E+04  0.10566000000E+00 0.  1.
        994   -1    0    0    0    0 -0.00000000000E+00 -0.00000000000E+00  0.11368683772E-12  0.17120000000E+03  0.17120000000E+03 0.  0.
         13    1    1    2    0    0  0.14409366349E+02  0.12341919917E+02  0.23721812345E+02  0.30375785928E+02  0.10566000000E+00 0.  1.
        994    1    1    2    0    0 -0.14961537184E+02 -0.14050187350E+02  0.81054419194E+01  0.17261631889E+03  0.17120000000E+03 0.  0.
        998    1    1    2    0    0  0.55217083499E+00  0.17082674339E+01  0.14681727420E+04  0.14682078952E+04  0.10000000000E+02 0.  1.
</event>
<event>
 5    1  0.1338396E-008  0.2640894E+03  0.7957747E-01  0.4191235E+00
         13   -1    0    0    0    0  0.00000000000E+00  0.00000000000E+00  0.14999999963E+04  0.15000000000E+04  0.10566000000E+00 0. -1.
        994   -1    0    0    0    0 -0.00000000000E+00 -0.00000000000E+00  0.11368683772E-12  0.17120000000E+03  0.17120000000E+03 0.  0.
         13    1    1    2    0    0  0.12017933558E+03 -0.13570777036E+03  0.50425449381E+03  0.53584725186E+03  0.10566000000E+00 0. -1.
        994    1    1    2    0    0 -0.26411791708E+02  0.11356486389E+03  0.92364152543E+02  0.22679316067E+03  0.17120000000E+03 0.  0.
        998    1    1    2    0    0 -0.93767543871E+02  0.22142906473E+02  0.90338134993E+03  0.90855958747E+03  0.10000000000E+02 0. -1.
</event>
<event>
 5    1  0.1338396E-008  0.2868534E+03  0.7957747E-01  0.3994587E+00
         13   -1    0    0    0    0  0.00000000000E+00  0.00000000000E+00  0.14999999963E+04  0.15000000000E+04  0.10566000000E+00 0. -1.
        994   -1    0    0    0    0 -0.00000000000E+00 -0.00000000000E+00  0.11368683772E-12  0.17120000000E+03  0.17120000000E+03 0.  0.
         13    1    1    2    0    0  0.11627033865E+03 -0.67130086068E+02  0.70605561958E+03  0.71870702599E+03  0.10566000000E+00 0. -1.
        994    1    1    2    0    0 -0.57951284960E+02  0.13702043193E+02  0.29192176073E+02  0.18359662459E+03  0.17120000000E+03 0.  0.
        998    1    1    2    0    0 -0.58319053695E+02  0.53428042874E+02  0.76475220063E+03  0.76889634942E+03  0.10000000000E+02 0. -1.
</event>
<event>
 5    1  0.1338396E-008  0.3835991E+03  0.7957747E-01  0.3435635E+00
         13   -1    0    0    0    0  0.00000000000E+00  0.00000000000E+00  0.14999999963E+04  0.15000000000E+04  0.10566000000E+00 0. -1.
        994   -1    0    0    0    0 -0.00000000000E+00 -0.00000000000E+00  0.11368683772E-12  0.17120000000E+03  0.17120000000E+03 0.  0.
         13    1    1    2    0    0  0.11937556860E+02 -0.13114135230E+02  0.72100066506E+02  0.74249017238E+02  0.10566000000E+00 0. -1.
        994    1    1    2    0    0  0.48966820877E+01  0.26384481566E+01  0.24294713249E+01  0.17130756327E+03  0.17120000000E+03 0.  0.
        998    1    1    2    0    0 -0.16834238947E+02  0.10475687073E+02  0.14254704584E+04  0.14256434195E+04  0.10000000000E+02 0. -1.
</event>
<event>
 5    1  0.1338396E-008  0.3821964E+03  0.7957747E-01  0.3441650E+00
         13   -1    0    0    0    0  0.00000000000E+00  0.00000000000E+00  0.14999999963E+04  0.15000000000E+04  0.10566000000E+00 0.  1.
        994   -1    0    0    0    0 -0.00000000000E+00 -0.00000000000E+00  0.11368683772E-12  0.17120000000E+03  0.17120000000E+03 0.  0.
         13    1    1    2    0    0  0.44952570468E+01 -0.19425422619E+02  0.66812221713E+02  0.69724016767E+02  0.10566000000E+00 0.  1.
        994    1    1    2    0    0 -0.66533986703E+01  0.46944086096E+01  0.32485832381E+01  0.17142432289E+03  0.17120000000E+03 0.  0.
        998    1    1    2    0    0  0.21581416235E+01  0.14731014009E+02  0.14299391913E+04  0.14300516603E+04  0.10000000000E+02 0.  1.
</event>
<event>
 5    1  0.1338396E-008  0.3717852E+03  0.7957747E-01  0.3487726E+00
         13   -1    0    0    0    0  0.00000000000E+00  0.00000000000E+00  0.14999999963E+04  0.15000000000E+04  0.10566000000E+00 0. -1.
        994   -1    0    0    0    0 -0.00000000000E+00 -0.00000000000E+00  0.11368683772E-12  0.17120000000E+03  0.17120000000E+03 0.  0.
         13    1    1    2    0    0 -0.41320448562E+02  0.94760806541E+01  0.10558089344E+03  0.11377395043E+03  0.10566000000E+00 0. -1.
        994    1    1    2    0    0  0.26358528773E+02  0.55695978207E+01  0.10837141446E+02  0.17364525935E+03  0.17120000000E+03 0.  0.
        998    1    1    2    0    0  0.14961919789E+02 -0.15045678475E+02  0.13835819614E+04  0.13837807902E+04  0.10000000000E+02 0. -1.
</event>
<event>
 5    1  0.1338396E-008  0.3838713E+03  0.7957747E-01  0.3434473E+00
         13   -1    0    0    0    0  0.00000000000E+00  0.00000000000E+00  0.14999999963E+04  0.15000000000E+04  0.10566000000E+00 0.  1.
        994   -1    0    0    0    0 -0.00000000000E+00 -0.00000000000E+00  0.11368683772E-12  0.17120000000E+03  0.17120000000E+03 0.  0.
         13    1    1    2    0    0  0.88602123061E+01  0.15756629444E+02  0.70907731654E+02  0.73175763104E+02  0.10566000000E+00 0.  1.
        994    1    1    2    0    0 -0.14166130010E+02 -0.14214637516E+02  0.35219859875E+01  0.17240817714E+03  0.17120000000E+03 0.  0.
        998    1    1    2    0    0  0.53059177043E+01 -0.15419919279E+01  0.14255702786E+04  0.14256160598E+04  0.10000000000E+02 0.  1.
</event>
<event>
 5    1  0.1338396E-008  0.3764993E+03  0.7957747E-01  0.3466544E+00
         13   -1    0    0    0    0  0.00000000000E+00  0.00000000000E+00  0.14999999963E+04  0.15000000000E+04  0.10566000000E+00 0.  1.
        994   -1    0    0    0    0 -0.00000000000E+00 -0.00000000000E+00  0.11368683772E-12  0.17120000000E+03  0.17120000000E+03 0.  0.
         13    1    1    2    0    0  0.70174753696E+02  0.12947575729E+03  0.80037361484E+03  0.81380980719E+03  0.10566000000E+00 0.  1.
        994    1    1    2    0    0 -0.65894438626E+02 -0.12978820933E+03  0.81301433687E+02  0.23896949479E+03  0.17120000000E+03 0.  0.
        998    1    1    2    0    0 -0.42803150696E+01  0.31245203556E+00  0.61832494776E+03  0.61842069802E+03  0.10000000000E+02 0.  0.
</event>
<event>
 5    1  0.1338396E-008  0.3828310E+03  0.7957747E-01  0.3438923E+00
         13   -1    0    0    0    0  0.00000000000E+00  0.00000000000E+00  0.14999999963E+04  0.15000000000E+04  0.10566000000E+00 0.  1.
        994   -1    0    0    0    0 -0.00000000000E+00 -0.00000000000E+00  0.11368683772E-12  0.17120000000E+03  0.17120000000E+03 0.  0.
         13    1    1    2    0    0 -0.23606725474E+02  0.14164633479E+02  0.13017131361E+03  0.13305072859E+03  0.10566000000E+00 0.  1.
        994    1    1    2    0    0  0.20870411022E+02 -0.15545727556E+02  0.49570571356E+01  0.17323757132E+03  0.17120000000E+03 0.  0.
        998    1    1    2    0    0  0.27363144511E+01  0.13810940775E+01  0.13648716255E+04  0.13649117001E+04  0.10000000000E+02 0.  1.
</event>
<event>
 5    1  0.1987109E-008  0.3862067E+03  0.7957747E-01  0.3424571E+00
         13   -1    0    0    0    0  0.00000000000E+00  0.00000000000E+00  0.14999999963E+04  0.15000000000E+04  0.10566000000E+00 0. -1.
        994   -1    0    0    0    0 -0.00000000000E+00 -0.00000000000E+00  0.11368683772E-12  0.17120000000E+03  0.17120000000E+03 0.  0.
         13    1    1    2    0    0 -0.59397151110E+01  0.82778221866E+01  0.50297848127E+02  0.51319462643E+02  0.10566000000E+00 0. -1.
        994    1    1    2    0    0  0.10264478393E+02 -0.38329722653E+01  0.14255935314E+01  0.17155618179E+03  0.17120000000E+03 0.  0.
        998    1    1    2    0    0 -0.43247632816E+01 -0.44448499213E+01  0.14482765546E+04  0.14483243556E+04  0.10000000000E+02 0. -1.
</event>
<event>
 5    1  0.1338396E-008  0.3845854E+03  0.7957747E-01  0.3431433E+00
         13   -1    0    0    0    0  0.00000000000E+00  0.00000000000E+00  0.14999999963E+04  0.15000000000E+04  0.10566000000E+00 0.  1.
        994   -1    0    0    0    0 -0.00000000000E+00 -0.00000000000E+00  0.11368683772E-12  0.17120000000E+03  0.17120000000E+03 0.  0.
         13    1    1    2    0    0 -0.13340643398E+02 -0.65385584578E+01  0.58375753366E+02  0.60236743422E+02  0.10566000000E+00 0.  1.
        994    1    1    2    0    0  0.11925411135E+02  0.82914375947E+01  0.25311634327E+01  0.17183367003E+03  0.17120000000E+03 0.  0.
        998    1    1    2    0    0  0.14152322632E+01 -0.17528791368E+01  0.14390930795E+04  0.14391295865E+04  0.10000000000E+02 0.  1.
</event>
<event>
 5    1  0.1338396E-008  0.3803589E+03  0.7957747E-01  0.3449597E+00
         13   -1    0    0    0    0  0.00000000000E+00  0.00000000000E+00  0.14999999963E+04  0.15000000000E+04  0.10566000000E+00 0.  1.
        994   -1    0    0    0    0 -0.00000000000E+00 -0.00000000000E+00  0.11368683772E-12  0.17120000000E+03  0.17120000000E+03 0.  0.
         13    1    1    2    0    0 -0.17260643755E+02 -0.16094522046E+02  0.75177355429E+02  0.78794729494E+02  0.10566000000E+00 0.  1.
        994    1    1    2    0    0 -0.11403713191E+02  0.72807123028E+01  0.45635492078E+01  0.17179441035E+03  0.17120000000E+03 0.  0.
        998    1    1    2    0    0  0.28664356945E+02  0.88138097433E+01  0.14202590916E+04  0.14206108602E+04  0.10000000000E+02 0.  1.
</event>
<event>
 5    1  0.1338396E-008  0.3780169E+03  0.7957747E-01  0.3459839E+00
         13   -1    0    0    0    0  0.00000000000E+00  0.00000000000E+00  0.14999999963E+04  0.15000000000E+04  0.10566000000E+00 0.  1.
        994   -1    0    0    0    0 -0.00000000000E+00 -0.00000000000E+00  0.11368683772E-12  0.17120000000E+03  0.17120000000E+03 0.  0.
         13    1    1    2    0    0 -0.11665020294E+00 -0.14618009587E+03  0.41987850244E+03  0.44459712326E+03  0.10566000000E+00 0.  1.
        994    1    1    2    0    0  0.25999414283E+02  0.16187979312E+03  0.11951954228E+03  0.26547202856E+03  0.17120000000E+03 0.  0.
        998    1    1    2    0    0 -0.25882764080E+02 -0.15699697250E+02  0.96060195156E+03  0.96113084817E+03  0.10000000000E+02 0.  1.
</event>
<event>
 5    1  0.1338396E-008  0.3815069E+03  0.7957747E-01  0.3444623E+00
         13   -1    0    0    0    0  0.00000000000E+00  0.00000000000E+00  0.14999999963E+04  0.15000000000E+04  0.10566000000E+00 0. -1.
        994   -1    0    0    0    0 -0.00000000000E+00 -0.00000000000E+00  0.11368683772E-12  0.17120000000E+03  0.17120000000E+03 0.  0.
         13    1    1    2    0    0  0.10345184328E+01 -0.20280274554E+02  0.58440223160E+02  0.61867847961E+02  0.10566000000E+00 0. -1.
        994    1    1    2    0    0  0.33771366472E+01  0.19114491517E+02  0.46286873074E+01  0.17235902525E+03  0.17120000000E+03 0.  0.
        998    1    1    2    0    0 -0.44116550799E+01  0.11657830369E+01  0.14369310858E+04  0.14369731268E+04  0.10000000000E+02 0. -1.
</event>
<event>
 5    1  0.1338396E-008  0.3825187E+03  0.7957747E-01  0.3440264E+00
         13   -1    0    0    0    0  0.00000000000E+00  0.00000000000E+00  0.14999999963E+04  0.15000000000E+04  0.10566000000E+00 0.  1.
        994   -1    0    0    0    0 -0.00000000000E+00 -0.00000000000E+00  0.11368683772E-12  0.17120000000E+03  0.17120000000E+03 0.  0.
         13    1    1    2    0    0 -0.23530130659E+01  0.10602615954E+02  0.19414970123E+02  0.22246446109E+02  0.10566000000E+00 0.  1.
        994    1    1    2    0    0  0.25000448363E+01 -0.80906532019E+01  0.31048764320E+01  0.17143742051E+03  0.17120000000E+03 0.  0.
        998    1    1    2    0    0 -0.14703177048E+00 -0.25119627519E+01  0.14774801497E+04  0.14775161334E+04  0.10000000000E+02 0.  1.
</event>
<event>
 5    1  0.1338396E-008  0.3813732E+03  0.7957747E-01  0.3445201E+00
         13   -1    0    0    0    0  0.00000000000E+00  0.00000000000E+00  0.14999999963E+04  0.15000000000E+04  0.10566000000E+00 0. -1.
        994   -1    0    0    0    0 -0.00000000000E+00 -0.00000000000E+00  0.11368683772E-12  0.17120000000E+03  0.17120000000E+03 0.  0.
         13    1    1    2    0    0 -0.72599777377E+01 -0.35418273565E+02  0.16693362727E+03  0.17080400597E+03  0.10566000000E+00 0. -1.
        994    1    1    2    0    0  0.62813320086E+01  0.37861603887E+02  0.83588669177E+01  0.17564813360E+03  0.17120000000E+03 0.  0.
        998    1    1    2    0    0  0.97864572907E+00 -0.24433303223E+01  0.13247075021E+04  0.13247478604E+04  0.10000000000E+02 0. -1.
</event>
<event>
 5    1  0.1338396E-008  0.3840942E+03  0.7957747E-01  0.3433523E+00
         13   -1    0    0    0    0  0.00000000000E+00  0.00000000000E+00  0.14999999963E+04  0.15000000000E+04  0.10566000000E+00 0.  1.
        994   -1    0    0    0    0 -0.00000000000E+00 -0.00000000000E+00  0.11368683772E-12  0.17120000000E+03  0.17120000000E+03 0.  0.
         13    1    1    2    0    0 -0.74314066171E+01  0.98844745941E+01  0.34734293119E+02  0.36870190193E+02  0.10566000000E+00 0.  1.
        994    1    1    2    0    0  0.96912332688E+01 -0.15763309480E+02  0.32106883821E+01  0.17222703170E+03  0.17120000000E+03 0.  0.
        998    1    1    2    0    0 -0.22598266516E+01  0.58788348855E+01  0.14620550148E+04  0.14621027781E+04  0.10000000000E+02 0.  1.
</event>
<event>
 5    1  0.1338396E-008  0.3837877E+03  0.7957747E-01  0.3434830E+00
         13   -1    0    0    0    0  0.00000000000E+00  0.00000000000E+00  0.14999999963E+04  0.15000000000E+04  0.10566000000E+00 0.  1.
        994   -1    0    0    0    0 -0.00000000000E+00 -0.00000000000E+00  0.11368683772E-12  0.17120000000E+03  0.17120000000E+03 0.  0.
         13    1    1    2    0    0  0.89105153502E+01  0.88291980475E+01  0.40832401050E+02  0.42715900570E+02  0.10566000000E+00 0.  1.
        994    1    1    2    0    0  0.42297738813E+02 -0.36321695272E+01  0.82065786552E+01  0.17657598732E+03  0.17120000000E+03 0.  0.
        998    1    1    2    0    0 -0.51208254163E+02 -0.51970285203E+01  0.14509610166E+04  0.14519081121E+04  0.10000000000E+02 0.  1.
</event>
<event>
 5    1  0.1338396E-008  0.3792867E+03  0.7957747E-01  0.3454270E+00
         13   -1    0    0    0    0  0.00000000000E+00  0.00000000000E+00  0.14999999963E+04  0.15000000000E+04  0.10566000000E+00 0. -1.
        994   -1    0    0    0    0 -0.00000000000E+00 -0.00000000000E+00  0.11368683772E-12  0.17120000000E+03  0.17120000000E+03 0.  0.
         13    1    1    2    0    0 -0.15710496131E+02 -0.11686269137E+02  0.35845801393E+02  0.40845088035E+02  0.10566000000E+00 0. -1.
        994    1    1    2    0    0  0.55558063561E+02  0.15712297174E+02  0.15746037731E+02  0.18135862928E+03  0.17120000000E+03 0.  0.
        998    1    1    2    0    0 -0.39847567430E+02 -0.40260280363E+01  0.14484081572E+04  0.14489962827E+04  0.10000000000E+02 0. -1.
</event>
<event>
 5    1  0.1338396E-008  0.3860241E+03  0.7957747E-01  0.3425340E+00
         13   -1    0    0    0    0  0.00000000000E+00  0.00000000000E+00  0.14999999963E+04  0.15000000000E+04  0.10566000000E+00 0. -1.
        994   -1    0    0    0    0 -0.00000000000E+00 -0.00000000000E+00  0.11368683772E-12  0.17120000000E+03  0.17120000000E+03 0.  0.
         13    1    1    2    0    0  0.11161969639E+01 -0.12871460373E+02  0.76723863967E+02  0.77804131342E+02  0.10566000000E+00 0. -1.
        994    1    1    2    0    0  0.77013876545E+01  0.69636632977E+01  0.14759538652E+01  0.17152090957E+03  0.17120000000E+03 0.  0.
        998    1    1    2    0    0 -0.88175846184E+01  0.59077970750E+01  0.14218001784E+04  0.14218749591E+04  0.10000000000E+02 0. -1.
</event>
<event>
 5    1  0.1338396E-008  0.3801323E+03  0.7957747E-01  0.3450583E+00
         13   -1    0    0    0    0  0.00000000000E+00  0.00000000000E+00  0.14999999963E+04  0.15000000000E+04  0.10566000000E+00 0.  1.
        994   -1    0    0    0    0 -0.00000000000E+00 -0.00000000000E+00  0.11368683772E-12  0.17120000000E+03  0.17120000000E+03 0.  0.
         13    1    1    2    0    0 -0.28337264912E+01 -0.44964077873E+02  0.21404976115E+03  0.21873982197E+03  0.10566000000E+00 0.  1.
        994    1    1    2    0    0  0.10193963569E+02  0.45010130841E+02  0.11216143871E+02  0.17766561472E+03  0.17120000000E+03 0.  0.
        998    1    1    2    0    0 -0.73602370782E+01 -0.46052967715E-01  0.12747340913E+04  0.12747945633E+04  0.10000000000E+02 0.  1.
</event>
<event>
 5    1  0.1338396E-008  0.4082604E+03  0.7957747E-01  0.3336640E+00
         13   -1    0    0    0    0  0.00000000000E+00  0.00000000000E+00  0.14999999963E+04  0.15000000000E+04  0.10566000000E+00 0. -1.
        994   -1    0    0    0    0 -0.00000000000E+00 -0.00000000000E+00  0.11368683772E-12  0.17120000000E+03  0.17120000000E+03 0.  0.
         13    1    1    2    0    0  0.47322627817E+01 -0.66820068366E+02  0.55466429097E+02  0.86970407429E+02  0.10566000000E+00 0. -1.
        994    1    1    2    0    0 -0.83927876354E+01  0.65734699965E+02  0.50830406686E+02  0.19048532728E+03  0.17120000000E+03 0.  0.
        998    1    1    2    0    0  0.36605248537E+01  0.10853684019E+01  0.13937031605E+04  0.13937442653E+04  0.10000000000E+02 0. -1.
</event>
<event>
 5    1  0.1338396E-008  0.3788188E+03  0.7957747E-01  0.3456318E+00
         13   -1    0    0    0    0  0.00000000000E+00  0.00000000000E+00  0.14999999963E+04  0.15000000000E+04  0.10566000000E+00 0. -1.
        994   -1    0    0    0    0 -0.00000000000E+00 -0.00000000000E+00  0.11368683772E-12  0.17120000000E+03  0.17120000000E+03 0.  0.
         13    1    1    2    0    0  0.28458143206E+02  0.32211709983E+02  0.18776166172E+03  0.19261856855E+03  0.10566000000E+00 0. -1.
        994    1    1    2    0    0 -0.30898717359E+02 -0.12432158359E+02  0.84623986787E+01  0.17461483753E+03  0.17120000000E+03 0.  0.
        998    1    1    2    0    0  0.24405741531E+01 -0.19779551623E+02  0.13037759359E+04  0.13039665939E+04  0.10000000000E+02 0. -1.
</event>
<event>
 5    1  0.1338396E-008  0.3929042E+03  0.7957747E-01  0.3396826E+00
         13   -1    0    0    0    0  0.00000000000E+00  0.00000000000E+00  0.14999999963E+04  0.15000000000E+04  0.10566000000E+00 0. -1.
        994   -1    0    0    0    0 -0.00000000000E+00 -0.00000000000E+00  0.11368683772E-12  0.17120000000E+03  0.17120000000E+03 0.  0.
         13    1    1    2    0    0  0.32124622606E+02  0.11145122597E+01  0.12097006297E+02  0.34345046812E+02  0.10566000000E+00 0. -1.
        994    1    1    2    0    0 -0.27677253943E+02 -0.47831746406E+01  0.26611489008E+02  0.17551786374E+03  0.17120000000E+03 0.  0.
        998    1    1    2    0    0 -0.44473686629E+01  0.36686623809E+01  0.14612915010E+04  0.14613370894E+04  0.10000000000E+02 0. -1.
</event>
<event>
 5    1  0.1338396E-008  0.3792441E+03  0.7957747E-01  0.3454457E+00
         13   -1    0    0    0    0  0.00000000000E+00  0.00000000000E+00  0.14999999963E+04  0.15000000000E+04  0.10566000000E+00 0. -1.
        994   -1    0    0    0    0 -0.00000000000E+00 -0.00000000000E+00  0.11368683772E-12  0.17120000000E+03  0.17120000000E+03 0.  0.
         13    1    1    2    0    0  0.23651570165E+02  0.31704278529E+02  0.20558899266E+03  0.20935950686E+03  0.10566000000E+00 0. -1.
        994    1    1    2    0    0 -0.13425999365E+02  0.11081754968E+02  0.55315122235E+01  0.17217171771E+03  0.17120000000E+03 0.  0.
        998    1    1    2    0    0 -0.10225570801E+02 -0.42786033497E+02  0.12888794914E+04  0.12896687754E+04  0.10000000000E+02 0. -1.
</event>
<event>
 5    1  0.1338396E-008  0.3838295E+03  0.7957747E-01  0.3434651E+00
         13   -1    0    0    0    0  0.00000000000E+00  0.00000000000E+00  0.14999999963E+04  0.15000000000E+04  0.10566000000E+00 0. -1.
        994   -1    0    0    0    0 -0.00000000000E+00 -0.00000000000E+00  0.11368683772E-12  0.17120000000E+03  0.17120000000E+03 0.  0.
         13    1    1    2    0    0 -0.11050669117E+02 -0.61166937446E+01  0.37065226611E+02  0.39158312248E+02  0.10566000000E+00 0. -1.
        994    1    1    2    0    0 -0.31075101518E+01  0.17687021619E+01  0.22545731457E+01  0.17125217671E+03  0.17120000000E+03 0.  0.
        998    1    1    2    0    0  0.14158179269E+02  0.43479915827E+01  0.14606801965E+04  0.14607895110E+04  0.10000000000E+02 0. -1.
</event>
<event>
 5    1  0.1338396E-008  0.3839560E+03  0.7957747E-01  0.3434112E+00
         13   -1    0    0    0    0  0.00000000000E+00  0.00000000000E+00  0.14999999963E+04  0.15000000000E+04  0.10566000000E+00 0. -1.
        994   -1    0    0    0    0 -0.00000000000E+00 -0.00000000000E+00  0.11368683772E-12  0.17120000000E+03  0.17120000000E+03 0.  0.
         13    1    1    2    0    0  0.12844870938E+02 -0.17203423815E+02  0.98304886624E+02  0.10062211685E+03  0.10566000000E+00 0. -1.
        994    1    1    2    0    0 -0.12067600980E+02  0.23090013131E+02  0.43923798036E+01  0.17322675515E+03  0.17120000000E+03 0.  0.
        998    1    1    2    0    0 -0.77726995764E+00 -0.58865893158E+01  0.13973027299E+04  0.13973511280E+04  0.10000000000E+02 0. -1.
</event>
<event>
 5    1  0.1338396E-008  0.3832977E+03  0.7957747E-01  0.3436924E+00
         13   -1    0    0    0    0  0.00000000000E+00  0.00000000000E+00  0.14999999963E+04  0.15000000000E+04  0.10566000000E+00 0. -1.
        994   -1    0    0    0    0 -0.00000000000E+00 -0.00000000000E+00  0.11368683772E-12  0.17120000000E+03  0.17120000000E+03 0.  0.
         13    1    1    2    0    0  0.22896372083E+02  0.51488916317E+01  0.12892569615E+03  0.13104427203E+03  0.10566000000E+00 0. -1.
        994    1    1    2    0    0  0.69166652765E+01 -0.37086472971E+01  0.26813583617E+01  0.17140077014E+03  0.17120000000E+03 0.  0.
        998    1    1    2    0    0 -0.29813037360E+02 -0.14402443347E+01  0.13683929418E+04  0.13687549578E+04  0.10000000000E+02 0. -1.
</event>
<event>
 5    1  0.1338396E-008  0.3800588E+03  0.7957747E-01  0.3450902E+00
         13   -1    0    0    0    0  0.00000000000E+00  0.00000000000E+00  0.14999999963E+04  0.15000000000E+04  0.10566000000E+00 0.  1.
        994   -1    0    0    0    0 -0.00000000000E+00 -0.00000000000E+00  0.11368683772E-12  0.17120000000E+03  0.17120000000E+03 0.  0.
         13    1    1    2    0    0 -0.22179416233E+02  0.14948832053E+02  0.83006579995E+02  0.87209503901E+02  0.10566000000E+00 0.  1.
        994    1    1    2    0    0  0.19775926111E+02 -0.12559770245E+02  0.59399603258E+01  0.17289753674E+03  0.17120000000E+03 0.  0.
        998    1    1    2    0    0  0.24034901214E+01 -0.23890618079E+01  0.14110534560E+04  0.14110929594E+04  0.10000000000E+02 0.  0.
</event>
<event>
 5    1  0.1338396E-008  0.3808641E+03  0.7957747E-01  0.3447405E+00
         13   -1    0    0    0    0  0.00000000000E+00  0.00000000000E+00  0.14999999963E+04  0.15000000000E+04  0.10566000000E+00 0. -1.
        994   -1    0    0    0    0 -0.00000000000E+00 -0.00000000000E+00  0.11368683772E-12  0.17120000000E+03  0.17120000000E+03 0.  0.
         13    1    1    2    0    0 -0.15741010625E+02 -0.58192085218E+01  0.35527136871E+02  0.39291617702E+02  0.10566000000E+00 0. -1.
        994    1    1    2    0    0  0.21311814669E+02  0.20170327694E+01  0.52266674700E+01  0.17261233999E+03  0.17120000000E+03 0.  0.
        998    1    1    2    0    0 -0.55708040438E+01  0.38021757524E+01  0.14592461919E+04  0.14592960423E+04  0.10000000000E+02 0. -1.
</event>
<event>
 5    1  0.1338396E-008  0.3845786E+03  0.7957747E-01  0.3431462E+00
         13   -1    0    0    0    0  0.00000000000E+00  0.00000000000E+00  0.14999999963E+04  0.15000000000E+04  0.10566000000E+00 0.  1.
        994   -1    0    0    0    0 -0.00000000000E+00 -0.00000000000E+00  0.11368683772E-12  0.17120000000E+03  0.17120000000E+03 0.  0.
         13    1    1    2    0    0  0.11338258381E+02  0.10288304262E+01  0.36894821952E+02  0.38611573991E+02  0.10566000000E+00 0.  1.
        994    1    1    2    0    0  0.35476016583E+01  0.89865889277E+01  0.21469731055E+01  0.17148584126E+03  0.17120000000E+03 0.  0.
        998    1    1    2    0    0 -0.14885860039E+02 -0.10015419354E+02  0.14609582012E+04  0.14611025848E+04  0.10000000000E+02 0.  1.
</event>
<event>
 5    1  0.1338396E-008  0.3878566E+03  0.7957747E-01  0.3417647E+00
         13   -1    0    0    0    0  0.00000000000E+00  0.00000000000E+00  0.14999999963E+04  0.15000000000E+04  0.10566000000E+00 0. -1.
        994   -1    0    0    0    0 -0.00000000000E+00 -0.00000000000E+00  0.11368683772E-12  0.17120000000E+03  0.17120000000E+03 0.  0.
         13    1    1    2    0    0  0.11442426897E+03  0.45824449520E+02  0.60593415030E+03  0.61834375486E+03  0.10566000000E+00 0. -1.
        994    1    1    2    0    0 -0.31600236328E+02  0.37116134443E+02  0.29631522135E+02  0.18045400931E+03  0.17120000000E+03 0.  0.
        998    1    1    2    0    0 -0.82824032645E+02 -0.82940583962E+02  0.86443432384E+03  0.87240223583E+03  0.10000000000E+02 0. -1.
</event>
<event>
 5    1  0.1338396E-008  0.3812764E+03  0.7957747E-01  0.3445620E+00
         13   -1    0    0    0    0  0.00000000000E+00  0.00000000000E+00  0.14999999963E+04  0.15000000000E+04  0.10566000000E+00 0. -1.
        994   -1    0    0    0    0 -0.00000000000E+00 -0.00000000000E+00  0.11368683772E-12  0.17120000000E+03  0.17120000000E+03 0.  0.
         13    1    1    2    0    0 -0.15857069355E+02 -0.57970085352E+01  0.41551624370E+02  0.44850870764E+02  0.10566000000E+00 0. -1.
        994    1    1    2    0    0 -0.25739693244E+01  0.12503649138E+01  0.35174865195E+01  0.17126004041E+03  0.17120000000E+03 0.  0.
        998    1    1    2    0    0  0.18431038679E+02  0.45466436214E+01  0.14549308854E+04  0.14550890888E+04  0.10000000000E+02 0. -1.
</event>
<event>
 5    1  0.1338396E-008  0.3771575E+03  0.7957747E-01  0.3463630E+00
         13   -1    0    0    0    0  0.00000000000E+00  0.00000000000E+00  0.14999999963E+04  0.15000000000E+04  0.10566000000E+00 0. -1.
        994   -1    0    0    0    0 -0.00000000000E+00 -0.00000000000E+00  0.11368683772E-12  0.17120000000E+03  0.17120000000E+03 0.  0.
         13    1    1    2    0    0  0.27205514313E+02 -0.36100482848E+01  0.71429453228E+02  0.76520261436E+02  0.10566000000E+00 0. -1.
        994    1    1    2    0    0  0.94135536144E+01  0.37953923046E+02  0.10752602629E+02  0.17593798262E+03  0.17120000000E+03 0.  0.
        998    1    1    2    0    0 -0.36619067928E+02 -0.34343874761E+02  0.14178179404E+04  0.14187417559E+04  0.10000000000E+02 0. -1.
</event>
<event>
 5    1  0.1338396E-008  0.3837986E+03  0.7957747E-01  0.3434783E+00
         13   -1    0    0    0    0  0.00000000000E+00  0.00000000000E+00  0.14999999963E+04  0.15000000000E+04  0.10566000000E+00 0. -1.
        994   -1    0    0    0    0 -0.00000000000E+00 -0.00000000000E+00  0.11368683772E-12  0.17120000000E+03  0.17120000000E+03 0.  0.
         13    1    1    2    0    0  0.23952925654E+02 -0.67698811399E+01  0.13266279559E+03  0.13497778497E+03  0.10566000000E+00 0. -1.
        994    1    1    2    0    0 -0.19618042515E+02  0.66541930545E+01  0.36458727336E+01  0.17248732784E+03  0.17120000000E+03 0.  0.
        998    1    1    2    0    0 -0.43348831386E+01  0.11568808536E+00  0.13636913280E+04  0.13637348872E+04  0.10000000000E+02 0. -1.
</event>
<event>
 5    1  0.1338396E-008  0.3819132E+03  0.7957747E-01  0.3442870E+00
         13   -1    0    0    0    0  0.00000000000E+00  0.00000000000E+00  0.14999999963E+04  0.15000000000E+04  0.10566000000E+00 0. -1.
        994   -1    0    0    0    0 -0.00000000000E+00 -0.00000000000E+00  0.11368683772E-12  0.17120000000E+03  0.17120000000E+03 0.  0.
         13    1    1    2    0    0 -0.27981705741E+01  0.99478502226E+01  0.15618128099E+02  0.18727695319E+02  0.10566000000E+00 0. -1.
        994    1    1    2    0    0  0.91245777724E+01 -0.30923219384E+01  0.34788665408E+01  0.17150615991E+03  0.17120000000E+03 0.  0.
        998    1    1    2    0    0 -0.63264071983E+01 -0.68555282842E+01  0.14809030016E+04  0.14809661448E+04  0.10000000000E+02 0. -1.
</event>
<event>
 5    1  0.1338396E-008  0.3863455E+03  0.7957747E-01  0.3423986E+00
         13   -1    0    0    0    0  0.00000000000E+00  0.00000000000E+00  0.14999999963E+04  0.15000000000E+04  0.10566000000E+00 0. -1.
        994   -1    0    0    0    0 -0.00000000000E+00 -0.00000000000E+00  0.11368683772E-12  0.17120000000E+03  0.17120000000E+03 0.  0.
         13    1    1    2    0    0  0.12281414915E+02  0.25744008130E+02  0.12904937641E+02  0.31307118783E+02  0.10566000000E+00 0. -1.
        994    1    1    2    0    0 -0.47547854888E+02  0.29385423016E+02  0.31542012552E+02  0.18283500799E+03  0.17120000000E+03 0.  0.
        998    1    1    2    0    0  0.35266439973E+02 -0.55129431147E+02  0.14555530461E+04  0.14570578732E+04  0.10000000000E+02 0. -1.
</event>
<event>
 5    1  0.1338396E-008  0.3777500E+03  0.7957747E-01  0.3461014E+00
         13   -1    0    0    0    0  0.00000000000E+00  0.00000000000E+00  0.14999999963E+04  0.15000000000E+04  0.10566000000E+00 0.  1.
        994   -1    0    0    0    0 -0.00000000000E+00 -0.00000000000E+00  0.11368683772E-12  0.17120000000E+03  0.17120000000E+03 0.  0.
         13    1    1    2    0    0  0.37403431838E+00 -0.38823594196E+02  0.14408214150E+03  0.14922160042E+03  0.10566000000E+00 0.  1.
        994    1    1    2    0    0  0.20393541730E+02  0.19779362097E+02  0.79963904666E+01  0.17372536363E+03  0.17120000000E+03 0.  0.
        998    1    1    2    0    0 -0.20767576048E+02  0.19044232098E+02  0.13479214643E+04  0.13482530359E+04  0.10000000000E+02 0.  1.
</event>
<event>
 5    1  0.1338396E-008  0.3842299E+03  0.7957747E-01  0.3432945E+00
         13   -1    0    0    0    0  0.00000000000E+00  0.00000000000E+00  0.14999999963E+04  0.15000000000E+04  0.10566000000E+00 0.  1.
        994   -1    0    0    0    0 -0.00000000000E+00 -0.00000000000E+00  0.11368683772E-12  0.17120000000E+03  0.17120000000E+03 0.  0.
         13    1    1    2    0    0  0.18102807035E+02 -0.10963897237E+02  0.11440115336E+03  0.11634239863E+03  0.10566000000E+00 0.  1.
        994    1    1    2    0    0 -0.11464741798E+02 -0.11049506973E+01  0.24504747628E+01  0.17160450474E+03  0.17120000000E+03 0.  0.
        998    1    1    2    0    0 -0.66380652365E+01  0.12068847934E+02  0.13831483682E+04  0.13832530966E+04  0.10000000000E+02 0.  1.
</event>
<event>
 5    1  0.1745883E-008  0.3858824E+03  0.7957747E-01  0.3425938E+00
         13   -1    0    0    0    0  0.00000000000E+00  0.00000000000E+00  0.14999999963E+04  0.15000000000E+04  0.10566000000E+00 0. -1.
        994   -1    0    0    0    0 -0.00000000000E+00 -0.00000000000E+00  0.11368683772E-12  0.17120000000E+03  0.17120000000E+03 0.  0.
         13    1    1    2    0    0 -0.62765071520E+00  0.11800031323E+02  0.59640694726E+02  0.60800150625E+02  0.10566000000E+00 0. -1.
        994    1    1    2    0    0  0.32843757106E+01 -0.65103544786E+01  0.13670469292E+01  0.17136067418E+03  0.17120000000E+03 0.  0.
        998    1    1    2    0    0 -0.26567249954E+01 -0.52896768446E+01  0.14389922546E+04  0.14390391752E+04  0.10000000000E+02 0. -1.
</event>
<event>
 5    1  0.1338396E-008  0.3777756E+03  0.7957747E-01  0.3460902E+00
         13   -1    0    0    0    0  0.00000000000E+00  0.00000000000E+00  0.14999999963E+04  0.15000000000E+04  0.10566000000E+00 0. -1.
        994   -1    0    0    0    0 -0.00000000000E+00 -0.00000000000E+00  0.11368683772E-12  0.17120000000E+03  0.17120000000E+03 0.  0.
         13    1    1    2    0    0  0.33096981178E+02 -0.43278470998E+02  0.22517112855E+03  0.23166891141E+03  0.10566000000E+00 0. -1.
        994    1    1    2    0    0 -0.60721469648E+02  0.34256226501E+02  0.21807934566E+02  0.18613331765E+03  0.17120000000E+03 0.  0.
        998    1    1    2    0    0  0.27624488470E+02  0.90222444970E+01  0.12530209332E+04  0.12533977709E+04  0.10000000000E+02 0. -1.
</event>
<event>
 5    1  0.1338396E-008  0.3835798E+03  0.7957747E-01  0.3435718E+00
         13   -1    0    0    0    0  0.00000000000E+00  0.00000000000E+00  0.14999999963E+04  0.15000000000E+04  0.10566000000E+00 0.  1.
        994   -1    0    0    0    0 -0.00000000000E+00 -0.00000000000E+00  0.11368683772E-12  0.17120000000E+03  0.17120000000E+03 0.  0.
         13    1    1    2    0    0 -0.53094936584E+01 -0.21585096707E+02  0.11006449902E+03  0.11228674112E+03  0.10566000000E+00 0.  1.
        994    1    1    2    0    0  0.74848969289E+01  0.57020230581E+01  0.26294436745E+01  0.17147854304E+03  0.17120000000E+03 0.  0.
        998    1    1    2    0    0 -0.21754032705E+01  0.15883073649E+02  0.13873060536E+04  0.13874347158E+04  0.10000000000E+02 0.  1.
</event>
<event>
 5    1  0.1338396E-008  0.3695193E+03  0.7957747E-01  0.3498103E+00
         13   -1    0    0    0    0  0.00000000000E+00  0.00000000000E+00  0.14999999963E+04  0.15000000000E+04  0.10566000000E+00 0.  1.
        994   -1    0    0    0    0 -0.00000000000E+00 -0.00000000000E+00  0.11368683772E-12  0.17120000000E+03  0.17120000000E+03 0.  0.
         13    1    1    2    0    0  0.10795961880E+03 -0.40885137998E+02  0.37934235245E+03  0.39651923702E+03  0.10566000000E+00 0.  1.
        994    1    1    2    0    0 -0.14284585546E+03  0.49637112779E+02  0.93460978685E+02  0.24680594791E+03  0.17120000000E+03 0.  0.
        998    1    1    2    0    0  0.34886236663E+02 -0.87519747814E+01  0.10271966651E+04  0.10278748151E+04  0.10000000000E+02 0.  1.
</event>
<event>
 5    1  0.1338396E-008  0.3807840E+03  0.7957747E-01  0.3447752E+00
         13   -1    0    0    0    0  0.00000000000E+00  0.00000000000E+00  0.14999999963E+04  0.15000000000E+04  0.10566000000E+00 0.  1.
        994   -1    0    0    0    0 -0.00000000000E+00 -0.00000000000E+00  0.11368683772E-12  0.17120000000E+03  0.17120000000E+03 0.  0.
         13    1    1    2    0    0 -0.84073932254E+01 -0.31341854715E+02  0.16058246480E+03  0.16382837142E+03  0.10566000000E+00 0.  1.
        994    1    1    2    0    0  0.94431657078E+01 -0.32286479702E+01  0.40700796544E+01  0.17153892589E+03  0.17120000000E+03 0.  0.
        998    1    1    2    0    0 -0.10357724824E+01  0.34570502685E+02  0.13353474518E+04  0.13358327027E+04  0.10000000000E+02 0.  1.
</event>
<event>
 5    1  0.1338396E-008  0.3824254E+03  0.7957747E-01  0.3440665E+00
         13   -1    0    0    0    0  0.00000000000E+00  0.00000000000E+00  0.14999999963E+04  0.15000000000E+04  0.10566000000E+00 0.  1.
        994   -1    0    0    0    0 -0.00000000000E+00 -0.00000000000E+00  0.11368683772E-12  0.17120000000E+03  0.17120000000E+03 0.  0.
         13    1    1    2    0    0 -0.23599800154E+02 -0.21206554994E+01  0.11030682064E+03  0.11282310752E+03  0.10566000000E+00 0.  1.
        994    1    1    2    0    0 -0.72896716323E+01 -0.55226300387E+01  0.31912393455E+01  0.17147379614E+03  0.17120000000E+03 0.  0.
        998    1    1    2    0    0  0.30889471786E+02  0.76432855381E+01  0.13865019363E+04  0.13869030963E+04  0.10000000000E+02 0.  1.
</event>
<event>
 5    1  0.1338396E-008  0.3879837E+03  0.7957747E-01  0.3417116E+00
         13   -1    0    0    0    0  0.00000000000E+00  0.00000000000E+00  0.14999999963E+04  0.15000000000E+04  0.10566000000E+00 0. -1.
        994   -1    0    0    0    0 -0.00000000000E+00 -0.00000000000E+00  0.11368683772E-12  0.17120000000E+03  0.17120000000E+03 0.  0.
         13    1    1    2    0    0 -0.49212102923E+02  0.10117162847E+03  0.24676631919E+03  0.27120316542E+03  0.10566000000E+00 0. -1.
        994    1    1    2    0    0  0.46708821041E+02 -0.10161690878E+03  0.69149291380E+02  0.21586749318E+03  0.17120000000E+03 0.  0.
        998    1    1    2    0    0  0.25032818819E+01  0.44528031635E+00  0.11840843857E+04  0.11841293414E+04  0.10000000000E+02 0. -1.
</event>
<event>
 5    1  0.1338396E-008  0.3732250E+03  0.7957747E-01  0.3481199E+00
         13   -1    0    0    0    0  0.00000000000E+00  0.00000000000E+00  0.14999999963E+04  0.15000000000E+04  0.10566000000E+00 0. -1.
        994   -1    0    0    0    0 -0.00000000000E+00 -0.00000000000E+00  0.11368683772E-12  0.17120000000E+03  0.17120000000E+03 0.  0.
         13    1    1    2    0    0  0.15706148543E+02 -0.45765306106E+01  0.14146517647E+02  0.21627826059E+02  0.10566000000E+00 0. -1.
        994    1    1    2    0    0 -0.15079334080E+02  0.56593176926E+01  0.84806439073E+01  0.17216496599E+03  0.17120000000E+03 0.  0.
        998    1    1    2    0    0 -0.62681446288E+00 -0.10827870820E+01  0.14773728347E+04  0.14774072080E+04  0.10000000000E+02 0. -1.
</event>
<event>
 5    1  0.1338396E-008  0.3823237E+03  0.7957747E-01  0.3441103E+00
         13   -1    0    0    0    0  0.00000000000E+00  0.00000000000E+00  0.14999999963E+04  0.15000000000E+04  0.10566000000E+00 0. -1.
        994   -1    0    0    0    0 -0.00000000000E+00 -0.00000000000E+00  0.11368683772E-12  0.17120000000E+03  0.17120000000E+03 0.  0.
         13    1    1    2    0    0 -0.14912012992E+02 -0.26989967735E+02  0.16016875031E+03  0.16310998201E+03  0.10566000000E+00 0. -1.
        994    1    1    2    0    0  0.23810643710E+02  0.74743482225E+01  0.50336078662E+01  0.17308260988E+03  0.17120000000E+03 0.  0.
        998    1    1    2    0    0 -0.88986307182E+01  0.19515619513E+02  0.13347976381E+04  0.13350074081E+04  0.10000000000E+02 0. -1.
</event>
<event>
 5    1  0.1338396E-008  0.3858425E+03  0.7957747E-01  0.3426107E+00
         13   -1    0    0    0    0  0.00000000000E+00  0.00000000000E+00  0.14999999963E+04  0.15000000000E+04  0.10566000000E+00 0.  1.
        994   -1    0    0    0    0 -0.00000000000E+00 -0.00000000000E+00  0.11368683772E-12  0.17120000000E+03  0.17120000000E+03 0.  0.
         13    1    1    2    0    0  0.93237855491E+01 -0.55918011844E+01  0.50224867987E+02  0.51388225750E+02  0.10566000000E+00 0.  1.
        994    1    1    2    0    0 -0.81918485422E+01 -0.55120591831E+01  0.15322180321E+01  0.17149133177E+03  0.17120000000E+03 0.  0.
        998    1    1    2    0    0 -0.11319370069E+01  0.11103860368E+02  0.14482429103E+04  0.14483204425E+04  0.10000000000E+02 0.  1.
</event>
<event>
 5    1  0.1338396E-008  0.3747104E+03  0.7957747E-01  0.3474519E+00
         13   -1    0    0    0    0  0.00000000000E+00  0.00000000000E+00  0.14999999963E+04  0.15000000000E+04  0.10566000000E+00 0. -1.
        994   -1    0    0    0    0 -0.00000000000E+00 -0.00000000000E+00  0.11368683772E-12  0.17120000000E+03  0.17120000000E+03 0.  0.
         13    1    1    2    0    0 -0.55738251032E+01  0.31386988718E+02  0.65209196098E+02  0.72584164987E+02  0.10566000000E+00 0. -1.
        994    1    1    2    0    0  0.44130439649E+02 -0.41058452520E+02  0.19292065031E+02  0.18252374092E+03  0.17120000000E+03 0.  0.
        998    1    1    2    0    0 -0.38556614546E+02  0.96714638018E+01  0.14154987351E+04  0.14160920941E+04  0.10000000000E+02 0. -1.
</event>
<event>
 5    1  0.1338396E-008  0.3858191E+03  0.7957747E-01  0.3426206E+00
         13   -1    0    0    0    0  0.00000000000E+00  0.00000000000E+00  0.14999999963E+04  0.15000000000E+04  0.10566000000E+00 0. -1.
        994   -1    0    0    0    0 -0.00000000000E+00 -0.00000000000E+00  0.11368683772E-12  0.17120000000E+03  0.17120000000E+03 0.  0.
         13    1    1    2    0    0 -0.11361134754E+02 -0.28870862920E+01  0.56232902300E+02  0.57441806337E+02  0.10566000000E+00 0. -1.
        994    1    1    2    0    0  0.61622779714E+01  0.12547121355E+02  0.18651730995E+01  0.17177986726E+03  0.17120000000E+03 0.  0.
        998    1    1    2    0    0  0.51988567830E+01 -0.96600350633E+01  0.14419019209E+04  0.14419783264E+04  0.10000000000E+02 0. -1.
</event>
<event>
 5    1  0.1338396E-008  0.3791189E+03  0.7957747E-01  0.3455004E+00
         13   -1    0    0    0    0  0.00000000000E+00  0.00000000000E+00  0.14999999963E+04  0.15000000000E+04  0.10566000000E+00 0. -1.
        994   -1    0    0    0    0 -0.00000000000E+00 -0.00000000000E+00  0.11368683772E-12  0.17120000000E+03  0.17120000000E+03 0.  0.
         13    1    1    2    0    0  0.69390821782E+01 -0.16702612514E+02  0.35583332358E+02  0.39916322877E+02  0.10566000000E+00 0. -1.
        994    1    1    2    0    0  0.91531743447E+01  0.46847144494E+00  0.48602526392E+01  0.17151402894E+03  0.17120000000E+03 0.  0.
        998    1    1    2    0    0 -0.16092256523E+02  0.16234141069E+02  0.14595564113E+04  0.14597696482E+04  0.10000000000E+02 0. -1.
</event>
<event>
 5    1  0.1338396E-008  0.3799566E+03  0.7957747E-01  0.3451347E+00
         13   -1    0    0    0    0  0.00000000000E+00  0.00000000000E+00  0.14999999963E+04  0.15000000000E+04  0.10566000000E+00 0. -1.
        994   -1    0    0    0    0 -0.00000000000E+00 -0.00000000000E+00  0.11368683772E-12  0.17120000000E+03  0.17120000000E+03 0.  0.
         13    1    1    2    0    0  0.13629010423E+02 -0.30190748887E+02  0.12587168534E+03  0.13015730321E+03  0.10566000000E+00 0. -1.
        994    1    1    2    0    0 -0.91484402122E+01  0.24601492493E+02  0.64617967043E+01  0.17332086489E+03  0.17120000000E+03 0.  0.
        998    1    1    2    0    0 -0.44805702104E+01  0.55892563935E+01  0.13676665142E+04  0.13677218319E+04  0.10000000000E+02 0. -1.
</event>
<event>
 5    1  0.1338396E-008  0.3705733E+03  0.7957747E-01  0.3493260E+00
         13   -1    0    0    0    0  0.00000000000E+00  0.00000000000E+00  0.14999999963E+04  0.15000000000E+04  0.10566000000E+00 0. -1.
        994   -1    0    0    0    0 -0.00000000000E+00 -0.00000000000E+00  0.11368683772E-12  0.17120000000E+03  0.17120000000E+03 0.  0.
         13    1    1    2    0    0  0.26324281269E+02  0.16588748762E+02  0.43200029544E+02  0.53239159332E+02  0.10566000000E+00 0. -1.
        994    1    1    2    0    0  0.39842548613E+02 -0.20720520357E+02  0.18340594187E+02  0.17793983826E+03  0.17120000000E+03 0.  0.
        998    1    1    2    0    0 -0.66166829882E+02  0.41317715950E+01  0.14384593725E+04  0.14400210024E+04  0.10000000000E+02 0. -1.
</event>
<event>
 5    1  0.1338396E-008  0.3839459E+03  0.7957747E-01  0.3434155E+00
         13   -1    0    0    0    0  0.00000000000E+00  0.00000000000E+00  0.14999999963E+04  0.15000000000E+04  0.10566000000E+00 0.  1.
        994   -1    0    0    0    0 -0.00000000000E+00 -0.00000000000E+00  0.11368683772E-12  0.17120000000E+03  0.17120000000E+03 0.  0.
         13    1    1    2    0    0 -0.22770767899E+02 -0.78517475283E+01  0.13371375506E+03  0.13586587970E+03  0.10566000000E+00 0.  1.
        994    1    1    2    0    0  0.14115275975E+02  0.54762140777E+01  0.29111670776E+01  0.17189282949E+03  0.17120000000E+03 0.  0.
        998    1    1    2    0    0  0.86554919245E+01  0.23755334507E+01  0.13633750741E+04  0.13634412908E+04  0.10000000000E+02 0.  1.
</event>
<event>
 5    1  0.1338396E-008  0.3799113E+03  0.7957747E-01  0.3451545E+00
         13   -1    0    0    0    0  0.00000000000E+00  0.00000000000E+00  0.14999999963E+04  0.15000000000E+04  0.10566000000E+00 0. -1.
        994   -1    0    0    0    0 -0.00000000000E+00 -0.00000000000E+00  0.11368683772E-12  0.17120000000E+03  0.17120000000E+03 0.  0.
         13    1    1    2    0    0  0.16065106798E+02 -0.24428429241E+02  0.96319222963E+02  0.10065902686E+03  0.10566000000E+00 0. -1.
        994    1    1    2    0    0 -0.10429667426E+02  0.25499687572E+02  0.67201091064E+01  0.17353274012E+03  0.17120000000E+03 0.  0.
        998    1    1    2    0    0 -0.56354393724E+01 -0.10712583311E+01  0.13969606642E+04  0.13970082330E+04  0.10000000000E+02 0. -1.
</event>
<event>
 5    1  0.1338396E-008  0.3773539E+03  0.7957747E-01  0.3462762E+00
         13   -1    0    0    0    0  0.00000000000E+00  0.00000000000E+00  0.14999999963E+04  0.15000000000E+04  0.10566000000E+00 0. -1.
        994   -1    0    0    0    0 -0.00000000000E+00 -0.00000000000E+00  0.11368683772E-12  0.17120000000E+03  0.17120000000E+03 0.  0.
         13    1    1    2    0    0 -0.14390939290E+02  0.13311108400E+01  0.16477564499E+02  0.21917853124E+02  0.10566000000E+00 0. -1.
        994    1    1    2    0    0  0.15635672411E+02 -0.36551319746E+01  0.63448779599E+01  0.17206839256E+03  0.17120000000E+03 0.  0.
        998    1    1    2    0    0 -0.12447331216E+01  0.23240211347E+01  0.14771775538E+04  0.14772137543E+04  0.10000000000E+02 0. -1.
</event>
<event>
 5    1  0.1338396E-008  0.3854566E+03  0.7957747E-01  0.3427738E+00
         13   -1    0    0    0    0  0.00000000000E+00  0.00000000000E+00  0.14999999963E+04  0.15000000000E+04  0.10566000000E+00 0.  1.
        994   -1    0    0    0    0 -0.00000000000E+00 -0.00000000000E+00  0.11368683772E-12  0.17120000000E+03  0.17120000000E+03 0.  0.
         13    1    1    2    0    0 -0.13818163678E+02 -0.50313534954E+01  0.79877321733E+02  0.81219787347E+02  0.10566000000E+00 0.  1.
        994    1    1    2    0    0  0.34021428779E+01  0.67291014024E+01  0.15903132667E+01  0.17137334821E+03  0.17120000000E+03 0.  0.
        998    1    1    2    0    0  0.10416020800E+02 -0.16977479070E+01  0.14185323613E+04  0.14186068644E+04  0.10000000000E+02 0.  1.
</event>
<event>
 5    1  0.1338396E-008  0.3774012E+03  0.7957747E-01  0.3462553E+00
         13   -1    0    0    0    0  0.00000000000E+00  0.00000000000E+00  0.14999999963E+04  0.15000000000E+04  0.10566000000E+00 0.  1.
        994   -1    0    0    0    0 -0.00000000000E+00 -0.00000000000E+00  0.11368683772E-12  0.17120000000E+03  0.17120000000E+03 0.  0.
         13    1    1    2    0    0 -0.21696116233E+02 -0.52411661786E+00  0.39938678789E+02  0.45454431965E+02  0.10566000000E+00 0.  1.
        994    1    1    2    0    0  0.23220923269E+02  0.15042470270E+01  0.72787200705E+01  0.17292742351E+03  0.17120000000E+03 0.  0.
        998    1    1    2    0    0 -0.15248070361E+01 -0.98013040912E+00  0.14527825974E+04  0.14528181445E+04  0.10000000000E+02 0.  1.
</event>
<event>
 5    1  0.1338396E-008  0.3792363E+03  0.7957747E-01  0.3454491E+00
         13   -1    0    0    0    0  0.00000000000E+00  0.00000000000E+00  0.14999999963E+04  0.15000000000E+04  0.10566000000E+00 0. -1.
        994   -1    0    0    0    0 -0.00000000000E+00 -0.00000000000E+00  0.11368683772E-12  0.17120000000E+03  0.17120000000E+03 0.  0.
         13    1    1    2    0    0  0.10233200686E+02  0.61131258521E+01  0.13558200415E+02  0.18053383796E+02  0.10566000000E+00 0. -1.
        994    1    1    2    0    0 -0.15950579185E+02 -0.13708213544E+01  0.53785784735E+01  0.17203101242E+03  0.17120000000E+03 0.  0.
        998    1    1    2    0    0  0.57173784993E+01 -0.47423044977E+01  0.14810632174E+04  0.14811156038E+04  0.10000000000E+02 0. -1.
</event>
<event>
 5    1  0.1338396E-008  0.3751614E+03  0.7957747E-01  0.3472501E+00
         13   -1    0    0    0    0  0.00000000000E+00  0.00000000000E+00  0.14999999963E+04  0.15000000000E+04  0.10566000000E+00 0. -1.
        994   -1    0    0    0    0 -0.00000000000E+00 -0.00000000000E+00  0.11368683772E-12  0.17120000000E+03  0.17120000000E+03 0.  0.
         13    1    1    2    0    0 -0.77465031947E+01 -0.98325610465E+01  0.87975293700E+01  0.15300171748E+02  0.10566000000E+00 0. -1.
        994    1    1    2    0    0  0.90803749183E+01  0.10664387096E+02  0.72626379897E+01  0.17192547301E+03  0.17120000000E+03 0.  0.
        998    1    1    2    0    0 -0.13338717236E+01 -0.83182604987E+00  0.14839398289E+04  0.14839743552E+04  0.10000000000E+02 0. -1.
</event>
<event>
 5    1  0.1338396E-008  0.3793644E+03  0.7957747E-01  0.3453931E+00
         13   -1    0    0    0    0  0.00000000000E+00  0.00000000000E+00  0.14999999963E+04  0.15000000000E+04  0.10566000000E+00 0. -1.
        994   -1    0    0    0    0 -0.00000000000E+00 -0.00000000000E+00  0.11368683772E-12  0.17120000000E+03  0.17120000000E+03 0.  0.
         13    1    1    2    0    0  0.21497956606E+02  0.13748252031E+02  0.72911358791E+02  0.77248003061E+02  0.10566000000E+00 0. -1.
        994    1    1    2    0    0 -0.90787193970E+01 -0.70549246464E+01  0.48972925381E+01  0.17165552302E+03  0.17120000000E+03 0.  0.
        998    1    1    2    0    0 -0.12419237209E+02 -0.66933273845E+01  0.14221913449E+04  0.14222964739E+04  0.10000000000E+02 0. -1.
</event>
<event>
 5    1  0.1338396E-008  0.3815026E+03  0.7957747E-01  0.3444642E+00
         13   -1    0    0    0    0  0.00000000000E+00  0.00000000000E+00  0.14999999963E+04  0.15000000000E+04  0.10566000000E+00 0. -1.
        994   -1    0    0    0    0 -0.00000000000E+00 -0.00000000000E+00  0.11368683772E-12  0.17120000000E+03  0.17120000000E+03 0.  0.
         13    1    1    2    0    0 -0.15341970210E+02 -0.36324087428E+01  0.34834788291E+02  0.38236685035E+02  0.10566000000E+00 0. -1.
        994    1    1    2    0    0  0.15526932051E+02  0.61137828576E+01  0.43034096945E+01  0.17206517165E+03  0.17120000000E+03 0.  0.
        998    1    1    2    0    0 -0.18496184066E+00 -0.24813741148E+01  0.14608617983E+04  0.14608981433E+04  0.10000000000E+02 0. -1.
</event>
<event>
 5    1  0.1338396E-008  0.3695241E+03  0.7957747E-01  0.3498081E+00
         13   -1    0    0    0    0  0.00000000000E+00  0.00000000000E+00  0.14999999963E+04  0.15000000000E+04  0.10566000000E+00 0. -1.
        994   -1    0    0    0    0 -0.00000000000E+00 -0.00000000000E+00  0.11368683772E-12  0.17120000000E+03  0.17120000000E+03 0.  0.
         13    1    1    2    0    0  0.17212545258E+02  0.88660611077E+01  0.15431372141E+02  0.24759183428E+02  0.10566000000E+00 0. -1.
        994    1    1    2    0    0 -0.14148492025E+02 -0.10804173319E+02  0.10616345865E+02  0.17245015740E+03  0.17120000000E+03 0.  0.
        998    1    1    2    0    0 -0.30640532329E+01  0.19381122117E+01  0.14739522783E+04  0.14739906592E+04  0.10000000000E+02 0. -1.
</event>
<event>
 5    1  0.1338396E-008  0.3761018E+03  0.7957747E-01  0.3468310E+00
         13   -1    0    0    0    0  0.00000000000E+00  0.00000000000E+00  0.14999999963E+04  0.15000000000E+04  0.10566000000E+00 0. -1.
        994   -1    0    0    0    0 -0.00000000000E+00 -0.00000000000E+00  0.11368683772E-12  0.17120000000E+03  0.17120000000E+03 0.  0.
         13    1    1    2    0    0 -0.31402789879E+01 -0.28144012605E+02  0.68018496013E+02  0.73678176969E+02  0.10566000000E+00 0. -1.
        994    1    1    2    0    0 -0.60238660006E+01 -0.78755511599E+00  0.62390282282E+01  0.17142133087E+03  0.17120000000E+03 0.  0.
        998    1    1    2    0    0  0.91641449885E+01  0.28931567721E+02  0.14257424720E+04  0.14261004922E+04  0.10000000000E+02 0. -1.
</event>
<event>
 5    1  0.1338396E-008  0.3728113E+03  0.7957747E-01  0.3483070E+00
         13   -1    0    0    0    0  0.00000000000E+00  0.00000000000E+00  0.14999999963E+04  0.15000000000E+04  0.10566000000E+00 0.  1.
        994   -1    0    0    0    0 -0.00000000000E+00 -0.00000000000E+00  0.11368683772E-12  0.17120000000E+03  0.17120000000E+03 0.  0.
         13    1    1    2    0    0  0.69615045798E+02  0.11238238150E+02  0.19926731030E+03  0.21137649992E+03  0.10566000000E+00 0.  1.
        994    1    1    2    0    0 -0.37286793105E+02 -0.14032098913E+02  0.18058103178E+02  0.17669957507E+03  0.17120000000E+03 0.  0.
        998    1    1    2    0    0 -0.32328252693E+02  0.27938607633E+01  0.12826745828E+04  0.12831239250E+04  0.10000000000E+02 0.  1.
</event>
<event>
 5    1  0.1338396E-008  0.3858585E+03  0.7957747E-01  0.3426039E+00
         13   -1    0    0    0    0  0.00000000000E+00  0.00000000000E+00  0.14999999963E+04  0.15000000000E+04  0.10566000000E+00 0. -1.
        994   -1    0    0    0    0 -0.00000000000E+00 -0.00000000000E+00  0.11368683772E-12  0.17120000000E+03  0.17120000000E+03 0.  0.
         13    1    1    2    0    0  0.20632010366E+02  0.10369059557E+03  0.22573329111E+03  0.24926481769E+03  0.10566000000E+00 0. -1.
        994    1    1    2    0    0  0.11706719882E+02 -0.11892795653E+03  0.74624298611E+02  0.22171858758E+03  0.17120000000E+03 0.  0.
        998    1    1    2    0    0 -0.32338730248E+02  0.15237360962E+02  0.11996424066E+04  0.12002165947E+04  0.10000000000E+02 0. -1.
</event>
<event>
 5    1  0.1338396E-008  0.3855391E+03  0.7957747E-01  0.3427389E+00
         13   -1    0    0    0    0  0.00000000000E+00  0.00000000000E+00  0.14999999963E+04  0.15000000000E+04  0.10566000000E+00 0.  1.
        994   -1    0    0    0    0 -0.00000000000E+00 -0.00000000000E+00  0.11368683772E-12  0.17120000000E+03  0.17120000000E+03 0.  0.
         13    1    1    2    0    0 -0.75101436971E+01  0.95800777485E+01  0.56473818713E+02  0.57770957340E+02  0.10566000000E+00 0.  1.
        994    1    1    2    0    0  0.41997930347E+01 -0.63390383025E+00  0.14219357001E+01  0.17125858226E+03  0.17120000000E+03 0.  0.
        998    1    1    2    0    0  0.33103506624E+01 -0.89461739182E+01  0.14421042419E+04  0.14421704604E+04  0.10000000000E+02 0.  1.
</event>
<event>
 5    1  0.1338396E-008  0.3836477E+03  0.7957747E-01  0.3435428E+00
         13   -1    0    0    0    0  0.00000000000E+00  0.00000000000E+00  0.14999999963E+04  0.15000000000E+04  0.10566000000E+00 0.  1.
        994   -1    0    0    0    0 -0.00000000000E+00 -0.00000000000E+00  0.11368683772E-12  0.17120000000E+03  0.17120000000E+03 0.  0.
         13    1    1    2    0    0  0.13707629427E+02 -0.10925397989E+02  0.66073315768E+02  0.68359034856E+02  0.10566000000E+00 0.  1.
        994    1    1    2    0    0 -0.70043836142E+01  0.98180075932E+01  0.27836347922E+01  0.17164685632E+03  0.17120000000E+03 0.  0.
        998    1    1    2    0    0 -0.67032458127E+01  0.11073903957E+01  0.14311430457E+04  0.14311941088E+04  0.10000000000E+02 0.  1.
</event>
<event>
 5    1  0.1338396E-008  0.3957419E+03  0.7957747E-01  0.3385354E+00
         13   -1    0    0    0    0  0.00000000000E+00  0.00000000000E+00  0.14999999963E+04  0.15000000000E+04  0.10566000000E+00 0.  1.
        994   -1    0    0    0    0 -0.00000000000E+00 -0.00000000000E+00  0.11368683772E-12  0.17120000000E+03  0.17120000000E+03 0.  0.
         13    1    1    2    0    0  0.12454395686E+02  0.29952805447E+02  0.10389845075E+02  0.34062333607E+02  0.10566000000E+00 0.  1.
        994    1    1    2    0    0 -0.13128136098E+02 -0.24752417571E+02  0.28284349231E+02  0.17576824100E+03  0.17120000000E+03 0.  0.
        998    1    1    2    0    0  0.67374041155E+00 -0.52003878763E+01  0.14613258020E+04  0.14613694254E+04  0.10000000000E+02 0.  1.
</event>
<event>
 5    1  0.1338396E-008  0.3828550E+03  0.7957747E-01  0.3438821E+00
         13   -1    0    0    0    0  0.00000000000E+00  0.00000000000E+00  0.14999999963E+04  0.15000000000E+04  0.10566000000E+00 0. -1.
        994   -1    0    0    0    0 -0.00000000000E+00 -0.00000000000E+00  0.11368683772E-12  0.17120000000E+03  0.17120000000E+03 0.  0.
         13    1    1    2    0    0 -0.17415635596E+02  0.14767108269E+02  0.10595778738E+03  0.10839020122E+03  0.10566000000E+00 0. -1.
        994    1    1    2    0    0  0.41864722704E+01  0.68729201378E+01  0.29133431057E+01  0.17141380093E+03  0.17120000000E+03 0.  0.
        998    1    1    2    0    0  0.13229163326E+02 -0.21640028407E+02  0.13911288658E+04  0.13913959979E+04  0.10000000000E+02 0. -1.
</event>
<event>
 5    1  0.1338396E-008  0.3820022E+03  0.7957747E-01  0.3442487E+00
         13   -1    0    0    0    0  0.00000000000E+00  0.00000000000E+00  0.14999999963E+04  0.15000000000E+04  0.10566000000E+00 0.  1.
        994   -1    0    0    0    0 -0.00000000000E+00 -0.00000000000E+00  0.11368683772E-12  0.17120000000E+03  0.17120000000E+03 0.  0.
         13    1    1    2    0    0 -0.19337995511E+02 -0.79878574882E+01  0.81423188408E+02  0.84068488224E+02  0.10566000000E+00 0.  1.
        994    1    1    2    0    0  0.77815873004E-02 -0.42062810561E+02  0.90239021539E+01  0.17652238074E+03  0.17120000000E+03 0.  0.
        998    1    1    2    0    0  0.19330213923E+02  0.50050668049E+02  0.14095529057E+04  0.14106091310E+04  0.10000000000E+02 0.  1.
</event>
<event>
 5    1  0.1338396E-008  0.3854307E+03  0.7957747E-01  0.3427848E+00
         13   -1    0    0    0    0  0.00000000000E+00  0.00000000000E+00  0.14999999963E+04  0.15000000000E+04  0.10566000000E+00 0.  1.
        994   -1    0    0    0    0 -0.00000000000E+00 -0.00000000000E+00  0.11368683772E-12  0.17120000000E+03  0.17120000000E+03 0.  0.
         13    1    1    2    0    0  0.71323935928E+01 -0.78279314624E+01  0.43534769742E+02  0.44804407037E+02  0.10566000000E+00 0.  1.
        994    1    1    2    0    0  0.39145006126E+01 -0.89534284710E+01  0.17301066583E+01  0.17148737699E+03  0.17120000000E+03 0.  0.
        998    1    1    2    0    0 -0.11046894205E+02  0.16781359933E+02  0.14547351199E+04  0.14549082160E+04  0.10000000000E+02 0.  1.
</event>
<event>
 5    1  0.1338396E-008  0.3837065E+03  0.7957747E-01  0.3435177E+00
         13   -1    0    0    0    0  0.00000000000E+00  0.00000000000E+00  0.14999999963E+04  0.15000000000E+04  0.10566000000E+00 0. -1.
        994   -1    0    0    0    0 -0.00000000000E+00 -0.00000000000E+00  0.11368683772E-12  0.17120000000E+03  0.17120000000E+03 0.  0.
         13    1    1    2    0    0  0.11969211115E+02  0.16069897223E+02  0.97679374161E+02  0.99713464045E+02  0.10566000000E+00 0. -1.
        994    1    1    2    0    0 -0.47236388500E+01  0.73469179381E+01  0.25256722203E+01  0.17144126979E+03  0.17120000000E+03 0.  0.
        998    1    1    2    0    0 -0.72455722649E+01 -0.23416815161E+02  0.13997949499E+04  0.14000452662E+04  0.10000000000E+02 0. -1.
</event>
<event>
 5    1  0.1338396E-008  0.3840432E+03  0.7957747E-01  0.3433740E+00
         13   -1    0    0    0    0  0.00000000000E+00  0.00000000000E+00  0.14999999963E+04  0.15000000000E+04  0.10566000000E+00 0. -1.
        994   -1    0    0    0    0 -0.00000000000E+00 -0.00000000000E+00  0.11368683772E-12  0.17120000000E+03  0.17120000000E+03 0.  0.
         13    1    1    2    0    0 -0.12961668657E+02  0.12804711414E+02  0.77245397102E+02  0.79365156248E+02  0.10566000000E+00 0. -1.
        994    1    1    2    0    0  0.12495742550E+02 -0.75226764893E+01  0.28079914150E+01  0.17184312340E+03  0.17120000000E+03 0.  0.
        998    1    1    2    0    0  0.46592610733E+00 -0.52820349249E+01  0.14199466078E+04  0.14199917204E+04  0.10000000000E+02 0. -1.
</event>
<event>
 5    1  0.1338396E-008  0.3786367E+03  0.7957747E-01  0.3457116E+00
         13   -1    0    0    0    0  0.00000000000E+00  0.00000000000E+00  0.14999999963E+04  0.15000000000E+04  0.10566000000E+00 0.  1.
        994   -1    0    0    0    0 -0.00000000000E+00 -0.00000000000E+00  0.11368683772E-12  0.17120000000E+03  0.17120000000E+03 0.  0.
         13    1    1    2    0    0  0.54591590114E+02  0.27792295051E+02  0.29169750401E+03  0.29806056160E+03  0.10566000000E+00 0.  1.
        994    1    1    2    0    0 -0.71942078453E+02 -0.13411434105E+02  0.23022795563E+02  0.18760335373E+03  0.17120000000E+03 0.  0.
        998    1    1    2    0    0  0.17350488339E+02 -0.14380860945E+02  0.11852796967E+04  0.11855360847E+04  0.10000000000E+02 0.  1.
</event>
<event>
 5    1  0.1338396E-008  0.3855606E+03  0.7957747E-01  0.3427298E+00
         13   -1    0    0    0    0  0.00000000000E+00  0.00000000000E+00  0.14999999963E+04  0.15000000000E+04  0.10566000000E+00 0.  1.
        994   -1    0    0    0    0 -0.00000000000E+00 -0.00000000000E+00  0.11368683772E-12  0.17120000000E+03  0.17120000000E+03 0.  0.
         13    1    1    2    0    0  0.14360080049E+02  0.48197724857E+01  0.90314927808E+02  0.91576413201E+02  0.10566000000E+00 0.  1.
        994    1    1    2    0    0 -0.39726419098E+01  0.24466031930E+01  0.14235174072E+01  0.17126947817E+03  0.17120000000E+03 0.  0.
        998    1    1    2    0    0 -0.10387438139E+02 -0.72663756786E+01  0.14082615511E+04  0.14083541086E+04  0.10000000000E+02 0.  1.
</event>
<event>
 5    1  0.1338396E-008  0.3842381E+03  0.7957747E-01  0.3432910E+00
         13   -1    0    0    0    0  0.00000000000E+00  0.00000000000E+00  0.14999999963E+04  0.15000000000E+04  0.10566000000E+00 0. -1.
        994   -1    0    0    0    0 -0.00000000000E+00 -0.00000000000E+00  0.11368683772E-12  0.17120000000E+03  0.17120000000E+03 0.  0.
         13    1    1    2    0    0  0.28614495269E+01 -0.17411225817E+02  0.72736442826E+02  0.74846108495E+02  0.10566000000E+00 0. -1.
        994    1    1    2    0    0 -0.55527667228E+01  0.20593527265E+02  0.35101087536E+01  0.17255922881E+03  0.17120000000E+03 0.  0.
        998    1    1    2    0    0  0.26913171959E+01 -0.31823014484E+01  0.14237534447E+04  0.14237946627E+04  0.10000000000E+02 0. -1.
</event>
<event>
 5    1  0.1338396E-008  0.3713003E+03  0.7957747E-01  0.3489936E+00
         13   -1    0    0    0    0  0.00000000000E+00  0.00000000000E+00  0.14999999963E+04  0.15000000000E+04  0.10566000000E+00 0.  1.
        994   -1    0    0    0    0 -0.00000000000E+00 -0.00000000000E+00  0.11368683772E-12  0.17120000000E+03  0.17120000000E+03 0.  0.
         13    1    1    2    0    0  0.95622157527E+02 -0.14560715953E+02  0.40141702455E+03  0.41290586121E+03  0.10566000000E+00 0.  1.
        994    1    1    2    0    0 -0.96044746826E+02 -0.44925793508E+01  0.41119459311E+02  0.20061163126E+03  0.17120000000E+03 0.  0.
        998    1    1    2    0    0  0.42258929872E+00  0.19053295304E+02  0.10574635124E+04  0.10576825075E+04  0.10000000000E+02 0.  1.
</event>
<event>
 5    1  0.1338396E-008  0.3797239E+03  0.7957747E-01  0.3452361E+00
         13   -1    0    0    0    0  0.00000000000E+00  0.00000000000E+00  0.14999999963E+04  0.15000000000E+04  0.10566000000E+00 0.  1.
        994   -1    0    0    0    0 -0.00000000000E+00 -0.00000000000E+00  0.11368683772E-12  0.17120000000E+03  0.17120000000E+03 0.  0.
         13    1    1    2    0    0  0.28562061523E+02 -0.28278697695E+02  0.16976858428E+03  0.17446162751E+03  0.10566000000E+00 0.  1.
        994    1    1    2    0    0 -0.19083061649E+02  0.35849222475E+02  0.98109905597E+01  0.17622436134E+03  0.17120000000E+03 0.  0.
        998    1    1    2    0    0 -0.94789998742E+01 -0.75705247800E+01  0.13204204214E+04  0.13205140111E+04  0.10000000000E+02 0.  1.
</event>
<event>
 5    1  0.1338396E-008  0.3791268E+03  0.7957747E-01  0.3454970E+00
         13   -1    0    0    0    0  0.00000000000E+00  0.00000000000E+00  0.14999999963E+04  0.15000000000E+04  0.10566000000E+00 0. -1.
        994   -1    0    0    0    0 -0.00000000000E+00 -0.00000000000E+00  0.11368683772E-12  0.17120000000E+03  0.17120000000E+03 0.  0.
         13    1    1    2    0    0 -0.14171274410E+02  0.25383261638E+01  0.20706350319E+02  0.25219679333E+02  0.10566000000E+00 0. -1.
        994    1    1    2    0    0  0.10190031521E+02 -0.32454984715E+01  0.49581241706E+01  0.17160534082E+03  0.17120000000E+03 0.  0.
        998    1    1    2    0    0  0.39812428886E+01  0.70717230771E+00  0.14743355218E+04  0.14743749798E+04  0.10000000000E+02 0. -1.
</event>
<event>
 5    1  0.1338396E-008  0.3811045E+03  0.7957747E-01  0.3446363E+00
         13   -1    0    0    0    0  0.00000000000E+00  0.00000000000E+00  0.14999999963E+04  0.15000000000E+04  0.10566000000E+00 0. -1.
        994   -1    0    0    0    0 -0.00000000000E+00 -0.00000000000E+00  0.11368683772E-12  0.17120000000E+03  0.17120000000E+03 0.  0.
         13    1    1    2    0    0 -0.40004112779E+01  0.10579911815E+02  0.16385528715E+02  0.19910663970E+02  0.10566000000E+00 0. -1.
        994    1    1    2    0    0  0.32506148876E+01 -0.75330261585E+01  0.38008631936E+01  0.17143861742E+03  0.17120000000E+03 0.  0.
        998    1    1    2    0    0  0.74979639035E+00 -0.30468856566E+01  0.14798136044E+04  0.14798507186E+04  0.10000000000E+02 0. -1.
</event>
<event>
 5    1  0.1338396E-008  0.3861899E+03  0.7957747E-01  0.3424641E+00
         13   -1    0    0    0    0  0.00000000000E+00  0.00000000000E+00  0.14999999963E+04  0.15000000000E+04  0.10566000000E+00 0.  1.
        994   -1    0    0    0    0 -0.00000000000E+00 -0.00000000000E+00  0.11368683772E-12  0.17120000000E+03  0.17120000000E+03 0.  0.
         13    1    1    2    0    0 -0.62515874120E+01 -0.99422565439E+01  0.69864135051E+02  0.70844472903E+02  0.10566000000E+00 0.  1.
        994    1    1    2    0    0  0.61134589303E+01 -0.39929851348E-03  0.11629862784E+01  0.17131306698E+03  0.17120000000E+03 0.  0.
        998    1    1    2    0    0  0.13812848175E+00  0.99426558424E+01  0.14289728749E+04  0.14290424601E+04  0.10000000000E+02 0.  1.
</event>
<event>
 5    1  0.1338396E-008  0.3753422E+03  0.7957747E-01  0.3471694E+00
         13   -1    0    0    0    0  0.00000000000E+00  0.00000000000E+00  0.14999999963E+04  0.15000000000E+04  0.10566000000E+00 0.  1.
        994   -1    0    0    0    0 -0.00000000000E+00 -0.00000000000E+00  0.11368683772E-12  0.17120000000E+03  0.17120000000E+03 0.  0.
         13    1    1    2    0    0 -0.75597607350E+02  0.68688036331E+01  0.32653544494E+03  0.33524257883E+03  0.10566000000E+00 0.  1.
        994    1    1    2    0    0  0.80977573026E+02 -0.20207750101E+02  0.30533750304E+02  0.19289238037E+03  0.17120000000E+03 0.  0.
        998    1    1    2    0    0 -0.53799656755E+01  0.13338946468E+02  0.11429308010E+04  0.11430650408E+04  0.10000000000E+02 0.  1.
</event>
<event>
 5    1  0.1338396E-008  0.3852607E+03  0.7957747E-01  0.3428567E+00
         13   -1    0    0    0    0  0.00000000000E+00  0.00000000000E+00  0.14999999963E+04  0.15000000000E+04  0.10566000000E+00 0.  1.
        994   -1    0    0    0    0 -0.00000000000E+00 -0.00000000000E+00  0.11368683772E-12  0.17120000000E+03  0.17120000000E+03 0.  0.
         13    1    1    2    0    0  0.14597325602E+02 -0.11863105505E+02  0.10748197846E+03  0.10911554447E+03  0.10566000000E+00 0.  1.
        994    1    1    2    0    0 -0.14119919787E+02  0.19646733756E+02  0.34265413540E+01  0.17293509611E+03  0.17120000000E+03 0.  0.
        998    1    1    2    0    0 -0.47740581452E+00 -0.77836282512E+01  0.13890914765E+04  0.13891493594E+04  0.10000000000E+02 0.  1.
</event>
<event>
 5    1  0.1338396E-008  0.3797948E+03  0.7957747E-01  0.3452053E+00
         13   -1    0    0    0    0  0.00000000000E+00  0.00000000000E+00  0.14999999963E+04  0.15000000000E+04  0.10566000000E+00 0.  1.
        994   -1    0    0    0    0 -0.00000000000E+00 -0.00000000000E+00  0.11368683772E-12  0.17120000000E+03  0.17120000000E+03 0.  0.
         13    1    1    2    0    0 -0.21286315699E+02 -0.17219058853E+02  0.98308911285E+02  0.10205026421E+03  0.10566000000E+00 0.  1.
        994    1    1    2    0    0  0.23542896547E+01 -0.13939227338E+02  0.49055772968E+01  0.17185269689E+03  0.17120000000E+03 0.  0.
        998    1    1    2    0    0  0.18932026044E+02  0.31158286191E+02  0.13967855077E+04  0.13972970389E+04  0.10000000000E+02 0.  1.
</event>
<event>
 5    1  0.1761401E-008  0.3860866E+03  0.7957747E-01  0.3425077E+00
         13   -1    0    0    0    0  0.00000000000E+00  0.00000000000E+00  0.14999999963E+04  0.15000000000E+04  0.10566000000E+00 0.  1.
        994   -1    0    0    0    0 -0.00000000000E+00 -0.00000000000E+00  0.11368683772E-12  0.17120000000E+03  0.17120000000E+03 0.  0.
         13    1    1    2    0    0 -0.98435632884E+01  0.60664417094E+01  0.64378398040E+02  0.65408613741E+02  0.10566000000E+00 0.  1.
        994    1    1    2    0    0  0.67117338520E+01  0.51108890776E+01  0.13248873915E+01  0.17141284632E+03  0.17120000000E+03 0.  0.
        998    1    1    2    0    0  0.31318294364E+01 -0.11177330787E+02  0.14342967108E+04  0.14343785399E+04  0.10000000000E+02 0.  1.
</event>
<event>
 5    1  0.1338396E-008  0.3841025E+03  0.7957747E-01  0.3433488E+00
         13   -1    0    0    0    0  0.00000000000E+00  0.00000000000E+00  0.14999999963E+04  0.15000000000E+04  0.10566000000E+00 0.  1.
        994   -1    0    0    0    0 -0.00000000000E+00 -0.00000000000E+00  0.11368683772E-12  0.17120000000E+03  0.17120000000E+03 0.  0.
         13    1    1    2    0    0 -0.19690825109E+02  0.98756166711E+01  0.11436868299E+03  0.11647086851E+03  0.10566000000E+00 0.  1.
        994    1    1    2    0    0  0.16375440748E+02 -0.32728477247E+01  0.29967043710E+01  0.17203862017E+03  0.17120000000E+03 0.  0.
        998    1    1    2    0    0  0.33153843610E+01 -0.66027689464E+01  0.13826346089E+04  0.13826905113E+04  0.10000000000E+02 0.  1.
</event>
<event>
 5    1  0.1338396E-008  0.3831152E+03  0.7957747E-01  0.3437705E+00
         13   -1    0    0    0    0  0.00000000000E+00  0.00000000000E+00  0.14999999963E+04  0.15000000000E+04  0.10566000000E+00 0.  1.
        994   -1    0    0    0    0 -0.00000000000E+00 -0.00000000000E+00  0.11368683772E-12  0.17120000000E+03  0.17120000000E+03 0.  0.
         13    1    1    2    0    0 -0.22459473199E+02  0.67255497105E+01  0.11362867453E+03  0.11602218665E+03  0.10566000000E+00 0.  1.
        994    1    1    2    0    0  0.23675624391E+01 -0.86645792072E+01  0.28358056160E+01  0.17145892242E+03  0.17120000000E+03 0.  0.
        998    1    1    2    0    0  0.20091910759E+02  0.19390294967E+01  0.13835355161E+04  0.13837188909E+04  0.10000000000E+02 0.  1.
</event>
<event>
 5    1  0.1338396E-008  0.3829708E+03  0.7957747E-01  0.3438324E+00
         13   -1    0    0    0    0  0.00000000000E+00  0.00000000000E+00  0.14999999963E+04  0.15000000000E+04  0.10566000000E+00 0. -1.
        994   -1    0    0    0    0 -0.00000000000E+00 -0.00000000000E+00  0.11368683772E-12  0.17120000000E+03  0.17120000000E+03 0.  0.
         13    1    1    2    0    0 -0.13114831057E+02 -0.19152901893E+02  0.11786544380E+03  0.12012954029E+03  0.10566000000E+00 0. -1.
        994    1    1    2    0    0 -0.60137234461E+01 -0.47828460661E+01  0.28364338506E+01  0.17139581629E+03  0.17120000000E+03 0.  0.
        998    1    1    2    0    0  0.19128554503E+02  0.23935747959E+02  0.13792981186E+04  0.13796746434E+04  0.10000000000E+02 0. -1.
</event>
<event>
 5    1  0.1338396E-008  0.3779182E+03  0.7957747E-01  0.3460274E+00
         13   -1    0    0    0    0  0.00000000000E+00  0.00000000000E+00  0.14999999963E+04  0.15000000000E+04  0.10566000000E+00 0.  1.
        994   -1    0    0    0    0 -0.00000000000E+00 -0.00000000000E+00  0.11368683772E-12  0.17120000000E+03  0.17120000000E+03 0.  0.
         13    1    1    2    0    0 -0.85583038864E+01 -0.94289238977E+01  0.13421827136E+02  0.18501507479E+02  0.10566000000E+00 0.  1.
        994    1    1    2    0    0  0.77140053573E+01  0.21933087079E+01  0.54042674084E+01  0.17147292086E+03  0.17120000000E+03 0.  0.
        998    1    1    2    0    0  0.84429852901E+00  0.72356151898E+01  0.14811739017E+04  0.14812255717E+04  0.10000000000E+02 0.  1.
</event>
<event>
 5    1  0.1338396E-008  0.3832504E+03  0.7957747E-01  0.3437127E+00
         13   -1    0    0    0    0  0.00000000000E+00  0.00000000000E+00  0.14999999963E+04  0.15000000000E+04  0.10566000000E+00 0.  1.
        994   -1    0    0    0    0 -0.00000000000E+00 -0.00000000000E+00  0.11368683772E-12  0.17120000000E+03  0.17120000000E+03 0.  0.
         13    1    1    2    0    0 -0.79617679893E+01  0.25551703488E+02  0.14600881874E+03  0.14844145518E+03  0.10566000000E+00 0.  1.
        994    1    1    2    0    0  0.10633580116E+02 -0.10359656499E+02  0.32305549436E+01  0.17187283670E+03  0.17120000000E+03 0.  0.
        998    1    1    2    0    0 -0.26718121271E+01 -0.15192046989E+02  0.13507606226E+04  0.13508857081E+04  0.10000000000E+02 0.  1.
</event>
<event>
 5    1  0.1338396E-008  0.3732167E+03  0.7957747E-01  0.3481237E+00
         13   -1    0    0    0    0  0.00000000000E+00  0.00000000000E+00  0.14999999963E+04  0.15000000000E+04  0.10566000000E+00 0.  1.
        994   -1    0    0    0    0 -0.00000000000E+00 -0.00000000000E+00  0.11368683772E-12  0.17120000000E+03  0.17120000000E+03 0.  0.
         13    1    1    2    0    0 -0.27375976301E+02  0.94042435243E+02  0.47754360283E+03  0.48748469460E+03  0.10566000000E+00 0.  1.
        994    1    1    2    0    0  0.92164662536E+01 -0.87358277297E+02  0.34464249508E+02  0.19548308458E+03  0.17120000000E+03 0.  0.
        998    1    1    2    0    0  0.18159510047E+02 -0.66841579456E+01  0.98799214394E+03  0.98823222082E+03  0.10000000000E+02 0. -1.
</event>
<event>
 5    1  0.1338396E-008  0.3738446E+03  0.7957747E-01  0.3478407E+00
         13   -1    0    0    0    0  0.00000000000E+00  0.00000000000E+00  0.14999999963E+04  0.15000000000E+04  0.10566000000E+00 0.  1.
        994   -1    0    0    0    0 -0.00000000000E+00 -0.00000000000E+00  0.11368683772E-12  0.17120000000E+03  0.17120000000E+03 0.  0.
         13    1    1    2    0    0  0.17161449065E+02 -0.92957759041E+01  0.22846146482E+02  0.30048034158E+02  0.10566000000E+00 0.  1.
        994    1    1    2    0    0 -0.14754696273E+02  0.11236333155E+02  0.84478904780E+01  0.17240870946E+03  0.17120000000E+03 0.  0.
        998    1    1    2    0    0 -0.24067527918E+01 -0.19405572505E+01  0.14687059593E+04  0.14687432564E+04  0.10000000000E+02 0.  1.
</event>
<event>
 5    1  0.1783012E-008  0.3856749E+03  0.7957747E-01  0.3426815E+00
         13   -1    0    0    0    0  0.00000000000E+00  0.00000000000E+00  0.14999999963E+04  0.15000000000E+04  0.10566000000E+00 0.  1.
        994   -1    0    0    0    0 -0.00000000000E+00 -0.00000000000E+00  0.11368683772E-12  0.17120000000E+03  0.17120000000E+03 0.  0.
         13    1    1    2    0    0  0.88657288838E+01 -0.69254904913E+01  0.48051257758E+02  0.49350765985E+02  0.10566000000E+00 0.  1.
        994    1    1    2    0    0 -0.13220935862E+02  0.16324234826E+01  0.18779485843E+01  0.17172776317E+03  0.17120000000E+03 0.  0.
        998    1    1    2    0    0  0.43552069783E+01  0.52930670087E+01  0.14500707899E+04  0.14501214708E+04  0.10000000000E+02 0.  1.
</event>
<event>
 5    1  0.1338396E-008  0.3803536E+03  0.7957747E-01  0.3449620E+00
         13   -1    0    0    0    0  0.00000000000E+00  0.00000000000E+00  0.14999999963E+04  0.15000000000E+04  0.10566000000E+00 0.  1.
        994   -1    0    0    0    0 -0.00000000000E+00 -0.00000000000E+00  0.11368683772E-12  0.17120000000E+03  0.17120000000E+03 0.  0.
         13    1    1    2    0    0  0.56856689042E-01  0.41522053155E+02  0.21294524689E+03  0.21695569472E+03  0.10566000000E+00 0.  1.
        994    1    1    2    0    0 -0.19958335120E+01 -0.26098898053E+02  0.62458114401E+01  0.17330200804E+03  0.17120000000E+03 0.  0.
        998    1    1    2    0    0  0.19389768229E+01 -0.15423155102E+02  0.12808089379E+04  0.12809422972E+04  0.10000000000E+02 0.  1.
</event>
<event>
 5    1  0.1338396E-008  0.3766572E+03  0.7957747E-01  0.3465844E+00
         13   -1    0    0    0    0  0.00000000000E+00  0.00000000000E+00  0.14999999963E+04  0.15000000000E+04  0.10566000000E+00 0.  1.
        994   -1    0    0    0    0 -0.00000000000E+00 -0.00000000000E+00  0.11368683772E-12  0.17120000000E+03  0.17120000000E+03 0.  0.
         13    1    1    2    0    0  0.93307712377E+01 -0.42190164106E+02  0.18071679058E+03  0.18581077149E+03  0.10566000000E+00 0.  1.
        994    1    1    2    0    0 -0.20479003415E+02 -0.58252910271E+00  0.72502720213E+01  0.17257385481E+03  0.17120000000E+03 0.  0.
        998    1    1    2    0    0  0.11148232178E+02  0.42772693209E+02  0.13120329337E+04  0.13128153737E+04  0.10000000000E+02 0.  1.
</event>
<event>
 5    1  0.1338396E-008  0.3692928E+03  0.7957747E-01  0.3499147E+00
         13   -1    0    0    0    0  0.00000000000E+00  0.00000000000E+00  0.14999999963E+04  0.15000000000E+04  0.10566000000E+00 0.  1.
        994   -1    0    0    0    0 -0.00000000000E+00 -0.00000000000E+00  0.11368683772E-12  0.17120000000E+03  0.17120000000E+03 0.  0.
         13    1    1    2    0    0  0.51144258625E+02  0.27934329286E+02  0.25428312101E+03  0.26087540845E+03  0.10566000000E+00 0.  1.
        994    1    1    2    0    0  0.25250419303E+02  0.45788996459E+02  0.20162064449E+02  0.18013929253E+03  0.17120000000E+03 0.  0.
        998    1    1    2    0    0 -0.76394677928E+02 -0.73723325745E+02  0.12255548108E+04  0.12301852990E+04  0.10000000000E+02 0.  1.
</event>
<event>
 5    1  0.1338396E-008  0.3850836E+03  0.7957747E-01  0.3429318E+00
         13   -1    0    0    0    0  0.00000000000E+00  0.00000000000E+00  0.14999999963E+04  0.15000000000E+04  0.10566000000E+00 0.  1.
        994   -1    0    0    0    0 -0.00000000000E+00 -0.00000000000E+00  0.11368683772E-12  0.17120000000E+03  0.17120000000E+03 0.  0.
         13    1    1    2    0    0 -0.98829380464E+01  0.49028359233E+01  0.38131544212E+02  0.39695542477E+02  0.10566000000E+00 0.  1.
        994    1    1    2    0    0  0.44973113188E+01 -0.85494419448E+01  0.18955316792E+01  0.17148280324E+03  0.17120000000E+03 0.  0.
        998    1    1    2    0    0  0.53856267276E+01  0.36466060215E+01  0.14599729204E+04  0.14600216543E+04  0.10000000000E+02 0.  1.
</event>
<event>
 5    1  0.1338396E-008  0.3855520E+03  0.7957747E-01  0.3427334E+00
         13   -1    0    0    0    0  0.00000000000E+00  0.00000000000E+00  0.14999999963E+04  0.15000000000E+04  0.10566000000E+00 0. -1.
        994   -1    0    0    0    0 -0.00000000000E+00 -0.00000000000E+00  0.11368683772E-12  0.17120000000E+03  0.17120000000E+03 0.  0.
         13    1    1    2    0    0  0.13808912889E+02  0.39933271872E+01  0.78053575795E+02  0.79366268626E+02  0.10566000000E+00 0. -1.
        994    1    1    2    0    0 -0.55337474799E+01 -0.60246950873E+01  0.15760246154E+01  0.17140257631E+03  0.17120000000E+03 0.  0.
        998    1    1    2    0    0 -0.82751654087E+01  0.20313679001E+01  0.14203703959E+04  0.14204311551E+04  0.10000000000E+02 0. -1.
</event>
<event>
 5    1  0.1338396E-008  0.3796627E+03  0.7957747E-01  0.3452629E+00
         13   -1    0    0    0    0  0.00000000000E+00  0.00000000000E+00  0.14999999963E+04  0.15000000000E+04  0.10566000000E+00 0. -1.
        994   -1    0    0    0    0 -0.00000000000E+00 -0.00000000000E+00  0.11368683772E-12  0.17120000000E+03  0.17120000000E+03 0.  0.
         13    1    1    2    0    0 -0.46619567028E+02 -0.52471560494E+01  0.26351233020E+03  0.26765589104E+03  0.10566000000E+00 0. -1.
        994    1    1    2    0    0  0.21304262109E+02  0.15356117062E+02  0.66150741566E+01  0.17332882369E+03  0.17120000000E+03 0.  0.
        998    1    1    2    0    0  0.25315304920E+02 -0.10108961012E+02  0.12298725919E+04  0.12302152853E+04  0.10000000000E+02 0. -1.
</event>
<event>
 5    1  0.1338396E-008  0.3855044E+03  0.7957747E-01  0.3427536E+00
         13   -1    0    0    0    0  0.00000000000E+00  0.00000000000E+00  0.14999999963E+04  0.15000000000E+04  0.10566000000E+00 0. -1.
        994   -1    0    0    0    0 -0.00000000000E+00 -0.00000000000E+00  0.11368683772E-12  0.17120000000E+03  0.17120000000E+03 0.  0.
         13    1    1    2    0    0 -0.13113890620E+02  0.16850402018E+01  0.67559223434E+02  0.68840927671E+02  0.10566000000E+00 0. -1.
        994    1    1    2    0    0 -0.32375228207E+00 -0.57610575035E+01  0.14892228745E+01  0.17130368468E+03  0.17120000000E+03 0.  0.
        998    1    1    2    0    0  0.13437642902E+02  0.40760173017E+01  0.14309515500E+04  0.14310553877E+04  0.10000000000E+02 0. -1.
</event>
<event>
 5    1  0.1338396E-008  0.3828782E+03  0.7957747E-01  0.3438721E+00
         13   -1    0    0    0    0  0.00000000000E+00  0.00000000000E+00  0.14999999963E+04  0.15000000000E+04  0.10566000000E+00 0. -1.
        994   -1    0    0    0    0 -0.00000000000E+00 -0.00000000000E+00  0.11368683772E-12  0.17120000000E+03  0.17120000000E+03 0.  0.
         13    1    1    2    0    0  0.18982954428E+01  0.25671636517E+02  0.13518120200E+03  0.13761033749E+03  0.10566000000E+00 0. -1.
        994    1    1    2    0    0  0.47493829157E+01 -0.26716218048E+01  0.27855879583E+01  0.17130935089E+03  0.17120000000E+03 0.  0.
        998    1    1    2    0    0 -0.66476783585E+01 -0.23000014712E+02  0.13620332063E+04  0.13622803116E+04  0.10000000000E+02 0. -1.
</event>
<event>
 5    1  0.1338396E-008  0.3723740E+03  0.7957747E-01  0.3485051E+00
         13   -1    0    0    0    0  0.00000000000E+00  0.00000000000E+00  0.14999999963E+04  0.15000000000E+04  0.10566000000E+00 0.  1.
        994   -1    0    0    0    0 -0.00000000000E+00 -0.00000000000E+00  0.11368683772E-12  0.17120000000E+03  0.17120000000E+03 0.  0.
         13    1    1    2    0    0  0.90437142702E+00  0.47487824609E+02  0.94494369139E+02  0.10575967254E+03  0.10566000000E+00 0.  1.
        994    1    1    2    0    0 -0.57410437772E+00 -0.10110250318E+02  0.12561249828E+02  0.17195863385E+03  0.17120000000E+03 0.  0.
        998    1    1    2    0    0 -0.33026704930E+00 -0.37377574291E+02  0.13929443773E+04  0.13934816936E+04  0.10000000000E+02 0.  1.
</event>
<event>
 5    1  0.1338396E-008  0.3780560E+03  0.7957747E-01  0.3459667E+00
         13   -1    0    0    0    0  0.00000000000E+00  0.00000000000E+00  0.14999999963E+04  0.15000000000E+04  0.10566000000E+00 0. -1.
        994   -1    0    0    0    0 -0.00000000000E+00 -0.00000000000E+00  0.11368683772E-12  0.17120000000E+03  0.17120000000E+03 0.  0.
         13    1    1    2    0    0 -0.15305174211E+02  0.41715859205E+02  0.20948884504E+03  0.21414959404E+03  0.10566000000E+00 0. -1.
        994    1    1    2    0    0 -0.34371423111E+01 -0.14718066986E+02  0.58866499683E+01  0.17196664819E+03  0.17120000000E+03 0.  0.
        998    1    1    2    0    0  0.18742316522E+02 -0.26997792219E+02  0.12846245013E+04  0.12850837578E+04  0.10000000000E+02 0. -1.
</event>
<event>
 5    1  0.1338396E-008  0.3761385E+03  0.7957747E-01  0.3468147E+00
         13   -1    0    0    0    0  0.00000000000E+00  0.00000000000E+00  0.14999999963E+04  0.15000000000E+04  0.10566000000E+00 0.  1.
        994   -1    0    0    0    0 -0.00000000000E+00 -0.00000000000E+00  0.11368683772E-12  0.17120000000E+03  0.17120000000E+03 0.  0.
         13    1    1    2    0    0  0.11766404727E+02 -0.73872998234E+01  0.12928138390E+02  0.18978103308E+02  0.10566000000E+00 0.  1.
        994    1    1    2    0    0 -0.12019501029E+02  0.12772047409E+02  0.71375118454E+01  0.17224394815E+03  0.17120000000E+03 0.  0.
        998    1    1    2    0    0  0.25309630119E+00 -0.53847475857E+01  0.14799343460E+04  0.14799779485E+04  0.10000000000E+02 0.  1.
</event>
<event>
 5    1  0.1338396E-008  0.3850207E+03  0.7957747E-01  0.3429584E+00
         13   -1    0    0    0    0  0.00000000000E+00  0.00000000000E+00  0.14999999963E+04  0.15000000000E+04  0.10566000000E+00 0. -1.
        994   -1    0    0    0    0 -0.00000000000E+00 -0.00000000000E+00  0.11368683772E-12  0.17120000000E+03  0.17120000000E+03 0.  0.
         13    1    1    2    0    0  0.66857957235E+01  0.81913215590E+01  0.36939034090E+02  0.38422662803E+02  0.10566000000E+00 0. -1.
        994    1    1    2    0    0  0.51297929501E+01  0.57642815421E+01  0.18156715280E+01  0.17138342505E+03  0.17120000000E+03 0.  0.
        998    1    1    2    0    0 -0.11815588674E+02 -0.13955603101E+02  0.14612452907E+04  0.14613939122E+04  0.10000000000E+02 0. -1.
</event>
<event>
 5    1  0.1338396E-008  0.3805601E+03  0.7957747E-01  0.3448723E+00
         13   -1    0    0    0    0  0.00000000000E+00  0.00000000000E+00  0.14999999963E+04  0.15000000000E+04  0.10566000000E+00 0.  1.
        994   -1    0    0    0    0 -0.00000000000E+00 -0.00000000000E+00  0.11368683772E-12  0.17120000000E+03  0.17120000000E+03 0.  0.
         13    1    1    2    0    0  0.14161903978E+02  0.40906709974E+02  0.20566531335E+03  0.21017171723E+03  0.10566000000E+00 0.  1.
        994    1    1    2    0    0 -0.13031921515E+02 -0.44684123678E+02  0.11113785284E+02  0.17776236416E+03  0.17120000000E+03 0.  0.
        998    1    1    2    0    0 -0.11299824637E+01  0.37774137040E+01  0.12832208976E+04  0.12832659186E+04  0.10000000000E+02 0.  1.
</event>
<event>
 5    1  0.1338396E-008  0.3841902E+03  0.7957747E-01  0.3433114E+00
         13   -1    0    0    0    0  0.00000000000E+00  0.00000000000E+00  0.14999999963E+04  0.15000000000E+04  0.10566000000E+00 0. -1.
        994   -1    0    0    0    0 -0.00000000000E+00 -0.00000000000E+00  0.11368683772E-12  0.17120000000E+03  0.17120000000E+03 0.  0.
         13    1    1    2    0    0  0.21515558410E+02 -0.10878399544E+02  0.13005994196E+03  0.13227569126E+03  0.10566000000E+00 0. -1.
        994    1    1    2    0    0 -0.24563125935E+02  0.96552250641E+01  0.43329204119E+01  0.17327661333E+03  0.17120000000E+03 0.  0.
        998    1    1    2    0    0  0.30475675247E+01  0.12231744803E+01  0.13656071339E+04  0.13656476954E+04  0.10000000000E+02 0. -1.
</event>
<event>
 5    1  0.1338396E-008  0.3719389E+03  0.7957747E-01  0.3487027E+00
         13   -1    0    0    0    0  0.00000000000E+00  0.00000000000E+00  0.14999999963E+04  0.15000000000E+04  0.10566000000E+00 0. -1.
        994   -1    0    0    0    0 -0.00000000000E+00 -0.00000000000E+00  0.11368683772E-12  0.17120000000E+03  0.17120000000E+03 0.  0.
         13    1    1    2    0    0  0.42134543388E+02  0.35741318021E+02  0.23388112292E+03  0.24031885566E+03  0.10566000000E+00 0. -1.
        994    1    1    2    0    0 -0.88684457590E+01  0.22460148170E+02  0.10264489867E+02  0.17319903966E+03  0.17120000000E+03 0.  0.
        998    1    1    2    0    0 -0.33266097629E+02 -0.58201466192E+02  0.12558543835E+04  0.12576821047E+04  0.10000000000E+02 0. -1.
</event>
<event>
 5    1  0.1338396E-008  0.3689989E+03  0.7957747E-01  0.3500504E+00
         13   -1    0    0    0    0  0.00000000000E+00  0.00000000000E+00  0.14999999963E+04  0.15000000000E+04  0.10566000000E+00 0.  1.
        994   -1    0    0    0    0 -0.00000000000E+00 -0.00000000000E+00  0.11368683772E-12  0.17120000000E+03  0.17120000000E+03 0.  0.
         13    1    1    2    0    0 -0.12988249049E+02  0.11669131091E+03  0.50224001490E+03  0.51578154328E+03  0.10566000000E+00 0.  1.
        994    1    1    2    0    0  0.36714479518E+01 -0.10032316774E+03  0.46394344712E+02  0.20381386787E+03  0.17120000000E+03 0.  0.
        998    1    1    2    0    0  0.93168010975E+01 -0.16368143171E+02  0.95136563667E+03  0.95160458885E+03  0.10000000000E+02 0.  1.
</event>
<event>
 5    1  0.1338396E-008  0.3719833E+03  0.7957747E-01  0.3486825E+00
         13   -1    0    0    0    0  0.00000000000E+00  0.00000000000E+00  0.14999999963E+04  0.15000000000E+04  0.10566000000E+00 0.  1.
        994   -1    0    0    0    0 -0.00000000000E+00 -0.00000000000E+00  0.11368683772E-12  0.17120000000E+03  0.17120000000E+03 0.  0.
         13    1    1    2    0    0  0.33144083922E+02  0.33955036177E+01  0.42149475587E+02  0.53727546009E+02  0.10566000000E+00 0.  1.
        994    1    1    2    0    0 -0.16561709749E+02 -0.15801339444E+02  0.13838149674E+02  0.17327696599E+03  0.17120000000E+03 0.  0.
        998    1    1    2    0    0 -0.16582374173E+02  0.12405835826E+02  0.14440123710E+04  0.14441954880E+04  0.10000000000E+02 0.  1.
</event>
<event>
 5    1  0.1338396E-008  0.3849008E+03  0.7957747E-01  0.3430093E+00
         13   -1    0    0    0    0  0.00000000000E+00  0.00000000000E+00  0.14999999963E+04  0.15000000000E+04  0.10566000000E+00 0. -1.
        994   -1    0    0    0    0 -0.00000000000E+00 -0.00000000000E+00  0.11368683772E-12  0.17120000000E+03  0.17120000000E+03 0.  0.
         13    1    1    2    0    0  0.14382145357E+02 -0.60635696555E+01  0.68617863384E+02  0.70370699310E+02  0.10566000000E+00 0. -1.
        994    1    1    2    0    0 -0.17514167038E+02  0.71111977024E+01  0.28557218732E+01  0.17226407149E+03  0.17120000000E+03 0.  0.
        998    1    1    2    0    0  0.31320216816E+01 -0.10476280469E+01  0.14285264110E+04  0.14285652292E+04  0.10000000000E+02 0. -1.
</event>
<event>
 5    1  0.1338396E-008  0.3816257E+03  0.7957747E-01  0.3444110E+00
         13   -1    0    0    0    0  0.00000000000E+00  0.00000000000E+00  0.14999999963E+04  0.15000000000E+04  0.10566000000E+00 0. -1.
        994   -1    0    0    0    0 -0.00000000000E+00 -0.00000000000E+00  0.11368683772E-12  0.17120000000E+03  0.17120000000E+03 0.  0.
         13    1    1    2    0    0 -0.14127584538E+02 -0.26507088395E+02  0.17837370130E+03  0.18088505427E+03  0.10566000000E+00 0. -1.
        994    1    1    2    0    0 -0.26245053063E+02 -0.40599495991E+01  0.56633862789E+01  0.17334012791E+03  0.17120000000E+03 0.  0.
        998    1    1    2    0    0  0.40372637602E+02  0.30567037994E+02  0.13159629087E+04  0.13169748178E+04  0.10000000000E+02 0. -1.
</event>
<event>
 5    1  0.1338396E-008  0.4060879E+03  0.7957747E-01  0.3344880E+00
         13   -1    0    0    0    0  0.00000000000E+00  0.00000000000E+00  0.14999999963E+04  0.15000000000E+04  0.10566000000E+00 0. -1.
        994   -1    0    0    0    0 -0.00000000000E+00 -0.00000000000E+00  0.11368683772E-12  0.17120000000E+03  0.17120000000E+03 0.  0.
         13    1    1    2    0    0  0.31517668269E+02  0.14697065916E+03  0.37358523649E+03  0.40269054887E+03  0.10566000000E+00 0. -1.
        994    1    1    2    0    0 -0.50849883438E+02 -0.72706897662E+02  0.63836818728E+02  0.20311716579E+03  0.17120000000E+03 0.  0.
        998    1    1    2    0    0  0.19332215170E+02 -0.74263761501E+02  0.10625779411E+04  0.10653922853E+04  0.10000000000E+02 0. -1.
</event>
<event>
 5    1  0.1338396E-008  0.3744478E+03  0.7957747E-01  0.3475696E+00
         13   -1    0    0    0    0  0.00000000000E+00  0.00000000000E+00  0.14999999963E+04  0.15000000000E+04  0.10566000000E+00 0. -1.
        994   -1    0    0    0    0 -0.00000000000E+00 -0.00000000000E+00  0.11368683772E-12  0.17120000000E+03  0.17120000000E+03 0.  0.
         13    1    1    2    0    0  0.22967574088E+02 -0.25512362828E+02  0.43295432266E+02  0.55253015626E+02  0.10566000000E+00 0. -1.
        994    1    1    2    0    0  0.41082938443E+02  0.13085566834E+02  0.19941649292E+02  0.17766865021E+03  0.17120000000E+03 0.  0.
        998    1    1    2    0    0 -0.64050512532E+02  0.12426795994E+02  0.14367629147E+04  0.14382783342E+04  0.10000000000E+02 0. -1.
</event>
<event>
 5    1  0.1338396E-008  0.3767200E+03  0.7957747E-01  0.3465566E+00
         13   -1    0    0    0    0  0.00000000000E+00  0.00000000000E+00  0.14999999963E+04  0.15000000000E+04  0.10566000000E+00 0.  1.
        994   -1    0    0    0    0 -0.00000000000E+00 -0.00000000000E+00  0.11368683772E-12  0.17120000000E+03  0.17120000000E+03 0.  0.
         13    1    1    2    0    0  0.45617488542E+02  0.22479629661E+02  0.22209875000E+03  0.22784677950E+03  0.10566000000E+00 0.  1.
        994    1    1    2    0    0 -0.19638073692E+02 -0.25341209890E+02  0.92796364496E+01  0.17442299880E+03  0.17120000000E+03 0.  0.
        998    1    1    2    0    0 -0.25979414849E+02  0.28615802283E+01  0.12686216098E+04  0.12689302217E+04  0.10000000000E+02 0.  1.
</event>
<event>
 5    1  0.1338396E-008  0.3814138E+03  0.7957747E-01  0.3445025E+00
         13   -1    0    0    0    0  0.00000000000E+00  0.00000000000E+00  0.14999999963E+04  0.15000000000E+04  0.10566000000E+00 0.  1.
        994   -1    0    0    0    0 -0.00000000000E+00 -0.00000000000E+00  0.11368683772E-12  0.17120000000E+03  0.17120000000E+03 0.  0.
         13    1    1    2    0    0  0.26203890579E+02 -0.25200150199E+02  0.18257572778E+03  0.18616014340E+03  0.10566000000E+00 0.  1.
        994    1    1    2    0    0 -0.16040014857E+02  0.23479719655E+02  0.61162400679E+01  0.17365318225E+03  0.17120000000E+03 0.  0.
        998    1    1    2    0    0 -0.10163875722E+02  0.17204305437E+01  0.13113080284E+04  0.13113866744E+04  0.10000000000E+02 0.  1.
</event>
<event>
 5    1  0.1338396E-008  0.3733948E+03  0.7957747E-01  0.3480433E+00
         13   -1    0    0    0    0  0.00000000000E+00  0.00000000000E+00  0.14999999963E+04  0.15000000000E+04  0.10566000000E+00 0.  1.
        994   -1    0    0    0    0 -0.00000000000E+00 -0.00000000000E+00  0.11368683772E-12  0.17120000000E+03  0.17120000000E+03 0.  0.
         13    1    1    2    0    0  0.60201242202E+02 -0.22086944979E+02  0.28922300182E+03  0.29624648293E+03  0.10566000000E+00 0.  1.
        994    1    1    2    0    0 -0.25243925215E+02  0.12079432962E+02  0.10186654341E+02  0.17377104588E+03  0.17120000000E+03 0.  0.
        998    1    1    2    0    0 -0.34957316987E+02  0.10007512017E+02  0.12005903401E+04  0.12011824712E+04  0.10000000000E+02 0.  1.
</event>
<event>
 5    1  0.1338396E-008  0.3792518E+03  0.7957747E-01  0.3454423E+00
         13   -1    0    0    0    0  0.00000000000E+00  0.00000000000E+00  0.14999999963E+04  0.15000000000E+04  0.10566000000E+00 0. -1.
        994   -1    0    0    0    0 -0.00000000000E+00 -0.00000000000E+00  0.11368683772E-12  0.17120000000E+03  0.17120000000E+03 0.  0.
         13    1    1    2    0    0 -0.76909270896E+02 -0.16749146474E+03  0.86376445335E+03  0.88320862130E+03  0.10566000000E+00 0. -1.
        994    1    1    2    0    0  0.74796163656E+02  0.18746787415E+03  0.15597575808E+03  0.30720766111E+03  0.17120000000E+03 0.  0.
        998    1    1    2    0    0  0.21131072403E+01 -0.19976409403E+02  0.48025978485E+03  0.48078371759E+03  0.10000000000E+02 0. -1.
</event>
<event>
 5    1  0.1338396E-008  0.3736072E+03  0.7957747E-01  0.3479475E+00
         13   -1    0    0    0    0  0.00000000000E+00  0.00000000000E+00  0.14999999963E+04  0.15000000000E+04  0.10566000000E+00 0.  1.
        994   -1    0    0    0    0 -0.00000000000E+00 -0.00000000000E+00  0.11368683772E-12  0.17120000000E+03  0.17120000000E+03 0.  0.
         13    1    1    2    0    0 -0.23325436294E+02 -0.49945762284E+02  0.19093199764E+03  0.19873020414E+03  0.10566000000E+00 0.  1.
        994    1    1    2    0    0  0.23202578541E+02  0.36869589655E+02  0.13904701157E+02  0.17720188206E+03  0.17120000000E+03 0.  0.
        998    1    1    2    0    0  0.12285775275E+00  0.13076172629E+02  0.12951632975E+04  0.12952679138E+04  0.10000000000E+02 0.  1.
</event>
<event>
 5    1  0.1338396E-008  0.3554585E+03  0.7957747E-01  0.3565512E+00
         13   -1    0    0    0    0  0.00000000000E+00  0.00000000000E+00  0.14999999963E+04  0.15000000000E+04  0.10566000000E+00 0. -1.
        994   -1    0    0    0    0 -0.00000000000E+00 -0.00000000000E+00  0.11368683772E-12  0.17120000000E+03  0.17120000000E+03 0.  0.
         13    1    1    2    0    0  0.10408278352E+03 -0.24534611749E+03  0.89573275518E+03  0.93454005963E+03  0.10566000000E+00 0. -1.
        994    1    1    2    0    0 -0.10298939651E+03  0.24909102104E+03  0.31957039372E+03  0.45176080962E+03  0.17120000000E+03 0.  0.
        998    1    1    2    0    0 -0.10933870037E+01 -0.37449035516E+01  0.28469684738E+03  0.28489913076E+03  0.10000000000E+02 0.  0.
</event>
<event>
 5    1  0.1338396E-008  0.3718676E+03  0.7957747E-01  0.3487352E+00
         13   -1    0    0    0    0  0.00000000000E+00  0.00000000000E+00  0.14999999963E+04  0.15000000000E+04  0.10566000000E+00 0.  1.
        994   -1    0    0    0    0 -0.00000000000E+00 -0.00000000000E+00  0.11368683772E-12  0.17120000000E+03  0.17120000000E+03 0.  0.
         13    1    1    2    0    0  0.36482780380E+02 -0.26039574225E+02  0.12178602284E+03  0.12977249021E+03  0.10566000000E+00 0.  1.
        994    1    1    2    0    0 -0.10040449037E+02  0.21087120132E+02  0.10172427305E+02  0.17308493733E+03  0.17120000000E+03 0.  0.
        998    1    1    2    0    0 -0.26442331343E+02  0.49524540931E+01  0.13680415461E+04  0.13683425725E+04  0.10000000000E+02 0.  1.
</event>
<event>
 5    1  0.1338396E-008  0.3837390E+03  0.7957747E-01  0.3435038E+00
         13   -1    0    0    0    0  0.00000000000E+00  0.00000000000E+00  0.14999999963E+04  0.15000000000E+04  0.10566000000E+00 0. -1.
        994   -1    0    0    0    0 -0.00000000000E+00 -0.00000000000E+00  0.11368683772E-12  0.17120000000E+03  0.17120000000E+03 0.  0.
         13    1    1    2    0    0 -0.73983048389E+02  0.17025493799E+02  0.19955218410E+03  0.21350513865E+03  0.10566000000E+00 0. -1.
        994    1    1    2    0    0 -0.42170389027E+02 -0.12671820033E+03  0.87285400301E+02  0.23401714704E+03  0.17120000000E+03 0.  0.
        998    1    1    2    0    0  0.11615343742E+03  0.10969270653E+03  0.12131624119E+04  0.12236777143E+04  0.10000000000E+02 0. -1.
</event>
<event>
 5    1  0.1338396E-008  0.3686424E+03  0.7957747E-01  0.3502153E+00
         13   -1    0    0    0    0  0.00000000000E+00  0.00000000000E+00  0.14999999963E+04  0.15000000000E+04  0.10566000000E+00 0.  1.
        994   -1    0    0    0    0 -0.00000000000E+00 -0.00000000000E+00  0.11368683772E-12  0.17120000000E+03  0.17120000000E+03 0.  0.
         13    1    1    2    0    0  0.47306361988E+02  0.82844889435E+01  0.10204067698E+03  0.11277781503E+03  0.10566000000E+00 0.  1.
        994    1    1    2    0    0 -0.48461342878E+02 -0.65410242536E+01  0.18589791308E+02  0.17901482367E+03  0.17120000000E+03 0.  0.
        998    1    1    2    0    0  0.11549808904E+01 -0.17434646900E+01  0.13793695280E+04  0.13794073613E+04  0.10000000000E+02 0.  1.
</event>
<event>
 5    1  0.1338396E-008  0.3856565E+03  0.7957747E-01  0.3426892E+00
         13   -1    0    0    0    0  0.00000000000E+00  0.00000000000E+00  0.14999999963E+04  0.15000000000E+04  0.10566000000E+00 0. -1.
        994   -1    0    0    0    0 -0.00000000000E+00 -0.00000000000E+00  0.11368683772E-12  0.17120000000E+03  0.17120000000E+03 0.  0.
         13    1    1    2    0    0  0.31263039277E+01  0.10056376421E+02  0.42097703307E+02  0.43395071963E+02  0.10566000000E+00 0. -1.
        994    1    1    2    0    0 -0.23189602135E+01 -0.95473776300E+01  0.16213661435E+01  0.17148935484E+03  0.17120000000E+03 0.  0.
        998    1    1    2    0    0 -0.80734371415E+00 -0.50899879129E+00  0.14562809268E+04  0.14563155732E+04  0.10000000000E+02 0.  0.
</event>
<event>
 5    1  0.1338396E-008  0.3811974E+03  0.7957747E-01  0.3445961E+00
         13   -1    0    0    0    0  0.00000000000E+00  0.00000000000E+00  0.14999999963E+04  0.15000000000E+04  0.10566000000E+00 0.  1.
        994   -1    0    0    0    0 -0.00000000000E+00 -0.00000000000E+00  0.11368683772E-12  0.17120000000E+03  0.17120000000E+03 0.  0.
         13    1    1    2    0    0  0.15076137867E+02  0.61289218830E+02  0.10486531285E+03  0.12239445773E+03  0.10566000000E+00 0.  1.
        994    1    1    2    0    0 -0.11894463353E+02 -0.60339297159E+02  0.30884299849E+02  0.18451446831E+03  0.17120000000E+03 0.  0.
        998    1    1    2    0    0 -0.31816745141E+01 -0.94992167069E+00  0.13642503836E+04  0.13642910740E+04  0.10000000000E+02 0.  1.
</event>
<event>
 5    1  0.1338396E-008  0.3853453E+03  0.7957747E-01  0.3428209E+00
         13   -1    0    0    0    0  0.00000000000E+00  0.00000000000E+00  0.14999999963E+04  0.15000000000E+04  0.10566000000E+00 0.  1.
        994   -1    0    0    0    0 -0.00000000000E+00 -0.00000000000E+00  0.11368683772E-12  0.17120000000E+03  0.17120000000E+03 0.  0.
         13    1    1    2    0    0  0.28507557816E+01  0.13802933576E+02  0.65389280600E+02  0.66891082853E+02  0.10566000000E+00 0.  1.
        994    1    1    2    0    0 -0.71605775788E+01 -0.14792780248E+02  0.23465765986E+01  0.17200304253E+03  0.17120000000E+03 0.  0.
        998    1    1    2    0    0  0.43098217972E+01  0.98984667210E+00  0.14322641391E+04  0.14323058746E+04  0.10000000000E+02 0.  1.
</event>
<event>
 5    1  0.1338396E-008  0.3769938E+03  0.7957747E-01  0.3464354E+00
         13   -1    0    0    0    0  0.00000000000E+00  0.00000000000E+00  0.14999999963E+04  0.15000000000E+04  0.10566000000E+00 0.  1.
        994   -1    0    0    0    0 -0.00000000000E+00 -0.00000000000E+00  0.11368683772E-12  0.17120000000E+03  0.17120000000E+03 0.  0.
         13    1    1    2    0    0 -0.64617377030E+02  0.24672614468E+02  0.34867864398E+03  0.35547285586E+03  0.10566000000E+00 0.  1.
        994    1    1    2    0    0  0.55242829622E+02 -0.26748635909E+02  0.18486136032E+02  0.18280710318E+03  0.17120000000E+03 0.  0.
        998    1    1    2    0    0  0.93745474078E+01  0.20760214404E+01  0.11328352163E+04  0.11329200410E+04  0.10000000000E+02 0.  1.
</event>
<event>
 5    1  0.1338396E-008  0.3772998E+03  0.7957747E-01  0.3463001E+00
         13   -1    0    0    0    0  0.00000000000E+00  0.00000000000E+00  0.14999999963E+04  0.15000000000E+04  0.10566000000E+00 0.  1.
        994   -1    0    0    0    0 -0.00000000000E+00 -0.00000000000E+00  0.11368683772E-12  0.17120000000E+03  0.17120000000E+03 0.  0.
         13    1    1    2    0    0  0.49577086687E+02 -0.44831585561E+01  0.19123176313E+03  0.19760461692E+03  0.10566000000E+00 0.  1.
        994    1    1    2    0    0 -0.51841171057E+02  0.31727825013E+02  0.18066096291E+02  0.18256501782E+03  0.17120000000E+03 0.  0.
        998    1    1    2    0    0  0.22640843693E+01 -0.27244666457E+02  0.12907021369E+04  0.12910303653E+04  0.10000000000E+02 0.  1.
</event>
<event>
 5    1  0.1338396E-008  0.3800034E+03  0.7957747E-01  0.3451144E+00
         13   -1    0    0    0    0  0.00000000000E+00  0.00000000000E+00  0.14999999963E+04  0.15000000000E+04  0.10566000000E+00 0.  1.
        994   -1    0    0    0    0 -0.00000000000E+00 -0.00000000000E+00  0.11368683772E-12  0.17120000000E+03  0.17120000000E+03 0.  0.
         13    1    1    2    0    0  0.85223006655E+01 -0.98633652064E+01  0.19178013608E+02  0.23188854042E+02  0.10566000000E+00 0.  1.
        994    1    1    2    0    0  0.21662025843E+01  0.49461331902E+01  0.42288975612E+01  0.17133732880E+03  0.17120000000E+03 0.  0.
        998    1    1    2    0    0 -0.10688503250E+02  0.49172320162E+01  0.14765930851E+04  0.14766738172E+04  0.10000000000E+02 0.  1.
</event>
<event>
 5    1  0.1338396E-008  0.4316547E+03  0.7957747E-01  0.3253084E+00
         13   -1    0    0    0    0  0.00000000000E+00  0.00000000000E+00  0.14999999963E+04  0.15000000000E+04  0.10566000000E+00 0. -1.
        994   -1    0    0    0    0 -0.00000000000E+00 -0.00000000000E+00  0.11368683772E-12  0.17120000000E+03  0.17120000000E+03 0.  0.
         13    1    1    2    0    0  0.50635403062E+02 -0.59522214028E+02  0.43372614804E+02  0.89375795857E+02  0.10566000000E+00 0. -1.
        994    1    1    2    0    0 -0.69445435427E+02  0.69299192555E+02  0.93246063678E+02  0.21824141445E+03  0.17120000000E+03 0.  0.
        998    1    1    2    0    0  0.18810032365E+02 -0.97769785267E+01  0.13633813178E+04  0.13635827897E+04  0.10000000000E+02 0. -1.
</event>
<event>
 5    1  0.1338396E-008  0.3764486E+03  0.7957747E-01  0.3466769E+00
         13   -1    0    0    0    0  0.00000000000E+00  0.00000000000E+00  0.14999999963E+04  0.15000000000E+04  0.10566000000E+00 0. -1.
        994   -1    0    0    0    0 -0.00000000000E+00 -0.00000000000E+00  0.11368683772E-12  0.17120000000E+03  0.17120000000E+03 0.  0.
         13    1    1    2    0    0 -0.69157308181E+02  0.42068650564E+01  0.32524091950E+03  0.33253886670E+03  0.10566000000E+00 0. -1.
        994    1    1    2    0    0  0.65614282958E+02 -0.42949545922E+01  0.20705169009E+02  0.18455845900E+03  0.17120000000E+03 0.  0.
        998    1    1    2    0    0  0.35430252228E+01  0.88089535769E-01  0.11540539078E+04  0.11541026743E+04  0.10000000000E+02 0.  0.
</event>
<event>
 5    1  0.1338396E-008  0.3814268E+03  0.7957747E-01  0.3444969E+00
         13   -1    0    0    0    0  0.00000000000E+00  0.00000000000E+00  0.14999999963E+04  0.15000000000E+04  0.10566000000E+00 0.  1.
        994   -1    0    0    0    0 -0.00000000000E+00 -0.00000000000E+00  0.11368683772E-12  0.17120000000E+03  0.17120000000E+03 0.  0.
         13    1    1    2    0    0  0.25068787845E+02 -0.13296373625E+02  0.12795746066E+03  0.13106624500E+03  0.10566000000E+00 0.  1.
        994    1    1    2    0    0 -0.27358941691E+01  0.92305319066E+00  0.34423817711E+01  0.17125894761E+03  0.17120000000E+03 0.  0.
        998    1    1    2    0    0 -0.22332893676E+02  0.12373320434E+02  0.13686001539E+04  0.13688748074E+04  0.10000000000E+02 0.  1.
</event>
<event>
 5    1  0.1338396E-008  0.3843753E+03  0.7957747E-01  0.3432326E+00
         13   -1    0    0    0    0  0.00000000000E+00  0.00000000000E+00  0.14999999963E+04  0.15000000000E+04  0.10566000000E+00 0.  1.
        994   -1    0    0    0    0 -0.00000000000E+00 -0.00000000000E+00  0.11368683772E-12  0.17120000000E+03  0.17120000000E+03 0.  0.
         13    1    1    2    0    0 -0.16037831938E+01  0.17660330775E+02  0.79945498706E+02  0.81888664240E+02  0.10566000000E+00 0.  1.
        994    1    1    2    0    0  0.10781018338E+01 -0.12925468838E+02  0.24951915946E+01  0.17170875350E+03  0.17120000000E+03 0.  0.
        998    1    1    2    0    0  0.52568135995E+00 -0.47348619374E+01  0.14175593060E+04  0.14176025823E+04  0.10000000000E+02 0.  1.
</event>
<event>
 5    1  0.1338396E-008  0.3802020E+03  0.7957747E-01  0.3450279E+00
         13   -1    0    0    0    0  0.00000000000E+00  0.00000000000E+00  0.14999999963E+04  0.15000000000E+04  0.10566000000E+00 0. -1.
        994   -1    0    0    0    0 -0.00000000000E+00 -0.00000000000E+00  0.11368683772E-12  0.17120000000E+03  0.17120000000E+03 0.  0.
         13    1    1    2    0    0  0.13356124171E+02  0.11488029355E+02  0.37486289876E+02  0.41419729164E+02  0.10566000000E+00 0. -1.
        994    1    1    2    0    0  0.31648264496E+00 -0.11853898990E+02  0.45010809780E+01  0.17166920170E+03  0.17120000000E+03 0.  0.
        998    1    1    2    0    0 -0.13672606816E+02  0.36586963493E+00  0.14580126254E+04  0.14581110691E+04  0.10000000000E+02 0. -1.
</event>
<event>
 5    1  0.1338396E-008  0.3858763E+03  0.7957747E-01  0.3425964E+00
         13   -1    0    0    0    0  0.00000000000E+00  0.00000000000E+00  0.14999999963E+04  0.15000000000E+04  0.10566000000E+00 0.  1.
        994   -1    0    0    0    0 -0.00000000000E+00 -0.00000000000E+00  0.11368683772E-12  0.17120000000E+03  0.17120000000E+03 0.  0.
         13    1    1    2    0    0 -0.13580832830E+01  0.11604676955E+02  0.58693151722E+02  0.59844883996E+02  0.10566000000E+00 0.  1.
        994    1    1    2    0    0  0.34870265515E+01 -0.48944894395E+01  0.13141433355E+01  0.17131048524E+03  0.17120000000E+03 0.  0.
        998    1    1    2    0    0 -0.21289432685E+01 -0.67101875159E+01  0.14399927012E+04  0.14400446308E+04  0.10000000000E+02 0.  1.
</event>
<event>
 5    1  0.1338396E-008  0.3758263E+03  0.7957747E-01  0.3469535E+00
         13   -1    0    0    0    0  0.00000000000E+00  0.00000000000E+00  0.14999999963E+04  0.15000000000E+04  0.10566000000E+00 0.  1.
        994   -1    0    0    0    0 -0.00000000000E+00 -0.00000000000E+00  0.11368683772E-12  0.17120000000E+03  0.17120000000E+03 0.  0.
         13    1    1    2    0    0 -0.17040206677E+02  0.39203356008E+02  0.15547980294E+03  0.16124903737E+03  0.10566000000E+00 0.  1.
        994    1    1    2    0    0  0.93354025318E+01 -0.79774883374E+01  0.67663088410E+01  0.17177314399E+03  0.17120000000E+03 0.  0.
        998    1    1    2    0    0  0.77048041449E+01 -0.31225867671E+02  0.13377538845E+04  0.13381778186E+04  0.10000000000E+02 0.  0.
</event>
<event>
 5    1  0.1338396E-008  0.3832497E+03  0.7957747E-01  0.3437130E+00
         13   -1    0    0    0    0  0.00000000000E+00  0.00000000000E+00  0.14999999963E+04  0.15000000000E+04  0.10566000000E+00 0.  1.
        994   -1    0    0    0    0 -0.00000000000E+00 -0.00000000000E+00  0.11368683772E-12  0.17120000000E+03  0.17120000000E+03 0.  0.
         13    1    1    2    0    0  0.11764463641E+02  0.65345405048E+01  0.35944189690E+02  0.38380968733E+02  0.10566000000E+00 0.  1.
        994    1    1    2    0    0 -0.48825418413E+01 -0.23185474999E+01  0.25982795537E+01  0.17130500849E+03  0.17120000000E+03 0.  0.
        998    1    1    2    0    0 -0.68819218000E+01 -0.42159930049E+01  0.14614575270E+04  0.14615140228E+04  0.10000000000E+02 0.  1.
</event>
<event>
 5    1  0.1338396E-008  0.3834218E+03  0.7957747E-01  0.3436393E+00
         13   -1    0    0    0    0  0.00000000000E+00  0.00000000000E+00  0.14999999963E+04  0.15000000000E+04  0.10566000000E+00 0. -1.
        994   -1    0    0    0    0 -0.00000000000E+00 -0.00000000000E+00  0.11368683772E-12  0.17120000000E+03  0.17120000000E+03 0.  0.
         13    1    1    2    0    0 -0.20303295268E+02  0.13716169818E+02  0.12231389184E+03  0.12474396344E+03  0.10566000000E+00 0. -1.
        994    1    1    2    0    0  0.23414745886E+02  0.45630495844E+01  0.42991062726E+01  0.17290747254E+03  0.17120000000E+03 0.  0.
        998    1    1    2    0    0 -0.31114506186E+01 -0.18279219403E+02  0.13733869982E+04  0.13735485640E+04  0.10000000000E+02 0. -1.
</event>
<event>
 5    1  0.1338396E-008  0.3719070E+03  0.7957747E-01  0.3487172E+00
         13   -1    0    0    0    0  0.00000000000E+00  0.00000000000E+00  0.14999999963E+04  0.15000000000E+04  0.10566000000E+00 0. -1.
        994   -1    0    0    0    0 -0.00000000000E+00 -0.00000000000E+00  0.11368683772E-12  0.17120000000E+03  0.17120000000E+03 0.  0.
         13    1    1    2    0    0  0.26248399954E+02 -0.10841752025E+02  0.28497612712E+02  0.40232414561E+02  0.10566000000E+00 0. -1.
        994    1    1    2    0    0 -0.25424342730E+02  0.55812036299E+01  0.14339001655E+02  0.17376016231E+03  0.17120000000E+03 0.  0.
        998    1    1    2    0    0 -0.82405722392E+00  0.52605483946E+01  0.14571633819E+04  0.14572074231E+04  0.10000000000E+02 0. -1.
</event>
<event>
 5    1  0.1338396E-008  0.3799928E+03  0.7957747E-01  0.3451190E+00
         13   -1    0    0    0    0  0.00000000000E+00  0.00000000000E+00  0.14999999963E+04  0.15000000000E+04  0.10566000000E+00 0. -1.
        994   -1    0    0    0    0 -0.00000000000E+00 -0.00000000000E+00  0.11368683772E-12  0.17120000000E+03  0.17120000000E+03 0.  0.
         13    1    1    2    0    0  0.15294196079E+01 -0.13805176958E+02  0.21300055609E+02  0.25428833402E+02  0.10566000000E+00 0. -1.
        994    1    1    2    0    0 -0.16720277144E+00  0.14991317207E+02  0.48885138380E+01  0.17192470769E+03  0.17120000000E+03 0.  0.
        998    1    1    2    0    0 -0.13622168364E+01 -0.11861402491E+01  0.14738114268E+04  0.14738464589E+04  0.10000000000E+02 0. -1.
</event>
<event>
 5    1  0.1338396E-008  0.3837737E+03  0.7957747E-01  0.3434890E+00
         13   -1    0    0    0    0  0.00000000000E+00  0.00000000000E+00  0.14999999963E+04  0.15000000000E+04  0.10566000000E+00 0.  1.
        994   -1    0    0    0    0 -0.00000000000E+00 -0.00000000000E+00  0.11368683772E-12  0.17120000000E+03  0.17120000000E+03 0.  0.
         13    1    1    2    0    0  0.13128311250E-03 -0.26944353219E+02  0.15184894743E+03  0.15422098485E+03  0.10566000000E+00 0.  1.
        994    1    1    2    0    0  0.29923161906E+01  0.23574225770E+02  0.41069437784E+01  0.17289015317E+03  0.17120000000E+03 0.  0.
        998    1    1    2    0    0 -0.29924474737E+01  0.33701274492E+01  0.13440441051E+04  0.13440888620E+04  0.10000000000E+02 0.  1.
</event>
<event>
 5    1  0.1338396E-008  0.3821139E+03  0.7957747E-01  0.3442005E+00
         13   -1    0    0    0    0  0.00000000000E+00  0.00000000000E+00  0.14999999963E+04  0.15000000000E+04  0.10566000000E+00 0.  1.
        994   -1    0    0    0    0 -0.00000000000E+00 -0.00000000000E+00  0.11368683772E-12  0.17120000000E+03  0.17120000000E+03 0.  0.
         13    1    1    2    0    0  0.67308483479E+01  0.12616492645E+02  0.31470327829E+02  0.34566933678E+02  0.10566000000E+00 0.  1.
        994    1    1    2    0    0 -0.73812869761E+01 -0.14465130605E+02  0.39458098593E+01  0.17201375764E+03  0.17120000000E+03 0.  0.
        998    1    1    2    0    0  0.65043862813E+00  0.18486379603E+01  0.14645838586E+04  0.14646193087E+04  0.10000000000E+02 0.  1.
</event>
<event>
 5    1  0.1338396E-008  0.3791209E+03  0.7957747E-01  0.3454995E+00
         13   -1    0    0    0    0  0.00000000000E+00  0.00000000000E+00  0.14999999963E+04  0.15000000000E+04  0.10566000000E+00 0.  1.
        994   -1    0    0    0    0 -0.00000000000E+00 -0.00000000000E+00  0.11368683772E-12  0.17120000000E+03  0.17120000000E+03 0.  0.
         13    1    1    2    0    0 -0.25027346269E+02  0.36746677465E+02  0.21327504523E+03  0.21785991473E+03  0.10566000000E+00 0.  1.
        994    1    1    2    0    0  0.24015498967E+02 -0.15620423197E+02  0.73341025633E+01  0.17373534722E+03  0.17120000000E+03 0.  0.
        998    1    1    2    0    0  0.10118473012E+01 -0.21126254267E+02  0.12793908485E+04  0.12796047381E+04  0.10000000000E+02 0.  1.
</event>
<event>
 5    1  0.1338396E-008  0.3857410E+03  0.7957747E-01  0.3426536E+00
         13   -1    0    0    0    0  0.00000000000E+00  0.00000000000E+00  0.14999999963E+04  0.15000000000E+04  0.10566000000E+00 0.  1.
        994   -1    0    0    0    0 -0.00000000000E+00 -0.00000000000E+00  0.11368683772E-12  0.17120000000E+03  0.17120000000E+03 0.  0.
         13    1    1    2    0    0 -0.11308797598E+02 -0.10098719839E+01  0.48938741385E+02  0.50238633708E+02  0.10566000000E+00 0.  1.
        994    1    1    2    0    0  0.15313093422E+02  0.52044003576E+01  0.21213377971E+01  0.17197533744E+03  0.17120000000E+03 0.  0.
        998    1    1    2    0    0 -0.40042958243E+01 -0.41945283737E+01  0.14489399171E+04  0.14489860289E+04  0.10000000000E+02 0.  1.
</event>
<event>
 5    1  0.1338396E-008  0.3797747E+03  0.7957747E-01  0.3452140E+00
         13   -1    0    0    0    0  0.00000000000E+00  0.00000000000E+00  0.14999999963E+04  0.15000000000E+04  0.10566000000E+00 0. -1.
        994   -1    0    0    0    0 -0.00000000000E+00 -0.00000000000E+00  0.11368683772E-12  0.17120000000E+03  0.17120000000E+03 0.  0.
         13    1    1    2    0    0  0.35381636738E+02 -0.38990696782E+02  0.22938214336E+03  0.23534721905E+03  0.10566000000E+00 0. -1.
        994    1    1    2    0    0 -0.40486635803E+02  0.67300853535E+02  0.25167408618E+02  0.19003002663E+03  0.17120000000E+03 0.  0.
        998    1    1    2    0    0  0.51049990650E+01 -0.28310156753E+02  0.12454504443E+04  0.12458227543E+04  0.10000000000E+02 0. -1.
</event>
<event>
 5    1  0.1338396E-008  0.3805188E+03  0.7957747E-01  0.3448903E+00
         13   -1    0    0    0    0  0.00000000000E+00  0.00000000000E+00  0.14999999963E+04  0.15000000000E+04  0.10566000000E+00 0. -1.
        994   -1    0    0    0    0 -0.00000000000E+00 -0.00000000000E+00  0.11368683772E-12  0.17120000000E+03  0.17120000000E+03 0.  0.
         13    1    1    2    0    0 -0.44691600636E+01 -0.92010192720E+01  0.12003263801E+02  0.15770911617E+02  0.10566000000E+00 0. -1.
        994    1    1    2    0    0 -0.35342393635E+01  0.31297073939E+01  0.39458582763E+01  0.17131052424E+03  0.17120000000E+03 0.  0.
        998    1    1    2    0    0  0.80033994270E+01  0.60713118782E+01  0.14840508742E+04  0.14841185641E+04  0.10000000000E+02 0. -1.
</event>
<event>
 5    1  0.1338396E-008  0.3823125E+03  0.7957747E-01  0.3441151E+00
         13   -1    0    0    0    0  0.00000000000E+00  0.00000000000E+00  0.14999999963E+04  0.15000000000E+04  0.10566000000E+00 0. -1.
        994   -1    0    0    0    0 -0.00000000000E+00 -0.00000000000E+00  0.11368683772E-12  0.17120000000E+03  0.17120000000E+03 0.  0.
         13    1    1    2    0    0 -0.17320733981E+02  0.92592208762E+01  0.69480579997E+02  0.72203207392E+02  0.10566000000E+00 0. -1.
        994    1    1    2    0    0 -0.54221478751E+01 -0.22063014811E+01  0.30840450705E+01  0.17132781090E+03  0.17120000000E+03 0.  0.
        998    1    1    2    0    0  0.22742881857E+02 -0.70529193951E+01  0.14274353712E+04  0.14276689817E+04  0.10000000000E+02 0. -1.
</event>
<event>
 5    1  0.1338396E-008  0.3825946E+03  0.7957747E-01  0.3439938E+00
         13   -1    0    0    0    0  0.00000000000E+00  0.00000000000E+00  0.14999999963E+04  0.15000000000E+04  0.10566000000E+00 0.  1.
        994   -1    0    0    0    0 -0.00000000000E+00 -0.00000000000E+00  0.11368683772E-12  0.17120000000E+03  0.17120000000E+03 0.  0.
         13    1    1    2    0    0 -0.12698692444E+03  0.10284791531E+02  0.47130877621E+03  0.48822477366E+03  0.10566000000E+00 0.  1.
        994    1    1    2    0    0  0.70337337041E+02  0.74958342094E+01  0.36302143092E+02  0.18876126220E+03  0.17120000000E+03 0.  0.
        998    1    1    2    0    0  0.56649587399E+02 -0.17780625740E+02  0.99238907697E+03  0.99421396414E+03  0.10000000000E+02 0.  1.
</event>
<event>
 5    1  0.1338396E-008  0.3729958E+03  0.7957747E-01  0.3482235E+00
         13   -1    0    0    0    0  0.00000000000E+00  0.00000000000E+00  0.14999999963E+04  0.15000000000E+04  0.10566000000E+00 0. -1.
        994   -1    0    0    0    0 -0.00000000000E+00 -0.00000000000E+00  0.11368683772E-12  0.17120000000E+03  0.17120000000E+03 0.  0.
         13    1    1    2    0    0  0.62281783409E+02 -0.97150852588E+02  0.57130951394E+03  0.58284807676E+03  0.10566000000E+00 0. -1.
        994    1    1    2    0    0 -0.60164890932E+02  0.88196513425E+02  0.47787294941E+02  0.20734392839E+03  0.17120000000E+03 0.  0.
        998    1    1    2    0    0 -0.21168924769E+01  0.89543391634E+01  0.88090318740E+03  0.88100799485E+03  0.10000000000E+02 0. -1.
</event>
<event>
 5    1  0.1353129E-008  0.3858045E+03  0.7957747E-01  0.3426267E+00
         13   -1    0    0    0    0  0.00000000000E+00  0.00000000000E+00  0.14999999963E+04  0.15000000000E+04  0.10566000000E+00 0.  1.
        994   -1    0    0    0    0 -0.00000000000E+00 -0.00000000000E+00  0.11368683772E-12  0.17120000000E+03  0.17120000000E+03 0.  0.
         13    1    1    2    0    0  0.12594473168E+02 -0.49684938046E+01  0.71562010498E+02  0.72831581032E+02  0.10566000000E+00 0.  1.
        994    1    1    2    0    0 -0.15787558000E+02  0.18068526450E+01  0.20599315492E+01  0.17194823355E+03  0.17120000000E+03 0.  0.
        998    1    1    2    0    0  0.31930848325E+01  0.31616411596E+01  0.14263780542E+04  0.14264201854E+04  0.10000000000E+02 0.  1.
</event>
<event>
 5    1  0.1338396E-008  0.3821031E+03  0.7957747E-01  0.3442052E+00
         13   -1    0    0    0    0  0.00000000000E+00  0.00000000000E+00  0.14999999963E+04  0.15000000000E+04  0.10566000000E+00 0. -1.
        994   -1    0    0    0    0 -0.00000000000E+00 -0.00000000000E+00  0.11368683772E-12  0.17120000000E+03  0.17120000000E+03 0.  0.
         13    1    1    2    0    0  0.10848950123E+02 -0.57058711296E+00  0.17877742305E+02  0.20920088967E+02  0.10566000000E+00 0. -1.
        994    1    1    2    0    0 -0.93221436281E+01 -0.41237652462E+00  0.33643872407E+01  0.17148711764E+03  0.17120000000E+03 0.  0.
        998    1    1    2    0    0 -0.15268064952E+01  0.98296363758E+00  0.14787578667E+04  0.14787927934E+04  0.10000000000E+02 0. -1.
</event>
<event>
 5    1  0.1338396E-008  0.3857543E+03  0.7957747E-01  0.3426479E+00
         13   -1    0    0    0    0  0.00000000000E+00  0.00000000000E+00  0.14999999963E+04  0.15000000000E+04  0.10566000000E+00 0. -1.
        994   -1    0    0    0    0 -0.00000000000E+00 -0.00000000000E+00  0.11368683772E-12  0.17120000000E+03  0.17120000000E+03 0.  0.
         13    1    1    2    0    0  0.13718509185E+02 -0.64915356650E+01  0.90665500121E+02  0.91927045018E+02  0.10566000000E+00 0. -1.
        994    1    1    2    0    0 -0.18415212895E+02 -0.95194432179E+01  0.26671795546E+01  0.17247113878E+03  0.17120000000E+03 0.  0.
        998    1    1    2    0    0  0.46967037096E+01  0.16010978883E+02  0.14066673166E+04  0.14068018162E+04  0.10000000000E+02 0. -1.
</event>
<event>
 5    1  0.1338396E-008  0.2685787E+03  0.7957747E-01  0.4149477E+00
         13   -1    0    0    0    0  0.00000000000E+00  0.00000000000E+00  0.14999999963E+04  0.15000000000E+04  0.10566000000E+00 0.  1.
        994   -1    0    0    0    0 -0.00000000000E+00 -0.00000000000E+00  0.11368683772E-12  0.17120000000E+03  0.17120000000E+03 0.  0.
         13    1    1    2    0    0  0.68079095404E+02  0.15302657965E+03  0.56689415432E+03  0.59111833897E+03  0.10566000000E+00 0.  1.
        994    1    1    2    0    0  0.98345278691E+02 -0.16064093722E+03  0.18779540010E+03  0.31631290971E+03  0.17120000000E+03 0.  0.
        998    1    1    2    0    0 -0.16642437409E+03  0.76143575742E+01  0.74531044186E+03  0.76376875131E+03  0.10000000000E+02 0.  1.
</event>
<event>
 5    1  0.1338396E-008  0.3690605E+03  0.7957747E-01  0.3500220E+00
         13   -1    0    0    0    0  0.00000000000E+00  0.00000000000E+00  0.14999999963E+04  0.15000000000E+04  0.10566000000E+00 0.  1.
        994   -1    0    0    0    0 -0.00000000000E+00 -0.00000000000E+00  0.11368683772E-12  0.17120000000E+03  0.17120000000E+03 0.  0.
         13    1    1    2    0    0 -0.37706740708E+02 -0.14480371834E+03  0.74726311843E+03  0.76209716865E+03  0.10566000000E+00 0.  1.
        994    1    1    2    0    0  0.18778351671E+02  0.12551820137E+03  0.67911132649E+02  0.22367120356E+03  0.17120000000E+03 0.  0.
        998    1    1    2    0    0  0.18928389038E+02  0.19285516974E+02  0.68482574520E+03  0.68543162779E+03  0.10000000000E+02 0.  1.
</event>
<event>
 5    1  0.1338396E-008  0.3742238E+03  0.7957747E-01  0.3476702E+00
         13   -1    0    0    0    0  0.00000000000E+00  0.00000000000E+00  0.14999999963E+04  0.15000000000E+04  0.10566000000E+00 0. -1.
        994   -1    0    0    0    0 -0.00000000000E+00 -0.00000000000E+00  0.11368683772E-12  0.17120000000E+03  0.17120000000E+03 0.  0.
         13    1    1    2    0    0 -0.21061853395E+02  0.56475021865E+02  0.35501778385E+03  0.36009813632E+03  0.10566000000E+00 0. -1.
        994    1    1    2    0    0 -0.29911262155E+02 -0.87416442423E+01  0.10394654606E+02  0.17432323079E+03  0.17120000000E+03 0.  0.
        998    1    1    2    0    0  0.50973115550E+02 -0.47733377623E+02  0.11345875578E+04  0.11367786329E+04  0.10000000000E+02 0. -1.
</event>
<event>
 5    1  0.1338396E-008  0.3846241E+03  0.7957747E-01  0.3431268E+00
         13   -1    0    0    0    0  0.00000000000E+00  0.00000000000E+00  0.14999999963E+04  0.15000000000E+04  0.10566000000E+00 0. -1.
        994   -1    0    0    0    0 -0.00000000000E+00 -0.00000000000E+00  0.11368683772E-12  0.17120000000E+03  0.17120000000E+03 0.  0.
         13    1    1    2    0    0  0.63794000536E+01  0.78693152470E+01  0.29141083705E+02  0.30851852312E+02  0.10566000000E+00 0. -1.
        994    1    1    2    0    0 -0.72664334240E+01  0.10919330074E+02  0.23835107548E+01  0.17171824000E+03  0.17120000000E+03 0.  0.
        998    1    1    2    0    0  0.88703337039E+00 -0.18788645321E+02  0.14684754018E+04  0.14686299077E+04  0.10000000000E+02 0. -1.
</event>
<event>
 5    1  0.1338396E-008  0.3700110E+03  0.7957747E-01  0.3495840E+00
         13   -1    0    0    0    0  0.00000000000E+00  0.00000000000E+00  0.14999999963E+04  0.15000000000E+04  0.10566000000E+00 0. -1.
        994   -1    0    0    0    0 -0.00000000000E+00 -0.00000000000E+00  0.11368683772E-12  0.17120000000E+03  0.17120000000E+03 0.  0.
         13    1    1    2    0    0  0.14360650481E+02 -0.17369312122E+02  0.18392766620E+02  0.29089969299E+02  0.10566000000E+00 0. -1.
        994    1    1    2    0    0 -0.25747864585E+02  0.37952507594E+01  0.13316360160E+02  0.17367821368E+03  0.17120000000E+03 0.  0.
        998    1    1    2    0    0  0.11387214104E+02  0.13574061362E+02  0.14682908695E+04  0.14684318170E+04  0.10000000000E+02 0. -1.
</event>
<event>
 5    1  0.1338396E-008  0.3833911E+03  0.7957747E-01  0.3436524E+00
         13   -1    0    0    0    0  0.00000000000E+00  0.00000000000E+00  0.14999999963E+04  0.15000000000E+04  0.10566000000E+00 0. -1.
        994   -1    0    0    0    0 -0.00000000000E+00 -0.00000000000E+00  0.11368683772E-12  0.17120000000E+03  0.17120000000E+03 0.  0.
         13    1    1    2    0    0  0.10592788321E+02 -0.48655116889E+01  0.26692337738E+02  0.29126833442E+02  0.10566000000E+00 0. -1.
        994    1    1    2    0    0 -0.11483508326E+02  0.55626070472E+01  0.29694602282E+01  0.17170052782E+03  0.17120000000E+03 0.  0.
        998    1    1    2    0    0  0.89072000517E+00 -0.69709535832E+00  0.14703381983E+04  0.14703726387E+04  0.10000000000E+02 0. -1.
</event>
<event>
 5    1  0.1338396E-008  0.4054051E+03  0.7957747E-01  0.3347488E+00
         13   -1    0    0    0    0  0.00000000000E+00  0.00000000000E+00  0.14999999963E+04  0.15000000000E+04  0.10566000000E+00 0.  1.
        994   -1    0    0    0    0 -0.00000000000E+00 -0.00000000000E+00  0.11368683772E-12  0.17120000000E+03  0.17120000000E+03 0.  0.
         13    1    1    2    0    0 -0.48529296634E+02 -0.39531678734E+02  0.51844307848E+02  0.81275394035E+02  0.10566000000E+00 0.  1.
        994    1    1    2    0    0  0.40288126281E+02  0.36886758155E+02  0.43090504287E+02  0.18479717965E+03  0.17120000000E+03 0.  0.
        998    1    1    2    0    0  0.82411703527E+01  0.26449205793E+01  0.14050651841E+04  0.14051274263E+04  0.10000000000E+02 0.  1.
</event>
<event>
 5    1  0.1338396E-008  0.3840209E+03  0.7957747E-01  0.3433836E+00
         13   -1    0    0    0    0  0.00000000000E+00  0.00000000000E+00  0.14999999963E+04  0.15000000000E+04  0.10566000000E+00 0.  1.
        994   -1    0    0    0    0 -0.00000000000E+00 -0.00000000000E+00  0.11368683772E-12  0.17120000000E+03  0.17120000000E+03 0.  0.
         13    1    1    2    0    0 -0.58323346429E+01  0.18680108183E+02  0.82911881146E+02  0.85190103700E+02  0.10566000000E+00 0.  1.
        994    1    1    2    0    0  0.67705155071E+01 -0.24763708312E+02  0.42944622317E+01  0.17316744364E+03  0.17120000000E+03 0.  0.
        998    1    1    2    0    0 -0.93818086419E+00  0.60836001287E+01  0.14127936529E+04  0.14128424527E+04  0.10000000000E+02 0.  1.
</event>
<event>
 5    1  0.1338396E-008  0.3756078E+03  0.7957747E-01  0.3470509E+00
         13   -1    0    0    0    0  0.00000000000E+00  0.00000000000E+00  0.14999999963E+04  0.15000000000E+04  0.10566000000E+00 0.  1.
        994   -1    0    0    0    0 -0.00000000000E+00 -0.00000000000E+00  0.11368683772E-12  0.17120000000E+03  0.17120000000E+03 0.  0.
         13    1    1    2    0    0  0.37132246721E+01 -0.27567870209E+02  0.21412478970E+02  0.35103859118E+02  0.10566000000E+00 0.  1.
        994    1    1    2    0    0 -0.31161137448E+02  0.26569713629E+02  0.19939484186E+02  0.17715526862E+03  0.17120000000E+03 0.  0.
        998    1    1    2    0    0  0.27447912775E+02  0.99815658011E+00  0.14586480331E+04  0.14589408723E+04  0.10000000000E+02 0.  1.
</event>
<event>
 5    1  0.1338396E-008  0.3709464E+03  0.7957747E-01  0.3491553E+00
         13   -1    0    0    0    0  0.00000000000E+00  0.00000000000E+00  0.14999999963E+04  0.15000000000E+04  0.10566000000E+00 0.  1.
        994   -1    0    0    0    0 -0.00000000000E+00 -0.00000000000E+00  0.11368683772E-12  0.17120000000E+03  0.17120000000E+03 0.  0.
         13    1    1    2    0    0  0.91547737692E+02  0.57530714900E+02  0.49498278323E+03  0.50665445650E+03  0.10566000000E+00 0.  1.
        994    1    1    2    0    0 -0.90736365714E+02 -0.35441727819E+02  0.42226297018E+02  0.20144901165E+03  0.17120000000E+03 0.  0.
        998    1    1    2    0    0 -0.81137197848E+00 -0.22088987082E+02  0.96279091603E+03  0.96309653185E+03  0.10000000000E+02 0.  1.
</event>
<event>
 5    1  0.1338396E-008  0.3806048E+03  0.7957747E-01  0.3448529E+00
         13   -1    0    0    0    0  0.00000000000E+00  0.00000000000E+00  0.14999999963E+04  0.15000000000E+04  0.10566000000E+00 0.  1.
        994   -1    0    0    0    0 -0.00000000000E+00 -0.00000000000E+00  0.11368683772E-12  0.17120000000E+03  0.17120000000E+03 0.  0.
         13    1    1    2    0    0  0.20644831155E+02  0.45236098228E+01  0.54534688107E+02  0.58486882890E+02  0.10566000000E+00 0.  1.
        994    1    1    2    0    0 -0.21650515710E+02 -0.15866769603E+02  0.62356205151E+01  0.17340363944E+03  0.17120000000E+03 0.  0.
        998    1    1    2    0    0  0.10056845546E+01  0.11343159781E+02  0.14392296877E+04  0.14393094777E+04  0.10000000000E+02 0.  1.
</event>
<event>
 5    1  0.1338396E-008  0.3808868E+03  0.7957747E-01  0.3447306E+00
         13   -1    0    0    0    0  0.00000000000E+00  0.00000000000E+00  0.14999999963E+04  0.15000000000E+04  0.10566000000E+00 0. -1.
        994   -1    0    0    0    0 -0.00000000000E+00 -0.00000000000E+00  0.11368683772E-12  0.17120000000E+03  0.17120000000E+03 0.  0.
         13    1    1    2    0    0 -0.78729560603E+01  0.12575935879E+02  0.27999039815E+02  0.31687458008E+02  0.10566000000E+00 0. -1.
        994    1    1    2    0    0  0.87393149573E+01 -0.12127286676E+02  0.44312809201E+01  0.17190847262E+03  0.17120000000E+03 0.  0.
        998    1    1    2    0    0 -0.86635889704E+00 -0.44864920315E+00  0.14675696755E+04  0.14676040694E+04  0.10000000000E+02 0. -1.
</event>
<event>
 5    1  0.1338396E-008  0.3846787E+03  0.7957747E-01  0.3431036E+00
         13   -1    0    0    0    0  0.00000000000E+00  0.00000000000E+00  0.14999999963E+04  0.15000000000E+04  0.10566000000E+00 0. -1.
        994   -1    0    0    0    0 -0.00000000000E+00 -0.00000000000E+00  0.11368683772E-12  0.17120000000E+03  0.17120000000E+03 0.  0.
         13    1    1    2    0    0  0.11915639981E+02 -0.35531691636E+01  0.46421820726E+02  0.48058340491E+02  0.10566000000E+00 0. -1.
        994    1    1    2    0    0  0.13049544134E+02  0.22932400999E+02  0.40849806770E+01  0.17326947996E+03  0.17120000000E+03 0.  0.
        998    1    1    2    0    0 -0.24965184114E+02 -0.19379231835E+02  0.14494931949E+04  0.14498721796E+04  0.10000000000E+02 0. -1.
</event>
<event>
 5    1  0.1338396E-008  0.3783211E+03  0.7957747E-01  0.3458501E+00
         13   -1    0    0    0    0  0.00000000000E+00  0.00000000000E+00  0.14999999963E+04  0.15000000000E+04  0.10566000000E+00 0. -1.
        994   -1    0    0    0    0 -0.00000000000E+00 -0.00000000000E+00  0.11368683772E-12  0.17120000000E+03  0.17120000000E+03 0.  0.
         13    1    1    2    0    0  0.27360771048E+02 -0.44393305129E+02  0.23976315736E+03  0.24536862090E+03  0.10566000000E+00 0. -1.
        994    1    1    2    0    0 -0.19474059943E+02  0.42664783271E+02  0.12412760563E+02  0.17794111208E+03  0.17120000000E+03 0.  0.
        998    1    1    2    0    0 -0.78867111050E+01  0.17285218576E+01  0.12478240784E+04  0.12478902670E+04  0.10000000000E+02 0. -1.
</event>
<event>
 5    1  0.1338396E-008  0.3854644E+03  0.7957747E-01  0.3427705E+00
         13   -1    0    0    0    0  0.00000000000E+00  0.00000000000E+00  0.14999999963E+04  0.15000000000E+04  0.10566000000E+00 0.  1.
        994   -1    0    0    0    0 -0.00000000000E+00 -0.00000000000E+00  0.11368683772E-12  0.17120000000E+03  0.17120000000E+03 0.  0.
         13    1    1    2    0    0  0.12717973338E+02  0.11279257626E+02  0.99182646137E+02  0.10062890716E+03  0.10566000000E+00 0.  1.
        994    1    1    2    0    0 -0.10332146189E+02 -0.12766723977E+02  0.22860217991E+01  0.17200118715E+03  0.17120000000E+03 0.  0.
        998    1    1    2    0    0 -0.23858271498E+01  0.14874663511E+01  0.13985313283E+04  0.13985699057E+04  0.10000000000E+02 0.  1.
</event>
<event>
 5    1  0.1338396E-008  0.3745604E+03  0.7957747E-01  0.3475191E+00
         13   -1    0    0    0    0  0.00000000000E+00  0.00000000000E+00  0.14999999963E+04  0.15000000000E+04  0.10566000000E+00 0.  1.
        994   -1    0    0    0    0 -0.00000000000E+00 -0.00000000000E+00  0.11368683772E-12  0.17120000000E+03  0.17120000000E+03 0.  0.
         13    1    1    2    0    0 -0.21535502264E+01 -0.80111389890E+02  0.36357690262E+03  0.37230450958E+03  0.10566000000E+00 0.  1.
        994    1    1    2    0    0 -0.54396899450E+01  0.75812063104E+02  0.26833060449E+02  0.18922608771E+03  0.17120000000E+03 0.  0.
        998    1    1    2    0    0  0.75932401714E+01  0.42993267856E+01  0.11095900332E+04  0.11096694027E+04  0.10000000000E+02 0.  1.
</event>
<event>
 5    1  0.1338396E-008  0.3837413E+03  0.7957747E-01  0.3435028E+00
         13   -1    0    0    0    0  0.00000000000E+00  0.00000000000E+00  0.14999999963E+04  0.15000000000E+04  0.10566000000E+00 0. -1.
        994   -1    0    0    0    0 -0.00000000000E+00 -0.00000000000E+00  0.11368683772E-12  0.17120000000E+03  0.17120000000E+03 0.  0.
         13    1    1    2    0    0 -0.18673011684E+02  0.12457998322E+01  0.10542476774E+03  0.10707299473E+03  0.10566000000E+00 0. -1.
        994    1    1    2    0    0 -0.31238984476E+02 -0.17784098298E+02  0.65348848270E+01  0.17505511424E+03  0.17120000000E+03 0.  0.
        998    1    1    2    0    0  0.49911996160E+02  0.16538298466E+02  0.13880403437E+04  0.13890718910E+04  0.10000000000E+02 0. -1.
</event>
<event>
 5    1  0.1338396E-008  0.3779622E+03  0.7957747E-01  0.3460080E+00
         13   -1    0    0    0    0  0.00000000000E+00  0.00000000000E+00  0.14999999963E+04  0.15000000000E+04  0.10566000000E+00 0.  1.
        994   -1    0    0    0    0 -0.00000000000E+00 -0.00000000000E+00  0.11368683772E-12  0.17120000000E+03  0.17120000000E+03 0.  0.
         13    1    1    2    0    0 -0.27660989812E+02  0.19196252723E+02  0.11377546639E+03  0.11865283137E+03  0.10566000000E+00 0.  1.
        994    1    1    2    0    0  0.32239501341E+01 -0.12583540667E+02  0.57334924008E+01  0.17178781181E+03  0.17120000000E+03 0.  0.
        998    1    1    2    0    0  0.24437039677E+02 -0.66127120560E+01  0.13804910375E+04  0.13807593568E+04  0.10000000000E+02 0.  1.
</event>
<event>
 5    1  0.1338396E-008  0.3845950E+03  0.7957747E-01  0.3431392E+00
         13   -1    0    0    0    0  0.00000000000E+00  0.00000000000E+00  0.14999999963E+04  0.15000000000E+04  0.10566000000E+00 0.  1.
        994   -1    0    0    0    0 -0.00000000000E+00 -0.00000000000E+00  0.11368683772E-12  0.17120000000E+03  0.17120000000E+03 0.  0.
         13    1    1    2    0    0  0.34438207126E+02  0.78055348578E+01  0.21316787666E+03  0.21607283792E+03  0.10566000000E+00 0.  1.
        994    1    1    2    0    0 -0.75196735224E+02  0.18059375892E+02  0.21780189387E+02  0.18911506205E+03  0.17120000000E+03 0.  0.
        998    1    1    2    0    0  0.40758528098E+02 -0.25864910750E+02  0.12650519302E+04  0.12660121000E+04  0.10000000000E+02 0. -1.
</event>
<event>
 5    1  0.1338396E-008  0.3687417E+03  0.7957747E-01  0.3501694E+00
         13   -1    0    0    0    0  0.00000000000E+00  0.00000000000E+00  0.14999999963E+04  0.15000000000E+04  0.10566000000E+00 0. -1.
        994   -1    0    0    0    0 -0.00000000000E+00 -0.00000000000E+00  0.11368683772E-12  0.17120000000E+03  0.17120000000E+03 0.  0.
         13    1    1    2    0    0 -0.14268009264E+03 -0.32739153867E+02  0.55595439711E+03  0.57490413449E+03  0.10566000000E+00 0. -1.
        994    1    1    2    0    0  0.15161977611E+03  0.31269399811E+02  0.99013793368E+02  0.25115633209E+03  0.17120000000E+03 0.  0.
        998    1    1    2    0    0 -0.89396834742E+01  0.14697540559E+01  0.84503180581E+03  0.84513953341E+03  0.10000000000E+02 0.  1.
</event>
<event>
 5    1  0.1338396E-008  0.3709179E+03  0.7957747E-01  0.3491683E+00
         13   -1    0    0    0    0  0.00000000000E+00  0.00000000000E+00  0.14999999963E+04  0.15000000000E+04  0.10566000000E+00 0. -1.
        994   -1    0    0    0    0 -0.00000000000E+00 -0.00000000000E+00  0.11368683772E-12  0.17120000000E+03  0.17120000000E+03 0.  0.
         13    1    1    2    0    0 -0.58659659417E+01 -0.18149413091E+02  0.17502330565E+02  0.25887322983E+02  0.10566000000E+00 0. -1.
        994    1    1    2    0    0  0.11684877732E+02 -0.57684188496E+01  0.93755882567E+01  0.17195101825E+03  0.17120000000E+03 0.  0.
        998    1    1    2    0    0 -0.58189117905E+01  0.23917831941E+02  0.14731220775E+04  0.14733616588E+04  0.10000000000E+02 0. -1.
</event>
<event>
 5    1  0.1338396E-008  0.3784149E+03  0.7957747E-01  0.3458090E+00
         13   -1    0    0    0    0  0.00000000000E+00  0.00000000000E+00  0.14999999963E+04  0.15000000000E+04  0.10566000000E+00 0. -1.
        994   -1    0    0    0    0 -0.00000000000E+00 -0.00000000000E+00  0.11368683772E-12  0.17120000000E+03  0.17120000000E+03 0.  0.
         13    1    1    2    0    0 -0.19263843311E+02 -0.12060073362E+02  0.53033679130E+02  0.57698555569E+02  0.10566000000E+00 0. -1.
        994    1    1    2    0    0  0.53990110267E+01 -0.68873497138E+01  0.51928608260E+01  0.17150215949E+03  0.17120000000E+03 0.  0.
        998    1    1    2    0    0  0.13864832284E+02  0.18947423076E+02  0.14417734563E+04  0.14419992849E+04  0.10000000000E+02 0. -1.
</event>
<event>
 5    1  0.1338396E-008  0.3786602E+03  0.7957747E-01  0.3457013E+00
         13   -1    0    0    0    0  0.00000000000E+00  0.00000000000E+00  0.14999999963E+04  0.15000000000E+04  0.10566000000E+00 0.  1.
        994   -1    0    0    0    0 -0.00000000000E+00 -0.00000000000E+00  0.11368683772E-12  0.17120000000E+03  0.17120000000E+03 0.  0.
         13    1    1    2    0    0 -0.47304058824E+01 -0.10381153113E+02  0.11803475695E+02  0.16415793684E+02  0.10566000000E+00 0.  1.
        994    1    1    2    0    0  0.36232299162E+01 -0.93959467829E+01  0.51515811027E+01  0.17157327997E+03  0.17120000000E+03 0.  0.
        998    1    1    2    0    0  0.11071759662E+01  0.19777099896E+02  0.14830449395E+04  0.14832109263E+04  0.10000000000E+02 0.  1.
</event>
<event>
 5    1  0.1338396E-008  0.3810966E+03  0.7957747E-01  0.3446398E+00
         13   -1    0    0    0    0  0.00000000000E+00  0.00000000000E+00  0.14999999963E+04  0.15000000000E+04  0.10566000000E+00 0. -1.
        994   -1    0    0    0    0 -0.00000000000E+00 -0.00000000000E+00  0.11368683772E-12  0.17120000000E+03  0.17120000000E+03 0.  0.
         13    1    1    2    0    0  0.30716598120E+02 -0.87145078854E+01  0.14180256198E+03  0.14535277705E+03  0.10566000000E+00 0. -1.
        994    1    1    2    0    0 -0.14026322930E+02  0.18164713033E+02  0.53369429184E+01  0.17281382322E+03  0.17120000000E+03 0.  0.
        998    1    1    2    0    0 -0.16690275190E+02 -0.94502051471E+01  0.13528604914E+04  0.13530333997E+04  0.10000000000E+02 0. -1.
</event>
<event>
 5    1  0.1338396E-008  0.3823523E+03  0.7957747E-01  0.3440980E+00
         13   -1    0    0    0    0  0.00000000000E+00  0.00000000000E+00  0.14999999963E+04  0.15000000000E+04  0.10566000000E+00 0.  1.
        994   -1    0    0    0    0 -0.00000000000E+00 -0.00000000000E+00  0.11368683772E-12  0.17120000000E+03  0.17120000000E+03 0.  0.
         13    1    1    2    0    0 -0.85184349710E+01  0.37002506071E+02  0.21254547074E+03  0.21591048489E+03  0.10566000000E+00 0.  1.
        994    1    1    2    0    0  0.14119015567E+02 -0.35291835744E+02  0.77580377223E+01  0.17554055776E+03  0.17120000000E+03 0.  0.
        998    1    1    2    0    0 -0.56005805956E+01 -0.17106703273E+01  0.12796964878E+04  0.12797489573E+04  0.10000000000E+02 0.  1.
</event>
<event>
 5    1  0.1338396E-008  0.3693509E+03  0.7957747E-01  0.3498879E+00
         13   -1    0    0    0    0  0.00000000000E+00  0.00000000000E+00  0.14999999963E+04  0.15000000000E+04  0.10566000000E+00 0.  1.
        994   -1    0    0    0    0 -0.00000000000E+00 -0.00000000000E+00  0.11368683772E-12  0.17120000000E+03  0.17120000000E+03 0.  0.
         13    1    1    2    0    0 -0.15592486468E+02  0.46027183290E+01  0.98801649719E+01  0.19024706941E+02  0.10566000000E+00 0.  1.
        994    1    1    2    0    0 -0.46113631051E+00  0.24877663472E+02  0.11757157792E+02  0.17339775531E+03  0.17120000000E+03 0.  0.
        998    1    1    2    0    0  0.16053622779E+02 -0.29480381801E+02  0.14783626735E+04  0.14787775378E+04  0.10000000000E+02 0.  1.
</event>
<event>
 5    1  0.1338396E-008  0.3848896E+03  0.7957747E-01  0.3430141E+00
         13   -1    0    0    0    0  0.00000000000E+00  0.00000000000E+00  0.14999999963E+04  0.15000000000E+04  0.10566000000E+00 0. -1.
        994   -1    0    0    0    0 -0.00000000000E+00 -0.00000000000E+00  0.11368683772E-12  0.17120000000E+03  0.17120000000E+03 0.  0.
         13    1    1    2    0    0 -0.19453568406E+02 -0.12369586533E+02  0.13241116262E+03  0.13440303250E+03  0.10566000000E+00 0. -1.
        994    1    1    2    0    0  0.30527544182E+02  0.16050585804E+02  0.56082006377E+01  0.17472963164E+03  0.17120000000E+03 0.  0.
        998    1    1    2    0    0 -0.11073975775E+02 -0.36809992710E+01  0.13619806330E+04  0.13620673359E+04  0.10000000000E+02 0. -1.
</event>
<event>
 5    1  0.1338396E-008  0.3724362E+03  0.7957747E-01  0.3484769E+00
         13   -1    0    0    0    0  0.00000000000E+00  0.00000000000E+00  0.14999999963E+04  0.15000000000E+04  0.10566000000E+00 0. -1.
        994   -1    0    0    0    0 -0.00000000000E+00 -0.00000000000E+00  0.11368683772E-12  0.17120000000E+03  0.17120000000E+03 0.  0.
         13    1    1    2    0    0 -0.62019138341E+02  0.90151848875E+01  0.10468750008E+03  0.12201283095E+03  0.10566000000E+00 0. -1.
        994    1    1    2    0    0  0.15871989442E+03  0.91545811816E+02  0.14216587974E+03  0.28825894246E+03  0.17120000000E+03 0.  0.
        998    1    1    2    0    0 -0.96700756074E+02 -0.10056099670E+03  0.12531466165E+04  0.12609282266E+04  0.10000000000E+02 0. -1.
</event>
<event>
 5    1  0.1338396E-008  0.3817604E+03  0.7957747E-01  0.3443529E+00
         13   -1    0    0    0    0  0.00000000000E+00  0.00000000000E+00  0.14999999963E+04  0.15000000000E+04  0.10566000000E+00 0. -1.
        994   -1    0    0    0    0 -0.00000000000E+00 -0.00000000000E+00  0.11368683772E-12  0.17120000000E+03  0.17120000000E+03 0.  0.
         13    1    1    2    0    0 -0.28687255522E+02 -0.42389061974E+01  0.14388812847E+03  0.14678123734E+03  0.10566000000E+00 0. -1.
        994    1    1    2    0    0  0.32919024478E+01 -0.12807588476E+02  0.38285629990E+01  0.17175263852E+03  0.17120000000E+03 0.  0.
        998    1    1    2    0    0  0.25395353074E+02  0.17046494674E+02  0.13522833048E+04  0.13526661241E+04  0.10000000000E+02 0. -1.
</event>
<event>
 5    1  0.1338396E-008  0.3760263E+03  0.7957747E-01  0.3468646E+00
         13   -1    0    0    0    0  0.00000000000E+00  0.00000000000E+00  0.14999999963E+04  0.15000000000E+04  0.10566000000E+00 0.  1.
        994   -1    0    0    0    0 -0.00000000000E+00 -0.00000000000E+00  0.11368683772E-12  0.17120000000E+03  0.17120000000E+03 0.  0.
         13    1    1    2    0    0 -0.36922098752E+01 -0.76285991311E+02  0.37492123511E+03  0.38262139065E+03  0.10566000000E+00 0.  1.
        994    1    1    2    0    0  0.10017093551E+02  0.69720732988E+02  0.23148552214E+02  0.18656531897E+03  0.17120000000E+03 0.  0.
        998    1    1    2    0    0 -0.63248836756E+01  0.65652583228E+01  0.11019302090E+04  0.11020132904E+04  0.10000000000E+02 0.  0.
</event>
<event>
 5    1  0.1338396E-008  0.3826490E+03  0.7957747E-01  0.3439705E+00
         13   -1    0    0    0    0  0.00000000000E+00  0.00000000000E+00  0.14999999963E+04  0.15000000000E+04  0.10566000000E+00 0. -1.
        994   -1    0    0    0    0 -0.00000000000E+00 -0.00000000000E+00  0.11368683772E-12  0.17120000000E+03  0.17120000000E+03 0.  0.
         13    1    1    2    0    0 -0.15121647263E+02 -0.15080464608E+01  0.41205180635E+02  0.43918293401E+02  0.10566000000E+00 0. -1.
        994    1    1    2    0    0  0.48975147009E+01 -0.28496721973E+01  0.29083022738E+01  0.17131843014E+03  0.17120000000E+03 0.  0.
        998    1    1    2    0    0  0.10224132562E+02  0.43577186581E+01  0.14558865134E+04  0.14559632765E+04  0.10000000000E+02 0. -1.
</event>
<event>
 5    1  0.1338396E-008  0.3783556E+03  0.7957747E-01  0.3458350E+00
         13   -1    0    0    0    0  0.00000000000E+00  0.00000000000E+00  0.14999999963E+04  0.15000000000E+04  0.10566000000E+00 0. -1.
        994   -1    0    0    0    0 -0.00000000000E+00 -0.00000000000E+00  0.11368683772E-12  0.17120000000E+03  0.17120000000E+03 0.  0.
         13    1    1    2    0    0  0.14165711825E+02  0.29655276104E+02  0.10851732016E+03  0.11338484348E+03  0.10566000000E+00 0. -1.
        994    1    1    2    0    0 -0.12186502721E+02 -0.13103212339E+02  0.60425555996E+01  0.17223866436E+03  0.17120000000E+03 0.  0.
        998    1    1    2    0    0 -0.19792091031E+01 -0.16552063765E+02  0.13854401205E+04  0.13855764922E+04  0.10000000000E+02 0. -1.
</event>
<event>
 5    1  0.1338396E-008  0.3746710E+03  0.7957747E-01  0.3474695E+00
         13   -1    0    0    0    0  0.00000000000E+00  0.00000000000E+00  0.14999999963E+04  0.15000000000E+04  0.10566000000E+00 0. -1.
        994   -1    0    0    0    0 -0.00000000000E+00 -0.00000000000E+00  0.11368683772E-12  0.17120000000E+03  0.17120000000E+03 0.  0.
         13    1    1    2    0    0 -0.35408187206E+01 -0.40995473716E+02  0.11435478019E+03  0.12153268358E+03  0.10566000000E+00 0. -1.
        994    1    1    2    0    0 -0.14130252737E+01  0.38343440755E+02  0.11874164158E+02  0.17584837748E+03  0.17120000000E+03 0.  0.
        998    1    1    2    0    0  0.49538439943E+01  0.26520329611E+01  0.13737710519E+04  0.13738189389E+04  0.10000000000E+02 0. -1.
</event>
<event>
 5    1  0.1338396E-008  0.3859724E+03  0.7957747E-01  0.3425558E+00
         13   -1    0    0    0    0  0.00000000000E+00  0.00000000000E+00  0.14999999963E+04  0.15000000000E+04  0.10566000000E+00 0. -1.
        994   -1    0    0    0    0 -0.00000000000E+00 -0.00000000000E+00  0.11368683772E-12  0.17120000000E+03  0.17120000000E+03 0.  0.
         13    1    1    2    0    0  0.36047273706E+01 -0.11764891699E+02  0.65970973931E+02  0.67108772166E+02  0.10566000000E+00 0. -1.
        994    1    1    2    0    0  0.33494028368E+01  0.11139582317E+02  0.15918216229E+01  0.17160210573E+03  0.17120000000E+03 0.  0.
        998    1    1    2    0    0 -0.69541302074E+01  0.62530938209E+00  0.14324372007E+04  0.14324891221E+04  0.10000000000E+02 0. -1.
</event>
<event>
 5    1  0.1338396E-008  0.3800506E+03  0.7957747E-01  0.3450938E+00
         13   -1    0    0    0    0  0.00000000000E+00  0.00000000000E+00  0.14999999963E+04  0.15000000000E+04  0.10566000000E+00 0.  1.
        994   -1    0    0    0    0 -0.00000000000E+00 -0.00000000000E+00  0.11368683772E-12  0.17120000000E+03  0.17120000000E+03 0.  0.
         13    1    1    2    0    0  0.41294267341E+01  0.12653161346E+02  0.19608911969E+02  0.23699688813E+02  0.10566000000E+00 0.  1.
        994    1    1    2    0    0 -0.16650827888E+01 -0.14102383714E+02  0.47818886462E+01  0.17185446222E+03  0.17120000000E+03 0.  0.
        998    1    1    2    0    0 -0.24643439452E+01  0.14492223682E+01  0.14756091957E+04  0.14756458490E+04  0.10000000000E+02 0.  1.
</event>
<event>
 5    1  0.1338396E-008  0.3830606E+03  0.7957747E-01  0.3437939E+00
         13   -1    0    0    0    0  0.00000000000E+00  0.00000000000E+00  0.14999999963E+04  0.15000000000E+04  0.10566000000E+00 0. -1.
        994   -1    0    0    0    0 -0.00000000000E+00 -0.00000000000E+00  0.11368683772E-12  0.17120000000E+03  0.17120000000E+03 0.  0.
         13    1    1    2    0    0 -0.11696084335E+02 -0.12221091121E+02  0.52556055916E+02  0.55211444778E+02  0.10566000000E+00 0. -1.
        994    1    1    2    0    0  0.10455444406E+02  0.15410371278E+02  0.37446417433E+01  0.17225056808E+03  0.17120000000E+03 0.  0.
        998    1    1    2    0    0  0.12406399286E+01 -0.31892801566E+01  0.14436992986E+04  0.14437379871E+04  0.10000000000E+02 0. -1.
</event>
<event>
 5    1  0.1338396E-008  0.3769699E+03  0.7957747E-01  0.3464459E+00
         13   -1    0    0    0    0  0.00000000000E+00  0.00000000000E+00  0.14999999963E+04  0.15000000000E+04  0.10566000000E+00 0. -1.
        994   -1    0    0    0    0 -0.00000000000E+00 -0.00000000000E+00  0.11368683772E-12  0.17120000000E+03  0.17120000000E+03 0.  0.
         13    1    1    2    0    0  0.69795564996E+01  0.33448316338E+02  0.10253824555E+03  0.10808148333E+03  0.10566000000E+00 0. -1.
        994    1    1    2    0    0  0.19328114649E+02 -0.22068348746E+02  0.85820733239E+01  0.17390710168E+03  0.17120000000E+03 0.  0.
        998    1    1    2    0    0 -0.26307671149E+02 -0.11379967592E+02  0.13888796774E+04  0.13892114150E+04  0.10000000000E+02 0. -1.
</event>
<event>
 5    1  0.1338396E-008  0.3801932E+03  0.7957747E-01  0.3450318E+00
         13   -1    0    0    0    0  0.00000000000E+00  0.00000000000E+00  0.14999999963E+04  0.15000000000E+04  0.10566000000E+00 0.  1.
        994   -1    0    0    0    0 -0.00000000000E+00 -0.00000000000E+00  0.11368683772E-12  0.17120000000E+03  0.17120000000E+03 0.  0.
         13    1    1    2    0    0  0.19814619750E+02 -0.23753359263E+02  0.11321497766E+03  0.11736474583E+03  0.10566000000E+00 0.  1.
        994    1    1    2    0    0 -0.10034323813E+02  0.24038064807E+02  0.63057353029E+01  0.17328507873E+03  0.17120000000E+03 0.  0.
        998    1    1    2    0    0 -0.97802959376E+01 -0.28470554408E+00  0.13804792833E+04  0.13805501754E+04  0.10000000000E+02 0.  1.
</event>
<event>
 5    1  0.1338396E-008  0.3793746E+03  0.7957747E-01  0.3453886E+00
         13   -1    0    0    0    0  0.00000000000E+00  0.00000000000E+00  0.14999999963E+04  0.15000000000E+04  0.10566000000E+00 0.  1.
        994   -1    0    0    0    0 -0.00000000000E+00 -0.00000000000E+00  0.11368683772E-12  0.17120000000E+03  0.17120000000E+03 0.  0.
         13    1    1    2    0    0 -0.24206794237E+02  0.27452193214E+02  0.18551915071E+03  0.18909510370E+03  0.10566000000E+00 0.  1.
        994    1    1    2    0    0 -0.59339320510E+01  0.73008829820E+01  0.47457220177E+01  0.17152398176E+03  0.17120000000E+03 0.  0.
        998    1    1    2    0    0  0.30140726289E+02 -0.34753076196E+02  0.13097351235E+04  0.13105809145E+04  0.10000000000E+02 0.  1.
</event>
<event>
 5    1  0.1338396E-008  0.3811538E+03  0.7957747E-01  0.3446150E+00
         13   -1    0    0    0    0  0.00000000000E+00  0.00000000000E+00  0.14999999963E+04  0.15000000000E+04  0.10566000000E+00 0.  1.
        994   -1    0    0    0    0 -0.00000000000E+00 -0.00000000000E+00  0.11368683772E-12  0.17120000000E+03  0.17120000000E+03 0.  0.
         13    1    1    2    0    0 -0.10374455209E+02 -0.14862584300E+02  0.47797130502E+02  0.51118515053E+02  0.10566000000E+00 0.  1.
        994    1    1    2    0    0  0.75338514843E+01 -0.96531531436E+01  0.40513507315E+01  0.17168516455E+03  0.17120000000E+03 0.  0.
        998    1    1    2    0    0  0.28406037251E+01  0.24515737444E+02  0.14481515150E+04  0.14483963204E+04  0.10000000000E+02 0.  1.
</event>
<event>
 5    1  0.1338396E-008  0.3854333E+03  0.7957747E-01  0.3427837E+00
         13   -1    0    0    0    0  0.00000000000E+00  0.00000000000E+00  0.14999999963E+04  0.15000000000E+04  0.10566000000E+00 0. -1.
        994   -1    0    0    0    0 -0.00000000000E+00 -0.00000000000E+00  0.11368683772E-12  0.17120000000E+03  0.17120000000E+03 0.  0.
         13    1    1    2    0    0  0.14265609557E+02  0.12448806172E+01  0.74864372235E+02  0.76221668428E+02  0.10566000000E+00 0. -1.
        994    1    1    2    0    0 -0.50711322348E+01 -0.59698614135E+01  0.16166742347E+01  0.17138672429E+03  0.17120000000E+03 0.  0.
        998    1    1    2    0    0 -0.91944773227E+01  0.47249807962E+01  0.14235189498E+04  0.14235916073E+04  0.10000000000E+02 0. -1.
</event>
<event>
 5    1  0.1338396E-008  0.3848200E+03  0.7957747E-01  0.3430436E+00
         13   -1    0    0    0    0  0.00000000000E+00  0.00000000000E+00  0.14999999963E+04  0.15000000000E+04  0.10566000000E+00 0. -1.
        994   -1    0    0    0    0 -0.00000000000E+00 -0.00000000000E+00  0.11368683772E-12  0.17120000000E+03  0.17120000000E+03 0.  0.
         13    1    1    2    0    0 -0.16803557323E+02  0.68517606502E+01  0.92344276572E+02  0.94110481576E+02  0.10566000000E+00 0. -1.
        994    1    1    2    0    0  0.12587552444E+02 -0.13048636221E+02  0.28019350957E+01  0.17218015049E+03  0.17120000000E+03 0.  0.
        998    1    1    2    0    0  0.42160048789E+01  0.61968755707E+01  0.14048537846E+04  0.14049093679E+04  0.10000000000E+02 0. -1.
</event>
<event>
 5    1  0.1338396E-008  0.3859367E+03  0.7957747E-01  0.3425709E+00
         13   -1    0    0    0    0  0.00000000000E+00  0.00000000000E+00  0.14999999963E+04  0.15000000000E+04  0.10566000000E+00 0.  1.
        994   -1    0    0    0    0 -0.00000000000E+00 -0.00000000000E+00  0.11368683772E-12  0.17120000000E+03  0.17120000000E+03 0.  0.
         13    1    1    2    0    0 -0.35827045875E+01 -0.93856080131E+01  0.41417754252E+02  0.42618856640E+02  0.10566000000E+00 0.  1.
        994    1    1    2    0    0  0.23925885689E+02  0.83841975765E+01  0.32759660334E+01  0.17309799169E+03  0.17120000000E+03 0.  0.
        998    1    1    2    0    0 -0.20343181102E+02  0.10014104365E+01  0.14553062760E+04  0.14554831517E+04  0.10000000000E+02 0.  1.
</event>
<event>
 5    1  0.1338396E-008  0.3854785E+03  0.7957747E-01  0.3427646E+00
         13   -1    0    0    0    0  0.00000000000E+00  0.00000000000E+00  0.14999999963E+04  0.15000000000E+04  0.10566000000E+00 0.  1.
        994   -1    0    0    0    0 -0.00000000000E+00 -0.00000000000E+00  0.11368683772E-12  0.17120000000E+03  0.17120000000E+03 0.  0.
         13    1    1    2    0    0 -0.56256975396E+01  0.15256514848E+02  0.94776146274E+02  0.96161004491E+02  0.10566000000E+00 0.  1.
        994    1    1    2    0    0  0.57165797547E+00 -0.11777197923E+02  0.18494240743E+01  0.17161552830E+03  0.17120000000E+03 0.  0.
        998    1    1    2    0    0  0.50540395642E+01 -0.34793169248E+01  0.14033744259E+04  0.14034234672E+04  0.10000000000E+02 0.  1.
</event>
<event>
 5    1  0.1338396E-008  0.3703531E+03  0.7957747E-01  0.3494270E+00
         13   -1    0    0    0    0  0.00000000000E+00  0.00000000000E+00  0.14999999963E+04  0.15000000000E+04  0.10566000000E+00 0.  1.
        994   -1    0    0    0    0 -0.00000000000E+00 -0.00000000000E+00  0.11368683772E-12  0.17120000000E+03  0.17120000000E+03 0.  0.
         13    1    1    2    0    0 -0.27376112551E+02 -0.60649793795E+01  0.25864417466E+02  0.38147277336E+02  0.10566000000E+00 0.  1.
        994    1    1    2    0    0  0.88687206853E+02  0.52076546566E-01  0.39189849511E+02  0.19675036893E+03  0.17120000000E+03 0.  0.
        998    1    1    2    0    0 -0.61311094302E+02  0.60129028329E+01  0.14349457293E+04  0.14363023537E+04  0.10000000000E+02 0.  1.
</event>
<event>
 5    1  0.1338396E-008  0.3855789E+03  0.7957747E-01  0.3427221E+00
         13   -1    0    0    0    0  0.00000000000E+00  0.00000000000E+00  0.14999999963E+04  0.15000000000E+04  0.10566000000E+00 0. -1.
        994   -1    0    0    0    0 -0.00000000000E+00 -0.00000000000E+00  0.11368683772E-12  0.17120000000E+03  0.17120000000E+03 0.  0.
         13    1    1    2    0    0 -0.20668404272E+01 -0.10903709968E+02  0.47947794254E+02  0.49215494087E+02  0.10566000000E+00 0. -1.
        994    1    1    2    0    0 -0.40875702791E+01  0.17138498180E+01  0.14074754936E+01  0.17126314986E+03  0.17120000000E+03 0.  0.
        998    1    1    2    0    0  0.61544107063E+01  0.91898601498E+01  0.14506447265E+04  0.14507213561E+04  0.10000000000E+02 0. -1.
</event>
<event>
 5    1  0.1338396E-008  0.3755263E+03  0.7957747E-01  0.3470872E+00
         13   -1    0    0    0    0  0.00000000000E+00  0.00000000000E+00  0.14999999963E+04  0.15000000000E+04  0.10566000000E+00 0.  1.
        994   -1    0    0    0    0 -0.00000000000E+00 -0.00000000000E+00  0.11368683772E-12  0.17120000000E+03  0.17120000000E+03 0.  0.
         13    1    1    2    0    0 -0.12351993893E+02  0.64973274730E+01  0.12124958714E+02  0.18488180150E+02  0.10566000000E+00 0.  1.
        994    1    1    2    0    0  0.16998389892E+02 -0.65617478384E+01  0.75360413028E+01  0.17233175480E+03  0.17120000000E+03 0.  0.
        998    1    1    2    0    0 -0.46463959991E+01  0.64420365367E-01  0.14803389963E+04  0.14803800651E+04  0.10000000000E+02 0.  1.
</event>
<event>
 5    1  0.1338396E-008  0.3836413E+03  0.7957747E-01  0.3435455E+00
         13   -1    0    0    0    0  0.00000000000E+00  0.00000000000E+00  0.14999999963E+04  0.15000000000E+04  0.10566000000E+00 0.  1.
        994   -1    0    0    0    0 -0.00000000000E+00 -0.00000000000E+00  0.11368683772E-12  0.17120000000E+03  0.17120000000E+03 0.  0.
         13    1    1    2    0    0 -0.11998723402E+02  0.10605665248E+02  0.53314433109E+02  0.55667669615E+02  0.10566000000E+00 0.  1.
        994    1    1    2    0    0  0.15205958578E+02 -0.84364818801E+01  0.33057130827E+01  0.17211264666E+03  0.17120000000E+03 0.  0.
        998    1    1    2    0    0 -0.32072351755E+01 -0.21691833682E+01  0.14433798501E+04  0.14434196837E+04  0.10000000000E+02 0.  1.
</event>
<event>
 5    1  0.1338396E-008  0.3845099E+03  0.7957747E-01  0.3431754E+00
         13   -1    0    0    0    0  0.00000000000E+00  0.00000000000E+00  0.14999999963E+04  0.15000000000E+04  0.10566000000E+00 0. -1.
        994   -1    0    0    0    0 -0.00000000000E+00 -0.00000000000E+00  0.11368683772E-12  0.17120000000E+03  0.17120000000E+03 0.  0.
         13    1    1    2    0    0  0.25073346785E+01 -0.12873875313E+02  0.45683862462E+02  0.47529462928E+02  0.10566000000E+00 0. -1.
        994    1    1    2    0    0  0.12248983524E+01  0.88535641055E+01  0.21368583845E+01  0.17144647018E+03  0.17120000000E+03 0.  0.
        998    1    1    2    0    0 -0.37322330309E+01  0.40203112076E+01  0.14521792754E+04  0.14522240669E+04  0.10000000000E+02 0. -1.
</event>
<event>
 5    1  0.1338396E-008  0.3775165E+03  0.7957747E-01  0.3462044E+00
         13   -1    0    0    0    0  0.00000000000E+00  0.00000000000E+00  0.14999999963E+04  0.15000000000E+04  0.10566000000E+00 0. -1.
        994   -1    0    0    0    0 -0.00000000000E+00 -0.00000000000E+00  0.11368683772E-12  0.17120000000E+03  0.17120000000E+03 0.  0.
         13    1    1    2    0    0  0.54617500776E+02  0.78803704039E+02  0.43311616486E+03  0.44360198217E+03  0.10566000000E+00 0. -1.
        994    1    1    2    0    0 -0.19500815034E+02  0.51330931468E+01  0.16431162639E+02  0.17316481611E+03  0.17120000000E+03 0.  0.
        998    1    1    2    0    0 -0.35116685741E+02 -0.83936797186E+02  0.10504526688E+04  0.10544332017E+04  0.10000000000E+02 0. -1.
</event>
<event>
 5    1  0.1338396E-008  0.3801449E+03  0.7957747E-01  0.3450528E+00
         13   -1    0    0    0    0  0.00000000000E+00  0.00000000000E+00  0.14999999963E+04  0.15000000000E+04  0.10566000000E+00 0. -1.
        994   -1    0    0    0    0 -0.00000000000E+00 -0.00000000000E+00  0.11368683772E-12  0.17120000000E+03  0.17120000000E+03 0.  0.
         13    1    1    2    0    0  0.29908560038E+02 -0.26753973168E+02  0.20983214455E+03  0.21363482182E+03  0.10566000000E+00 0. -1.
        994    1    1    2    0    0 -0.69815114261E+01  0.14698146515E+02  0.49452304778E+01  0.17204264680E+03  0.17120000000E+03 0.  0.
        998    1    1    2    0    0 -0.22927048612E+02  0.12055826654E+02  0.12852226213E+04  0.12855225314E+04  0.10000000000E+02 0. -1.
</event>
<event>
 5    1  0.1338396E-008  0.3803962E+03  0.7957747E-01  0.3449435E+00
         13   -1    0    0    0    0  0.00000000000E+00  0.00000000000E+00  0.14999999963E+04  0.15000000000E+04  0.10566000000E+00 0. -1.
        994   -1    0    0    0    0 -0.00000000000E+00 -0.00000000000E+00  0.11368683772E-12  0.17120000000E+03  0.17120000000E+03 0.  0.
         13    1    1    2    0    0  0.23145201594E+02 -0.12676554711E+02  0.94963250871E+02  0.98561785577E+02  0.10566000000E+00 0. -1.
        994    1    1    2    0    0 -0.27062614199E+01 -0.54761843011E+01  0.40578764401E+01  0.17135699229E+03  0.17120000000E+03 0.  0.
        998    1    1    2    0    0 -0.20438940174E+02  0.18152739012E+02  0.14009788690E+04  0.14012812221E+04  0.10000000000E+02 0. -1.
</event>
<event>
 5    1  0.1338396E-008  0.3911754E+03  0.7957747E-01  0.3403896E+00
         13   -1    0    0    0    0  0.00000000000E+00  0.00000000000E+00  0.14999999963E+04  0.15000000000E+04  0.10566000000E+00 0. -1.
        994   -1    0    0    0    0 -0.00000000000E+00 -0.00000000000E+00  0.11368683772E-12  0.17120000000E+03  0.17120000000E+03 0.  0.
         13    1    1    2    0    0  0.94023968629E+02 -0.25629852037E+02  0.58626867293E+03  0.59431335507E+03  0.10566000000E+00 0. -1.
        994    1    1    2    0    0 -0.81469187275E+01 -0.13945663399E+03  0.10079759826E+03  0.24286646714E+03  0.17120000000E+03 0.  0.
        998    1    1    2    0    0 -0.85877049902E+02  0.16508648602E+03  0.81293372509E+03  0.83402017779E+03  0.10000000000E+02 0. -1.
</event>
<event>
 5    1  0.1338396E-008  0.3840932E+03  0.7957747E-01  0.3433527E+00
         13   -1    0    0    0    0  0.00000000000E+00  0.00000000000E+00  0.14999999963E+04  0.15000000000E+04  0.10566000000E+00 0.  1.
        994   -1    0    0    0    0 -0.00000000000E+00 -0.00000000000E+00  0.11368683772E-12  0.17120000000E+03  0.17120000000E+03 0.  0.
         13    1    1    2    0    0  0.11707644031E+02 -0.19337542681E+02  0.10507416973E+03  0.10747837826E+03  0.10566000000E+00 0.  1.
        994    1    1    2    0    0 -0.20990301949E+02  0.29177037158E+02  0.63538153887E+01  0.17504771705E+03  0.17120000000E+03 0.  0.
        998    1    1    2    0    0  0.92826579176E+01 -0.98394944773E+01  0.13885720112E+04  0.13886739047E+04  0.10000000000E+02 0.  1.
</event>
<event>
 5    1  0.1338396E-008  0.3740956E+03  0.7957747E-01  0.3477277E+00
         13   -1    0    0    0    0  0.00000000000E+00  0.00000000000E+00  0.14999999963E+04  0.15000000000E+04  0.10566000000E+00 0.  1.
        994   -1    0    0    0    0 -0.00000000000E+00 -0.00000000000E+00  0.11368683772E-12  0.17120000000E+03  0.17120000000E+03 0.  0.
         13    1    1    2    0    0 -0.68237804230E+02 -0.36657016822E+02  0.33386488522E+03  0.34273299747E+03  0.10566000000E+00 0.  1.
        994    1    1    2    0    0  0.63477079250E+02  0.37688673464E+02  0.25959169332E+02  0.18823680344E+03  0.17120000000E+03 0.  0.
        998    1    1    2    0    0  0.47607249805E+01 -0.10316566422E+01  0.11401759417E+04  0.11402301991E+04  0.10000000000E+02 0.  0.
</event>
<event>
 5    1  0.1338396E-008  0.3839503E+03  0.7957747E-01  0.3434136E+00
         13   -1    0    0    0    0  0.00000000000E+00  0.00000000000E+00  0.14999999963E+04  0.15000000000E+04  0.10566000000E+00 0. -1.
        994   -1    0    0    0    0 -0.00000000000E+00 -0.00000000000E+00  0.11368683772E-12  0.17120000000E+03  0.17120000000E+03 0.  0.
         13    1    1    2    0    0  0.10874347365E+02  0.15118742750E+02  0.77957977321E+02  0.80151638817E+02  0.10566000000E+00 0. -1.
        994    1    1    2    0    0 -0.50536784641E+01 -0.16708493266E+02  0.31583386895E+01  0.17211661313E+03  0.17120000000E+03 0.  0.
        998    1    1    2    0    0 -0.58206689011E+01  0.15897505157E+01  0.14188836803E+04  0.14189317480E+04  0.10000000000E+02 0. -1.
</event>
<event>
 5    1  0.1338396E-008  0.3817802E+03  0.7957747E-01  0.3443444E+00
         13   -1    0    0    0    0  0.00000000000E+00  0.00000000000E+00  0.14999999963E+04  0.15000000000E+04  0.10566000000E+00 0.  1.
        994   -1    0    0    0    0 -0.00000000000E+00 -0.00000000000E+00  0.11368683772E-12  0.17120000000E+03  0.17120000000E+03 0.  0.
         13    1    1    2    0    0  0.10735686108E+02  0.19291297486E+02  0.72088531884E+02  0.75393479215E+02  0.10566000000E+00 0.  1.
        994    1    1    2    0    0 -0.22575224053E+02 -0.10393727628E+02  0.52926585812E+01  0.17307548223E+03  0.17120000000E+03 0.  0.
        998    1    1    2    0    0  0.11839537945E+02 -0.88975698576E+01  0.14226188058E+04  0.14227310386E+04  0.10000000000E+02 0.  1.
</event>
<event>
 5    1  0.1338396E-008  0.3845828E+03  0.7957747E-01  0.3431444E+00
         13   -1    0    0    0    0  0.00000000000E+00  0.00000000000E+00  0.14999999963E+04  0.15000000000E+04  0.10566000000E+00 0. -1.
        994   -1    0    0    0    0 -0.00000000000E+00 -0.00000000000E+00  0.11368683772E-12  0.17120000000E+03  0.17120000000E+03 0.  0.
         13    1    1    2    0    0  0.36406167699E+01 -0.98432002042E+01  0.31347675233E+02  0.33057988252E+02  0.10566000000E+00 0. -1.
        994    1    1    2    0    0  0.32751136604E+01 -0.55645376258E+01  0.19747259897E+01  0.17133309660E+03  0.17120000000E+03 0.  0.
        998    1    1    2    0    0 -0.69157304302E+01  0.15407737830E+02  0.14666775951E+04  0.14668089151E+04  0.10000000000E+02 0. -1.
</event>
<event>
 5    1  0.1338396E-008  0.3702617E+03  0.7957747E-01  0.3494689E+00
         13   -1    0    0    0    0  0.00000000000E+00  0.00000000000E+00  0.14999999963E+04  0.15000000000E+04  0.10566000000E+00 0.  1.
        994   -1    0    0    0    0 -0.00000000000E+00 -0.00000000000E+00  0.11368683772E-12  0.17120000000E+03  0.17120000000E+03 0.  0.
         13    1    1    2    0    0 -0.28130362139E+02 -0.74953581627E+02  0.30391773125E+03  0.31428546770E+03  0.10566000000E+00 0.  1.
        994    1    1    2    0    0  0.46605401578E+02  0.54579440763E+02  0.27143081064E+02  0.18760907670E+03  0.17120000000E+03 0.  0.
        998    1    1    2    0    0 -0.18475039439E+02  0.20374140864E+02  0.11689391840E+04  0.11693054556E+04  0.10000000000E+02 0.  1.
</event>
<event>
 5    1  0.1338396E-008  0.3705257E+03  0.7957747E-01  0.3493478E+00
         13   -1    0    0    0    0  0.00000000000E+00  0.00000000000E+00  0.14999999963E+04  0.15000000000E+04  0.10566000000E+00 0. -1.
        994   -1    0    0    0    0 -0.00000000000E+00 -0.00000000000E+00  0.11368683772E-12  0.17120000000E+03  0.17120000000E+03 0.  0.
         13    1    1    2    0    0 -0.15037273138E+02 -0.40878461956E+01  0.96160427723E+01  0.18311458505E+02  0.10566000000E+00 0. -1.
        994    1    1    2    0    0  0.39889168771E+01  0.42218748736E+01  0.91109989521E+01  0.17154062489E+03  0.17120000000E+03 0.  0.
        998    1    1    2    0    0  0.11048356261E+02 -0.13402867805E+00  0.14812729546E+04  0.14813479166E+04  0.10000000000E+02 0. -1.
</event>
<event>
 5    1  0.1338396E-008  0.3855081E+03  0.7957747E-01  0.3427520E+00
         13   -1    0    0    0    0  0.00000000000E+00  0.00000000000E+00  0.14999999963E+04  0.15000000000E+04  0.10566000000E+00 0.  1.
        994   -1    0    0    0    0 -0.00000000000E+00 -0.00000000000E+00  0.11368683772E-12  0.17120000000E+03  0.17120000000E+03 0.  0.
         13    1    1    2    0    0  0.90496631064E+01  0.11875168421E+02  0.79743313766E+02  0.81129053253E+02  0.10566000000E+00 0.  1.
        994    1    1    2    0    0 -0.70155750123E+01 -0.10118327579E+02  0.18759672987E+01  0.17165243400E+03  0.17120000000E+03 0.  0.
        998    1    1    2    0    0 -0.20340880941E+01 -0.17568408414E+01  0.14183807152E+04  0.14184185127E+04  0.10000000000E+02 0.  1.
</event>
<event>
 5    1  0.1338396E-008  0.3817275E+03  0.7957747E-01  0.3443671E+00
         13   -1    0    0    0    0  0.00000000000E+00  0.00000000000E+00  0.14999999963E+04  0.15000000000E+04  0.10566000000E+00 0.  1.
        994   -1    0    0    0    0 -0.00000000000E+00 -0.00000000000E+00  0.11368683772E-12  0.17120000000E+03  0.17120000000E+03 0.  0.
         13    1    1    2    0    0 -0.13426514265E+02  0.22547233110E+01  0.26782318180E+02  0.30044280548E+02  0.10566000000E+00 0.  1.
        994    1    1    2    0    0  0.12870533288E+02 -0.57608220845E+01  0.39248443319E+01  0.17182456780E+03  0.17120000000E+03 0.  0.
        998    1    1    2    0    0  0.55598097713E+00  0.35060987735E+01  0.14692928338E+04  0.14693311516E+04  0.10000000000E+02 0.  1.
</event>
<event>
 5    1  0.1338396E-008  0.3738027E+03  0.7957747E-01  0.3478595E+00
         13   -1    0    0    0    0  0.00000000000E+00  0.00000000000E+00  0.14999999963E+04  0.15000000000E+04  0.10566000000E+00 0. -1.
        994   -1    0    0    0    0 -0.00000000000E+00 -0.00000000000E+00  0.11368683772E-12  0.17120000000E+03  0.17120000000E+03 0.  0.
         13    1    1    2    0    0 -0.24551797020E+02 -0.66047655714E+01  0.40432837040E+02  0.47762319252E+02  0.10566000000E+00 0. -1.
        994    1    1    2    0    0  0.22434154750E+02  0.13998703833E+02  0.96850706408E+01  0.17350070778E+03  0.17120000000E+03 0.  0.
        998    1    1    2    0    0  0.21176422697E+01 -0.73939382614E+01  0.14498820886E+04  0.14499369730E+04  0.10000000000E+02 0. -1.
</event>
<event>
 5    1  0.1338396E-008  0.3821672E+03  0.7957747E-01  0.3441776E+00
         13   -1    0    0    0    0  0.00000000000E+00  0.00000000000E+00  0.14999999963E+04  0.15000000000E+04  0.10566000000E+00 0.  1.
        994   -1    0    0    0    0 -0.00000000000E+00 -0.00000000000E+00  0.11368683772E-12  0.17120000000E+03  0.17120000000E+03 0.  0.
         13    1    1    2    0    0 -0.12200063025E+02  0.42303012830E+01  0.26767566269E+02  0.29719534901E+02  0.10566000000E+00 0.  1.
        994    1    1    2    0    0  0.54378802012E+01  0.64477694317E+01  0.32793370117E+01  0.17143902217E+03  0.17120000000E+03 0.  0.
        998    1    1    2    0    0  0.67621828233E+01 -0.10678070715E+02  0.14699530930E+04  0.14700414429E+04  0.10000000000E+02 0.  1.
</event>
<event>
 5    1  0.1338396E-008  0.3716929E+03  0.7957747E-01  0.3488147E+00
         13   -1    0    0    0    0  0.00000000000E+00  0.00000000000E+00  0.14999999963E+04  0.15000000000E+04  0.10566000000E+00 0.  1.
        994   -1    0    0    0    0 -0.00000000000E+00 -0.00000000000E+00  0.11368683772E-12  0.17120000000E+03  0.17120000000E+03 0.  0.
         13    1    1    2    0    0 -0.76818983907E+01 -0.47469149456E+02  0.12702380194E+03  0.13582116601E+03  0.10566000000E+00 0.  1.
        994    1    1    2    0    0  0.12136231569E+02  0.41849999381E+02  0.14942192474E+02  0.17728908506E+03  0.17120000000E+03 0.  0.
        998    1    1    2    0    0 -0.44543331780E+01  0.56191500750E+01  0.13580340019E+04  0.13580897489E+04  0.10000000000E+02 0.  1.
</event>
<event>
 5    1  0.1338396E-008  0.3830715E+03  0.7957747E-01  0.3437892E+00
         13   -1    0    0    0    0  0.00000000000E+00  0.00000000000E+00  0.14999999963E+04  0.15000000000E+04  0.10566000000E+00 0.  1.
        994   -1    0    0    0    0 -0.00000000000E+00 -0.00000000000E+00  0.11368683772E-12  0.17120000000E+03  0.17120000000E+03 0.  0.
         13    1    1    2    0    0  0.16684658285E+02  0.16302633608E+02  0.12167001087E+03  0.12388606214E+03  0.10566000000E+00 0.  1.
        994    1    1    2    0    0  0.12599977421E+02 -0.30488726980E+01  0.31469747502E+01  0.17171895209E+03  0.17120000000E+03 0.  0.
        998    1    1    2    0    0 -0.29284635706E+02 -0.13253760910E+02  0.13751830107E+04  0.13755949858E+04  0.10000000000E+02 0.  1.
</event>
<event>
 5    1  0.1338396E-008  0.3839112E+03  0.7957747E-01  0.3434303E+00
         13   -1    0    0    0    0  0.00000000000E+00  0.00000000000E+00  0.14999999963E+04  0.15000000000E+04  0.10566000000E+00 0. -1.
        994   -1    0    0    0    0 -0.00000000000E+00 -0.00000000000E+00  0.11368683772E-12  0.17120000000E+03  0.17120000000E+03 0.  0.
         13    1    1    2    0    0 -0.46630743911E+01 -0.10894084547E+02  0.31758686780E+02  0.33897650227E+02  0.10566000000E+00 0. -1.
        994    1    1    2    0    0 -0.66995310456E+01  0.11426104618E+02  0.27508731697E+01  0.17173365100E+03  0.17120000000E+03 0.  0.
        998    1    1    2    0    0  0.11362605437E+02 -0.53202007058E+00  0.14654904363E+04  0.14655686988E+04  0.10000000000E+02 0. -1.
</event>
<event>
 5    1  0.1338396E-008  0.4046367E+03  0.7957747E-01  0.3350434E+00
         13   -1    0    0    0    0  0.00000000000E+00  0.00000000000E+00  0.14999999963E+04  0.15000000000E+04  0.10566000000E+00 0. -1.
        994   -1    0    0    0    0 -0.00000000000E+00 -0.00000000000E+00  0.11368683772E-12  0.17120000000E+03  0.17120000000E+03 0.  0.
         13    1    1    2    0    0 -0.94274404754E+02  0.47529093028E+02  0.15654567333E+03  0.18882064791E+03  0.10566000000E+00 0. -1.
        994    1    1    2    0    0  0.99643369593E+02 -0.29899339139E+02  0.75242940921E+02  0.21399465354E+03  0.17120000000E+03 0.  0.
        998    1    1    2    0    0 -0.53689648391E+01 -0.17629753888E+02  0.12682113820E+04  0.12683846986E+04  0.10000000000E+02 0. -1.
</event>
<event>
 5    1  0.1338396E-008  0.3805266E+03  0.7957747E-01  0.3448869E+00
         13   -1    0    0    0    0  0.00000000000E+00  0.00000000000E+00  0.14999999963E+04  0.15000000000E+04  0.10566000000E+00 0.  1.
        994   -1    0    0    0    0 -0.00000000000E+00 -0.00000000000E+00  0.11368683772E-12  0.17120000000E+03  0.17120000000E+03 0.  0.
         13    1    1    2    0    0  0.13289939946E+02 -0.71917427037E+01  0.27438830741E+02  0.31324818648E+02  0.10566000000E+00 0.  1.
        994    1    1    2    0    0 -0.13901970427E+02  0.97248074841E+01  0.48287056226E+01  0.17210634230E+03  0.17120000000E+03 0.  0.
        998    1    1    2    0    0  0.61203048112E+00 -0.25330647804E+01  0.14677324599E+04  0.14677688391E+04  0.10000000000E+02 0.  1.
</event>
<event>
 5    1  0.1338396E-008  0.3784548E+03  0.7957747E-01  0.3457914E+00
         13   -1    0    0    0    0  0.00000000000E+00  0.00000000000E+00  0.14999999963E+04  0.15000000000E+04  0.10566000000E+00 0.  1.
        994   -1    0    0    0    0 -0.00000000000E+00 -0.00000000000E+00  0.11368683772E-12  0.17120000000E+03  0.17120000000E+03 0.  0.
         13    1    1    2    0    0  0.99982926905E+01 -0.23913667433E+02  0.63421286699E+02  0.68513503175E+02  0.10566000000E+00 0.  1.
        994    1    1    2    0    0 -0.19089636690E+02  0.23222618276E+02  0.79576506873E+01  0.17400134607E+03  0.17120000000E+03 0.  0.
        998    1    1    2    0    0  0.90913439993E+01  0.69104915705E+00  0.14286210589E+04  0.14286851508E+04  0.10000000000E+02 0.  1.
</event>
<event>
 5    1  0.1338396E-008  0.3741156E+03  0.7957747E-01  0.3477188E+00
         13   -1    0    0    0    0  0.00000000000E+00  0.00000000000E+00  0.14999999963E+04  0.15000000000E+04  0.10566000000E+00 0.  1.
        994   -1    0    0    0    0 -0.00000000000E+00 -0.00000000000E+00  0.11368683772E-12  0.17120000000E+03  0.17120000000E+03 0.  0.
         13    1    1    2    0    0 -0.12883220317E+02 -0.77819015423E+02  0.22242366500E+03  0.23599592040E+03  0.10566000000E+00 0.  1.
        994    1    1    2    0    0  0.20337000911E+02  0.54206637350E+02  0.25118808396E+02  0.18246190746E+03  0.17120000000E+03 0.  0.
        998    1    1    2    0    0 -0.74537805938E+01  0.23612378073E+02  0.12524575229E+04  0.12527421721E+04  0.10000000000E+02 0.  1.
</event>
<event>
 5    1  0.1338396E-008  0.3917015E+03  0.7957747E-01  0.3401738E+00
         13   -1    0    0    0    0  0.00000000000E+00  0.00000000000E+00  0.14999999963E+04  0.15000000000E+04  0.10566000000E+00 0.  1.
        994   -1    0    0    0    0 -0.00000000000E+00 -0.00000000000E+00  0.11368683772E-12  0.17120000000E+03  0.17120000000E+03 0.  0.
         13    1    1    2    0    0 -0.17536436754E+02  0.71932341642E+02  0.10902401956E+03  0.13178784615E+03  0.10566000000E+00 0.  1.
        994    1    1    2    0    0 -0.59506893168E+02 -0.74948023348E+02  0.58500740465E+02  0.20467059675E+03  0.17120000000E+03 0.  0.
        998    1    1    2    0    0  0.77043329922E+02  0.30156817061E+01  0.13324752363E+04  0.13347415571E+04  0.10000000000E+02 0.  1.
</event>
<event>
 5    1  0.1338396E-008  0.3817822E+03  0.7957747E-01  0.3443435E+00
         13   -1    0    0    0    0  0.00000000000E+00  0.00000000000E+00  0.14999999963E+04  0.15000000000E+04  0.10566000000E+00 0.  1.
        994   -1    0    0    0    0 -0.00000000000E+00 -0.00000000000E+00  0.11368683772E-12  0.17120000000E+03  0.17120000000E+03 0.  0.
         13    1    1    2    0    0 -0.92270617048E+02  0.78390415616E+02  0.43049695352E+03  0.44719857131E+03  0.10566000000E+00 0.  1.
        994    1    1    2    0    0  0.38124281216E+02 -0.59695113370E+02  0.35845531595E+02  0.18870959041E+03  0.17120000000E+03 0.  0.
        998    1    1    2    0    0  0.54146335833E+02 -0.18695302246E+02  0.10336575112E+04  0.10352918383E+04  0.10000000000E+02 0. -1.
</event>
<event>
 5    1  0.1338396E-008  0.3726314E+03  0.7957747E-01  0.3483884E+00
         13   -1    0    0    0    0  0.00000000000E+00  0.00000000000E+00  0.14999999963E+04  0.15000000000E+04  0.10566000000E+00 0.  1.
        994   -1    0    0    0    0 -0.00000000000E+00 -0.00000000000E+00  0.11368683772E-12  0.17120000000E+03  0.17120000000E+03 0.  0.
         13    1    1    2    0    0 -0.35283642470E+01  0.23322346677E+02  0.30370696433E+02  0.38454799111E+02  0.10566000000E+00 0.  1.
        994    1    1    2    0    0  0.31433917108E+00 -0.36170746465E+02  0.12396785742E+02  0.17541819178E+03  0.17120000000E+03 0.  0.
        998    1    1    2    0    0  0.32140250759E+01  0.12848399788E+02  0.14572325141E+04  0.14573270091E+04  0.10000000000E+02 0.  1.
</event>
<event>
 5    1  0.1338396E-008  0.3815001E+03  0.7957747E-01  0.3444653E+00
         13   -1    0    0    0    0  0.00000000000E+00  0.00000000000E+00  0.14999999963E+04  0.15000000000E+04  0.10566000000E+00 0. -1.
        994   -1    0    0    0    0 -0.00000000000E+00 -0.00000000000E+00  0.11368683772E-12  0.17120000000E+03  0.17120000000E+03 0.  0.
         13    1    1    2    0    0 -0.14458423814E+02 -0.25736131929E+01  0.29917122006E+02  0.33327388995E+02  0.10566000000E+00 0. -1.
        994    1    1    2    0    0  0.16794735077E+02  0.44471429576E+01  0.43825182605E+01  0.17213508263E+03  0.17120000000E+03 0.  0.
        998    1    1    2    0    0 -0.23363112628E+01 -0.18735297647E+01  0.14657003560E+04  0.14657375284E+04  0.10000000000E+02 0. -1.
</event>
<event>
 5    1  0.1338396E-008  0.4093501E+03  0.7957747E-01  0.3332539E+00
         13   -1    0    0    0    0  0.00000000000E+00  0.00000000000E+00  0.14999999963E+04  0.15000000000E+04  0.10566000000E+00 0. -1.
        994   -1    0    0    0    0 -0.00000000000E+00 -0.00000000000E+00  0.11368683772E-12  0.17120000000E+03  0.17120000000E+03 0.  0.
         13    1    1    2    0    0 -0.23842551988E+02 -0.30749098135E+02  0.94540329151E+01  0.40042030715E+02  0.10566000000E+00 0. -1.
        994    1    1    2    0    0  0.17634208495E+02  0.25264259199E+02  0.37363809464E+02  0.17791779664E+03  0.17120000000E+03 0.  0.
        998    1    1    2    0    0  0.62083434931E+01  0.54848389360E+01  0.14531821539E+04  0.14532401726E+04  0.10000000000E+02 0. -1.
</event>
<event>
 5    1  0.1338396E-008  0.3850809E+03  0.7957747E-01  0.3429329E+00
         13   -1    0    0    0    0  0.00000000000E+00  0.00000000000E+00  0.14999999963E+04  0.15000000000E+04  0.10566000000E+00 0. -1.
        994   -1    0    0    0    0 -0.00000000000E+00 -0.00000000000E+00  0.11368683772E-12  0.17120000000E+03  0.17120000000E+03 0.  0.
         13    1    1    2    0    0  0.82444062273E+01 -0.15811730867E+02  0.96705782942E+02  0.98336161637E+02  0.10566000000E+00 0. -1.
        994    1    1    2    0    0 -0.16557256626E+02  0.94576884396E+01  0.27863076788E+01  0.17228114850E+03  0.17120000000E+03 0.  0.
        998    1    1    2    0    0  0.83128503982E+01  0.63540424274E+01  0.14005079057E+04  0.14005826899E+04  0.10000000000E+02 0. -1.
</event>
<event>
 5    1  0.1338396E-008  0.3856695E+03  0.7957747E-01  0.3426838E+00
         13   -1    0    0    0    0  0.00000000000E+00  0.00000000000E+00  0.14999999963E+04  0.15000000000E+04  0.10566000000E+00 0. -1.
        994   -1    0    0    0    0 -0.00000000000E+00 -0.00000000000E+00  0.11368683772E-12  0.17120000000E+03  0.17120000000E+03 0.  0.
         13    1    1    2    0    0  0.54362539430E+01  0.10211495427E+02  0.53310071600E+02  0.54550915609E+02  0.10566000000E+00 0. -1.
        994    1    1    2    0    0  0.12938805855E+01 -0.47623485931E+01  0.13780319080E+01  0.17127665650E+03  0.17120000000E+03 0.  0.
        998    1    1    2    0    0 -0.67301345285E+01 -0.54491468335E+01  0.14453118928E+04  0.14453724279E+04  0.10000000000E+02 0. -1.
</event>
<event>
 5    1  0.1338396E-008  0.3794013E+03  0.7957747E-01  0.3453769E+00
         13   -1    0    0    0    0  0.00000000000E+00  0.00000000000E+00  0.14999999963E+04  0.15000000000E+04  0.10566000000E+00 0. -1.
        994   -1    0    0    0    0 -0.00000000000E+00 -0.00000000000E+00  0.11368683772E-12  0.17120000000E+03  0.17120000000E+03 0.  0.
         13    1    1    2    0    0 -0.57802289022E+01 -0.91737391503E+01  0.11250306463E+02  0.15625271060E+02  0.10566000000E+00 0. -1.
        994    1    1    2    0    0  0.57500442541E+01  0.76160067968E+01  0.47407546636E+01  0.17153128380E+03  0.17120000000E+03 0.  0.
        998    1    1    2    0    0  0.30184648073E-01  0.15577323535E+01  0.14840089352E+04  0.14840434451E+04  0.10000000000E+02 0. -1.
</event>
<event>
 5    1  0.1338396E-008  0.3817611E+03  0.7957747E-01  0.3443526E+00
         13   -1    0    0    0    0  0.00000000000E+00  0.00000000000E+00  0.14999999963E+04  0.15000000000E+04  0.10566000000E+00 0.  1.
        994   -1    0    0    0    0 -0.00000000000E+00 -0.00000000000E+00  0.11368683772E-12  0.17120000000E+03  0.17120000000E+03 0.  0.
         13    1    1    2    0    0 -0.18782734326E+03  0.83476540778E+01  0.97478082371E+03  0.99274692628E+03  0.10566000000E+00 0.  1.
        994    1    1    2    0    0  0.20024568864E+03 -0.18788506728E+02  0.15197926222E+03  0.30472689403E+03  0.17120000000E+03 0.  0.
        998    1    1    2    0    0 -0.12418345381E+02  0.10440852651E+02  0.37323991035E+03  0.37372617969E+03  0.10000000000E+02 0.  1.
</event>
<event>
 5    1  0.1338396E-008  0.3746497E+03  0.7957747E-01  0.3474791E+00
         13   -1    0    0    0    0  0.00000000000E+00  0.00000000000E+00  0.14999999963E+04  0.15000000000E+04  0.10566000000E+00 0. -1.
        994   -1    0    0    0    0 -0.00000000000E+00 -0.00000000000E+00  0.11368683772E-12  0.17120000000E+03  0.17120000000E+03 0.  0.
         13    1    1    2    0    0  0.45163907096E+01  0.14030756441E+02  0.12131929105E+02  0.19090698761E+02  0.10566000000E+00 0. -1.
        994    1    1    2    0    0 -0.20430373801E+02 -0.28299187847E+02  0.11015935599E+02  0.17506865808E+03  0.17120000000E+03 0.  0.
        998    1    1    2    0    0  0.15913983092E+02  0.14268431407E+02  0.14768521316E+04  0.14770406432E+04  0.10000000000E+02 0. -1.
</event>
<event>
 5    1  0.1338396E-008  0.3791729E+03  0.7957747E-01  0.3454768E+00
         13   -1    0    0    0    0  0.00000000000E+00  0.00000000000E+00  0.14999999963E+04  0.15000000000E+04  0.10566000000E+00 0.  1.
        994   -1    0    0    0    0 -0.00000000000E+00 -0.00000000000E+00  0.11368683772E-12  0.17120000000E+03  0.17120000000E+03 0.  0.
         13    1    1    2    0    0  0.14981009964E+02 -0.23979913600E+02  0.87909326394E+02  0.92344614065E+02  0.10566000000E+00 0.  1.
        994    1    1    2    0    0 -0.16687013284E+02  0.52890703826E+01  0.55790806237E+01  0.17218303290E+03  0.17120000000E+03 0.  0.
        998    1    1    2    0    0  0.17060033201E+01  0.18690843218E+02  0.14065115893E+04  0.14066723530E+04  0.10000000000E+02 0.  1.
</event>
<event>
 5    1  0.1338396E-008  0.3842716E+03  0.7957747E-01  0.3432767E+00
         13   -1    0    0    0    0  0.00000000000E+00  0.00000000000E+00  0.14999999963E+04  0.15000000000E+04  0.10566000000E+00 0. -1.
        994   -1    0    0    0    0 -0.00000000000E+00 -0.00000000000E+00  0.11368683772E-12  0.17120000000E+03  0.17120000000E+03 0.  0.
         13    1    1    2    0    0  0.17414784875E+02 -0.74616161154E+01  0.85737068136E+02  0.87805503609E+02  0.10566000000E+00 0. -1.
        994    1    1    2    0    0 -0.19541760607E+02  0.29598226243E+01  0.32809957397E+01  0.17236834364E+03  0.17120000000E+03 0.  0.
        998    1    1    2    0    0  0.21269757315E+01  0.45017934911E+01  0.14109819324E+04  0.14110261527E+04  0.10000000000E+02 0. -1.
</event>
<event>
 5    1  0.1338396E-008  0.3784127E+03  0.7957747E-01  0.3458099E+00
         13   -1    0    0    0    0  0.00000000000E+00  0.00000000000E+00  0.14999999963E+04  0.15000000000E+04  0.10566000000E+00 0.  1.
        994   -1    0    0    0    0 -0.00000000000E+00 -0.00000000000E+00  0.11368683772E-12  0.17120000000E+03  0.17120000000E+03 0.  0.
         13    1    1    2    0    0 -0.31482308266E+02 -0.95638708597E+00  0.98782797043E+02  0.10368270138E+03  0.10566000000E+00 0.  1.
        994    1    1    2    0    0  0.18719523835E+02  0.28366264681E+02  0.88279959757E+01  0.17476395240E+03  0.17120000000E+03 0.  0.
        998    1    1    2    0    0  0.12762784431E+02 -0.27409877595E+02  0.13923892033E+04  0.13927533462E+04  0.10000000000E+02 0.  1.
</event>
<event>
 5    1  0.1338396E-008  0.3835514E+03  0.7957747E-01  0.3435839E+00
         13   -1    0    0    0    0  0.00000000000E+00  0.00000000000E+00  0.14999999963E+04  0.15000000000E+04  0.10566000000E+00 0. -1.
        994   -1    0    0    0    0 -0.00000000000E+00 -0.00000000000E+00  0.11368683772E-12  0.17120000000E+03  0.17120000000E+03 0.  0.
         13    1    1    2    0    0 -0.43216764558E+01  0.14666604645E+02  0.50431897284E+02  0.52698895689E+02  0.10566000000E+00 0. -1.
        994    1    1    2    0    0  0.11823477803E+01 -0.43452426942E+01  0.24180411072E+01  0.17127628558E+03  0.17120000000E+03 0.  0.
        998    1    1    2    0    0  0.31393286755E+01 -0.10321361950E+02  0.14471500579E+04  0.14472248187E+04  0.10000000000E+02 0. -1.
</event>
<event>
 5    1  0.1338396E-008  0.3839429E+03  0.7957747E-01  0.3434168E+00
         13   -1    0    0    0    0  0.00000000000E+00  0.00000000000E+00  0.14999999963E+04  0.15000000000E+04  0.10566000000E+00 0.  1.
        994   -1    0    0    0    0 -0.00000000000E+00 -0.00000000000E+00  0.11368683772E-12  0.17120000000E+03  0.17120000000E+03 0.  0.
         13    1    1    2    0    0  0.78809022000E+01 -0.92227810674E+01  0.33277281843E+02  0.35419725591E+02  0.10566000000E+00 0.  1.
        994    1    1    2    0    0 -0.55265086453E+01  0.87535621045E+01  0.25096179709E+01  0.17153106229E+03  0.17120000000E+03 0.  0.
        998    1    1    2    0    0 -0.23543935547E+01  0.46921896292E+00  0.14642130965E+04  0.14642492121E+04  0.10000000000E+02 0.  1.
</event>
<event>
 5    1  0.1338396E-008  0.3797515E+03  0.7957747E-01  0.3452241E+00
         13   -1    0    0    0    0  0.00000000000E+00  0.00000000000E+00  0.14999999963E+04  0.15000000000E+04  0.10566000000E+00 0. -1.
        994   -1    0    0    0    0 -0.00000000000E+00 -0.00000000000E+00  0.11368683772E-12  0.17120000000E+03  0.17120000000E+03 0.  0.
         13    1    1    2    0    0  0.24768613324E+02 -0.16073370828E+02  0.12272629486E+03  0.12622833307E+03  0.10566000000E+00 0. -1.
        994    1    1    2    0    0  0.14242574971E+02 -0.74351170677E+01  0.51227097362E+01  0.17202852689E+03  0.17120000000E+03 0.  0.
        998    1    1    2    0    0 -0.39011188295E+02  0.23508487895E+02  0.13721509917E+04  0.13729431400E+04  0.10000000000E+02 0. -1.
</event>
<event>
 5    1  0.1338396E-008  0.3765311E+03  0.7957747E-01  0.3466404E+00
         13   -1    0    0    0    0  0.00000000000E+00  0.00000000000E+00  0.14999999963E+04  0.15000000000E+04  0.10566000000E+00 0. -1.
        994   -1    0    0    0    0 -0.00000000000E+00 -0.00000000000E+00  0.11368683772E-12  0.17120000000E+03  0.17120000000E+03 0.  0.
         13    1    1    2    0    0  0.20003434757E+02 -0.48555951920E+02  0.24432894138E+03  0.24990890466E+03  0.10566000000E+00 0. -1.
        994    1    1    2    0    0 -0.68403829714E+01  0.21854237737E+02  0.76699880924E+01  0.17289496020E+03  0.17120000000E+03 0.  0.
        998    1    1    2    0    0 -0.13163051786E+02  0.26701714183E+02  0.12480010668E+04  0.12483961351E+04  0.10000000000E+02 0. -1.
</event>
<event>
 5    1  0.1338396E-008  0.3766750E+03  0.7957747E-01  0.3465765E+00
         13   -1    0    0    0    0  0.00000000000E+00  0.00000000000E+00  0.14999999963E+04  0.15000000000E+04  0.10566000000E+00 0. -1.
        994   -1    0    0    0    0 -0.00000000000E+00 -0.00000000000E+00  0.11368683772E-12  0.17120000000E+03  0.17120000000E+03 0.  0.
         13    1    1    2    0    0  0.26907975641E+02  0.14162381102E+03  0.61329432974E+03  0.63000895950E+03  0.10566000000E+00 0. -1.
        994    1    1    2    0    0  0.86807707266E+02 -0.14487682380E+03  0.12511709750E+03  0.27108780902E+03  0.17120000000E+03 0.  0.
        998    1    1    2    0    0 -0.11371568291E+03  0.32530127770E+01  0.76158856905E+03  0.77010323148E+03  0.10000000000E+02 0. -1.
</event>
<event>
 5    1  0.1338396E-008  0.3805135E+03  0.7957747E-01  0.3448926E+00
         13   -1    0    0    0    0  0.00000000000E+00  0.00000000000E+00  0.14999999963E+04  0.15000000000E+04  0.10566000000E+00 0.  1.
        994   -1    0    0    0    0 -0.00000000000E+00 -0.00000000000E+00  0.11368683772E-12  0.17120000000E+03  0.17120000000E+03 0.  0.
         13    1    1    2    0    0  0.13750119203E+02  0.35872699150E+00  0.22660668972E+02  0.26508706974E+02  0.10566000000E+00 0.  1.
        994    1    1    2    0    0 -0.12464362696E+02  0.37237914545E+01  0.44391021586E+01  0.17175090273E+03  0.17120000000E+03 0.  0.
        998    1    1    2    0    0 -0.12857565073E+01 -0.40825184460E+01  0.14729002251E+04  0.14729403903E+04  0.10000000000E+02 0.  1.
</event>
<event>
 5    1  0.1338396E-008  0.3715246E+03  0.7957747E-01  0.3488913E+00
         13   -1    0    0    0    0  0.00000000000E+00  0.00000000000E+00  0.14999999963E+04  0.15000000000E+04  0.10566000000E+00 0.  1.
        994   -1    0    0    0    0 -0.00000000000E+00 -0.00000000000E+00  0.11368683772E-12  0.17120000000E+03  0.17120000000E+03 0.  0.
         13    1    1    2    0    0  0.24286991454E+02 -0.10353342797E+02  0.37071733539E+02  0.45512352747E+02  0.10566000000E+00 0.  1.
        994    1    1    2    0    0 -0.26056367875E+02  0.12199402312E+01  0.10818239094E+02  0.17351339101E+03  0.17120000000E+03 0.  0.
        998    1    1    2    0    0  0.17693764204E+01  0.91334025657E+01  0.14521100236E+04  0.14521742562E+04  0.10000000000E+02 0.  1.
</event>
<event>
 5    1  0.1338396E-008  0.3799401E+03  0.7957747E-01  0.3451419E+00
         13   -1    0    0    0    0  0.00000000000E+00  0.00000000000E+00  0.14999999963E+04  0.15000000000E+04  0.10566000000E+00 0. -1.
        994   -1    0    0    0    0 -0.00000000000E+00 -0.00000000000E+00  0.11368683772E-12  0.17120000000E+03  0.17120000000E+03 0.  0.
         13    1    1    2    0    0  0.10438117839E+02  0.68706401091E+01  0.17621832364E+02  0.21603243725E+02  0.10566000000E+00 0. -1.
        994    1    1    2    0    0  0.40030107642E+01  0.35691326808E+01  0.42595790172E+01  0.17133693944E+03  0.17120000000E+03 0.  0.
        998    1    1    2    0    0 -0.14441128603E+02 -0.10439772790E+02  0.14781185849E+04  0.14782598168E+04  0.10000000000E+02 0. -1.
</event>
<event>
 5    1  0.1338396E-008  0.3756595E+03  0.7957747E-01  0.3470279E+00
         13   -1    0    0    0    0  0.00000000000E+00  0.00000000000E+00  0.14999999963E+04  0.15000000000E+04  0.10566000000E+00 0.  1.
        994   -1    0    0    0    0 -0.00000000000E+00 -0.00000000000E+00  0.11368683772E-12  0.17120000000E+03  0.17120000000E+03 0.  0.
         13    1    1    2    0    0  0.21908551298E+02  0.13750604537E+02  0.18033722392E+02  0.31532365157E+02  0.10566000000E+00 0.  1.
        994    1    1    2    0    0 -0.12562662212E+02 -0.17771992520E+02  0.15654400518E+02  0.17328636546E+03  0.17120000000E+03 0.  0.
        998    1    1    2    0    0 -0.93458890852E+01  0.40213879839E+01  0.14663118734E+04  0.14663812694E+04  0.10000000000E+02 0.  1.
</event>
<event>
 5    1  0.1338396E-008  0.3811128E+03  0.7957747E-01  0.3446327E+00
         13   -1    0    0    0    0  0.00000000000E+00  0.00000000000E+00  0.14999999963E+04  0.15000000000E+04  0.10566000000E+00 0. -1.
        994   -1    0    0    0    0 -0.00000000000E+00 -0.00000000000E+00  0.11368683772E-12  0.17120000000E+03  0.17120000000E+03 0.  0.
         13    1    1    2    0    0 -0.10112813293E+03  0.28373315729E+02  0.55485608244E+03  0.56470986152E+03  0.10566000000E+00 0. -1.
        994    1    1    2    0    0  0.13372742848E+03 -0.47234956098E+02  0.73753573890E+02  0.23422893901E+03  0.17120000000E+03 0.  0.
        998    1    1    2    0    0 -0.32599295549E+02  0.18861640370E+02  0.87139033995E+03  0.87226119947E+03  0.10000000000E+02 0.  1.
</event>
<event>
 5    1  0.1338396E-008  0.3832613E+03  0.7957747E-01  0.3437080E+00
         13   -1    0    0    0    0  0.00000000000E+00  0.00000000000E+00  0.14999999963E+04  0.15000000000E+04  0.10566000000E+00 0.  1.
        994   -1    0    0    0    0 -0.00000000000E+00 -0.00000000000E+00  0.11368683772E-12  0.17120000000E+03  0.17120000000E+03 0.  0.
         13    1    1    2    0    0  0.58620134191E+01 -0.14678027383E+02  0.46744078392E+02  0.49343973471E+02  0.10566000000E+00 0.  1.
        994    1    1    2    0    0 -0.46797960826E+01  0.22418229968E+02  0.42323742097E+01  0.17277682286E+03  0.17120000000E+03 0.  0.
        998    1    1    2    0    0 -0.11822173365E+01 -0.77402025855E+01  0.14490235437E+04  0.14490792037E+04  0.10000000000E+02 0.  1.
</event>
<event>
 5    1  0.1338396E-008  0.3770120E+03  0.7957747E-01  0.3464273E+00
         13   -1    0    0    0    0  0.00000000000E+00  0.00000000000E+00  0.14999999963E+04  0.15000000000E+04  0.10566000000E+00 0.  1.
        994   -1    0    0    0    0 -0.00000000000E+00 -0.00000000000E+00  0.11368683772E-12  0.17120000000E+03  0.17120000000E+03 0.  0.
         13    1    1    2    0    0  0.10917780141E+02  0.30786136789E+02  0.95461166141E+02  0.10089514134E+03  0.10566000000E+00 0.  1.
        994    1    1    2    0    0 -0.20514479327E+02 -0.63827785803E+01  0.72091298685E+01  0.17269335621E+03  0.17120000000E+03 0.  0.
        998    1    1    2    0    0  0.95966991868E+01 -0.24403358209E+02  0.13973297003E+04  0.13976115025E+04  0.10000000000E+02 0.  1.
</event>
<event>
 5    1  0.1338396E-008  0.3807180E+03  0.7957747E-01  0.3448038E+00
         13   -1    0    0    0    0  0.00000000000E+00  0.00000000000E+00  0.14999999963E+04  0.15000000000E+04  0.10566000000E+00 0.  1.
        994   -1    0    0    0    0 -0.00000000000E+00 -0.00000000000E+00  0.11368683772E-12  0.17120000000E+03  0.17120000000E+03 0.  0.
         13    1    1    2    0    0  0.22578664503E+02  0.21394636309E+02  0.12391358441E+03  0.12775802957E+03  0.10566000000E+00 0.  1.
        994    1    1    2    0    0 -0.28206162415E+01 -0.30710721680E+02  0.69495476845E+01  0.17409434372E+03  0.17120000000E+03 0.  0.
        998    1    1    2    0    0 -0.19758048261E+02  0.93160853705E+01  0.13691368642E+04  0.13693476267E+04  0.10000000000E+02 0.  1.
</event>
<event>
 5    1  0.1338396E-008  0.3818377E+03  0.7957747E-01  0.3443195E+00
         13   -1    0    0    0    0  0.00000000000E+00  0.00000000000E+00  0.14999999963E+04  0.15000000000E+04  0.10566000000E+00 0.  1.
        994   -1    0    0    0    0 -0.00000000000E+00 -0.00000000000E+00  0.11368683772E-12  0.17120000000E+03  0.17120000000E+03 0.  0.
         13    1    1    2    0    0  0.24505982486E+02 -0.56480401687E+01  0.97303530736E+02  0.10050090444E+03  0.10566000000E+00 0.  1.
        994    1    1    2    0    0 -0.13288312789E+02  0.13403508649E+02  0.43928969625E+01  0.17229326988E+03  0.17120000000E+03 0.  0.
        998    1    1    2    0    0 -0.11217669697E+02 -0.77554684799E+01  0.13983035686E+04  0.13984058257E+04  0.10000000000E+02 0.  1.
</event>
<event>
 5    1  0.1338396E-008  0.3850490E+03  0.7957747E-01  0.3429464E+00
         13   -1    0    0    0    0  0.00000000000E+00  0.00000000000E+00  0.14999999963E+04  0.15000000000E+04  0.10566000000E+00 0.  1.
        994   -1    0    0    0    0 -0.00000000000E+00 -0.00000000000E+00  0.11368683772E-12  0.17120000000E+03  0.17120000000E+03 0.  0.
         13    1    1    2    0    0  0.65366354255E+01 -0.85957835890E+01  0.36772210478E+02  0.38325210054E+02  0.10566000000E+00 0.  1.
        994    1    1    2    0    0 -0.76606096208E+00  0.43377569132E+01  0.16695958898E+01  0.17126479654E+03  0.17120000000E+03 0.  0.
        998    1    1    2    0    0 -0.57705744634E+01  0.42580266759E+01  0.14615581899E+04  0.14616099934E+04  0.10000000000E+02 0.  1.
</event>
<event>
 5    1  0.1338396E-008  0.3823844E+03  0.7957747E-01  0.3440842E+00
         13   -1    0    0    0    0  0.00000000000E+00  0.00000000000E+00  0.14999999963E+04  0.15000000000E+04  0.10566000000E+00 0.  1.
        994   -1    0    0    0    0 -0.00000000000E+00 -0.00000000000E+00  0.11368683772E-12  0.17120000000E+03  0.17120000000E+03 0.  0.
         13    1    1    2    0    0 -0.42018465089E+02 -0.22007239167E+02  0.60507825474E+02  0.76883535895E+02  0.10566000000E+00 0.  1.
        994    1    1    2    0    0  0.11453409615E+02  0.79164033129E+01  0.18352223317E+02  0.17274285552E+03  0.17120000000E+03 0.  0.
        998    1    1    2    0    0  0.30565055474E+02  0.14090835854E+02  0.14211399475E+04  0.14215736086E+04  0.10000000000E+02 0.  1.
</event>
<event>
 5    1  0.1338396E-008  0.3687825E+03  0.7957747E-01  0.3501505E+00
         13   -1    0    0    0    0  0.00000000000E+00  0.00000000000E+00  0.14999999963E+04  0.15000000000E+04  0.10566000000E+00 0.  1.
        994   -1    0    0    0    0 -0.00000000000E+00 -0.00000000000E+00  0.11368683772E-12  0.17120000000E+03  0.17120000000E+03 0.  0.
         13    1    1    2    0    0 -0.19553459177E+02 -0.29915953804E+02  0.61107639489E+02  0.70791643756E+02  0.10566000000E+00 0.  1.
        994    1    1    2    0    0  0.18023808023E+01  0.24703369541E+02  0.12039971314E+02  0.17340099755E+03  0.17120000000E+03 0.  0.
        998    1    1    2    0    0  0.17751078375E+02  0.52125842628E+01  0.14268523855E+04  0.14270073587E+04  0.10000000000E+02 0.  1.
</event>
<event>
 5    1  0.1338396E-008  0.3788630E+03  0.7957747E-01  0.3456124E+00
         13   -1    0    0    0    0  0.00000000000E+00  0.00000000000E+00  0.14999999963E+04  0.15000000000E+04  0.10566000000E+00 0. -1.
        994   -1    0    0    0    0 -0.00000000000E+00 -0.00000000000E+00  0.11368683772E-12  0.17120000000E+03  0.17120000000E+03 0.  0.
         13    1    1    2    0    0  0.60656551836E+02 -0.41772991466E+01  0.30798595606E+03  0.31392997213E+03  0.10566000000E+00 0. -1.
        994    1    1    2    0    0 -0.62352140498E+02  0.10980392896E+01  0.17870501853E+02  0.18307864417E+03  0.17120000000E+03 0.  0.
        998    1    1    2    0    0  0.16955886624E+01  0.30792598569E+01  0.11741435384E+04  0.11741913837E+04  0.10000000000E+02 0. -1.
</event>
<event>
 5    1  0.1338396E-008  0.3821153E+03  0.7957747E-01  0.3442000E+00
         13   -1    0    0    0    0  0.00000000000E+00  0.00000000000E+00  0.14999999963E+04  0.15000000000E+04  0.10566000000E+00 0.  1.
        994   -1    0    0    0    0 -0.00000000000E+00 -0.00000000000E+00  0.11368683772E-12  0.17120000000E+03  0.17120000000E+03 0.  0.
         13    1    1    2    0    0  0.49959225736E+01 -0.99456200466E+01  0.19301856355E+02  0.22281100136E+02  0.10566000000E+00 0.  1.
        994    1    1    2    0    0 -0.37029909694E+01  0.11712884673E+00  0.31147391609E+01  0.17126840766E+03  0.17120000000E+03 0.  0.
        998    1    1    2    0    0 -0.12929316041E+01  0.98284911998E+01  0.14775834008E+04  0.14776504922E+04  0.10000000000E+02 0.  1.
</event>
<event>
 5    1  0.1338396E-008  0.3853578E+03  0.7957747E-01  0.3428156E+00
         13   -1    0    0    0    0  0.00000000000E+00  0.00000000000E+00  0.14999999963E+04  0.15000000000E+04  0.10566000000E+00 0. -1.
        994   -1    0    0    0    0 -0.00000000000E+00 -0.00000000000E+00  0.11368683772E-12  0.17120000000E+03  0.17120000000E+03 0.  0.
         13    1    1    2    0    0 -0.10128626143E+02 -0.18622007173E+01  0.36607198754E+02  0.38028345004E+02  0.10566000000E+00 0. -1.
        994    1    1    2    0    0  0.66165839014E+01 -0.31199075581E+00  0.15967186881E+01  0.17133553639E+03  0.17120000000E+03 0.  0.
        998    1    1    2    0    0  0.35120422419E+01  0.21741914732E+01  0.14617960788E+04  0.14618361186E+04  0.10000000000E+02 0. -1.
</event>
<event>
 5    1  0.1338396E-008  0.3810652E+03  0.7957747E-01  0.3446533E+00
         13   -1    0    0    0    0  0.00000000000E+00  0.00000000000E+00  0.14999999963E+04  0.15000000000E+04  0.10566000000E+00 0.  1.
        994   -1    0    0    0    0 -0.00000000000E+00 -0.00000000000E+00  0.11368683772E-12  0.17120000000E+03  0.17120000000E+03 0.  0.
         13    1    1    2    0    0 -0.15870388018E+02  0.26933959732E+02  0.14449045808E+03  0.14783372769E+03  0.10566000000E+00 0.  1.
        994    1    1    2    0    0 -0.31309241540E+01 -0.11230933663E+02  0.40493683034E+01  0.17164432394E+03  0.17120000000E+03 0.  0.
        998    1    1    2    0    0  0.19001312172E+02 -0.15703026069E+02  0.13514601699E+04  0.13517219484E+04  0.10000000000E+02 0.  1.
</event>
<event>
 5    1  0.1338396E-008  0.3807071E+03  0.7957747E-01  0.3448085E+00
         13   -1    0    0    0    0  0.00000000000E+00  0.00000000000E+00  0.14999999963E+04  0.15000000000E+04  0.10566000000E+00 0.  1.
        994   -1    0    0    0    0 -0.00000000000E+00 -0.00000000000E+00  0.11368683772E-12  0.17120000000E+03  0.17120000000E+03 0.  0.
         13    1    1    2    0    0  0.34925543421E+02  0.13216392886E+02  0.19828015235E+03  0.20176594510E+03  0.10566000000E+00 0.  1.
        994    1    1    2    0    0 -0.63431960303E+01 -0.16681736776E+02  0.48396479279E+01  0.17219575683E+03  0.17120000000E+03 0.  0.
        998    1    1    2    0    0 -0.28582347391E+02  0.34653438895E+01  0.12968801960E+04  0.12972382981E+04  0.10000000000E+02 0.  1.
</event>
<event>
 5    1  0.1338396E-008  0.3844387E+03  0.7957747E-01  0.3432056E+00
         13   -1    0    0    0    0  0.00000000000E+00  0.00000000000E+00  0.14999999963E+04  0.15000000000E+04  0.10566000000E+00 0. -1.
        994   -1    0    0    0    0 -0.00000000000E+00 -0.00000000000E+00  0.11368683772E-12  0.17120000000E+03  0.17120000000E+03 0.  0.
         13    1    1    2    0    0 -0.13051672869E+02 -0.19002441030E+02  0.12388320958E+03  0.12600991910E+03  0.10566000000E+00 0. -1.
        994    1    1    2    0    0  0.23720517159E+02  0.18525519247E+02  0.48992652301E+01  0.17389450997E+03  0.17120000000E+03 0.  0.
        998    1    1    2    0    0 -0.10668844290E+02  0.47692178221E+00  0.13712175215E+04  0.13712955709E+04  0.10000000000E+02 0. -1.
</event>
<event>
 5    1  0.1338396E-008  0.3754268E+03  0.7957747E-01  0.3471316E+00
         13   -1    0    0    0    0  0.00000000000E+00  0.00000000000E+00  0.14999999963E+04  0.15000000000E+04  0.10566000000E+00 0. -1.
        994   -1    0    0    0    0 -0.00000000000E+00 -0.00000000000E+00  0.11368683772E-12  0.17120000000E+03  0.17120000000E+03 0.  0.
         13    1    1    2    0    0 -0.17850007833E+02  0.28720913584E+02  0.10039206340E+03  0.10593437220E+03  0.10566000000E+00 0. -1.
        994    1    1    2    0    0 -0.29966186212E+02 -0.22369112346E+01  0.95308101959E+01  0.17407829397E+03  0.17120000000E+03 0.  0.
        998    1    1    2    0    0  0.47816194044E+02 -0.26484002349E+02  0.13900771227E+04  0.13911873338E+04  0.10000000000E+02 0. -1.
</event>
<event>
 5    1  0.1338396E-008  0.3833182E+03  0.7957747E-01  0.3436836E+00
         13   -1    0    0    0    0  0.00000000000E+00  0.00000000000E+00  0.14999999963E+04  0.15000000000E+04  0.10566000000E+00 0. -1.
        994   -1    0    0    0    0 -0.00000000000E+00 -0.00000000000E+00  0.11368683772E-12  0.17120000000E+03  0.17120000000E+03 0.  0.
         13    1    1    2    0    0 -0.13604867914E+02 -0.11209163155E+01  0.36481418222E+02  0.38951943775E+02  0.10566000000E+00 0. -1.
        994    1    1    2    0    0  0.12599747925E+02  0.27662047958E+01  0.30178601495E+01  0.17171183132E+03  0.17120000000E+03 0.  0.
        998    1    1    2    0    0  0.10051199885E+01 -0.16452884803E+01  0.14605007179E+04  0.14605362249E+04  0.10000000000E+02 0. -1.
</event>
<event>
 5    1  0.1338396E-008  0.3834275E+03  0.7957747E-01  0.3436369E+00
         13   -1    0    0    0    0  0.00000000000E+00  0.00000000000E+00  0.14999999963E+04  0.15000000000E+04  0.10566000000E+00 0.  1.
        994   -1    0    0    0    0 -0.00000000000E+00 -0.00000000000E+00  0.11368683772E-12  0.17120000000E+03  0.17120000000E+03 0.  0.
         13    1    1    2    0    0 -0.51985452693E+00 -0.25297509499E+02  0.15221634484E+03  0.15430509077E+03  0.10566000000E+00 0.  1.
        994    1    1    2    0    0 -0.66177775484E+01 -0.14868381875E+01  0.25649646417E+01  0.17135350802E+03  0.17120000000E+03 0.  0.
        998    1    1    2    0    0  0.71376320753E+01  0.26784347687E+02  0.13452186868E+04  0.13455414012E+04  0.10000000000E+02 0.  1.
</event>
<event>
 5    1  0.1338396E-008  0.3820035E+03  0.7957747E-01  0.3442481E+00
         13   -1    0    0    0    0  0.00000000000E+00  0.00000000000E+00  0.14999999963E+04  0.15000000000E+04  0.10566000000E+00 0.  1.
        994   -1    0    0    0    0 -0.00000000000E+00 -0.00000000000E+00  0.11368683772E-12  0.17120000000E+03  0.17120000000E+03 0.  0.
         13    1    1    2    0    0  0.31828004875E+02 -0.80054460753E+01  0.16371243390E+03  0.16696970156E+03  0.10566000000E+00 0.  1.
        994    1    1    2    0    0 -0.31839551298E+02 -0.18510307623E+02  0.76427638313E+01  0.17528331453E+03  0.17120000000E+03 0.  0.
        998    1    1    2    0    0  0.11546423490E-01  0.26515753698E+02  0.13286447985E+04  0.13289469839E+04  0.10000000000E+02 0.  1.
</event>
<event>
 5    1  0.1338396E-008  0.3806889E+03  0.7957747E-01  0.3448164E+00
         13   -1    0    0    0    0  0.00000000000E+00  0.00000000000E+00  0.14999999963E+04  0.15000000000E+04  0.10566000000E+00 0.  1.
        994   -1    0    0    0    0 -0.00000000000E+00 -0.00000000000E+00  0.11368683772E-12  0.17120000000E+03  0.17120000000E+03 0.  0.
         13    1    1    2    0    0 -0.13785884546E+02  0.14447760336E+02  0.53903517820E+02  0.57483813277E+02  0.10566000000E+00 0.  1.
        994    1    1    2    0    0 -0.83266806305E+01 -0.89488470147E+01  0.42842918975E+01  0.17168928514E+03  0.17120000000E+03 0.  0.
        998    1    1    2    0    0  0.22112565177E+02 -0.54989133213E+01  0.14418121866E+04  0.14420269016E+04  0.10000000000E+02 0.  1.
</event>
<event>
 5    1  0.1338396E-008  0.3847622E+03  0.7957747E-01  0.3430682E+00
         13   -1    0    0    0    0  0.00000000000E+00  0.00000000000E+00  0.14999999963E+04  0.15000000000E+04  0.10566000000E+00 0.  1.
        994   -1    0    0    0    0 -0.00000000000E+00 -0.00000000000E+00  0.11368683772E-12  0.17120000000E+03  0.17120000000E+03 0.  0.
         13    1    1    2    0    0  0.75537133230E+01 -0.19798914474E+02  0.12523243213E+03  0.12701271126E+03  0.10566000000E+00 0.  1.
        994    1    1    2    0    0 -0.11151262173E+02  0.12997529654E+02  0.27141245737E+01  0.17207583473E+03  0.17120000000E+03 0.  0.
        998    1    1    2    0    0  0.35975488501E+01  0.68013848201E+01  0.13720534396E+04  0.13721114540E+04  0.10000000000E+02 0.  1.
</event>
<event>
 5    1  0.1338396E-008  0.3837723E+03  0.7957747E-01  0.3434896E+00
         13   -1    0    0    0    0  0.00000000000E+00  0.00000000000E+00  0.14999999963E+04  0.15000000000E+04  0.10566000000E+00 0.  1.
        994   -1    0    0    0    0 -0.00000000000E+00 -0.00000000000E+00  0.11368683772E-12  0.17120000000E+03  0.17120000000E+03 0.  0.
         13    1    1    2    0    0  0.39672945207E+02 -0.64791829776E+01  0.21831991144E+03  0.22198990357E+03  0.10566000000E+00 0.  1.
        994    1    1    2    0    0 -0.73266446234E+02  0.31228496293E+02  0.23473985143E+02  0.19027259157E+03  0.17120000000E+03 0.  0.
        998    1    1    2    0    0  0.33593501027E+02 -0.24749313316E+02  0.12582060997E+04  0.12589375049E+04  0.10000000000E+02 0.  1.
</event>
<event>
 5    1  0.1338396E-008  0.3851571E+03  0.7957747E-01  0.3429006E+00
         13   -1    0    0    0    0  0.00000000000E+00  0.00000000000E+00  0.14999999963E+04  0.15000000000E+04  0.10566000000E+00 0. -1.
        994   -1    0    0    0    0 -0.00000000000E+00 -0.00000000000E+00  0.11368683772E-12  0.17120000000E+03  0.17120000000E+03 0.  0.
         13    1    1    2    0    0 -0.81422997029E+01 -0.12160019946E+02  0.66281752369E+02  0.67878162841E+02  0.10566000000E+00 0. -1.
        994    1    1    2    0    0  0.12233372074E+02  0.11162188766E+02  0.24541407868E+01  0.17201660576E+03  0.17120000000E+03 0.  0.
        998    1    1    2    0    0 -0.40910723712E+01  0.99783117982E+00  0.14312641031E+04  0.14313052314E+04  0.10000000000E+02 0. -1.
</event>
<event>
 5    1  0.1338396E-008  0.3844211E+03  0.7957747E-01  0.3432131E+00
         13   -1    0    0    0    0  0.00000000000E+00  0.00000000000E+00  0.14999999963E+04  0.15000000000E+04  0.10566000000E+00 0. -1.
        994   -1    0    0    0    0 -0.00000000000E+00 -0.00000000000E+00  0.11368683772E-12  0.17120000000E+03  0.17120000000E+03 0.  0.
         13    1    1    2    0    0  0.94024978258E+01  0.53235036806E+01  0.29160346844E+02  0.31097968566E+02  0.10566000000E+00 0. -1.
        994    1    1    2    0    0 -0.97932825580E+01 -0.11669237504E+02  0.26828423654E+01  0.17189740292E+03  0.17120000000E+03 0.  0.
        998    1    1    2    0    0  0.39078473225E+00  0.63457338229E+01  0.14681568071E+04  0.14682046285E+04  0.10000000000E+02 0. -1.
</event>
<event>
 5    1  0.1338396E-008  0.3844257E+03  0.7957747E-01  0.3432111E+00
         13   -1    0    0    0    0  0.00000000000E+00  0.00000000000E+00  0.14999999963E+04  0.15000000000E+04  0.10566000000E+00 0. -1.
        994   -1    0    0    0    0 -0.00000000000E+00 -0.00000000000E+00  0.11368683772E-12  0.17120000000E+03  0.17120000000E+03 0.  0.
         13    1    1    2    0    0 -0.98020824742E+01 -0.15749083887E+02  0.95118610772E+02  0.96910658564E+02  0.10566000000E+00 0. -1.
        994    1    1    2    0    0  0.29792977285E+01  0.22234784776E+01  0.19610563660E+01  0.17125158631E+03  0.17120000000E+03 0.  0.
        998    1    1    2    0    0  0.68227847456E+01  0.13525605409E+02  0.14029203291E+04  0.14030377551E+04  0.10000000000E+02 0. -1.
</event>
<event>
 5    1  0.1338396E-008  0.3692341E+03  0.7957747E-01  0.3499418E+00
         13   -1    0    0    0    0  0.00000000000E+00  0.00000000000E+00  0.14999999963E+04  0.15000000000E+04  0.10566000000E+00 0. -1.
        994   -1    0    0    0    0 -0.00000000000E+00 -0.00000000000E+00  0.11368683772E-12  0.17120000000E+03  0.17120000000E+03 0.  0.
         13    1    1    2    0    0  0.19985808986E+02 -0.26309757109E+02  0.46398665143E+02  0.56960364913E+02  0.10566000000E+00 0. -1.
        994    1    1    2    0    0 -0.25746510674E+02  0.21631777004E+02  0.14487388379E+02  0.17507181672E+03  0.17120000000E+03 0.  0.
        998    1    1    2    0    0  0.57607016879E+01  0.46779801052E+01  0.14391139428E+04  0.14391678184E+04  0.10000000000E+02 0. -1.
</event>
<event>
 5    1  0.1338396E-008  0.3836723E+03  0.7957747E-01  0.3435323E+00
         13   -1    0    0    0    0  0.00000000000E+00  0.00000000000E+00  0.14999999963E+04  0.15000000000E+04  0.10566000000E+00 0. -1.
        994   -1    0    0    0    0 -0.00000000000E+00 -0.00000000000E+00  0.11368683772E-12  0.17120000000E+03  0.17120000000E+03 0.  0.
         13    1    1    2    0    0 -0.68750199461E+01 -0.14062735198E+02  0.52388705490E+02  0.54677363208E+02  0.10566000000E+00 0. -1.
        994    1    1    2    0    0  0.58694200041E+01  0.10873498112E+02  0.27952292451E+01  0.17166809942E+03  0.17120000000E+03 0.  0.
        998    1    1    2    0    0  0.10055999419E+01  0.31892370853E+01  0.14448160615E+04  0.14448545374E+04  0.10000000000E+02 0. -1.
</event>
<event>
 5    1  0.1338396E-008  0.3757264E+03  0.7957747E-01  0.3469980E+00
         13   -1    0    0    0    0  0.00000000000E+00  0.00000000000E+00  0.14999999963E+04  0.15000000000E+04  0.10566000000E+00 0.  1.
        994   -1    0    0    0    0 -0.00000000000E+00 -0.00000000000E+00  0.11368683772E-12  0.17120000000E+03  0.17120000000E+03 0.  0.
         13    1    1    2    0    0  0.16020179073E+02  0.26474257281E+02  0.78837065010E+02  0.84692540519E+02  0.10566000000E+00 0.  1.
        994    1    1    2    0    0  0.10676885981E+02 -0.86176781190E+01  0.69447884550E+01  0.17188929681E+03  0.17120000000E+03 0.  0.
        998    1    1    2    0    0 -0.26697065054E+02 -0.17856579162E+02  0.14142181428E+04  0.14146181627E+04  0.10000000000E+02 0.  1.
</event>
<event>
 5    1  0.1338396E-008  0.3790567E+03  0.7957747E-01  0.3455276E+00
         13   -1    0    0    0    0  0.00000000000E+00  0.00000000000E+00  0.14999999963E+04  0.15000000000E+04  0.10566000000E+00 0.  1.
        994   -1    0    0    0    0 -0.00000000000E+00 -0.00000000000E+00  0.11368683772E-12  0.17120000000E+03  0.17120000000E+03 0.  0.
         13    1    1    2    0    0 -0.26839830048E+02  0.20273105183E+00  0.74568248994E+02  0.79251829625E+02  0.10566000000E+00 0.  1.
        994    1    1    2    0    0  0.22656490381E+02 -0.39667463982E+01  0.63861961300E+01  0.17285622677E+03  0.17120000000E+03 0.  0.
        998    1    1    2    0    0  0.41833396669E+01  0.37640153464E+01  0.14190455512E+04  0.14190919436E+04  0.10000000000E+02 0.  1.
</event>
<event>
 5    1  0.1338396E-008  0.3850979E+03  0.7957747E-01  0.3429257E+00
         13   -1    0    0    0    0  0.00000000000E+00  0.00000000000E+00  0.14999999963E+04  0.15000000000E+04  0.10566000000E+00 0.  1.
        994   -1    0    0    0    0 -0.00000000000E+00 -0.00000000000E+00  0.11368683772E-12  0.17120000000E+03  0.17120000000E+03 0.  0.
         13    1    1    2    0    0  0.13890114960E+02  0.12735817078E+02  0.10109418346E+03  0.10283570111E+03  0.10566000000E+00 0.  1.
        994    1    1    2    0    0 -0.20814784449E+02 -0.15013677830E+02  0.37499926909E+01  0.17315359719E+03  0.17120000000E+03 0.  0.
        998    1    1    2    0    0  0.69246694893E+01  0.22778607521E+01  0.13951558201E+04  0.13952107017E+04  0.10000000000E+02 0.  1.
</event>
<event>
 5    1  0.1338396E-008  0.3848379E+03  0.7957747E-01  0.3430360E+00
         13   -1    0    0    0    0  0.00000000000E+00  0.00000000000E+00  0.14999999963E+04  0.15000000000E+04  0.10566000000E+00 0. -1.
        994   -1    0    0    0    0 -0.00000000000E+00 -0.00000000000E+00  0.11368683772E-12  0.17120000000E+03  0.17120000000E+03 0.  0.
         13    1    1    2    0    0 -0.11764386751E+02  0.14024564846E+02  0.98435308696E+02  0.10012297627E+03  0.10566000000E+00 0. -1.
        994    1    1    2    0    0  0.13833986757E+02 -0.28673038713E+01  0.23676839410E+01  0.17179827283E+03  0.17120000000E+03 0.  0.
        998    1    1    2    0    0 -0.20696000066E+01 -0.11157260975E+02  0.13991970036E+04  0.13992787509E+04  0.10000000000E+02 0. -1.
</event>
<event>
 5    1  0.1338396E-008  0.3742453E+03  0.7957747E-01  0.3476605E+00
         13   -1    0    0    0    0  0.00000000000E+00  0.00000000000E+00  0.14999999963E+04  0.15000000000E+04  0.10566000000E+00 0.  1.
        994   -1    0    0    0    0 -0.00000000000E+00 -0.00000000000E+00  0.11368683772E-12  0.17120000000E+03  0.17120000000E+03 0.  0.
         13    1    1    2    0    0  0.11028918908E+02  0.14751557716E+02  0.21220277436E+02  0.28099054181E+02  0.10566000000E+00 0.  1.
        994    1    1    2    0    0 -0.21950400939E+02  0.62181330500E+01  0.88425483706E+01  0.17293963092E+03  0.17120000000E+03 0.  0.
        998    1    1    2    0    0  0.10921482030E+02 -0.20969690766E+02  0.14699371705E+04  0.14701613149E+04  0.10000000000E+02 0.  1.
</event>
<event>
 5    1  0.1338396E-008  0.3842112E+03  0.7957747E-01  0.3433025E+00
         13   -1    0    0    0    0  0.00000000000E+00  0.00000000000E+00  0.14999999963E+04  0.15000000000E+04  0.10566000000E+00 0. -1.
        994   -1    0    0    0    0 -0.00000000000E+00 -0.00000000000E+00  0.11368683772E-12  0.17120000000E+03  0.17120000000E+03 0.  0.
         13    1    1    2    0    0 -0.14117698190E+02 -0.11100571553E+02  0.76936288041E+02  0.79004656019E+02  0.10566000000E+00 0. -1.
        994    1    1    2    0    0  0.11527225038E+02  0.12307792610E+02  0.29604010055E+01  0.17205395273E+03  0.17120000000E+03 0.  0.
        998    1    1    2    0    0  0.25904731520E+01 -0.12072210571E+01  0.14201033072E+04  0.14201413913E+04  0.10000000000E+02 0. -1.
</event>
<event>
 5    1  0.1338396E-008  0.3832199E+03  0.7957747E-01  0.3437257E+00
         13   -1    0    0    0    0  0.00000000000E+00  0.00000000000E+00  0.14999999963E+04  0.15000000000E+04  0.10566000000E+00 0.  1.
        994   -1    0    0    0    0 -0.00000000000E+00 -0.00000000000E+00  0.11368683772E-12  0.17120000000E+03  0.17120000000E+03 0.  0.
         13    1    1    2    0    0 -0.33141015855E+02  0.51268310052E+01  0.19483476181E+03  0.19769978984E+03  0.10566000000E+00 0.  1.
        994    1    1    2    0    0  0.33119252860E+02 -0.12734843931E+02  0.66923544104E+01  0.17496653614E+03  0.17120000000E+03 0.  0.
        998    1    1    2    0    0  0.21762994742E-01  0.76080129261E+01  0.12984728801E+04  0.12985336740E+04  0.10000000000E+02 0.  1.
</event>
<event>
 5    1  0.1338396E-008  0.3781843E+03  0.7957747E-01  0.3459103E+00
         13   -1    0    0    0    0  0.00000000000E+00  0.00000000000E+00  0.14999999963E+04  0.15000000000E+04  0.10566000000E+00 0.  1.
        994   -1    0    0    0    0 -0.00000000000E+00 -0.00000000000E+00  0.11368683772E-12  0.17120000000E+03  0.17120000000E+03 0.  0.
         13    1    1    2    0    0  0.85919181593E+02 -0.88762193730E+02  0.70508133690E+03  0.71582158085E+03  0.10566000000E+00 0.  1.
        994    1    1    2    0    0 -0.91106770764E+02  0.89692579169E+02  0.62153016937E+02  0.22252559392E+03  0.17120000000E+03 0.  0.
        998    1    1    2    0    0  0.51875891712E+01 -0.93038543928E+00  0.73276564244E+03  0.73285282522E+03  0.10000000000E+02 0.  0.
</event>
<event>
 5    1  0.1338396E-008  0.3841245E+03  0.7957747E-01  0.3433394E+00
         13   -1    0    0    0    0  0.00000000000E+00  0.00000000000E+00  0.14999999963E+04  0.15000000000E+04  0.10566000000E+00 0.  1.
        994   -1    0    0    0    0 -0.00000000000E+00 -0.00000000000E+00  0.11368683772E-12  0.17120000000E+03  0.17120000000E+03 0.  0.
         13    1    1    2    0    0 -0.23349844101E+02  0.14566873601E+02  0.13127150956E+03  0.13412542419E+03  0.10566000000E+00 0.  1.
        994    1    1    2    0    0  0.93203259251E+02  0.21810276936E+02  0.32892567003E+02  0.19888161473E+03  0.17120000000E+03 0.  0.
        998    1    1    2    0    0 -0.69853415150E+02 -0.36377150537E+02  0.13358359197E+04  0.13381929611E+04  0.10000000000E+02 0.  1.
</event>
<event>
 5    1  0.1338396E-008  0.3741229E+03  0.7957747E-01  0.3477155E+00
         13   -1    0    0    0    0  0.00000000000E+00  0.00000000000E+00  0.14999999963E+04  0.15000000000E+04  0.10566000000E+00 0.  1.
        994   -1    0    0    0    0 -0.00000000000E+00 -0.00000000000E+00  0.11368683772E-12  0.17120000000E+03  0.17120000000E+03 0.  0.
         13    1    1    2    0    0  0.13736849985E+02  0.14810376077E+02  0.96927615773E+01  0.22405559089E+02  0.10566000000E+00 0.  1.
        994    1    1    2    0    0 -0.10281038395E+02 -0.14807580660E+02  0.14289202567E+02  0.17273848878E+03  0.17120000000E+03 0.  0.
        998    1    1    2    0    0 -0.34558115900E+01 -0.27954170595E-02  0.14760180321E+04  0.14760559521E+04  0.10000000000E+02 0.  1.
</event>
<event>
 5    1  0.1338396E-008  0.3818228E+03  0.7957747E-01  0.3443260E+00
         13   -1    0    0    0    0  0.00000000000E+00  0.00000000000E+00  0.14999999963E+04  0.15000000000E+04  0.10566000000E+00 0.  1.
        994   -1    0    0    0    0 -0.00000000000E+00 -0.00000000000E+00  0.11368683772E-12  0.17120000000E+03  0.17120000000E+03 0.  0.
         13    1    1    2    0    0 -0.20234477895E+03  0.53068951345E+02  0.11257314232E+04  0.11450026076E+04  0.10566000000E+00 0.  1.
        994    1    1    2    0    0  0.19925396433E+03 -0.60899884936E+02  0.16420438626E+03  0.31572687366E+03  0.17120000000E+03 0.  0.
        998    1    1    2    0    0  0.30908146174E+01  0.78309335911E+01  0.21006418684E+03  0.21047051871E+03  0.10000000000E+02 0.  0.
</event>
<event>
 5    1  0.1338396E-008  0.3716727E+03  0.7957747E-01  0.3488239E+00
         13   -1    0    0    0    0  0.00000000000E+00  0.00000000000E+00  0.14999999963E+04  0.15000000000E+04  0.10566000000E+00 0.  1.
        994   -1    0    0    0    0 -0.00000000000E+00 -0.00000000000E+00  0.11368683772E-12  0.17120000000E+03  0.17120000000E+03 0.  0.
         13    1    1    2    0    0 -0.22911441158E+02 -0.41730941160E+02  0.14351545954E+03  0.15120550214E+03  0.10566000000E+00 0.  1.
        994    1    1    2    0    0 -0.22263942475E+01  0.13491094951E+02  0.90403881865E+01  0.17198295001E+03  0.17120000000E+03 0.  0.
        998    1    1    2    0    0  0.25137835405E+02  0.28239846209E+02  0.13474441485E+04  0.13480115479E+04  0.10000000000E+02 0.  1.
</event>
<event>
 5    1  0.1338396E-008  0.3809166E+03  0.7957747E-01  0.3447177E+00
         13   -1    0    0    0    0  0.00000000000E+00  0.00000000000E+00  0.14999999963E+04  0.15000000000E+04  0.10566000000E+00 0. -1.
        994   -1    0    0    0    0 -0.00000000000E+00 -0.00000000000E+00  0.11368683772E-12  0.17120000000E+03  0.17120000000E+03 0.  0.
         13    1    1    2    0    0  0.18846461787E+02  0.25572078965E+02  0.13696465847E+03  0.14060031714E+03  0.10566000000E+00 0. -1.
        994    1    1    2    0    0 -0.61192382701E+01 -0.17881175170E+02  0.48625062916E+01  0.17230863435E+03  0.17120000000E+03 0.  0.
        998    1    1    2    0    0 -0.12727223517E+02 -0.76909037952E+01  0.13581728315E+04  0.13582910485E+04  0.10000000000E+02 0. -1.
</event>
<event>
 5    1  0.1338396E-008  0.3854791E+03  0.7957747E-01  0.3427643E+00
         13   -1    0    0    0    0  0.00000000000E+00  0.00000000000E+00  0.14999999963E+04  0.15000000000E+04  0.10566000000E+00 0. -1.
        994   -1    0    0    0    0 -0.00000000000E+00 -0.00000000000E+00  0.11368683772E-12  0.17120000000E+03  0.17120000000E+03 0.  0.
         13    1    1    2    0    0  0.50560138709E+01 -0.13562487262E+02  0.77063243361E+02  0.78410834573E+02  0.10566000000E+00 0. -1.
        994    1    1    2    0    0 -0.15208680298E+02  0.20140674493E+01  0.21656361113E+01  0.17189965213E+03  0.17120000000E+03 0.  0.
        998    1    1    2    0    0  0.10152666427E+02  0.11548419813E+02  0.14207711168E+04  0.14208895133E+04  0.10000000000E+02 0. -1.
</event>
<event>
 5    1  0.1338396E-008  0.3835208E+03  0.7957747E-01  0.3435970E+00
         13   -1    0    0    0    0  0.00000000000E+00  0.00000000000E+00  0.14999999963E+04  0.15000000000E+04  0.10566000000E+00 0.  1.
        994   -1    0    0    0    0 -0.00000000000E+00 -0.00000000000E+00  0.11368683772E-12  0.17120000000E+03  0.17120000000E+03 0.  0.
         13    1    1    2    0    0  0.20066434882E+02 -0.14406301804E+01  0.79077038864E+02  0.81596117946E+02  0.10566000000E+00 0.  1.
        994    1    1    2    0    0 -0.25459745593E+02 -0.40359767241E+01  0.45652119911E+01  0.17318997925E+03  0.17120000000E+03 0.  0.
        998    1    1    2    0    0  0.53933107107E+01  0.54766069044E+01  0.14163577454E+04  0.14164139028E+04  0.10000000000E+02 0.  1.
</event>
<event>
 5    1  0.1338396E-008  0.3734408E+03  0.7957747E-01  0.3480226E+00
         13   -1    0    0    0    0  0.00000000000E+00  0.00000000000E+00  0.14999999963E+04  0.15000000000E+04  0.10566000000E+00 0. -1.
        994   -1    0    0    0    0 -0.00000000000E+00 -0.00000000000E+00  0.11368683772E-12  0.17120000000E+03  0.17120000000E+03 0.  0.
         13    1    1    2    0    0  0.13746490248E+03  0.54929118048E+02  0.56544506547E+03  0.58450144624E+03  0.10566000000E+00 0. -1.
        994    1    1    2    0    0 -0.13683328996E+03 -0.24452155983E+02  0.84687626335E+02  0.23622593259E+03  0.17120000000E+03 0.  0.
        998    1    1    2    0    0 -0.63161251396E+00 -0.30476962066E+02  0.84986730447E+03  0.85047262117E+03  0.10000000000E+02 0.  1.
</event>
<event>
 5    1  0.1338396E-008  0.3695473E+03  0.7957747E-01  0.3497974E+00
         13   -1    0    0    0    0  0.00000000000E+00  0.00000000000E+00  0.14999999963E+04  0.15000000000E+04  0.10566000000E+00 0.  1.
        994   -1    0    0    0    0 -0.00000000000E+00 -0.00000000000E+00  0.11368683772E-12  0.17120000000E+03  0.17120000000E+03 0.  0.
         13    1    1    2    0    0  0.26831565844E+02  0.65705606754E+02  0.40395689335E+03  0.41014429478E+03  0.10566000000E+00 0.  1.
        994    1    1    2    0    0 -0.12860978377E+03  0.29663996693E+02  0.72500116627E+02  0.22800468436E+03  0.17120000000E+03 0.  0.
        998    1    1    2    0    0  0.10177821792E+03 -0.95369603447E+02  0.10235429863E+04  0.10330510209E+04  0.10000000000E+02 0.  1.
</event>
<event>
 5    1  0.1338396E-008  0.3851541E+03  0.7957747E-01  0.3429019E+00
         13   -1    0    0    0    0  0.00000000000E+00  0.00000000000E+00  0.14999999963E+04  0.15000000000E+04  0.10566000000E+00 0. -1.
        994   -1    0    0    0    0 -0.00000000000E+00 -0.00000000000E+00  0.11368683772E-12  0.17120000000E+03  0.17120000000E+03 0.  0.
         13    1    1    2    0    0 -0.64686842483E+01 -0.11609307213E+02  0.55893189954E+02  0.57451542514E+02  0.10566000000E+00 0. -1.
        994    1    1    2    0    0  0.59671081261E+01  0.10217328426E+02  0.20139888281E+01  0.17162020956E+03  0.17120000000E+03 0.  0.
        998    1    1    2    0    0  0.50157612220E+00  0.13919787872E+01  0.14420928175E+04  0.14421282479E+04  0.10000000000E+02 0. -1.
</event>
<event>
 5    1  0.1338396E-008  0.3797888E+03  0.7957747E-01  0.3452079E+00
         13   -1    0    0    0    0  0.00000000000E+00  0.00000000000E+00  0.14999999963E+04  0.15000000000E+04  0.10566000000E+00 0.  1.
        994   -1    0    0    0    0 -0.00000000000E+00 -0.00000000000E+00  0.11368683772E-12  0.17120000000E+03  0.17120000000E+03 0.  0.
         13    1    1    2    0    0 -0.20723829012E+02  0.93021140314E+01  0.63839712107E+02  0.67760802979E+02  0.10566000000E+00 0.  1.
        994    1    1    2    0    0  0.91787292474E+00  0.98117354730E+01  0.45647192837E+01  0.17154413224E+03  0.17120000000E+03 0.  0.
        998    1    1    2    0    0  0.19805956087E+02 -0.19113849504E+02  0.14315955649E+04  0.14318950648E+04  0.10000000000E+02 0.  1.
</event>
<event>
 5    1  0.1338396E-008  0.3919284E+03  0.7957747E-01  0.3400809E+00
         13   -1    0    0    0    0  0.00000000000E+00  0.00000000000E+00  0.14999999963E+04  0.15000000000E+04  0.10566000000E+00 0.  1.
        994   -1    0    0    0    0 -0.00000000000E+00 -0.00000000000E+00  0.11368683772E-12  0.17120000000E+03  0.17120000000E+03 0.  0.
         13    1    1    2    0    0  0.50263455711E+02  0.32477559133E+02  0.67716124250E+02  0.90369748670E+02  0.10566000000E+00 0.  1.
        994    1    1    2    0    0 -0.47351984005E+02 -0.28697116298E+02  0.34754291225E+02  0.18325674785E+03  0.17120000000E+03 0.  0.
        998    1    1    2    0    0 -0.29114717060E+01 -0.37804428351E+01  0.13975295808E+04  0.13975735035E+04  0.10000000000E+02 0.  1.
</event>
<event>
 5    1  0.1338396E-008  0.3791610E+03  0.7957747E-01  0.3454820E+00
         13   -1    0    0    0    0  0.00000000000E+00  0.00000000000E+00  0.14999999963E+04  0.15000000000E+04  0.10566000000E+00 0.  1.
        994   -1    0    0    0    0 -0.00000000000E+00 -0.00000000000E+00  0.11368683772E-12  0.17120000000E+03  0.17120000000E+03 0.  0.
         13    1    1    2    0    0 -0.43801864330E+01  0.25478322002E+02  0.75378807718E+02  0.79688811901E+02  0.10566000000E+00 0.  1.
        994    1    1    2    0    0 -0.16775595632E+01 -0.49786115151E+01  0.46497880553E+01  0.17134369352E+03  0.17120000000E+03 0.  0.
        998    1    1    2    0    0  0.60577459962E+01 -0.20499710487E+02  0.14199714005E+04  0.14201674946E+04  0.10000000000E+02 0.  1.
</event>
<event>
 5    1  0.1338396E-008  0.2986937E+03  0.7957747E-01  0.3905389E+00
         13   -1    0    0    0    0  0.00000000000E+00  0.00000000000E+00  0.14999999963E+04  0.15000000000E+04  0.10566000000E+00 0.  1.
        994   -1    0    0    0    0 -0.00000000000E+00 -0.00000000000E+00  0.11368683772E-12  0.17120000000E+03  0.17120000000E+03 0.  0.
         13    1    1    2    0    0  0.22926549735E+03 -0.77972654667E+02  0.32480753423E+03  0.40514484892E+03  0.10566000000E+00 0.  1.
        994    1    1    2    0    0 -0.23824994837E+03  0.66680258856E+02  0.45395678845E+03  0.54460582131E+03  0.17120000000E+03 0.  0.
        998    1    1    2    0    0  0.89844510264E+01  0.11292395811E+02  0.72123567359E+03  0.72144932977E+03  0.10000000000E+02 0.  0.
</event>
<event>
 5    1  0.1338396E-008  0.3706190E+03  0.7957747E-01  0.3493051E+00
         13   -1    0    0    0    0  0.00000000000E+00  0.00000000000E+00  0.14999999963E+04  0.15000000000E+04  0.10566000000E+00 0.  1.
        994   -1    0    0    0    0 -0.00000000000E+00 -0.00000000000E+00  0.11368683772E-12  0.17120000000E+03  0.17120000000E+03 0.  0.
         13    1    1    2    0    0 -0.11607807460E+02 -0.89621497665E+01  0.80236330014E+01  0.16716793145E+02  0.10566000000E+00 0.  1.
        994    1    1    2    0    0  0.55815931436E+01  0.69639284209E+01  0.92207309762E+01  0.17168026200E+03  0.17120000000E+03 0.  0.
        998    1    1    2    0    0  0.60262143164E+01  0.19982213456E+01  0.14827556323E+04  0.14828029449E+04  0.10000000000E+02 0.  1.
</event>
<event>
 5    1  0.1338396E-008  0.3724157E+03  0.7957747E-01  0.3484862E+00
         13   -1    0    0    0    0  0.00000000000E+00  0.00000000000E+00  0.14999999963E+04  0.15000000000E+04  0.10566000000E+00 0. -1.
        994   -1    0    0    0    0 -0.00000000000E+00 -0.00000000000E+00  0.11368683772E-12  0.17120000000E+03  0.17120000000E+03 0.  0.
         13    1    1    2    0    0  0.85472313375E-01  0.12882713695E+02  0.65481124255E+01  0.14452008789E+02  0.10566000000E+00 0. -1.
        994    1    1    2    0    0  0.86020169981E+00 -0.18874123423E+02  0.92368790163E+01  0.17248690506E+03  0.17120000000E+03 0.  0.
        998    1    1    2    0    0 -0.94567401319E+00  0.59914097281E+01  0.14842150048E+04  0.14842610862E+04  0.10000000000E+02 0. -1.
</event>
<event>
 5    1  0.1338396E-008  0.3984953E+03  0.7957747E-01  0.3374379E+00
         13   -1    0    0    0    0  0.00000000000E+00  0.00000000000E+00  0.14999999963E+04  0.15000000000E+04  0.10566000000E+00 0. -1.
        994   -1    0    0    0    0 -0.00000000000E+00 -0.00000000000E+00  0.11368683772E-12  0.17120000000E+03  0.17120000000E+03 0.  0.
         13    1    1    2    0    0  0.10772094116E+03 -0.79056424224E+02  0.52339725054E+03  0.54018368395E+03  0.10566000000E+00 0. -1.
        994    1    1    2    0    0 -0.35062470619E+02 -0.27005188503E+02  0.34540779573E+02  0.18016981574E+03  0.17120000000E+03 0.  0.
        998    1    1    2    0    0 -0.72658470540E+02  0.10606161273E+03  0.94206196617E+03  0.95084650030E+03  0.10000000000E+02 0. -1.
</event>
<event>
 5    1  0.1338396E-008  0.3806795E+03  0.7957747E-01  0.3448205E+00
         13   -1    0    0    0    0  0.00000000000E+00  0.00000000000E+00  0.14999999963E+04  0.15000000000E+04  0.10566000000E+00 0.  1.
        994   -1    0    0    0    0 -0.00000000000E+00 -0.00000000000E+00  0.11368683772E-12  0.17120000000E+03  0.17120000000E+03 0.  0.
         13    1    1    2    0    0  0.77127154108E+01  0.20919156879E+02  0.69022850475E+02  0.72534558352E+02  0.10566000000E+00 0.  1.
        994    1    1    2    0    0 -0.49072819542E+02  0.18261330836E+02  0.12989691886E+02  0.17949871843E+03  0.17120000000E+03 0.  0.
        998    1    1    2    0    0  0.41360104131E+02 -0.39180487715E+02  0.14179874539E+04  0.14191667232E+04  0.10000000000E+02 0.  1.
</event>
<event>
 5    1  0.1338396E-008  0.3829377E+03  0.7957747E-01  0.3438466E+00
         13   -1    0    0    0    0  0.00000000000E+00  0.00000000000E+00  0.14999999963E+04  0.15000000000E+04  0.10566000000E+00 0. -1.
        994   -1    0    0    0    0 -0.00000000000E+00 -0.00000000000E+00  0.11368683772E-12  0.17120000000E+03  0.17120000000E+03 0.  0.
         13    1    1    2    0    0 -0.25032530489E+01  0.17868408708E+02  0.66363554616E+02  0.68772660635E+02  0.10566000000E+00 0. -1.
        994    1    1    2    0    0 -0.11282919894E+02  0.46259719820E+01  0.31499741682E+01  0.17166265242E+03  0.17120000000E+03 0.  0.
        998    1    1    2    0    0  0.13786172943E+02 -0.22494380690E+02  0.14304864675E+04  0.14307646869E+04  0.10000000000E+02 0. -1.
</event>
<event>
 5    1  0.1338396E-008  0.3789472E+03  0.7957747E-01  0.3455756E+00
         13   -1    0    0    0    0  0.00000000000E+00  0.00000000000E+00  0.14999999963E+04  0.15000000000E+04  0.10566000000E+00 0.  1.
        994   -1    0    0    0    0 -0.00000000000E+00 -0.00000000000E+00  0.11368683772E-12  0.17120000000E+03  0.17120000000E+03 0.  0.
         13    1    1    2    0    0 -0.11674048913E+03 -0.24567416870E+02  0.70338348484E+03  0.71342850916E+03  0.10566000000E+00 0.  1.
        994    1    1    2    0    0  0.12113557649E+03  0.29744018578E+02  0.58765123063E+02  0.21982109594E+03  0.17120000000E+03 0.  0.
        998    1    1    2    0    0 -0.43950873629E+01 -0.51766017077E+01  0.73785138838E+03  0.73795039490E+03  0.10000000000E+02 0.  1.
</event>
<event>
 5    1  0.1338396E-008  0.3799702E+03  0.7957747E-01  0.3451288E+00
         13   -1    0    0    0    0  0.00000000000E+00  0.00000000000E+00  0.14999999963E+04  0.15000000000E+04  0.10566000000E+00 0. -1.
        994   -1    0    0    0    0 -0.00000000000E+00 -0.00000000000E+00  0.11368683772E-12  0.17120000000E+03  0.17120000000E+03 0.  0.
         13    1    1    2    0    0 -0.28864861885E+01 -0.16647475733E+02  0.32512796832E+02  0.36641006710E+02  0.10566000000E+00 0. -1.
        994    1    1    2    0    0  0.72515918572E+01  0.12964401115E+02  0.48862428825E+01  0.17191270067E+03  0.17120000000E+03 0.  0.
        998    1    1    2    0    0 -0.43651056687E+01  0.36830746182E+01  0.14626009566E+04  0.14626462926E+04  0.10000000000E+02 0. -1.
</event>
<event>
 5    1  0.1338396E-008  0.3853633E+03  0.7957747E-01  0.3428133E+00
         13   -1    0    0    0    0  0.00000000000E+00  0.00000000000E+00  0.14999999963E+04  0.15000000000E+04  0.10566000000E+00 0.  1.
        994   -1    0    0    0    0 -0.00000000000E+00 -0.00000000000E+00  0.11368683772E-12  0.17120000000E+03  0.17120000000E+03 0.  0.
         13    1    1    2    0    0 -0.12505631809E+02  0.86779237526E+01  0.87776927101E+02  0.89087020845E+02  0.10566000000E+00 0.  1.
        994    1    1    2    0    0 -0.39083244277E+01 -0.30862945091E+01  0.15313609185E+01  0.17127926109E+03  0.17120000000E+03 0.  0.
        998    1    1    2    0    0  0.16413956237E+02 -0.55916292436E+01  0.14106917083E+04  0.14108337181E+04  0.10000000000E+02 0.  1.
</event>
<event>
 5    1  0.1338396E-008  0.3791382E+03  0.7957747E-01  0.3454920E+00
         13   -1    0    0    0    0  0.00000000000E+00  0.00000000000E+00  0.14999999963E+04  0.15000000000E+04  0.10566000000E+00 0.  1.
        994   -1    0    0    0    0 -0.00000000000E+00 -0.00000000000E+00  0.11368683772E-12  0.17120000000E+03  0.17120000000E+03 0.  0.
         13    1    1    2    0    0 -0.50759508919E+02 -0.29635833887E+02  0.33578206226E+03  0.34088768663E+03  0.10566000000E+00 0.  1.
        994    1    1    2    0    0  0.57742525448E+02 -0.41534010037E+01  0.15887623617E+02  0.18142024851E+03  0.17120000000E+03 0.  0.
        998    1    1    2    0    0 -0.69830165297E+01  0.33789234891E+02  0.11483303104E+04  0.11488920649E+04  0.10000000000E+02 0.  1.
</event>
<event>
 5    1  0.1338396E-008  0.3859973E+03  0.7957747E-01  0.3425453E+00
         13   -1    0    0    0    0  0.00000000000E+00  0.00000000000E+00  0.14999999963E+04  0.15000000000E+04  0.10566000000E+00 0.  1.
        994   -1    0    0    0    0 -0.00000000000E+00 -0.00000000000E+00  0.11368683772E-12  0.17120000000E+03  0.17120000000E+03 0.  0.
         13    1    1    2    0    0 -0.92141596245E+01  0.85745135333E+01  0.72727895073E+02  0.73809084168E+02  0.10566000000E+00 0.  1.
        994    1    1    2    0    0  0.72514621603E+00 -0.59221882134E+01  0.12524943015E+01  0.17130851378E+03  0.17120000000E+03 0.  0.
        998    1    1    2    0    0  0.84890134085E+01 -0.26523253200E+01  0.14260196069E+04  0.14260824021E+04  0.10000000000E+02 0.  1.
</event>
<event>
 5    1  0.1338396E-008  0.3834150E+03  0.7957747E-01  0.3436422E+00
         13   -1    0    0    0    0  0.00000000000E+00  0.00000000000E+00  0.14999999963E+04  0.15000000000E+04  0.10566000000E+00 0. -1.
        994   -1    0    0    0    0 -0.00000000000E+00 -0.00000000000E+00  0.11368683772E-12  0.17120000000E+03  0.17120000000E+03 0.  0.
         13    1    1    2    0    0  0.37949228196E+01  0.10218925906E+02  0.23592875462E+02  0.25989667610E+02  0.10566000000E+00 0. -1.
        994    1    1    2    0    0  0.11068727312E+02 -0.14087650585E+02  0.34808833758E+01  0.17217007630E+03  0.17120000000E+03 0.  0.
        998    1    1    2    0    0 -0.14863650132E+02  0.38687246793E+01  0.14729262374E+04  0.14730402561E+04  0.10000000000E+02 0. -1.
</event>
<event>
 5    1  0.1338396E-008  0.3782474E+03  0.7957747E-01  0.3458825E+00
         13   -1    0    0    0    0  0.00000000000E+00  0.00000000000E+00  0.14999999963E+04  0.15000000000E+04  0.10566000000E+00 0.  1.
        994   -1    0    0    0    0 -0.00000000000E+00 -0.00000000000E+00  0.11368683772E-12  0.17120000000E+03  0.17120000000E+03 0.  0.
         13    1    1    2    0    0 -0.32541594608E+02  0.22129165551E+03  0.99284327533E+03  0.10177262563E+04  0.10566000000E+00 0.  1.
        994    1    1    2    0    0  0.32305659079E+02 -0.22325156803E+03  0.20128792312E+03  0.34743515399E+03  0.17120000000E+03 0.  0.
        998    1    1    2    0    0  0.23593552952E+00  0.19599125175E+01  0.30586879782E+03  0.30603858973E+03  0.10000000000E+02 0.  0.
</event>
<event>
 5    1  0.1338396E-008  0.3852761E+03  0.7957747E-01  0.3428502E+00
         13   -1    0    0    0    0  0.00000000000E+00  0.00000000000E+00  0.14999999963E+04  0.15000000000E+04  0.10566000000E+00 0. -1.
        994   -1    0    0    0    0 -0.00000000000E+00 -0.00000000000E+00  0.11368683772E-12  0.17120000000E+03  0.17120000000E+03 0.  0.
         13    1    1    2    0    0  0.15966551872E+02 -0.45232244788E+01  0.94940084180E+02  0.96379567785E+02  0.10566000000E+00 0. -1.
        994    1    1    2    0    0 -0.65790780258E+01  0.40083967928E+01  0.16881653975E+01  0.17138156673E+03  0.17120000000E+03 0.  0.
        998    1    1    2    0    0 -0.93874738464E+01  0.51482768595E+00  0.14033717467E+04  0.14034388655E+04  0.10000000000E+02 0. -1.
</event>
<event>
 5    1  0.1338396E-008  0.3784911E+03  0.7957747E-01  0.3457755E+00
         13   -1    0    0    0    0  0.00000000000E+00  0.00000000000E+00  0.14999999963E+04  0.15000000000E+04  0.10566000000E+00 0. -1.
        994   -1    0    0    0    0 -0.00000000000E+00 -0.00000000000E+00  0.11368683772E-12  0.17120000000E+03  0.17120000000E+03 0.  0.
         13    1    1    2    0    0 -0.40691639901E+01 -0.10790120920E+02  0.11300251834E+02  0.16145948736E+02  0.10566000000E+00 0. -1.
        994    1    1    2    0    0 -0.44766532980E+01  0.14848892426E+02  0.57052828058E+01  0.17199569844E+03  0.17120000000E+03 0.  0.
        998    1    1    2    0    0  0.85458172881E+01 -0.40587715053E+01  0.14829944616E+04  0.14830583528E+04  0.10000000000E+02 0. -1.
</event>
<event>
 5    1  0.1338396E-008  0.4136626E+03  0.7957747E-01  0.3316520E+00
         13   -1    0    0    0    0  0.00000000000E+00  0.00000000000E+00  0.14999999963E+04  0.15000000000E+04  0.10566000000E+00 0. -1.
        994   -1    0    0    0    0 -0.00000000000E+00 -0.00000000000E+00  0.11368683772E-12  0.17120000000E+03  0.17120000000E+03 0.  0.
         13    1    1    2    0    0  0.59043357136E+02  0.56027973594E+02  0.98260715080E+02  0.12759479276E+03  0.10566000000E+00 0. -1.
        994    1    1    2    0    0  0.50991165051E+02 -0.33667669953E+02  0.51864536943E+02  0.18903169339E+03  0.17120000000E+03 0.  0.
        998    1    1    2    0    0 -0.11003452219E+03 -0.22360303641E+02  0.13498747443E+04  0.13545735139E+04  0.10000000000E+02 0. -1.
</event>
<event>
 5    1  0.1338396E-008  0.3723420E+03  0.7957747E-01  0.3485196E+00
         13   -1    0    0    0    0  0.00000000000E+00  0.00000000000E+00  0.14999999963E+04  0.15000000000E+04  0.10566000000E+00 0.  1.
        994   -1    0    0    0    0 -0.00000000000E+00 -0.00000000000E+00  0.11368683772E-12  0.17120000000E+03  0.17120000000E+03 0.  0.
         13    1    1    2    0    0 -0.24777067272E+02  0.96924214976E+02  0.60379084871E+03  0.61202255404E+03  0.10566000000E+00 0.  1.
        994    1    1    2    0    0  0.95114516315E+02 -0.55224289597E+02  0.50754280880E+02  0.20971869350E+03  0.17120000000E+03 0.  0.
        998    1    1    2    0    0 -0.70337449043E+02 -0.41699925378E+02  0.84545486669E+03  0.84945875246E+03  0.10000000000E+02 0.  1.
</event>
<event>
 5    1  0.1338396E-008  0.3847035E+03  0.7957747E-01  0.3430931E+00
         13   -1    0    0    0    0  0.00000000000E+00  0.00000000000E+00  0.14999999963E+04  0.15000000000E+04  0.10566000000E+00 0.  1.
        994   -1    0    0    0    0 -0.00000000000E+00 -0.00000000000E+00  0.11368683772E-12  0.17120000000E+03  0.17120000000E+03 0.  0.
         13    1    1    2    0    0 -0.77281247576E+01  0.72259083100E+01  0.31784851885E+02  0.33499636364E+02  0.10566000000E+00 0.  1.
        994    1    1    2    0    0 -0.16021367824E+00 -0.40065194774E+01  0.18303600076E+01  0.17125673150E+03  0.17120000000E+03 0.  0.
        998    1    1    2    0    0  0.78883384359E+01 -0.32193888326E+01  0.14663847844E+04  0.14664436321E+04  0.10000000000E+02 0.  1.
</event>
<event>
 5    1  0.1338396E-008  0.3824486E+03  0.7957747E-01  0.3440565E+00
         13   -1    0    0    0    0  0.00000000000E+00  0.00000000000E+00  0.14999999963E+04  0.15000000000E+04  0.10566000000E+00 0. -1.
        994   -1    0    0    0    0 -0.00000000000E+00 -0.00000000000E+00  0.11368683772E-12  0.17120000000E+03  0.17120000000E+03 0.  0.
         13    1    1    2    0    0 -0.25205204012E+02  0.13393423802E+01  0.12640047359E+03  0.12889603189E+03  0.10566000000E+00 0. -1.
        994    1    1    2    0    0 -0.65923209852E+01 -0.17454894739E+02  0.40574507726E+01  0.17226153068E+03  0.17120000000E+03 0.  0.
        998    1    1    2    0    0  0.31797524998E+02  0.16115552359E+02  0.13695420719E+04  0.13700424374E+04  0.10000000000E+02 0. -1.
</event>
<event>
 5    1  0.1338396E-008  0.3741318E+03  0.7957747E-01  0.3477115E+00
         13   -1    0    0    0    0  0.00000000000E+00  0.00000000000E+00  0.14999999963E+04  0.15000000000E+04  0.10566000000E+00 0. -1.
        994   -1    0    0    0    0 -0.00000000000E+00 -0.00000000000E+00  0.11368683772E-12  0.17120000000E+03  0.17120000000E+03 0.  0.
         13    1    1    2    0    0 -0.88800792630E+01 -0.10234598309E+02  0.90630621628E+00  0.13580698261E+02  0.10566000000E+00 0. -1.
        994    1    1    2    0    0  0.99565335129E+01  0.98822282922E+01  0.13838817646E+02  0.17233033357E+03  0.17120000000E+03 0.  0.
        998    1    1    2    0    0 -0.10764542499E+01  0.35237001694E+00  0.14852548724E+04  0.14852889682E+04  0.10000000000E+02 0. -1.
</event>
<event>
 5    1  0.1338396E-008  0.3921278E+03  0.7957747E-01  0.3399994E+00
         13   -1    0    0    0    0  0.00000000000E+00  0.00000000000E+00  0.14999999963E+04  0.15000000000E+04  0.10566000000E+00 0. -1.
        994   -1    0    0    0    0 -0.00000000000E+00 -0.00000000000E+00  0.11368683772E-12  0.17120000000E+03  0.17120000000E+03 0.  0.
         13    1    1    2    0    0  0.40082160360E+02  0.11422795791E+03  0.35422540912E+03  0.37433976222E+03  0.10566000000E+00 0. -1.
        994    1    1    2    0    0 -0.10946845894E+03 -0.19342542409E+02  0.71737692601E+02  0.21636361522E+03  0.17120000000E+03 0.  0.
        998    1    1    2    0    0  0.69386298580E+02 -0.94885415502E+02  0.10740368946E+04  0.10804966226E+04  0.10000000000E+02 0. -1.
</event>
<event>
 5    1  0.1338396E-008  0.3814167E+03  0.7957747E-01  0.3445013E+00
         13   -1    0    0    0    0  0.00000000000E+00  0.00000000000E+00  0.14999999963E+04  0.15000000000E+04  0.10566000000E+00 0. -1.
        994   -1    0    0    0    0 -0.00000000000E+00 -0.00000000000E+00  0.11368683772E-12  0.17120000000E+03  0.17120000000E+03 0.  0.
         13    1    1    2    0    0 -0.89517627799E+01  0.46443296668E+01  0.13569284024E+02  0.16906817793E+02  0.10566000000E+00 0. -1.
        994    1    1    2    0    0  0.50843365097E+00 -0.53575898680E+01  0.35161053408E+01  0.17132065045E+03  0.17120000000E+03 0.  0.
        998    1    1    2    0    0  0.84433291289E+01  0.71326020117E+00  0.14829146069E+04  0.14829725318E+04  0.10000000000E+02 0. -1.
</event>
<event>
 5    1  0.1338396E-008  0.3768317E+03  0.7957747E-01  0.3465071E+00
         13   -1    0    0    0    0  0.00000000000E+00  0.00000000000E+00  0.14999999963E+04  0.15000000000E+04  0.10566000000E+00 0. -1.
        994   -1    0    0    0    0 -0.00000000000E+00 -0.00000000000E+00  0.11368683772E-12  0.17120000000E+03  0.17120000000E+03 0.  0.
         13    1    1    2    0    0  0.93414920569E+01 -0.21790931722E+02  0.51211760296E+02  0.56433710987E+02  0.10566000000E+00 0. -1.
        994    1    1    2    0    0 -0.83567910423E+01 -0.16371757695E+02  0.68833574591E+01  0.17232147578E+03  0.17120000000E+03 0.  0.
        998    1    1    2    0    0 -0.98470101459E+00  0.38162689417E+02  0.14419048785E+04  0.14424448132E+04  0.10000000000E+02 0. -1.
</event>
<event>
 5    1  0.1338396E-008  0.3800580E+03  0.7957747E-01  0.3450906E+00
         13   -1    0    0    0    0  0.00000000000E+00  0.00000000000E+00  0.14999999963E+04  0.15000000000E+04  0.10566000000E+00 0.  1.
        994   -1    0    0    0    0 -0.00000000000E+00 -0.00000000000E+00  0.11368683772E-12  0.17120000000E+03  0.17120000000E+03 0.  0.
         13    1    1    2    0    0  0.11894158499E+02 -0.45736175641E+02  0.27982554057E+03  0.28378797206E+03  0.10566000000E+00 0.  1.
        994    1    1    2    0    0 -0.24919058673E+01  0.23426317240E+02  0.59610314955E+01  0.17291609477E+03  0.17120000000E+03 0.  0.
        998    1    1    2    0    0 -0.94022526318E+01  0.22309858401E+02  0.12142134242E+04  0.12144959332E+04  0.10000000000E+02 0.  1.
</event>
<event>
 5    1  0.1338396E-008  0.3706576E+03  0.7957747E-01  0.3492874E+00
         13   -1    0    0    0    0  0.00000000000E+00  0.00000000000E+00  0.14999999963E+04  0.15000000000E+04  0.10566000000E+00 0.  1.
        994   -1    0    0    0    0 -0.00000000000E+00 -0.00000000000E+00  0.11368683772E-12  0.17120000000E+03  0.17120000000E+03 0.  0.
         13    1    1    2    0    0 -0.29682886828E+02  0.19990581543E+02  0.70998504611E+02  0.79507835726E+02  0.10566000000E+00 0.  1.
        994    1    1    2    0    0  0.21459809447E+01 -0.18259590639E+02  0.10092708668E+02  0.17247991377E+03  0.17120000000E+03 0.  0.
        998    1    1    2    0    0  0.27536905884E+02 -0.17309909036E+01  0.14189087830E+04  0.14192122505E+04  0.10000000000E+02 0.  1.
</event>
<event>
 5    1  0.1338396E-008  0.3812666E+03  0.7957747E-01  0.3445662E+00
         13   -1    0    0    0    0  0.00000000000E+00  0.00000000000E+00  0.14999999963E+04  0.15000000000E+04  0.10566000000E+00 0.  1.
        994   -1    0    0    0    0 -0.00000000000E+00 -0.00000000000E+00  0.11368683772E-12  0.17120000000E+03  0.17120000000E+03 0.  0.
         13    1    1    2    0    0  0.22578938415E+01  0.23915945807E+02  0.85863664006E+02  0.89160812631E+02  0.10566000000E+00 0.  1.
        994    1    1    2    0    0  0.84934207983E+00 -0.46788328616E+01  0.35704225535E+01  0.17130324216E+03  0.17120000000E+03 0.  0.
        998    1    1    2    0    0 -0.31072359214E+01 -0.19237112946E+02  0.14105659097E+04  0.14107359452E+04  0.10000000000E+02 0.  1.
</event>
<event>
 5    1  0.1338396E-008  0.3846814E+03  0.7957747E-01  0.3431025E+00
         13   -1    0    0    0    0  0.00000000000E+00  0.00000000000E+00  0.14999999963E+04  0.15000000000E+04  0.10566000000E+00 0.  1.
        994   -1    0    0    0    0 -0.00000000000E+00 -0.00000000000E+00  0.11368683772E-12  0.17120000000E+03  0.17120000000E+03 0.  0.
         13    1    1    2    0    0 -0.10573309520E+02 -0.11975027670E+02  0.68081880512E+02  0.69931035886E+02  0.10566000000E+00 0.  1.
        994    1    1    2    0    0  0.57696715332E+01  0.18661874021E+02  0.30455265726E+01  0.17233766241E+03  0.17120000000E+03 0.  0.
        998    1    1    2    0    0  0.48036379867E+01 -0.66868463509E+01  0.14288725892E+04  0.14289313017E+04  0.10000000000E+02 0.  1.
</event>
<event>
 5    1  0.1338396E-008  0.3829259E+03  0.7957747E-01  0.3438516E+00
         13   -1    0    0    0    0  0.00000000000E+00  0.00000000000E+00  0.14999999963E+04  0.15000000000E+04  0.10566000000E+00 0.  1.
        994   -1    0    0    0    0 -0.00000000000E+00 -0.00000000000E+00  0.11368683772E-12  0.17120000000E+03  0.17120000000E+03 0.  0.
         13    1    1    2    0    0  0.12441780430E+02  0.61794002168E+00  0.28258391366E+02  0.30882480418E+02  0.10566000000E+00 0.  1.
        994    1    1    2    0    0 -0.81090982610E+01  0.78175805962E+00  0.28831539454E+01  0.17141797221E+03  0.17120000000E+03 0.  0.
        998    1    1    2    0    0 -0.43326821685E+01 -0.13996980813E+01  0.14688584510E+04  0.14688995474E+04  0.10000000000E+02 0.  1.
</event>
<event>
 5    1  0.1338396E-008  0.3954750E+03  0.7957747E-01  0.3386426E+00
         13   -1    0    0    0    0  0.00000000000E+00  0.00000000000E+00  0.14999999963E+04  0.15000000000E+04  0.10566000000E+00 0.  1.
        994   -1    0    0    0    0 -0.00000000000E+00 -0.00000000000E+00  0.11368683772E-12  0.17120000000E+03  0.17120000000E+03 0.  0.
         13    1    1    2    0    0  0.24743180337E+01  0.22126613025E+02 -0.11135224531E+01  0.22292607519E+02  0.10566000000E+00 0.  1.
        994    1    1    2    0    0  0.49188362615E+00 -0.20833647956E+02  0.26773004798E+02  0.17452941478E+03  0.17120000000E+03 0.  0.
        998    1    1    2    0    0 -0.29662016598E+01 -0.12929650690E+01  0.14743405139E+04  0.14743779777E+04  0.10000000000E+02 0.  1.
</event>
<event>
 5    1  0.3096430E-008  0.3863468E+03  0.7957747E-01  0.3423980E+00
         13   -1    0    0    0    0  0.00000000000E+00  0.00000000000E+00  0.14999999963E+04  0.15000000000E+04  0.10566000000E+00 0.  1.
        994   -1    0    0    0    0 -0.00000000000E+00 -0.00000000000E+00  0.11368683772E-12  0.17120000000E+03  0.17120000000E+03 0.  0.
         13    1    1    2    0    0  0.10485123787E+02  0.35492444638E+01  0.63427091066E+02  0.64385883563E+02  0.10566000000E+00 0.  1.
        994    1    1    2    0    0 -0.90576921472E+01 -0.45438444247E+01  0.12992458734E+01  0.17150456655E+03  0.17120000000E+03 0.  0.
        998    1    1    2    0    0 -0.14274316398E+01  0.99459996091E+00  0.14352736593E+04  0.14353095499E+04  0.10000000000E+02 0.  0.
</event>
<event>
 5    1  0.1338396E-008  0.3850264E+03  0.7957747E-01  0.3429560E+00
         13   -1    0    0    0    0  0.00000000000E+00  0.00000000000E+00  0.14999999963E+04  0.15000000000E+04  0.10566000000E+00 0. -1.
        994   -1    0    0    0    0 -0.00000000000E+00 -0.00000000000E+00  0.11368683772E-12  0.17120000000E+03  0.17120000000E+03 0.  0.
         13    1    1    2    0    0  0.11588239670E+02 -0.82874792830E+00  0.40167275801E+02  0.41813817466E+02  0.10566000000E+00 0. -1.
        994    1    1    2    0    0 -0.13322550641E+02  0.37382911966E+02  0.68133442874E+01  0.17587164104E+03  0.17120000000E+03 0.  0.
        998    1    1    2    0    0  0.17343109713E+01 -0.36554164037E+02  0.14530193762E+04  0.14535145415E+04  0.10000000000E+02 0. -1.
</event>
<event>
 5    1  0.1338396E-008  0.3853948E+03  0.7957747E-01  0.3428000E+00
         13   -1    0    0    0    0  0.00000000000E+00  0.00000000000E+00  0.14999999963E+04  0.15000000000E+04  0.10566000000E+00 0. -1.
        994   -1    0    0    0    0 -0.00000000000E+00 -0.00000000000E+00  0.11368683772E-12  0.17120000000E+03  0.17120000000E+03 0.  0.
         13    1    1    2    0    0 -0.53707537181E+01  0.19776670647E+02  0.89947113931E+02  0.92252133666E+02  0.10566000000E+00 0. -1.
        994    1    1    2    0    0  0.42498837864E+02 -0.72551509769E+02  0.25009653369E+02  0.19236630565E+03  0.17120000000E+03 0.  0.
        998    1    1    2    0    0 -0.37128084146E+02  0.52774839122E+02  0.13850432290E+04  0.13865815607E+04  0.10000000000E+02 0. -1.
</event>
<event>
 5    1  0.1338396E-008  0.3804150E+03  0.7957747E-01  0.3449353E+00
         13   -1    0    0    0    0  0.00000000000E+00  0.00000000000E+00  0.14999999963E+04  0.15000000000E+04  0.10566000000E+00 0. -1.
        994   -1    0    0    0    0 -0.00000000000E+00 -0.00000000000E+00  0.11368683772E-12  0.17120000000E+03  0.17120000000E+03 0.  0.
         13    1    1    2    0    0  0.12657378402E+01  0.10005896302E+02  0.11087394262E+02  0.14988713375E+02  0.10566000000E+00 0. -1.
        994    1    1    2    0    0  0.41239443173E+00 -0.13326447494E+02  0.45174586924E+01  0.17177779747E+03  0.17120000000E+03 0.  0.
        998    1    1    2    0    0 -0.16781322719E+01  0.33205511919E+01  0.14843951433E+04  0.14844334892E+04  0.10000000000E+02 0. -1.
</event>
<event>
 5    1  0.1338396E-008  0.3826308E+03  0.7957747E-01  0.3439783E+00
         13   -1    0    0    0    0  0.00000000000E+00  0.00000000000E+00  0.14999999963E+04  0.15000000000E+04  0.10566000000E+00 0. -1.
        994   -1    0    0    0    0 -0.00000000000E+00 -0.00000000000E+00  0.11368683772E-12  0.17120000000E+03  0.17120000000E+03 0.  0.
         13    1    1    2    0    0 -0.70370602751E+01  0.15487941874E+02  0.51086607976E+02  0.53844676982E+02  0.10566000000E+00 0. -1.
        994    1    1    2    0    0 -0.97456037592E+00 -0.10290039573E+02  0.31651261195E+01  0.17154093595E+03  0.17120000000E+03 0.  0.
        998    1    1    2    0    0  0.80116206510E+01 -0.51979023009E+01  0.14457482622E+04  0.14458143871E+04  0.10000000000E+02 0. -1.
</event>
<event>
 5    1  0.1338396E-008  0.3834818E+03  0.7957747E-01  0.3436137E+00
         13   -1    0    0    0    0  0.00000000000E+00  0.00000000000E+00  0.14999999963E+04  0.15000000000E+04  0.10566000000E+00 0. -1.
        994   -1    0    0    0    0 -0.00000000000E+00 -0.00000000000E+00  0.11368683772E-12  0.17120000000E+03  0.17120000000E+03 0.  0.
         13    1    1    2    0    0  0.10954912673E+02  0.13278047073E+02  0.64002328916E+02  0.66276888253E+02  0.10566000000E+00 0. -1.
        994    1    1    2    0    0 -0.86158142253E+01  0.23114074866E+01  0.26488279757E+01  0.17145270820E+03  0.17120000000E+03 0.  0.
        998    1    1    2    0    0 -0.23390984480E+01 -0.15589454560E+02  0.14333488394E+04  0.14334704035E+04  0.10000000000E+02 0. -1.
</event>
<event>
 5    1  0.1338396E-008  0.3813379E+03  0.7957747E-01  0.3445354E+00
         13   -1    0    0    0    0  0.00000000000E+00  0.00000000000E+00  0.14999999963E+04  0.15000000000E+04  0.10566000000E+00 0.  1.
        994   -1    0    0    0    0 -0.00000000000E+00 -0.00000000000E+00  0.11368683772E-12  0.17120000000E+03  0.17120000000E+03 0.  0.
         13    1    1    2    0    0  0.34288613953E+02  0.28176001070E+02  0.20234784068E+03  0.20715756292E+03  0.10566000000E+00 0.  1.
        994    1    1    2    0    0 -0.62689686609E+02 -0.34004436252E+02  0.20576809667E+02  0.18659888421E+03  0.17120000000E+03 0.  0.
        998    1    1    2    0    0  0.28401072656E+02  0.58284351824E+01  0.12770753459E+04  0.12774435529E+04  0.10000000000E+02 0.  1.
</event>
<event>
 5    1  0.1338396E-008  0.3833116E+03  0.7957747E-01  0.3436865E+00
         13   -1    0    0    0    0  0.00000000000E+00  0.00000000000E+00  0.14999999963E+04  0.15000000000E+04  0.10566000000E+00 0.  1.
        994   -1    0    0    0    0 -0.00000000000E+00 -0.00000000000E+00  0.11368683772E-12  0.17120000000E+03  0.17120000000E+03 0.  0.
         13    1    1    2    0    0 -0.10835455754E+02  0.10222920452E+02  0.44150431746E+02  0.46595997590E+02  0.10566000000E+00 0.  1.
        994    1    1    2    0    0  0.11279421748E+02 -0.28455203880E+01  0.29183485839E+01  0.17161957668E+03  0.17120000000E+03 0.  0.
        998    1    1    2    0    0 -0.44396599366E+00 -0.73774000644E+01  0.14529312159E+04  0.14529844257E+04  0.10000000000E+02 0.  1.
</event>
<event>
 5    1  0.1338396E-008  0.3782012E+03  0.7957747E-01  0.3459029E+00
         13   -1    0    0    0    0  0.00000000000E+00  0.00000000000E+00  0.14999999963E+04  0.15000000000E+04  0.10566000000E+00 0. -1.
        994   -1    0    0    0    0 -0.00000000000E+00 -0.00000000000E+00  0.11368683772E-12  0.17120000000E+03  0.17120000000E+03 0.  0.
         13    1    1    2    0    0  0.47066162406E+00 -0.14907930537E+02  0.20996818406E+02  0.25755493831E+02  0.10566000000E+00 0. -1.
        994    1    1    2    0    0  0.79240521852E+02 -0.10647054847E+02  0.26851379105E+02  0.19084773156E+03  0.17120000000E+03 0.  0.
        998    1    1    2    0    0 -0.79711183476E+02  0.25554985384E+02  0.14521517988E+04  0.14545967746E+04  0.10000000000E+02 0. -1.
</event>
<event>
 5    1  0.1338396E-008  0.3860975E+03  0.7957747E-01  0.3425031E+00
         13   -1    0    0    0    0  0.00000000000E+00  0.00000000000E+00  0.14999999963E+04  0.15000000000E+04  0.10566000000E+00 0. -1.
        994   -1    0    0    0    0 -0.00000000000E+00 -0.00000000000E+00  0.11368683772E-12  0.17120000000E+03  0.17120000000E+03 0.  0.
         13    1    1    2    0    0 -0.15400819879E+01  0.10712796841E+02  0.53029817370E+02  0.54123087153E+02  0.10566000000E+00 0. -1.
        994    1    1    2    0    0  0.13049194292E+02 -0.10043858029E+02  0.19753153449E+01  0.17200146054E+03  0.17120000000E+03 0.  0.
        998    1    1    2    0    0 -0.11509112304E+02 -0.66893881158E+00  0.14449948636E+04  0.14450754523E+04  0.10000000000E+02 0. -1.
</event>
<event>
 5    1  0.1338396E-008  0.3774017E+03  0.7957747E-01  0.3462551E+00
         13   -1    0    0    0    0  0.00000000000E+00  0.00000000000E+00  0.14999999963E+04  0.15000000000E+04  0.10566000000E+00 0.  1.
        994   -1    0    0    0    0 -0.00000000000E+00 -0.00000000000E+00  0.11368683772E-12  0.17120000000E+03  0.17120000000E+03 0.  0.
         13    1    1    2    0    0  0.59483017956E+01  0.20869965820E+02  0.39204087225E+02  0.44809701926E+02  0.10566000000E+00 0.  1.
        994    1    1    2    0    0 -0.94465606369E+01 -0.27706151675E+02  0.83452135333E+01  0.17388487840E+03  0.17120000000E+03 0.  0.
        998    1    1    2    0    0  0.34982588413E+01  0.68361858554E+01  0.14524506955E+04  0.14525054197E+04  0.10000000000E+02 0.  1.
</event>
<event>
 5    1  0.1338396E-008  0.3847974E+03  0.7957747E-01  0.3430532E+00
         13   -1    0    0    0    0  0.00000000000E+00  0.00000000000E+00  0.14999999963E+04  0.15000000000E+04  0.10566000000E+00 0.  1.
        994   -1    0    0    0    0 -0.00000000000E+00 -0.00000000000E+00  0.11368683772E-12  0.17120000000E+03  0.17120000000E+03 0.  0.
         13    1    1    2    0    0 -0.64036855480E+01  0.12403856370E+02  0.58499849597E+02  0.60142384458E+02  0.10566000000E+00 0.  1.
        994    1    1    2    0    0 -0.26499578215E+01 -0.40541212377E+01  0.18079782564E+01  0.17127803993E+03  0.17120000000E+03 0.  0.
        998    1    1    2    0    0  0.90536433695E+01 -0.83497351321E+01  0.14396921684E+04  0.14397795756E+04  0.10000000000E+02 0.  1.
</event>
<event>
 5    1  0.1338396E-008  0.3855550E+03  0.7957747E-01  0.3427322E+00
         13   -1    0    0    0    0  0.00000000000E+00  0.00000000000E+00  0.14999999963E+04  0.15000000000E+04  0.10566000000E+00 0.  1.
        994   -1    0    0    0    0 -0.00000000000E+00 -0.00000000000E+00  0.11368683772E-12  0.17120000000E+03  0.17120000000E+03 0.  0.
         13    1    1    2    0    0  0.10620183570E+01  0.12762482831E+02  0.59292387200E+02  0.60659765866E+02  0.10566000000E+00 0.  1.
        994    1    1    2    0    0 -0.51087410665E+01 -0.12152295886E+02  0.19255201078E+01  0.17171757382E+03  0.17120000000E+03 0.  0.
        998    1    1    2    0    0  0.40467227095E+01 -0.61018694519E+00  0.14387820890E+04  0.14388226603E+04  0.10000000000E+02 0.  1.
</event>
<event>
 5    1  0.1338396E-008  0.3798018E+03  0.7957747E-01  0.3452022E+00
         13   -1    0    0    0    0  0.00000000000E+00  0.00000000000E+00  0.14999999963E+04  0.15000000000E+04  0.10566000000E+00 0.  1.
        994   -1    0    0    0    0 -0.00000000000E+00 -0.00000000000E+00  0.11368683772E-12  0.17120000000E+03  0.17120000000E+03 0.  0.
         13    1    1    2    0    0 -0.48240822170E+02  0.38975399507E+02  0.33234150798E+03  0.33807861184E+03  0.10566000000E+00 0.  1.
        994    1    1    2    0    0  0.53996473902E+02 -0.41924442813E+02  0.20027647847E+02  0.18542875930E+03  0.17120000000E+03 0.  0.
        998    1    1    2    0    0 -0.57556517314E+01  0.29490433054E+01  0.11476308405E+04  0.11476926289E+04  0.10000000000E+02 0.  1.
</event>
<event>
 5    1  0.1338396E-008  0.3807557E+03  0.7957747E-01  0.3447874E+00
         13   -1    0    0    0    0  0.00000000000E+00  0.00000000000E+00  0.14999999963E+04  0.15000000000E+04  0.10566000000E+00 0. -1.
        994   -1    0    0    0    0 -0.00000000000E+00 -0.00000000000E+00  0.11368683772E-12  0.17120000000E+03  0.17120000000E+03 0.  0.
         13    1    1    2    0    0 -0.42276840200E+01  0.10626228657E+02  0.16059894836E+02  0.19716019726E+02  0.10566000000E+00 0. -1.
        994    1    1    2    0    0 -0.24618670518E+01 -0.41765627890E+01  0.38305339663E+01  0.17131146330E+03  0.17120000000E+03 0.  0.
        998    1    1    2    0    0  0.66895510718E+01 -0.64496658679E+01  0.14801095675E+04  0.14801725170E+04  0.10000000000E+02 0. -1.
</event>
<event>
 5    1  0.1338396E-008  0.3769857E+03  0.7957747E-01  0.3464390E+00
         13   -1    0    0    0    0  0.00000000000E+00  0.00000000000E+00  0.14999999963E+04  0.15000000000E+04  0.10566000000E+00 0. -1.
        994   -1    0    0    0    0 -0.00000000000E+00 -0.00000000000E+00  0.11368683772E-12  0.17120000000E+03  0.17120000000E+03 0.  0.
         13    1    1    2    0    0 -0.13808146298E+03 -0.27799227004E+02  0.81591233590E+03  0.82798082012E+03  0.10566000000E+00 0. -1.
        994    1    1    2    0    0  0.13191375867E+03  0.30302090549E+02  0.70256236813E+02  0.22927022316E+03  0.17120000000E+03 0.  0.
        998    1    1    2    0    0  0.61677043026E+01 -0.25028635451E+01  0.61383142356E+03  0.61394895672E+03  0.10000000000E+02 0. -1.
</event>
<event>
 5    1  0.1338396E-008  0.3810735E+03  0.7957747E-01  0.3446498E+00
         13   -1    0    0    0    0  0.00000000000E+00  0.00000000000E+00  0.14999999963E+04  0.15000000000E+04  0.10566000000E+00 0.  1.
        994   -1    0    0    0    0 -0.00000000000E+00 -0.00000000000E+00  0.11368683772E-12  0.17120000000E+03  0.17120000000E+03 0.  0.
         13    1    1    2    0    0  0.70944254490E+01 -0.35702466171E+02  0.18078203598E+03  0.18441028350E+03  0.10566000000E+00 0.  1.
        994    1    1    2    0    0  0.72997390998E+01  0.25096126703E+02  0.58710487129E+01  0.17328303719E+03  0.17120000000E+03 0.  0.
        998    1    1    2    0    0 -0.14394164549E+02  0.10606339469E+02  0.13133469116E+04  0.13135066793E+04  0.10000000000E+02 0.  1.
</event>
<event>
 5    1  0.1338396E-008  0.3846550E+03  0.7957747E-01  0.3431137E+00
         13   -1    0    0    0    0  0.00000000000E+00  0.00000000000E+00  0.14999999963E+04  0.15000000000E+04  0.10566000000E+00 0.  1.
        994   -1    0    0    0    0 -0.00000000000E+00 -0.00000000000E+00  0.11368683772E-12  0.17120000000E+03  0.17120000000E+03 0.  0.
         13    1    1    2    0    0  0.79158588694E+01 -0.11688333279E+02  0.55963418737E+02  0.57716491207E+02  0.10566000000E+00 0.  1.
        994    1    1    2    0    0 -0.11838066670E+02  0.13788627923E+00  0.22631238148E+01  0.17162377622E+03  0.17120000000E+03 0.  0.
        998    1    1    2    0    0  0.39222078002E+01  0.11550447000E+02  0.14417734537E+04  0.14418597326E+04  0.10000000000E+02 0.  1.
</event>
<event>
 5    1  0.1338396E-008  0.3855765E+03  0.7957747E-01  0.3427231E+00
         13   -1    0    0    0    0  0.00000000000E+00  0.00000000000E+00  0.14999999963E+04  0.15000000000E+04  0.10566000000E+00 0.  1.
        994   -1    0    0    0    0 -0.00000000000E+00 -0.00000000000E+00  0.11368683772E-12  0.17120000000E+03  0.17120000000E+03 0.  0.
         13    1    1    2    0    0 -0.14543306753E+02 -0.15256719967E+01  0.77632995391E+02  0.78998282157E+02  0.10566000000E+00 0.  1.
        994    1    1    2    0    0  0.13510580070E+02  0.12833315997E+01  0.19490131192E+01  0.17174813352E+03  0.17120000000E+03 0.  0.
        998    1    1    2    0    0  0.10327266828E+01  0.24234039696E+00  0.14204179878E+04  0.14204535843E+04  0.10000000000E+02 0.  1.
</event>
<event>
 5    1  0.1338396E-008  0.3803258E+03  0.7957747E-01  0.3449741E+00
         13   -1    0    0    0    0  0.00000000000E+00  0.00000000000E+00  0.14999999963E+04  0.15000000000E+04  0.10566000000E+00 0.  1.
        994   -1    0    0    0    0 -0.00000000000E+00 -0.00000000000E+00  0.11368683772E-12  0.17120000000E+03  0.17120000000E+03 0.  0.
         13    1    1    2    0    0 -0.40039988153E+02 -0.94635783884E+01  0.19332566663E+03  0.19765521624E+03  0.10566000000E+00 0.  1.
        994    1    1    2    0    0  0.36050309877E+02  0.56747441778E+01  0.84290138226E+01  0.17524929625E+03  0.17120000000E+03 0.  0.
        998    1    1    2    0    0  0.39896782752E+01  0.37888342105E+01  0.12982453158E+04  0.12982954875E+04  0.10000000000E+02 0.  1.
</event>
<event>
 5    1  0.1338396E-008  0.3767312E+03  0.7957747E-01  0.3465516E+00
         13   -1    0    0    0    0  0.00000000000E+00  0.00000000000E+00  0.14999999963E+04  0.15000000000E+04  0.10566000000E+00 0.  1.
        994   -1    0    0    0    0 -0.00000000000E+00 -0.00000000000E+00  0.11368683772E-12  0.17120000000E+03  0.17120000000E+03 0.  0.
         13    1    1    2    0    0  0.51292304909E+01 -0.17234184537E+02  0.24875054716E+02  0.30693739316E+02  0.10566000000E+00 0.  1.
        994    1    1    2    0    0 -0.81236395878E+01  0.20205777405E+02  0.73968186942E+01  0.17273800939E+03  0.17120000000E+03 0.  0.
        998    1    1    2    0    0  0.29944090969E+01 -0.29715928683E+01  0.14677281229E+04  0.14677682513E+04  0.10000000000E+02 0.  1.
</event>
<event>
 5    1  0.1338396E-008  0.3849154E+03  0.7957747E-01  0.3430031E+00
         13   -1    0    0    0    0  0.00000000000E+00  0.00000000000E+00  0.14999999963E+04  0.15000000000E+04  0.10566000000E+00 0.  1.
        994   -1    0    0    0    0 -0.00000000000E+00 -0.00000000000E+00  0.11368683772E-12  0.17120000000E+03  0.17120000000E+03 0.  0.
         13    1    1    2    0    0  0.10529566560E+02 -0.46152602066E+01  0.39181976547E+02  0.40833942363E+02  0.10566000000E+00 0.  1.
        994    1    1    2    0    0 -0.80213545736E+01  0.31861453093E+01  0.19172366909E+01  0.17142814660E+03  0.17120000000E+03 0.  0.
        998    1    1    2    0    0 -0.25082119866E+01  0.14291148972E+01  0.14589007830E+04  0.14589379110E+04  0.10000000000E+02 0.  1.
</event>
<event>
 5    1  0.1338396E-008  0.3973027E+03  0.7957747E-01  0.3379114E+00
         13   -1    0    0    0    0  0.00000000000E+00  0.00000000000E+00  0.14999999963E+04  0.15000000000E+04  0.10566000000E+00 0. -1.
        994   -1    0    0    0    0 -0.00000000000E+00 -0.00000000000E+00  0.11368683772E-12  0.17120000000E+03  0.17120000000E+03 0.  0.
         13    1    1    2    0    0 -0.28653868674E+02 -0.10007516014E+03  0.17767127000E+03  0.20592030792E+03  0.10566000000E+00 0. -1.
        994    1    1    2    0    0  0.37332666709E+02  0.93564407714E+02  0.66662097270E+02  0.20952637449E+03  0.17120000000E+03 0.  0.
        998    1    1    2    0    0 -0.86787980346E+01  0.65107524218E+01  0.12556666290E+04  0.12557533176E+04  0.10000000000E+02 0.  1.
</event>
<event>
 5    1  0.1338396E-008  0.3807220E+03  0.7957747E-01  0.3448021E+00
         13   -1    0    0    0    0  0.00000000000E+00  0.00000000000E+00  0.14999999963E+04  0.15000000000E+04  0.10566000000E+00 0. -1.
        994   -1    0    0    0    0 -0.00000000000E+00 -0.00000000000E+00  0.11368683772E-12  0.17120000000E+03  0.17120000000E+03 0.  0.
         13    1    1    2    0    0  0.12666784906E+02 -0.24557345897E+02  0.93061386422E+02  0.97076997709E+02  0.10566000000E+00 0. -1.
        994    1    1    2    0    0 -0.16374494980E+02  0.26363062483E+02  0.69878215653E+01  0.17413042468E+03  0.17120000000E+03 0.  0.
        998    1    1    2    0    0  0.37077100743E+01 -0.18057165863E+01  0.13999507883E+04  0.13999925776E+04  0.10000000000E+02 0. -1.
</event>
<event>
 5    1  0.1338396E-008  0.3754468E+03  0.7957747E-01  0.3471227E+00
         13   -1    0    0    0    0  0.00000000000E+00  0.00000000000E+00  0.14999999963E+04  0.15000000000E+04  0.10566000000E+00 0.  1.
        994   -1    0    0    0    0 -0.00000000000E+00 -0.00000000000E+00  0.11368683772E-12  0.17120000000E+03  0.17120000000E+03 0.  0.
         13    1    1    2    0    0  0.25281165788E+02  0.36675001118E+02  0.13972145037E+03  0.14665022301E+03  0.10566000000E+00 0.  1.
        994    1    1    2    0    0 -0.25864501817E+02 -0.34135204181E+02  0.12700367046E+02  0.17693197546E+03  0.17120000000E+03 0.  0.
        998    1    1    2    0    0  0.58333602847E+00 -0.25397969370E+01  0.13475781789E+04  0.13476178015E+04  0.10000000000E+02 0.  0.
</event>
<event>
 5    1  0.1338396E-008  0.3855842E+03  0.7957747E-01  0.3427198E+00
         13   -1    0    0    0    0  0.00000000000E+00  0.00000000000E+00  0.14999999963E+04  0.15000000000E+04  0.10566000000E+00 0. -1.
        994   -1    0    0    0    0 -0.00000000000E+00 -0.00000000000E+00  0.11368683772E-12  0.17120000000E+03  0.17120000000E+03 0.  0.
         13    1    1    2    0    0 -0.98999361922E+00 -0.11303019508E+02  0.46490586201E+02  0.47855241162E+02  0.10566000000E+00 0. -1.
        994    1    1    2    0    0  0.30515170505E+01  0.13851551179E+02  0.20009980642E+01  0.17179819912E+03  0.17120000000E+03 0.  0.
        998    1    1    2    0    0 -0.20615234313E+01 -0.25485316711E+01  0.14515084120E+04  0.14515465597E+04  0.10000000000E+02 0. -1.
</event>
<event>
 5    1  0.1338396E-008  0.3858574E+03  0.7957747E-01  0.3426044E+00
         13   -1    0    0    0    0  0.00000000000E+00  0.00000000000E+00  0.14999999963E+04  0.15000000000E+04  0.10566000000E+00 0. -1.
        994   -1    0    0    0    0 -0.00000000000E+00 -0.00000000000E+00  0.11368683772E-12  0.17120000000E+03  0.17120000000E+03 0.  0.
         13    1    1    2    0    0  0.53499144296E+00 -0.12256064031E+02  0.63185513947E+02  0.64365500528E+02  0.10566000000E+00 0. -1.
        994    1    1    2    0    0 -0.71811096849E+01  0.76260667322E+01  0.15649739293E+01  0.17152729921E+03  0.17120000000E+03 0.  0.
        998    1    1    2    0    0  0.66461182419E+01  0.46299972983E+01  0.14352495084E+04  0.14353072003E+04  0.10000000000E+02 0. -1.
</event>
<event>
 5    1  0.1338396E-008  0.3714276E+03  0.7957747E-01  0.3489355E+00
         13   -1    0    0    0    0  0.00000000000E+00  0.00000000000E+00  0.14999999963E+04  0.15000000000E+04  0.10566000000E+00 0. -1.
        994   -1    0    0    0    0 -0.00000000000E+00 -0.00000000000E+00  0.11368683772E-12  0.17120000000E+03  0.17120000000E+03 0.  0.
         13    1    1    2    0    0 -0.11140996701E+02  0.72828523475E+01  0.65227558889E+01  0.14822930015E+02  0.10566000000E+00 0. -1.
        994    1    1    2    0    0  0.84794089181E+01 -0.32453254126E+01  0.88084382587E+01  0.17166671517E+03  0.17120000000E+03 0.  0.
        998    1    1    2    0    0  0.26615877834E+01 -0.40375269350E+01  0.14846688021E+04  0.14847103548E+04  0.10000000000E+02 0. -1.
</event>
<event>
 5    1  0.1338396E-008  0.3841409E+03  0.7957747E-01  0.3433324E+00
         13   -1    0    0    0    0  0.00000000000E+00  0.00000000000E+00  0.14999999963E+04  0.15000000000E+04  0.10566000000E+00 0.  1.
        994   -1    0    0    0    0 -0.00000000000E+00 -0.00000000000E+00  0.11368683772E-12  0.17120000000E+03  0.17120000000E+03 0.  0.
         13    1    1    2    0    0  0.10887331111E+01  0.15389947959E+02  0.61236039649E+02  0.63149818320E+02  0.10566000000E+00 0.  1.
        994    1    1    2    0    0 -0.10671684958E+02  0.19006359313E+01  0.24448532562E+01  0.17156023602E+03  0.17120000000E+03 0.  0.
        998    1    1    2    0    0  0.95829518467E+01 -0.17290583890E+02  0.14363191034E+04  0.14364899457E+04  0.10000000000E+02 0.  1.
</event>
<event>
 5    1  0.1338396E-008  0.3780511E+03  0.7957747E-01  0.3459688E+00
         13   -1    0    0    0    0  0.00000000000E+00  0.00000000000E+00  0.14999999963E+04  0.15000000000E+04  0.10566000000E+00 0. -1.
        994   -1    0    0    0    0 -0.00000000000E+00 -0.00000000000E+00  0.11368683772E-12  0.17120000000E+03  0.17120000000E+03 0.  0.
         13    1    1    2    0    0 -0.40644949150E+02  0.38709282670E+02  0.30503144478E+03  0.31015256556E+03  0.10566000000E+00 0. -1.
        994    1    1    2    0    0  0.16756435143E+02 -0.29437266635E+02  0.89901536698E+01  0.17475008912E+03  0.17120000000E+03 0.  0.
        998    1    1    2    0    0  0.23888514007E+02 -0.92720160346E+01  0.11859783978E+04  0.11862973453E+04  0.10000000000E+02 0.  1.
</event>
<event>
 5    1  0.1338396E-008  0.3757601E+03  0.7957747E-01  0.3469830E+00
         13   -1    0    0    0    0  0.00000000000E+00  0.00000000000E+00  0.14999999963E+04  0.15000000000E+04  0.10566000000E+00 0.  1.
        994   -1    0    0    0    0 -0.00000000000E+00 -0.00000000000E+00  0.11368683772E-12  0.17120000000E+03  0.17120000000E+03 0.  0.
         13    1    1    2    0    0 -0.25894812997E+02 -0.17569807302E+02  0.80739266993E+02  0.86591453778E+02  0.10566000000E+00 0.  1.
        994    1    1    2    0    0 -0.13948612742E+02  0.25938112352E+02  0.92352649159E+01  0.17395999422E+03  0.17120000000E+03 0.  0.
        998    1    1    2    0    0  0.39843425738E+02 -0.83683050506E+01  0.14100254644E+04  0.14106485520E+04  0.10000000000E+02 0.  1.
</event>
<event>
 5    1  0.1338396E-008  0.3824339E+03  0.7957747E-01  0.3440629E+00
         13   -1    0    0    0    0  0.00000000000E+00  0.00000000000E+00  0.14999999963E+04  0.15000000000E+04  0.10566000000E+00 0.  1.
        994   -1    0    0    0    0 -0.00000000000E+00 -0.00000000000E+00  0.11368683772E-12  0.17120000000E+03  0.17120000000E+03 0.  0.
         13    1    1    2    0    0  0.24677283241E+02 -0.23917787994E+01  0.10221897937E+03  0.10518279242E+03  0.10566000000E+00 0.  1.
        994    1    1    2    0    0 -0.19827443499E+02 -0.46228239708E+01  0.42853505921E+01  0.17245956699E+03  0.17120000000E+03 0.  0.
        998    1    1    2    0    0 -0.48498397421E+01  0.70146027702E+01  0.13934956663E+04  0.13935576406E+04  0.10000000000E+02 0.  1.
</event>
<event>
 5    1  0.1338396E-008  0.3693659E+03  0.7957747E-01  0.3498810E+00
         13   -1    0    0    0    0  0.00000000000E+00  0.00000000000E+00  0.14999999963E+04  0.15000000000E+04  0.10566000000E+00 0. -1.
        994   -1    0    0    0    0 -0.00000000000E+00 -0.00000000000E+00  0.11368683772E-12  0.17120000000E+03  0.17120000000E+03 0.  0.
         13    1    1    2    0    0 -0.68912755826E+02 -0.18051081693E+02  0.21150474087E+03  0.22317947047E+03  0.10566000000E+00 0. -1.
        994    1    1    2    0    0  0.64271799477E+02  0.60472138374E+01  0.25285679242E+02  0.18470581631E+03  0.17120000000E+03 0.  0.
        998    1    1    2    0    0  0.46409563493E+01  0.12003867856E+02  0.12632095762E+04  0.12633147132E+04  0.10000000000E+02 0. -1.
</event>
<event>
 5    1  0.1338396E-008  0.3851446E+03  0.7957747E-01  0.3429059E+00
         13   -1    0    0    0    0  0.00000000000E+00  0.00000000000E+00  0.14999999963E+04  0.15000000000E+04  0.10566000000E+00 0.  1.
        994   -1    0    0    0    0 -0.00000000000E+00 -0.00000000000E+00  0.11368683772E-12  0.17120000000E+03  0.17120000000E+03 0.  0.
         13    1    1    2    0    0  0.11964152188E+02  0.15474889230E+01  0.46245312537E+02  0.47793051328E+02  0.10566000000E+00 0.  1.
        994    1    1    2    0    0 -0.99188621605E+01 -0.30338465817E-01  0.18818289919E+01  0.17149742280E+03  0.17120000000E+03 0.  0.
        998    1    1    2    0    0 -0.20452900272E+01 -0.15171504572E+01  0.14518728547E+04  0.14519095259E+04  0.10000000000E+02 0.  1.
</event>
<event>
 5    1  0.1338396E-008  0.3949927E+03  0.7957747E-01  0.3388367E+00
         13   -1    0    0    0    0  0.00000000000E+00  0.00000000000E+00  0.14999999963E+04  0.15000000000E+04  0.10566000000E+00 0.  1.
        994   -1    0    0    0    0 -0.00000000000E+00 -0.00000000000E+00  0.11368683772E-12  0.17120000000E+03  0.17120000000E+03 0.  0.
         13    1    1    2    0    0 -0.30507529196E+02 -0.29578896707E+02  0.27128130855E+02  0.50413957549E+02  0.10566000000E+00 0.  1.
        994    1    1    2    0    0  0.21270159960E+02  0.20676534755E+02  0.28202232761E+02  0.17602484122E+03  0.17120000000E+03 0.  0.
        998    1    1    2    0    0  0.92373692367E+01  0.89023619520E+01  0.14446696327E+04  0.14447612012E+04  0.10000000000E+02 0.  1.
</event>
<event>
 5    1  0.1338396E-008  0.3844943E+03  0.7957747E-01  0.3431820E+00
         13   -1    0    0    0    0  0.00000000000E+00  0.00000000000E+00  0.14999999963E+04  0.15000000000E+04  0.10566000000E+00 0.  1.
        994   -1    0    0    0    0 -0.00000000000E+00 -0.00000000000E+00  0.11368683772E-12  0.17120000000E+03  0.17120000000E+03 0.  0.
         13    1    1    2    0    0 -0.40729240567E+01 -0.10852942961E+02  0.35153023077E+02  0.37015149287E+02  0.10566000000E+00 0.  1.
        994    1    1    2    0    0  0.15461777356E+01  0.90564633627E+01  0.21595394288E+01  0.17145994811E+03  0.17120000000E+03 0.  0.
        998    1    1    2    0    0  0.25267463211E+01  0.17964795984E+01  0.14626874338E+04  0.14627249026E+04  0.10000000000E+02 0.  1.
</event>
<event>
 5    1  0.1338396E-008  0.3707905E+03  0.7957747E-01  0.3492266E+00
         13   -1    0    0    0    0  0.00000000000E+00  0.00000000000E+00  0.14999999963E+04  0.15000000000E+04  0.10566000000E+00 0. -1.
        994   -1    0    0    0    0 -0.00000000000E+00 -0.00000000000E+00  0.11368683772E-12  0.17120000000E+03  0.17120000000E+03 0.  0.
         13    1    1    2    0    0  0.35556389880E+02  0.83291525948E+02  0.31732889444E+03  0.32999905086E+03  0.10566000000E+00 0. -1.
        994    1    1    2    0    0 -0.44311056543E+02 -0.98244749167E+02  0.50043875657E+02  0.20839704883E+03  0.17120000000E+03 0.  0.
        998    1    1    2    0    0  0.87546666625E+01  0.14953223219E+02  0.11326272262E+04  0.11328039003E+04  0.10000000000E+02 0. -1.
</event>
<event>
 5    1  0.1338396E-008  0.3685551E+03  0.7957747E-01  0.3502558E+00
         13   -1    0    0    0    0  0.00000000000E+00  0.00000000000E+00  0.14999999963E+04  0.15000000000E+04  0.10566000000E+00 0. -1.
        994   -1    0    0    0    0 -0.00000000000E+00 -0.00000000000E+00  0.11368683772E-12  0.17120000000E+03  0.17120000000E+03 0.  0.
         13    1    1    2    0    0 -0.78001974321E+02 -0.15368735398E+03  0.70906994563E+03  0.72971522509E+03  0.10566000000E+00 0. -1.
        994    1    1    2    0    0  0.75551949103E+02  0.15027249433E+03  0.11616750881E+03  0.26663504959E+03  0.17120000000E+03 0.  0.
        998    1    1    2    0    0  0.24500252181E+01  0.34148596436E+01  0.67476254184E+03  0.67484972532E+03  0.10000000000E+02 0.  0.
</event>
<event>
 5    1  0.1338396E-008  0.3855546E+03  0.7957747E-01  0.3427323E+00
         13   -1    0    0    0    0  0.00000000000E+00  0.00000000000E+00  0.14999999963E+04  0.15000000000E+04  0.10566000000E+00 0. -1.
        994   -1    0    0    0    0 -0.00000000000E+00 -0.00000000000E+00  0.11368683772E-12  0.17120000000E+03  0.17120000000E+03 0.  0.
         13    1    1    2    0    0 -0.12543575135E+02 -0.65990684869E+01  0.78747514647E+02  0.80012944010E+02  0.10566000000E+00 0. -1.
        994    1    1    2    0    0  0.36145653015E+01 -0.21383294432E+01  0.14129306495E+01  0.17125733242E+03  0.17120000000E+03 0.  0.
        998    1    1    2    0    0  0.89290098337E+01  0.87373979301E+01  0.14198395510E+04  0.14199297236E+04  0.10000000000E+02 0. -1.
</event>
<event>
 5    1  0.1338396E-008  0.3852791E+03  0.7957747E-01  0.3428490E+00
         13   -1    0    0    0    0  0.00000000000E+00  0.00000000000E+00  0.14999999963E+04  0.15000000000E+04  0.10566000000E+00 0.  1.
        994   -1    0    0    0    0 -0.00000000000E+00 -0.00000000000E+00  0.11368683772E-12  0.17120000000E+03  0.17120000000E+03 0.  0.
         13    1    1    2    0    0  0.11562427240E-01 -0.12651789297E+02  0.54931312895E+02  0.56369568089E+02  0.10566000000E+00 0.  1.
        994    1    1    2    0    0  0.33870737942E+00  0.49541366990E+01  0.15726763451E+01  0.17127922088E+03  0.17120000000E+03 0.  0.
        998    1    1    2    0    0 -0.35026980666E+00  0.76976525976E+01  0.14434960070E+04  0.14435512110E+04  0.10000000000E+02 0.  1.
</event>
<event>
 5    1  0.1338396E-008  0.3855774E+03  0.7957747E-01  0.3427227E+00
         13   -1    0    0    0    0  0.00000000000E+00  0.00000000000E+00  0.14999999963E+04  0.15000000000E+04  0.10566000000E+00 0.  1.
        994   -1    0    0    0    0 -0.00000000000E+00 -0.00000000000E+00  0.11368683772E-12  0.17120000000E+03  0.17120000000E+03 0.  0.
         13    1    1    2    0    0 -0.10445621794E+02 -0.91367568821E+01  0.74332680932E+02  0.75617127422E+02  0.10566000000E+00 0.  1.
        994    1    1    2    0    0  0.87573357338E+01 -0.22312665417E+01  0.16118587327E+01  0.17144593191E+03  0.17120000000E+03 0.  0.
        998    1    1    2    0    0  0.16882860601E+01  0.11368023424E+02  0.14240554566E+04  0.14241369407E+04  0.10000000000E+02 0.  1.
</event>
<event>
 5    1  0.1338396E-008  0.3238711E+03  0.7957747E-01  0.3739082E+00
         13   -1    0    0    0    0  0.00000000000E+00  0.00000000000E+00  0.14999999963E+04  0.15000000000E+04  0.10566000000E+00 0.  1.
        994   -1    0    0    0    0 -0.00000000000E+00 -0.00000000000E+00  0.11368683772E-12  0.17120000000E+03  0.17120000000E+03 0.  0.
         13    1    1    2    0    0 -0.22061592097E+03 -0.11040601059E+03  0.26565371077E+03  0.36253658708E+03  0.10566000000E+00 0.  1.
        994    1    1    2    0    0  0.26996914656E+03  0.78660527897E+02  0.72979720965E+03  0.80061490491E+03  0.17120000000E+03 0.  0.
        998    1    1    2    0    0 -0.49353225587E+02  0.31745482688E+02  0.50454907586E+03  0.50804850801E+03  0.10000000000E+02 0.  1.
</event>
<event>
 5    1  0.1338396E-008  0.3837567E+03  0.7957747E-01  0.3434962E+00
         13   -1    0    0    0    0  0.00000000000E+00  0.00000000000E+00  0.14999999963E+04  0.15000000000E+04  0.10566000000E+00 0.  1.
        994   -1    0    0    0    0 -0.00000000000E+00 -0.00000000000E+00  0.11368683772E-12  0.17120000000E+03  0.17120000000E+03 0.  0.
         13    1    1    2    0    0  0.70308026349E+01 -0.96585555332E+01  0.30923246171E+02  0.33150840087E+02  0.10566000000E+00 0.  1.
        994    1    1    2    0    0 -0.61083041623E+01  0.71921136697E+01  0.25427446483E+01  0.17147869672E+03  0.17120000000E+03 0.  0.
        998    1    1    2    0    0 -0.92249847259E+00  0.24664418635E+01  0.14665340055E+04  0.14665704632E+04  0.10000000000E+02 0.  1.
</event>
<event>
 5    1  0.1338396E-008  0.3860251E+03  0.7957747E-01  0.3425336E+00
         13   -1    0    0    0    0  0.00000000000E+00  0.00000000000E+00  0.14999999963E+04  0.15000000000E+04  0.10566000000E+00 0. -1.
        994   -1    0    0    0    0 -0.00000000000E+00 -0.00000000000E+00  0.11368683772E-12  0.17120000000E+03  0.17120000000E+03 0.  0.
         13    1    1    2    0    0 -0.60126746563E+01 -0.10700443220E+02  0.61395177921E+02  0.62610149158E+02  0.10566000000E+00 0. -1.
        994    1    1    2    0    0  0.70307654988E+00  0.25313225299E+02  0.32267654338E+01  0.17309276619E+03  0.17120000000E+03 0.  0.
        998    1    1    2    0    0  0.53095981064E+01 -0.14612782080E+02  0.14353780529E+04  0.14354970847E+04  0.10000000000E+02 0. -1.
</event>
<event>
 5    1  0.1338396E-008  0.3850483E+03  0.7957747E-01  0.3429467E+00
         13   -1    0    0    0    0  0.00000000000E+00  0.00000000000E+00  0.14999999963E+04  0.15000000000E+04  0.10566000000E+00 0.  1.
        994   -1    0    0    0    0 -0.00000000000E+00 -0.00000000000E+00  0.11368683772E-12  0.17120000000E+03  0.17120000000E+03 0.  0.
         13    1    1    2    0    0  0.16384097080E+02  0.11540622587E+02  0.11704769463E+03  0.11875099405E+03  0.10566000000E+00 0.  1.
        994    1    1    2    0    0 -0.14038031684E+02 -0.15650307993E+02  0.30608530088E+01  0.17251320904E+03  0.17120000000E+03 0.  0.
        998    1    1    2    0    0 -0.23460653962E+01  0.41096854053E+01  0.13798914486E+04  0.13799357969E+04  0.10000000000E+02 0.  1.
</event>
<event>
 5    1  0.1338396E-008  0.3826100E+03  0.7957747E-01  0.3439872E+00
         13   -1    0    0    0    0  0.00000000000E+00  0.00000000000E+00  0.14999999963E+04  0.15000000000E+04  0.10566000000E+00 0. -1.
        994   -1    0    0    0    0 -0.00000000000E+00 -0.00000000000E+00  0.11368683772E-12  0.17120000000E+03  0.17120000000E+03 0.  0.
         13    1    1    2    0    0 -0.13259793768E+02 -0.64698198103E+00  0.31161935678E+02  0.33872084608E+02  0.10566000000E+00 0. -1.
        994    1    1    2    0    0  0.88880402878E+00 -0.40706363125E+01  0.28789298619E+01  0.17127489101E+03  0.17120000000E+03 0.  0.
        998    1    1    2    0    0  0.12370989740E+02  0.47176182935E+01  0.14659591307E+04  0.14660530244E+04  0.10000000000E+02 0. -1.
</event>
<event>
 5    1  0.1338396E-008  0.3846352E+03  0.7957747E-01  0.3431221E+00
         13   -1    0    0    0    0  0.00000000000E+00  0.00000000000E+00  0.14999999963E+04  0.15000000000E+04  0.10566000000E+00 0.  1.
        994   -1    0    0    0    0 -0.00000000000E+00 -0.00000000000E+00  0.11368683772E-12  0.17120000000E+03  0.17120000000E+03 0.  0.
         13    1    1    2    0    0 -0.16560813712E+02 -0.30460197125E-01  0.71874546684E+02  0.73757868080E+02  0.10566000000E+00 0.  1.
        994    1    1    2    0    0  0.18751725380E+02 -0.45729193613E+01  0.30389077754E+01  0.17231138603E+03  0.17120000000E+03 0.  0.
        998    1    1    2    0    0 -0.21909116680E+01  0.46033795584E+01  0.14250865418E+04  0.14251307459E+04  0.10000000000E+02 0.  1.
</event>
<event>
 5    1  0.1338396E-008  0.3819746E+03  0.7957747E-01  0.3442605E+00
         13   -1    0    0    0    0  0.00000000000E+00  0.00000000000E+00  0.14999999963E+04  0.15000000000E+04  0.10566000000E+00 0. -1.
        994   -1    0    0    0    0 -0.00000000000E+00 -0.00000000000E+00  0.11368683772E-12  0.17120000000E+03  0.17120000000E+03 0.  0.
         13    1    1    2    0    0 -0.15755185639E+02  0.27153036335E+02  0.18549758662E+03  0.18813526799E+03  0.10566000000E+00 0. -1.
        994    1    1    2    0    0  0.18781093953E+02  0.12718915000E+02  0.48503272009E+01  0.17276419178E+03  0.17120000000E+03 0.  0.
        998    1    1    2    0    0 -0.30259083141E+01 -0.39871951334E+02  0.13096520825E+04  0.13103005402E+04  0.10000000000E+02 0. -1.
</event>
<event>
 5    1  0.1338396E-008  0.3837113E+03  0.7957747E-01  0.3435156E+00
         13   -1    0    0    0    0  0.00000000000E+00  0.00000000000E+00  0.14999999963E+04  0.15000000000E+04  0.10566000000E+00 0.  1.
        994   -1    0    0    0    0 -0.00000000000E+00 -0.00000000000E+00  0.11368683772E-12  0.17120000000E+03  0.17120000000E+03 0.  0.
         13    1    1    2    0    0  0.26711650256E+01  0.11112655583E+02  0.28151951203E+02  0.30383708748E+02  0.10566000000E+00 0.  1.
        994    1    1    2    0    0 -0.18866977442E+01 -0.66963714317E+01  0.24311732329E+01  0.17135854698E+03  0.17120000000E+03 0.  0.
        998    1    1    2    0    0 -0.78446728142E+00 -0.44162841513E+01  0.14694168718E+04  0.14694577443E+04  0.10000000000E+02 0.  1.
</event>
<event>
 5    1  0.1338396E-008  0.3809255E+03  0.7957747E-01  0.3447139E+00
         13   -1    0    0    0    0  0.00000000000E+00  0.00000000000E+00  0.14999999963E+04  0.15000000000E+04  0.10566000000E+00 0.  1.
        994   -1    0    0    0    0 -0.00000000000E+00 -0.00000000000E+00  0.11368683772E-12  0.17120000000E+03  0.17120000000E+03 0.  0.
         13    1    1    2    0    0 -0.28463615473E+02  0.19050068200E+02  0.15760847370E+03  0.16128708767E+03  0.10566000000E+00 0.  1.
        994    1    1    2    0    0  0.12711529780E+02 -0.19209463552E+02  0.54370103441E+01  0.17282820245E+03  0.17120000000E+03 0.  0.
        998    1    1    2    0    0  0.15752085693E+02  0.15939535136E+00  0.13369545122E+04  0.13370847099E+04  0.10000000000E+02 0.  1.
</event>
<event>
 5    1  0.1338396E-008  0.3783286E+03  0.7957747E-01  0.3458469E+00
         13   -1    0    0    0    0  0.00000000000E+00  0.00000000000E+00  0.14999999963E+04  0.15000000000E+04  0.10566000000E+00 0.  1.
        994   -1    0    0    0    0 -0.00000000000E+00 -0.00000000000E+00  0.11368683772E-12  0.17120000000E+03  0.17120000000E+03 0.  0.
         13    1    1    2    0    0  0.22002721985E+02 -0.28228587194E+02  0.11748407788E+03  0.12281487137E+03  0.10566000000E+00 0.  1.
        994    1    1    2    0    0 -0.34395059153E+02  0.19696520966E+02  0.10278267462E+02  0.17602856534E+03  0.17120000000E+03 0.  0.
        998    1    1    2    0    0  0.12392337167E+02  0.85320662281E+01  0.13722376509E+04  0.13723565633E+04  0.10000000000E+02 0.  1.
</event>
<event>
 5    1  0.1338396E-008  0.3173271E+03  0.7957747E-01  0.3779591E+00
         13   -1    0    0    0    0  0.00000000000E+00  0.00000000000E+00  0.14999999963E+04  0.15000000000E+04  0.10566000000E+00 0.  1.
        994   -1    0    0    0    0 -0.00000000000E+00 -0.00000000000E+00  0.11368683772E-12  0.17120000000E+03  0.17120000000E+03 0.  0.
         13    1    1    2    0    0 -0.15864214183E+03  0.26910710679E+02  0.95717146012E+03  0.97060225156E+03  0.10566000000E+00 0.  1.
        994    1    1    2    0    0  0.64383142043E+02 -0.36417001175E+02  0.42495665699E+02  0.19127652380E+03  0.17120000000E+03 0.  0.
        998    1    1    2    0    0  0.94258999786E+02  0.95062904957E+01  0.50033287046E+03  0.50932122464E+03  0.10000000000E+02 0.  1.
</event>
<event>
 5    1  0.1338396E-008  0.3775443E+03  0.7957747E-01  0.3461921E+00
         13   -1    0    0    0    0  0.00000000000E+00  0.00000000000E+00  0.14999999963E+04  0.15000000000E+04  0.10566000000E+00 0.  1.
        994   -1    0    0    0    0 -0.00000000000E+00 -0.00000000000E+00  0.11368683772E-12  0.17120000000E+03  0.17120000000E+03 0.  0.
         13    1    1    2    0    0  0.12681685231E+02  0.49757822799E+02  0.87894791327E+02  0.10179475220E+03  0.10566000000E+00 0.  1.
        994    1    1    2    0    0 -0.14402538024E+02 -0.11652858209E+02  0.16218371645E+02  0.17296155002E+03  0.17120000000E+03 0.  0.
        998    1    1    2    0    0  0.17208527932E+01 -0.38104964591E+02  0.13958868333E+04  0.13964436978E+04  0.10000000000E+02 0.  1.
</event>
<event>
 5    1  0.1338396E-008  0.3834234E+03  0.7957747E-01  0.3436386E+00
         13   -1    0    0    0    0  0.00000000000E+00  0.00000000000E+00  0.14999999963E+04  0.15000000000E+04  0.10566000000E+00 0.  1.
        994   -1    0    0    0    0 -0.00000000000E+00 -0.00000000000E+00  0.11368683772E-12  0.17120000000E+03  0.17120000000E+03 0.  0.
         13    1    1    2    0    0  0.52662523100E+01 -0.11696213994E+02  0.32811734622E+02  0.35230042977E+02  0.10566000000E+00 0.  1.
        994    1    1    2    0    0 -0.39461803673E+01  0.12144477546E+02  0.29540978641E+01  0.17170098243E+03  0.17120000000E+03 0.  0.
        998    1    1    2    0    0 -0.13200719427E+01 -0.44826355128E+00  0.14642341638E+04  0.14642689746E+04  0.10000000000E+02 0.  1.
</event>
<event>
 5    1  0.1338396E-008  0.3721841E+03  0.7957747E-01  0.3485913E+00
         13   -1    0    0    0    0  0.00000000000E+00  0.00000000000E+00  0.14999999963E+04  0.15000000000E+04  0.10566000000E+00 0. -1.
        994   -1    0    0    0    0 -0.00000000000E+00 -0.00000000000E+00  0.11368683772E-12  0.17120000000E+03  0.17120000000E+03 0.  0.
         13    1    1    2    0    0 -0.47751799214E+02  0.51290561536E+02  0.38059148234E+03  0.38698946191E+03  0.10566000000E+00 0. -1.
        994    1    1    2    0    0  0.49663714165E+00 -0.15513084271E+02  0.89590732605E+01  0.17213543338E+03  0.17120000000E+03 0.  0.
        998    1    1    2    0    0  0.47255162072E+02 -0.35777477266E+02  0.11104494407E+04  0.11120751047E+04  0.10000000000E+02 0. -1.
</event>
<event>
 5    1  0.1338396E-008  0.3801870E+03  0.7957747E-01  0.3450345E+00
         13   -1    0    0    0    0  0.00000000000E+00  0.00000000000E+00  0.14999999963E+04  0.15000000000E+04  0.10566000000E+00 0.  1.
        994   -1    0    0    0    0 -0.00000000000E+00 -0.00000000000E+00  0.11368683772E-12  0.17120000000E+03  0.17120000000E+03 0.  0.
         13    1    1    2    0    0  0.25535382977E+02  0.14665972844E+02  0.13249324837E+03  0.13572626338E+03  0.10566000000E+00 0.  1.
        994    1    1    2    0    0  0.74073014723E+01  0.23191695101E+02  0.60215046799E+01  0.17302722721E+03  0.17120000000E+03 0.  0.
        998    1    1    2    0    0 -0.32942684449E+02 -0.37857667945E+02  0.13614852432E+04  0.13624465094E+04  0.10000000000E+02 0.  1.
</event>
<event>
 5    1  0.1338396E-008  0.3837249E+03  0.7957747E-01  0.3435098E+00
         13   -1    0    0    0    0  0.00000000000E+00  0.00000000000E+00  0.14999999963E+04  0.15000000000E+04  0.10566000000E+00 0.  1.
        994   -1    0    0    0    0 -0.00000000000E+00 -0.00000000000E+00  0.11368683772E-12  0.17120000000E+03  0.17120000000E+03 0.  0.
         13    1    1    2    0    0 -0.24926142862E+02 -0.12237027114E+02  0.16514831692E+03  0.16746651956E+03  0.10566000000E+00 0.  1.
        994    1    1    2    0    0  0.20595352078E+02  0.28452191709E+01  0.36933089922E+01  0.17249737485E+03  0.17120000000E+03 0.  0.
        998    1    1    2    0    0  0.43307907833E+01  0.93918079433E+01  0.13311583704E+04  0.13312361056E+04  0.10000000000E+02 0.  1.
</event>
<event>
 5    1  0.1338396E-008  0.3739958E+03  0.7957747E-01  0.3477726E+00
         13   -1    0    0    0    0  0.00000000000E+00  0.00000000000E+00  0.14999999963E+04  0.15000000000E+04  0.10566000000E+00 0.  1.
        994   -1    0    0    0    0 -0.00000000000E+00 -0.00000000000E+00  0.11368683772E-12  0.17120000000E+03  0.17120000000E+03 0.  0.
         13    1    1    2    0    0  0.22468146431E+02  0.56650686805E+02  0.29989935932E+03  0.30602900974E+03  0.10566000000E+00 0.  1.
        994    1    1    2    0    0  0.72791470941E+02 -0.56400615925E+02  0.36692649031E+02  0.19782673786E+03  0.17120000000E+03 0.  0.
        998    1    1    2    0    0 -0.95259617372E+02 -0.25007088030E+00  0.11634079879E+04  0.11673442524E+04  0.10000000000E+02 0.  1.
</event>
<event>
 5    1  0.1338396E-008  0.3855208E+03  0.7957747E-01  0.3427466E+00
         13   -1    0    0    0    0  0.00000000000E+00  0.00000000000E+00  0.14999999963E+04  0.15000000000E+04  0.10566000000E+00 0.  1.
        994   -1    0    0    0    0 -0.00000000000E+00 -0.00000000000E+00  0.11368683772E-12  0.17120000000E+03  0.17120000000E+03 0.  0.
         13    1    1    2    0    0 -0.51998296192E+02 -0.78915779794E+02  0.19543387032E+03  0.21708507996E+03  0.10566000000E+00 0.  1.
        994    1    1    2    0    0  0.41909668152E+02  0.84379775526E+02  0.53020977873E+02  0.20247723550E+03  0.17120000000E+03 0.  0.
        998    1    1    2    0    0  0.10088628040E+02 -0.54639957323E+01  0.12515451481E+04  0.12516376845E+04  0.10000000000E+02 0.  1.
</event>
<event>
 5    1  0.1338396E-008  0.3853386E+03  0.7957747E-01  0.3428237E+00
         13   -1    0    0    0    0  0.00000000000E+00  0.00000000000E+00  0.14999999963E+04  0.15000000000E+04  0.10566000000E+00 0. -1.
        994   -1    0    0    0    0 -0.00000000000E+00 -0.00000000000E+00  0.11368683772E-12  0.17120000000E+03  0.17120000000E+03 0.  0.
         13    1    1    2    0    0 -0.74007522176E+01 -0.10568780235E+02  0.59790267896E+02  0.61166637541E+02  0.10566000000E+00 0. -1.
        994    1    1    2    0    0  0.72286187040E+01 -0.31849413663E+01  0.16671238986E+01  0.17139024500E+03  0.17120000000E+03 0.  0.
        998    1    1    2    0    0  0.17213351362E+00  0.13753721601E+02  0.14385426045E+04  0.14386431175E+04  0.10000000000E+02 0. -1.
</event>
<event>
 5    1  0.1338396E-008  0.3819374E+03  0.7957747E-01  0.3442766E+00
         13   -1    0    0    0    0  0.00000000000E+00  0.00000000000E+00  0.14999999963E+04  0.15000000000E+04  0.10566000000E+00 0. -1.
        994   -1    0    0    0    0 -0.00000000000E+00 -0.00000000000E+00  0.11368683772E-12  0.17120000000E+03  0.17120000000E+03 0.  0.
         13    1    1    2    0    0  0.14100406788E+01  0.13415648838E+02  0.28647460830E+02  0.31664744189E+02  0.10566000000E+00 0. -1.
        994    1    1    2    0    0  0.25167958391E+01  0.14769747170E+01  0.31866350409E+01  0.17125451924E+03  0.17120000000E+03 0.  0.
        998    1    1    2    0    0 -0.39268365179E+01 -0.14892623555E+02  0.14681659004E+04  0.14682807366E+04  0.10000000000E+02 0. -1.
</event>
<event>
 5    1  0.1338396E-008  0.3839201E+03  0.7957747E-01  0.3434265E+00
         13   -1    0    0    0    0  0.00000000000E+00  0.00000000000E+00  0.14999999963E+04  0.15000000000E+04  0.10566000000E+00 0. -1.
        994   -1    0    0    0    0 -0.00000000000E+00 -0.00000000000E+00  0.11368683772E-12  0.17120000000E+03  0.17120000000E+03 0.  0.
         13    1    1    2    0    0  0.22791407472E+02 -0.16079243675E+02  0.15369450971E+03  0.15620500572E+03  0.10566000000E+00 0. -1.
        994    1    1    2    0    0 -0.26575248642E+02  0.22885122536E+02  0.62369838949E+01  0.17486655667E+03  0.17120000000E+03 0.  0.
        998    1    1    2    0    0  0.37838411701E+01 -0.68058788611E+01  0.13400685027E+04  0.13401284376E+04  0.10000000000E+02 0. -1.
</event>
<event>
 5    1  0.1338396E-008  0.3976007E+03  0.7957747E-01  0.3377928E+00
         13   -1    0    0    0    0  0.00000000000E+00  0.00000000000E+00  0.14999999963E+04  0.15000000000E+04  0.10566000000E+00 0.  1.
        994   -1    0    0    0    0 -0.00000000000E+00 -0.00000000000E+00  0.11368683772E-12  0.17120000000E+03  0.17120000000E+03 0.  0.
         13    1    1    2    0    0 -0.94324923329E+02  0.67902053491E+02  0.30410366757E+03  0.32555634201E+03  0.10566000000E+00 0.  1.
        994    1    1    2    0    0  0.14341270348E+02 -0.31331647896E+02  0.30968532498E+02  0.17735792680E+03  0.17120000000E+03 0.  0.
        998    1    1    2    0    0  0.79983652981E+02 -0.36570405596E+02  0.11649277962E+04  0.11682857312E+04  0.10000000000E+02 0.  1.
</event>
<event>
 5    1  0.1338396E-008  0.3685918E+03  0.7957747E-01  0.3502388E+00
         13   -1    0    0    0    0  0.00000000000E+00  0.00000000000E+00  0.14999999963E+04  0.15000000000E+04  0.10566000000E+00 0. -1.
        994   -1    0    0    0    0 -0.00000000000E+00 -0.00000000000E+00  0.11368683772E-12  0.17120000000E+03  0.17120000000E+03 0.  0.
         13    1    1    2    0    0 -0.73028423903E+02  0.51537391172E+02  0.41022533695E+03  0.41985008233E+03  0.10566000000E+00 0. -1.
        994    1    1    2    0    0  0.39183317886E+02 -0.21903621351E+02  0.17239311877E+02  0.17782501203E+03  0.17120000000E+03 0.  0.
        998    1    1    2    0    0  0.33845106017E+02 -0.29633769821E+02  0.10725353474E+04  0.10735249056E+04  0.10000000000E+02 0. -1.
</event>
<event>
 5    1  0.1338396E-008  0.3689217E+03  0.7957747E-01  0.3500861E+00
         13   -1    0    0    0    0  0.00000000000E+00  0.00000000000E+00  0.14999999963E+04  0.15000000000E+04  0.10566000000E+00 0. -1.
        994   -1    0    0    0    0 -0.00000000000E+00 -0.00000000000E+00  0.11368683772E-12  0.17120000000E+03  0.17120000000E+03 0.  0.
         13    1    1    2    0    0  0.55490581777E+02  0.44498950745E+02  0.19317435524E+03  0.20585359839E+03  0.10566000000E+00 0. -1.
        994    1    1    2    0    0 -0.66027187356E+02 -0.73209476566E+02  0.44366471338E+02  0.20247725973E+03  0.17120000000E+03 0.  0.
        998    1    1    2    0    0  0.10536605579E+02  0.28710525821E+02  0.12624591697E+04  0.12628691419E+04  0.10000000000E+02 0. -1.
</event>
<event>
 5    1  0.1338396E-008  0.3838017E+03  0.7957747E-01  0.3434770E+00
         13   -1    0    0    0    0  0.00000000000E+00  0.00000000000E+00  0.14999999963E+04  0.15000000000E+04  0.10566000000E+00 0.  1.
        994   -1    0    0    0    0 -0.00000000000E+00 -0.00000000000E+00  0.11368683772E-12  0.17120000000E+03  0.17120000000E+03 0.  0.
         13    1    1    2    0    0 -0.12381800732E+02 -0.16526992103E+02  0.86732798990E+02  0.89157389161E+02  0.10566000000E+00 0.  1.
        994    1    1    2    0    0  0.27653009013E+02  0.14693393289E+02  0.54703661004E+01  0.17412624621E+03  0.17120000000E+03 0.  0.
        998    1    1    2    0    0 -0.15271208281E+02  0.18335988135E+01  0.14077968312E+04  0.14079163646E+04  0.10000000000E+02 0.  1.
</event>
<event>
 5    1  0.1338396E-008  0.3733820E+03  0.7957747E-01  0.3480491E+00
         13   -1    0    0    0    0  0.00000000000E+00  0.00000000000E+00  0.14999999963E+04  0.15000000000E+04  0.10566000000E+00 0. -1.
        994   -1    0    0    0    0 -0.00000000000E+00 -0.00000000000E+00  0.11368683772E-12  0.17120000000E+03  0.17120000000E+03 0.  0.
         13    1    1    2    0    0 -0.15908750083E+02  0.51379229065E+02  0.17755277048E+03  0.18552064839E+03  0.10566000000E+00 0. -1.
        994    1    1    2    0    0  0.16394587555E+02 -0.41391466699E+02  0.14316687736E+02  0.17747237409E+03  0.17120000000E+03 0.  0.
        998    1    1    2    0    0 -0.48583747167E+00 -0.99877623669E+01  0.13081305381E+04  0.13082069775E+04  0.10000000000E+02 0. -1.
</event>
<event>
 5    1  0.1338396E-008  0.3668263E+03  0.7957747E-01  0.3510605E+00
         13   -1    0    0    0    0  0.00000000000E+00  0.00000000000E+00  0.14999999963E+04  0.15000000000E+04  0.10566000000E+00 0. -1.
        994   -1    0    0    0    0 -0.00000000000E+00 -0.00000000000E+00  0.11368683772E-12  0.17120000000E+03  0.17120000000E+03 0.  0.
         13    1    1    2    0    0  0.25165115057E+03  0.15345402666E+03  0.92839978518E+03  0.97406499381E+03  0.10566000000E+00 0. -1.
        994    1    1    2    0    0 -0.24339791858E+03 -0.15352351183E+03  0.38564551695E+03  0.51072881278E+03  0.17120000000E+03 0.  0.
        998    1    1    2    0    0 -0.82532319903E+01  0.69485174251E-01  0.18595469415E+03  0.18640619341E+03  0.10000000000E+02 0.  0.
</event>
<event>
 5    1  0.1338396E-008  0.3802634E+03  0.7957747E-01  0.3450012E+00
         13   -1    0    0    0    0  0.00000000000E+00  0.00000000000E+00  0.14999999963E+04  0.15000000000E+04  0.10566000000E+00 0. -1.
        994   -1    0    0    0    0 -0.00000000000E+00 -0.00000000000E+00  0.11368683772E-12  0.17120000000E+03  0.17120000000E+03 0.  0.
         13    1    1    2    0    0  0.11771838979E+02  0.82636806768E+01  0.24011937530E+02  0.27990157542E+02  0.10566000000E+00 0. -1.
        994    1    1    2    0    0 -0.10126454163E+02 -0.84664786712E+01  0.45823489434E+01  0.17176921801E+03  0.17120000000E+03 0.  0.
        998    1    1    2    0    0 -0.16453848159E+01  0.20279799436E+00  0.14714057098E+04  0.14714406244E+04  0.10000000000E+02 0. -1.
</event>
<event>
 5    1  0.1338396E-008  0.3800038E+03  0.7957747E-01  0.3451142E+00
         13   -1    0    0    0    0  0.00000000000E+00  0.00000000000E+00  0.14999999963E+04  0.15000000000E+04  0.10566000000E+00 0. -1.
        994   -1    0    0    0    0 -0.00000000000E+00 -0.00000000000E+00  0.11368683772E-12  0.17120000000E+03  0.17120000000E+03 0.  0.
         13    1    1    2    0    0 -0.18473268889E+03  0.67792648143E+02  0.10605117282E+04  0.10786135297E+04  0.10566000000E+00 0. -1.
        994    1    1    2    0    0  0.18532231256E+03 -0.60049008819E+02  0.14363743974E+03  0.29646483280E+03  0.17120000000E+03 0.  0.
        998    1    1    2    0    0 -0.58962366815E+00 -0.77436393245E+01  0.29585082831E+03  0.29612163754E+03  0.10000000000E+02 0. -1.
</event>
<event>
 5    1  0.1338396E-008  0.3988580E+03  0.7957747E-01  0.3372944E+00
         13   -1    0    0    0    0  0.00000000000E+00  0.00000000000E+00  0.14999999963E+04  0.15000000000E+04  0.10566000000E+00 0.  1.
        994   -1    0    0    0    0 -0.00000000000E+00 -0.00000000000E+00  0.11368683772E-12  0.17120000000E+03  0.17120000000E+03 0.  0.
         13    1    1    2    0    0  0.75524359330E+02  0.33483929300E+02  0.10824130802E+03  0.13616642134E+03  0.10566000000E+00 0.  1.
        994    1    1    2    0    0 -0.81909617987E+02 -0.26687493202E+02  0.56643363996E+02  0.19984823866E+03  0.17120000000E+03 0.  0.
        998    1    1    2    0    0  0.63852586570E+01 -0.67964360982E+01  0.13351153243E+04  0.13351853400E+04  0.10000000000E+02 0.  1.
</event>
<event>
 5    1  0.1338396E-008  0.3817834E+03  0.7957747E-01  0.3443430E+00
         13   -1    0    0    0    0  0.00000000000E+00  0.00000000000E+00  0.14999999963E+04  0.15000000000E+04  0.10566000000E+00 0. -1.
        994   -1    0    0    0    0 -0.00000000000E+00 -0.00000000000E+00  0.11368683772E-12  0.17120000000E+03  0.17120000000E+03 0.  0.
         13    1    1    2    0    0 -0.99845130332E+00  0.12598220924E+02  0.22682919763E+02  0.25966094979E+02  0.10566000000E+00 0. -1.
        994    1    1    2    0    0  0.78662404535E-01 -0.19380492898E+02  0.44848825958E+01  0.17235186064E+03  0.17120000000E+03 0.  0.
        998    1    1    2    0    0  0.91978889878E+00  0.67822719742E+01  0.14728321939E+04  0.14728820444E+04  0.10000000000E+02 0. -1.
</event>
<event>
 5    1  0.1338396E-008  0.3830588E+03  0.7957747E-01  0.3437947E+00
         13   -1    0    0    0    0  0.00000000000E+00  0.00000000000E+00  0.14999999963E+04  0.15000000000E+04  0.10566000000E+00 0. -1.
        994   -1    0    0    0    0 -0.00000000000E+00 -0.00000000000E+00  0.11368683772E-12  0.17120000000E+03  0.17120000000E+03 0.  0.
         13    1    1    2    0    0  0.60636936475E+01 -0.18684069666E+02  0.73502156106E+02  0.76081804370E+02  0.10566000000E+00 0. -1.
        994    1    1    2    0    0  0.20972126048E+01  0.14048342529E+02  0.32649703742E+01  0.17181924881E+03  0.17120000000E+03 0.  0.
        998    1    1    2    0    0 -0.81609062523E+01  0.46357271365E+01  0.14232328698E+04  0.14232989468E+04  0.10000000000E+02 0. -1.
</event>
<event>
 5    1  0.1338396E-008  0.3849052E+03  0.7957747E-01  0.3430074E+00
         13   -1    0    0    0    0  0.00000000000E+00  0.00000000000E+00  0.14999999963E+04  0.15000000000E+04  0.10566000000E+00 0. -1.
        994   -1    0    0    0    0 -0.00000000000E+00 -0.00000000000E+00  0.11368683772E-12  0.17120000000E+03  0.17120000000E+03 0.  0.
         13    1    1    2    0    0 -0.16670473940E+02 -0.72981286828E+00  0.77684619601E+02  0.79456583206E+02  0.10566000000E+00 0. -1.
        994    1    1    2    0    0  0.20585918720E+02  0.17034558910E+01  0.30821138529E+01  0.17246918924E+03  0.17120000000E+03 0.  0.
        998    1    1    2    0    0 -0.39154447795E+01 -0.97364302268E+00  0.14192332628E+04  0.14192742276E+04  0.10000000000E+02 0. -1.
</event>
<event>
 5    1  0.1338396E-008  0.3832793E+03  0.7957747E-01  0.3437003E+00
         13   -1    0    0    0    0  0.00000000000E+00  0.00000000000E+00  0.14999999963E+04  0.15000000000E+04  0.10566000000E+00 0.  1.
        994   -1    0    0    0    0 -0.00000000000E+00 -0.00000000000E+00  0.11368683772E-12  0.17120000000E+03  0.17120000000E+03 0.  0.
         13    1    1    2    0    0 -0.47524417578E+01 -0.22329215490E+02  0.10449220964E+03  0.10695705964E+03  0.10566000000E+00 0.  1.
        994    1    1    2    0    0  0.35475346857E+01  0.13140809889E+02  0.30997920452E+01  0.17176820019E+03  0.17120000000E+03 0.  0.
        998    1    1    2    0    0  0.12049070721E+01  0.91884056011E+01  0.13924079946E+04  0.13924747402E+04  0.10000000000E+02 0.  1.
</event>
<event>
 5    1  0.1338396E-008  0.3711277E+03  0.7957747E-01  0.3490724E+00
         13   -1    0    0    0    0  0.00000000000E+00  0.00000000000E+00  0.14999999963E+04  0.15000000000E+04  0.10566000000E+00 0. -1.
        994   -1    0    0    0    0 -0.00000000000E+00 -0.00000000000E+00  0.11368683772E-12  0.17120000000E+03  0.17120000000E+03 0.  0.
         13    1    1    2    0    0 -0.50606856233E+02 -0.29964265039E+02  0.14518343826E+03  0.15664339432E+03  0.10566000000E+00 0. -1.
        994    1    1    2    0    0  0.39587376760E+02  0.73781004320E+01  0.17249497969E+02  0.17671610551E+03  0.17120000000E+03 0.  0.
        998    1    1    2    0    0  0.11019479473E+02  0.22586164607E+02  0.13375670601E+04  0.13378405002E+04  0.10000000000E+02 0. -1.
</event>
<event>
 5    1  0.1338396E-008  0.3836208E+03  0.7957747E-01  0.3435543E+00
         13   -1    0    0    0    0  0.00000000000E+00  0.00000000000E+00  0.14999999963E+04  0.15000000000E+04  0.10566000000E+00 0. -1.
        994   -1    0    0    0    0 -0.00000000000E+00 -0.00000000000E+00  0.11368683772E-12  0.17120000000E+03  0.17120000000E+03 0.  0.
         13    1    1    2    0    0  0.23987086591E+01  0.10318350651E+02  0.23527610470E+02  0.25802747564E+02  0.10566000000E+00 0. -1.
        994    1    1    2    0    0 -0.91879150140E+00 -0.64141382740E+01  0.24551347850E+01  0.17134016760E+03  0.17120000000E+03 0.  0.
        998    1    1    2    0    0 -0.14799171577E+01 -0.39042123770E+01  0.14740172510E+04  0.14740570848E+04  0.10000000000E+02 0. -1.
</event>
<event>
 5    1  0.1338396E-008  0.3834811E+03  0.7957747E-01  0.3436140E+00
         13   -1    0    0    0    0  0.00000000000E+00  0.00000000000E+00  0.14999999963E+04  0.15000000000E+04  0.10566000000E+00 0. -1.
        994   -1    0    0    0    0 -0.00000000000E+00 -0.00000000000E+00  0.11368683772E-12  0.17120000000E+03  0.17120000000E+03 0.  0.
         13    1    1    2    0    0  0.91061150728E+01 -0.82002193984E+01  0.31636322257E+02  0.33926876954E+02  0.10566000000E+00 0. -1.
        994    1    1    2    0    0  0.17332796609E+01  0.30661301171E+01  0.24271487605E+01  0.17125342760E+03  0.17120000000E+03 0.  0.
        998    1    1    2    0    0 -0.10839394734E+02  0.51340892813E+01  0.14659365253E+04  0.14660196954E+04  0.10000000000E+02 0. -1.
</event>
<event>
 5    1  0.1338396E-008  0.3792363E+03  0.7957747E-01  0.3454491E+00
         13   -1    0    0    0    0  0.00000000000E+00  0.00000000000E+00  0.14999999963E+04  0.15000000000E+04  0.10566000000E+00 0. -1.
        994   -1    0    0    0    0 -0.00000000000E+00 -0.00000000000E+00  0.11368683772E-12  0.17120000000E+03  0.17120000000E+03 0.  0.
         13    1    1    2    0    0  0.58956141581E+01 -0.49978293929E+02  0.24240597587E+03  0.24757474918E+03  0.10566000000E+00 0. -1.
        994    1    1    2    0    0 -0.11853698936E+03  0.54030862812E+02  0.63671106554E+02  0.22435195963E+03  0.17120000000E+03 0.  0.
        998    1    1    2    0    0  0.11264137520E+03 -0.40525688835E+01  0.11939229139E+04  0.11992732912E+04  0.10000000000E+02 0. -1.
</event>
<event>
 5    1  0.1338396E-008  0.3824805E+03  0.7957747E-01  0.3440429E+00
         13   -1    0    0    0    0  0.00000000000E+00  0.00000000000E+00  0.14999999963E+04  0.15000000000E+04  0.10566000000E+00 0. -1.
        994   -1    0    0    0    0 -0.00000000000E+00 -0.00000000000E+00  0.11368683772E-12  0.17120000000E+03  0.17120000000E+03 0.  0.
         13    1    1    2    0    0 -0.10129404671E+02 -0.85813213917E+01  0.29221031556E+02  0.32095541202E+02  0.10566000000E+00 0. -1.
        994    1    1    2    0    0  0.83284327179E+01  0.84435687769E+01  0.33527430722E+01  0.17164305267E+03  0.17120000000E+03 0.  0.
        998    1    1    2    0    0  0.18009719530E+01  0.13775261485E+00  0.14674262216E+04  0.14674614061E+04  0.10000000000E+02 0. -1.
</event>
<event>
 5    1  0.1338396E-008  0.3691915E+03  0.7957747E-01  0.3499615E+00
         13   -1    0    0    0    0  0.00000000000E+00  0.00000000000E+00  0.14999999963E+04  0.15000000000E+04  0.10566000000E+00 0. -1.
        994   -1    0    0    0    0 -0.00000000000E+00 -0.00000000000E+00  0.11368683772E-12  0.17120000000E+03  0.17120000000E+03 0.  0.
         13    1    1    2    0    0 -0.57452314560E+02 -0.17369406603E+02  0.22598827668E+03  0.23382296101E+03  0.10566000000E+00 0. -1.
        994    1    1    2    0    0 -0.16933143051E+02  0.59795247764E+02  0.23205742410E+02  0.18360323927E+03  0.17120000000E+03 0.  0.
        998    1    1    2    0    0  0.74385457611E+02 -0.42425841162E+02  0.12508059772E+04  0.12537737997E+04  0.10000000000E+02 0. -1.
</event>
<event>
 5    1  0.1446540E-008  0.3862911E+03  0.7957747E-01  0.3424215E+00
         13   -1    0    0    0    0  0.00000000000E+00  0.00000000000E+00  0.14999999963E+04  0.15000000000E+04  0.10566000000E+00 0.  1.
        994   -1    0    0    0    0 -0.00000000000E+00 -0.00000000000E+00  0.11368683772E-12  0.17120000000E+03  0.17120000000E+03 0.  0.
         13    1    1    2    0    0  0.93925263983E+01  0.81351898326E+01  0.74615046059E+02  0.75642693819E+02  0.10566000000E+00 0.  1.
        994    1    1    2    0    0 -0.85332269653E+01 -0.13482107829E+02  0.18246670235E+01  0.17195159960E+03  0.17120000000E+03 0.  0.
        998    1    1    2    0    0 -0.85929943298E+00  0.53469179963E+01  0.14235602832E+04  0.14236057066E+04  0.10000000000E+02 0.  1.
</event>
<event>
 5    1  0.1338396E-008  0.3759333E+03  0.7957747E-01  0.3469059E+00
         13   -1    0    0    0    0  0.00000000000E+00  0.00000000000E+00  0.14999999963E+04  0.15000000000E+04  0.10566000000E+00 0. -1.
        994   -1    0    0    0    0 -0.00000000000E+00 -0.00000000000E+00  0.11368683772E-12  0.17120000000E+03  0.17120000000E+03 0.  0.
         13    1    1    2    0    0 -0.63399736483E+01 -0.10004006700E+02  0.86533045434E+01  0.14668546604E+02  0.10566000000E+00 0. -1.
        994    1    1    2    0    0 -0.22691604148E+01  0.26249213676E+01  0.62410443144E+01  0.17134885449E+03  0.17120000000E+03 0.  0.
        998    1    1    2    0    0  0.86091340631E+01  0.73790853325E+01  0.14851056474E+04  0.14851825989E+04  0.10000000000E+02 0. -1.
</event>
<event>
 5    1  0.1338396E-008  0.3832002E+03  0.7957747E-01  0.3437342E+00
         13   -1    0    0    0    0  0.00000000000E+00  0.00000000000E+00  0.14999999963E+04  0.15000000000E+04  0.10566000000E+00 0. -1.
        994   -1    0    0    0    0 -0.00000000000E+00 -0.00000000000E+00  0.11368683772E-12  0.17120000000E+03  0.17120000000E+03 0.  0.
         13    1    1    2    0    0 -0.24775696984E+02  0.17677421073E+02  0.17824249827E+03  0.18082235960E+03  0.10566000000E+00 0. -1.
        994    1    1    2    0    0  0.17913111055E+02 -0.10600102091E+02  0.39608152439E+01  0.17250614415E+03  0.17120000000E+03 0.  0.
        998    1    1    2    0    0  0.68625859293E+01 -0.70773189822E+01  0.13177966828E+04  0.13178714963E+04  0.10000000000E+02 0. -1.
</event>
<event>
 5    1  0.1338396E-008  0.3786015E+03  0.7957747E-01  0.3457270E+00
         13   -1    0    0    0    0  0.00000000000E+00  0.00000000000E+00  0.14999999963E+04  0.15000000000E+04  0.10566000000E+00 0. -1.
        994   -1    0    0    0    0 -0.00000000000E+00 -0.00000000000E+00  0.11368683772E-12  0.17120000000E+03  0.17120000000E+03 0.  0.
         13    1    1    2    0    0 -0.11713851278E+03 -0.34742729324E+02  0.70380639036E+03  0.71433320985E+03  0.10566000000E+00 0. -1.
        994    1    1    2    0    0  0.12333389555E+03  0.34007523491E+02  0.61937641748E+02  0.22251623067E+03  0.17120000000E+03 0.  0.
        998    1    1    2    0    0 -0.61953827708E+01  0.73520583272E+00  0.73425596417E+03  0.73435055948E+03  0.10000000000E+02 0. -1.
</event>
<event>
 5    1  0.1338396E-008  0.3752172E+03  0.7957747E-01  0.3472252E+00
         13   -1    0    0    0    0  0.00000000000E+00  0.00000000000E+00  0.14999999963E+04  0.15000000000E+04  0.10566000000E+00 0.  1.
        994   -1    0    0    0    0 -0.00000000000E+00 -0.00000000000E+00  0.11368683772E-12  0.17120000000E+03  0.17120000000E+03 0.  0.
         13    1    1    2    0    0 -0.13817921600E+02  0.30421622685E+01  0.12562157090E+02  0.18921116864E+02  0.10566000000E+00 0.  1.
        994    1    1    2    0    0  0.35766981662E+01  0.73477243945E+01  0.67941298448E+01  0.17152953688E+03  0.17120000000E+03 0.  0.
        998    1    1    2    0    0  0.10241223434E+02 -0.10389886663E+02  0.14806437093E+04  0.14807493463E+04  0.10000000000E+02 0.  1.
</event>
<event>
 5    1  0.1338396E-008  0.3814238E+03  0.7957747E-01  0.3444982E+00
         13   -1    0    0    0    0  0.00000000000E+00  0.00000000000E+00  0.14999999963E+04  0.15000000000E+04  0.10566000000E+00 0. -1.
        994   -1    0    0    0    0 -0.00000000000E+00 -0.00000000000E+00  0.11368683772E-12  0.17120000000E+03  0.17120000000E+03 0.  0.
         13    1    1    2    0    0 -0.10841733793E+02 -0.25628427758E+01  0.16889400819E+02  0.20233002220E+02  0.10566000000E+00 0. -1.
        994    1    1    2    0    0  0.41593791221E+01  0.38736605921E+01  0.35236230578E+01  0.17133056237E+03  0.17120000000E+03 0.  0.
        998    1    1    2    0    0  0.66823546714E+01 -0.13108178163E+01  0.14795869724E+04  0.14796364354E+04  0.10000000000E+02 0. -1.
</event>
<event>
 5    1  0.1338396E-008  0.3739037E+03  0.7957747E-01  0.3478141E+00
         13   -1    0    0    0    0  0.00000000000E+00  0.00000000000E+00  0.14999999963E+04  0.15000000000E+04  0.10566000000E+00 0. -1.
        994   -1    0    0    0    0 -0.00000000000E+00 -0.00000000000E+00  0.11368683772E-12  0.17120000000E+03  0.17120000000E+03 0.  0.
         13    1    1    2    0    0  0.12704467323E+02 -0.24394539795E+02  0.48035271647E+02  0.55352466503E+02  0.10566000000E+00 0. -1.
        994    1    1    2    0    0 -0.19338958999E+02  0.20770993025E+02  0.99956807946E+01  0.17382400042E+03  0.17120000000E+03 0.  0.
        998    1    1    2    0    0  0.66344916753E+01  0.36235467694E+01  0.14419690438E+04  0.14420235331E+04  0.10000000000E+02 0. -1.
</event>
<event>
 5    1  0.1338396E-008  0.3842519E+03  0.7957747E-01  0.3432851E+00
         13   -1    0    0    0    0  0.00000000000E+00  0.00000000000E+00  0.14999999963E+04  0.15000000000E+04  0.10566000000E+00 0. -1.
        994   -1    0    0    0    0 -0.00000000000E+00 -0.00000000000E+00  0.11368683772E-12  0.17120000000E+03  0.17120000000E+03 0.  0.
         13    1    1    2    0    0  0.80106940014E+01 -0.21509351298E+02  0.11586693105E+03  0.11811850104E+03  0.10566000000E+00 0. -1.
        994    1    1    2    0    0 -0.14407870030E+02  0.27443812290E+02  0.51757020630E+01  0.17406026957E+03  0.17120000000E+03 0.  0.
        998    1    1    2    0    0  0.63971760283E+01 -0.59344609928E+01  0.13789573632E+04  0.13790212294E+04  0.10000000000E+02 0. -1.
</event>
<event>
 5    1  0.1338396E-008  0.3831934E+03  0.7957747E-01  0.3437371E+00
         13   -1    0    0    0    0  0.00000000000E+00  0.00000000000E+00  0.14999999963E+04  0.15000000000E+04  0.10566000000E+00 0.  1.
        994   -1    0    0    0    0 -0.00000000000E+00 -0.00000000000E+00  0.11368683772E-12  0.17120000000E+03  0.17120000000E+03 0.  0.
         13    1    1    2    0    0 -0.68032783874E+01 -0.85245791834E+01  0.22161940626E+02  0.24700522735E+02  0.10566000000E+00 0.  1.
        994    1    1    2    0    0  0.96787083194E+01  0.98772441428E+01  0.31626345065E+01  0.17178672709E+03  0.17120000000E+03 0.  0.
        998    1    1    2    0    0 -0.28754299320E+01 -0.13526649594E+01  0.14746754211E+04  0.14747127502E+04  0.10000000000E+02 0.  1.
</event>
<event>
 5    1  0.1338396E-008  0.3794934E+03  0.7957747E-01  0.3453367E+00
         13   -1    0    0    0    0  0.00000000000E+00  0.00000000000E+00  0.14999999963E+04  0.15000000000E+04  0.10566000000E+00 0.  1.
        994   -1    0    0    0    0 -0.00000000000E+00 -0.00000000000E+00  0.11368683772E-12  0.17120000000E+03  0.17120000000E+03 0.  0.
         13    1    1    2    0    0  0.14052060455E+02  0.43328380698E+02  0.22112777664E+03  0.22577048908E+03  0.10566000000E+00 0.  1.
        994    1    1    2    0    0 -0.12454865491E+02 -0.31845379164E+02  0.83142972471E+01  0.17477934485E+03  0.17120000000E+03 0.  0.
        998    1    1    2    0    0 -0.15971949642E+01 -0.11483001534E+02  0.12705579224E+04  0.12706501661E+04  0.10000000000E+02 0.  0.
</event>
<event>
 5    1  0.1338396E-008  0.3828143E+03  0.7957747E-01  0.3438995E+00
         13   -1    0    0    0    0  0.00000000000E+00  0.00000000000E+00  0.14999999963E+04  0.15000000000E+04  0.10566000000E+00 0.  1.
        994   -1    0    0    0    0 -0.00000000000E+00 -0.00000000000E+00  0.11368683772E-12  0.17120000000E+03  0.17120000000E+03 0.  0.
         13    1    1    2    0    0 -0.43792461040E+02 -0.74245880707E+02  0.22883322687E+03  0.24452993136E+03  0.10566000000E+00 0.  1.
        994    1    1    2    0    0 -0.32661732441E+02  0.50479208895E+02  0.31239407471E+02  0.18412028643E+03  0.17120000000E+03 0.  0.
        998    1    1    2    0    0  0.76454193481E+02  0.23766671813E+02  0.12399273619E+04  0.12425497822E+04  0.10000000000E+02 0.  1.
</event>
<event>
 5    1  0.1338396E-008  0.3772893E+03  0.7957747E-01  0.3463047E+00
         13   -1    0    0    0    0  0.00000000000E+00  0.00000000000E+00  0.14999999963E+04  0.15000000000E+04  0.10566000000E+00 0. -1.
        994   -1    0    0    0    0 -0.00000000000E+00 -0.00000000000E+00  0.11368683772E-12  0.17120000000E+03  0.17120000000E+03 0.  0.
         13    1    1    2    0    0  0.32769688314E+02  0.13486707544E+02  0.12945356210E+03  0.13421616764E+03  0.10566000000E+00 0. -1.
        994    1    1    2    0    0  0.91772174076E+01 -0.63659955213E+01  0.59286954606E+01  0.17166635270E+03  0.17120000000E+03 0.  0.
        998    1    1    2    0    0 -0.41946905722E+02 -0.71207120226E+01  0.13646177387E+04  0.13653174797E+04  0.10000000000E+02 0. -1.
</event>
<event>
 5    1  0.1338396E-008  0.3767113E+03  0.7957747E-01  0.3465605E+00
         13   -1    0    0    0    0  0.00000000000E+00  0.00000000000E+00  0.14999999963E+04  0.15000000000E+04  0.10566000000E+00 0. -1.
        994   -1    0    0    0    0 -0.00000000000E+00 -0.00000000000E+00  0.11368683772E-12  0.17120000000E+03  0.17120000000E+03 0.  0.
         13    1    1    2    0    0 -0.38368977944E+02  0.30395482267E+02  0.26489026255E+03  0.26937506597E+03  0.10566000000E+00 0. -1.
        994    1    1    2    0    0 -0.58659274580E+01  0.78984908657E+00  0.59209812997E+01  0.17140458275E+03  0.17120000000E+03 0.  0.
        998    1    1    2    0    0  0.44234905402E+02 -0.31185331354E+02  0.12291887524E+04  0.12304203513E+04  0.10000000000E+02 0. -1.
</event>
