<event>
 5    1  0.1607440E-008  0.3859966E+03  0.7957747E-01  0.3425456E+00
         13   -1    0    0    0    0  0.00000000000E+00  0.00000000000E+00  0.14999999963E+04  0.15000000000E+04  0.10566000000E+00 0. -1.
        994   -1    0    0    0    0 -0.00000000000E+00 -0.00000000000E+00  0.11368683772E-12  0.17120000000E+03  0.17120000000E+03 0.  0.
         13    1    1    2    0    0  0.83366455960E+01 -0.81295665775E+01  0.59167036994E+02  0.60302064170E+02  0.10566000000E+00 0. -1.
        994    1    1    2    0    0 -0.10328491846E+02  0.46285023546E+01  0.15561743472E+01  0.17158077531E+03  0.17120000000E+03 0.  0.
        998    1    1    2    0    0  0.19918462496E+01  0.35010642229E+01  0.14392767849E+04  0.14393171605E+04  0.10000000000E+02 0. -1.
</event>
<event>
 5    1  0.1607440E-008  0.3831059E+03  0.7957747E-01  0.3437745E+00
         13   -1    0    0    0    0  0.00000000000E+00  0.00000000000E+00  0.14999999963E+04  0.15000000000E+04  0.10566000000E+00 0.  1.
        994   -1    0    0    0    0 -0.00000000000E+00 -0.00000000000E+00  0.11368683772E-12  0.17120000000E+03  0.17120000000E+03 0.  0.
         13    1    1    2    0    0  0.45913006737E+01  0.12415975821E+02  0.33757547194E+02  0.36260442000E+02  0.10566000000E+00 0.  1.
        994    1    1    2    0    0  0.33577918605E+01 -0.63034372567E+01  0.27422566367E+01  0.17137084950E+03  0.17120000000E+03 0.  0.
        998    1    1    2    0    0 -0.79490925342E+01 -0.61125385643E+01  0.14635001924E+04  0.14635687085E+04  0.10000000000E+02 0.  1.
</event>
<event>
 5    1  0.2093485E-008  0.3848852E+03  0.7957747E-01  0.3430159E+00
         13   -1    0    0    0    0  0.00000000000E+00  0.00000000000E+00  0.14999999963E+04  0.15000000000E+04  0.10566000000E+00 0.  1.
        994   -1    0    0    0    0 -0.00000000000E+00 -0.00000000000E+00  0.11368683772E-12  0.17120000000E+03  0.17120000000E+03 0.  0.
         13    1    1    2    0    0 -0.82466882462E+01 -0.81526228661E+01  0.39173482017E+02  0.40853959221E+02  0.10566000000E+00 0.  1.
        994    1    1    2    0    0  0.72074653470E+01  0.74917346181E+01  0.20427777706E+01  0.17152750970E+03  0.17120000000E+03 0.  0.
        998    1    1    2    0    0  0.10392228993E+01  0.66088824795E+00  0.14587837365E+04  0.14588185311E+04  0.10000000000E+02 0.  0.
</event>
<event>
 5    1  0.1607440E-008  0.3857995E+03  0.7957747E-01  0.3426289E+00
         13   -1    0    0    0    0  0.00000000000E+00  0.00000000000E+00  0.14999999963E+04  0.15000000000E+04  0.10566000000E+00 0.  1.
        994   -1    0    0    0    0 -0.00000000000E+00 -0.00000000000E+00  0.11368683772E-12  0.17120000000E+03  0.17120000000E+03 0.  0.
         13    1    1    2    0    0  0.12564843440E+02 -0.25820951801E+01  0.66771012327E+02  0.67992071283E+02  0.10566000000E+00 0.  1.
        994    1    1    2    0    0 -0.10980179090E+02 -0.56599405526E+01  0.17344467372E+01  0.17165385975E+03  0.17120000000E+03 0.  0.
        998    1    1    2    0    0 -0.15846643503E+01  0.82420357327E+01  0.14314945372E+04  0.14315540690E+04  0.10000000000E+02 0.  1.
</event>
<event>
 5    1  0.1607440E-008  0.3837176E+03  0.7957747E-01  0.3435129E+00
         13   -1    0    0    0    0  0.00000000000E+00  0.00000000000E+00  0.14999999963E+04  0.15000000000E+04  0.10566000000E+00 0.  1.
        994   -1    0    0    0    0 -0.00000000000E+00 -0.00000000000E+00  0.11368683772E-12  0.17120000000E+03  0.17120000000E+03 0.  0.
         13    1    1    2    0    0  0.26909751149E+02 -0.57938359550E+01  0.15721424751E+03  0.15960587090E+03  0.10566000000E+00 0.  1.
        994    1    1    2    0    0 -0.16721919058E+02  0.53928950454E+02  0.12868027775E+02  0.18072902482E+03  0.17120000000E+03 0.  0.
        998    1    1    2    0    0 -0.10187832091E+02 -0.48135114499E+02  0.13299177210E+04  0.13308651043E+04  0.10000000000E+02 0.  1.
</event>
<event>
 5    1  0.1607440E-008  0.2006499E+03  0.7957747E-01  0.5027481E+00
         13   -1    0    0    0    0  0.00000000000E+00  0.00000000000E+00  0.14999999963E+04  0.15000000000E+04  0.10566000000E+00 0. -1.
        994   -1    0    0    0    0 -0.00000000000E+00 -0.00000000000E+00  0.11368683772E-12  0.17120000000E+03  0.17120000000E+03 0.  0.
         13    1    1    2    0    0 -0.98524123663E+02  0.66211636999E+02  0.77402447156E+02  0.14171144558E+03  0.10566000000E+00 0. -1.
        994    1    1    2    0    0  0.96966536925E+02 -0.81911918585E+02  0.15936488572E+03  0.26611779063E+03  0.17120000000E+03 0.  0.
        998    1    1    2    0    0  0.15575867382E+01  0.15700281586E+02  0.12632326634E+04  0.12633707638E+04  0.10000000000E+02 0. -1.
</event>
<event>
 5    1  0.1607440E-008  0.3847268E+03  0.7957747E-01  0.3430832E+00
         13   -1    0    0    0    0  0.00000000000E+00  0.00000000000E+00  0.14999999963E+04  0.15000000000E+04  0.10566000000E+00 0.  1.
        994   -1    0    0    0    0 -0.00000000000E+00 -0.00000000000E+00  0.11368683772E-12  0.17120000000E+03  0.17120000000E+03 0.  0.
         13    1    1    2    0    0  0.11513302041E+02 -0.33566150287E+01  0.40804616065E+02  0.42530587165E+02  0.10566000000E+00 0.  1.
        994    1    1    2    0    0 -0.81240372673E+01 -0.46757913003E+01  0.20550937349E+01  0.17146873306E+03  0.17120000000E+03 0.  0.
        998    1    1    2    0    0 -0.33892647740E+01  0.80324063290E+01  0.14571402865E+04  0.14572006798E+04  0.10000000000E+02 0.  1.
</event>
<event>
 5    1  0.1607440E-008  0.3822114E+03  0.7957747E-01  0.3441586E+00
         13   -1    0    0    0    0  0.00000000000E+00  0.00000000000E+00  0.14999999963E+04  0.15000000000E+04  0.10566000000E+00 0. -1.
        994   -1    0    0    0    0 -0.00000000000E+00 -0.00000000000E+00  0.11368683772E-12  0.17120000000E+03  0.17120000000E+03 0.  0.
         13    1    1    2    0    0  0.12212984923E+02 -0.58771274647E+00  0.23523466187E+02  0.26511639566E+02  0.10566000000E+00 0. -1.
        994    1    1    2    0    0 -0.91278840014E+01  0.68889936920E+01  0.34551209484E+01  0.17161629981E+03  0.17120000000E+03 0.  0.
        998    1    1    2    0    0 -0.30851009219E+01 -0.63012809455E+01  0.14730214091E+04  0.14730720606E+04  0.10000000000E+02 0. -1.
</event>
<event>
 5    1  0.1607440E-008  0.3857127E+03  0.7957747E-01  0.3426655E+00
         13   -1    0    0    0    0  0.00000000000E+00  0.00000000000E+00  0.14999999963E+04  0.15000000000E+04  0.10566000000E+00 0.  1.
        994   -1    0    0    0    0 -0.00000000000E+00 -0.00000000000E+00  0.11368683772E-12  0.17120000000E+03  0.17120000000E+03 0.  0.
         13    1    1    2    0    0 -0.35656859558E+01 -0.11044907449E+02  0.58500058956E+02  0.59640356796E+02  0.10566000000E+00 0.  1.
        994    1    1    2    0    0 -0.12173471170E+01 -0.60930815814E+01  0.14033926578E+01  0.17131846686E+03  0.17120000000E+03 0.  0.
        998    1    1    2    0    0  0.47830330728E+01  0.17137989030E+02  0.14400965447E+04  0.14402411763E+04  0.10000000000E+02 0.  1.
</event>
<event>
 5    1  0.1607440E-008  0.3760130E+03  0.7957747E-01  0.3468705E+00
         13   -1    0    0    0    0  0.00000000000E+00  0.00000000000E+00  0.14999999963E+04  0.15000000000E+04  0.10566000000E+00 0. -1.
        994   -1    0    0    0    0 -0.00000000000E+00 -0.00000000000E+00  0.11368683772E-12  0.17120000000E+03  0.17120000000E+03 0.  0.
         13    1    1    2    0    0  0.45800546828E+02  0.12804607524E+01  0.66413047551E+02  0.80684779968E+02  0.10566000000E+00 0. -1.
        994    1    1    2    0    0 -0.44798753927E+02 -0.80004385388E-01  0.21356329977E+02  0.17824833122E+03  0.17120000000E+03 0.  0.
        998    1    1    2    0    0 -0.10017929004E+01 -0.12004563670E+01  0.14122306188E+04  0.14122668888E+04  0.10000000000E+02 0. -1.
</event>
<event>
 5    1  0.1607440E-008  0.3835985E+03  0.7957747E-01  0.3435638E+00
         13   -1    0    0    0    0  0.00000000000E+00  0.00000000000E+00  0.14999999963E+04  0.15000000000E+04  0.10566000000E+00 0.  1.
        994   -1    0    0    0    0 -0.00000000000E+00 -0.00000000000E+00  0.11368683772E-12  0.17120000000E+03  0.17120000000E+03 0.  0.
         13    1    1    2    0    0  0.17350831787E+01  0.15365449539E+02  0.50504260366E+02  0.52818548185E+02  0.10566000000E+00 0.  1.
        994    1    1    2    0    0 -0.25193074198E+01 -0.11075912086E+02  0.27539203416E+01  0.17159850470E+03  0.17120000000E+03 0.  0.
        998    1    1    2    0    0  0.78422424106E+00 -0.42895374521E+01  0.14467418156E+04  0.14467829471E+04  0.10000000000E+02 0.  1.
</event>
<event>
 5    1  0.1607440E-008  0.3794290E+03  0.7957747E-01  0.3453649E+00
         13   -1    0    0    0    0  0.00000000000E+00  0.00000000000E+00  0.14999999963E+04  0.15000000000E+04  0.10566000000E+00 0.  1.
        994   -1    0    0    0    0 -0.00000000000E+00 -0.00000000000E+00  0.11368683772E-12  0.17120000000E+03  0.17120000000E+03 0.  0.
         13    1    1    2    0    0  0.30109952637E+02  0.45964888260E+02  0.88633045458E+02  0.10428426589E+03  0.10566000000E+00 0.  1.
        994    1    1    2    0    0 -0.19694025501E+02 -0.32140560507E+02  0.21169112704E+02  0.17657418159E+03  0.17120000000E+03 0.  0.
        998    1    1    2    0    0 -0.10415927135E+02 -0.13824327752E+02  0.13901978381E+04  0.13903415525E+04  0.10000000000E+02 0.  1.
</event>
<event>
 5    1  0.1607440E-008  0.3801751E+03  0.7957747E-01  0.3450396E+00
         13   -1    0    0    0    0  0.00000000000E+00  0.00000000000E+00  0.14999999963E+04  0.15000000000E+04  0.10566000000E+00 0.  1.
        994   -1    0    0    0    0 -0.00000000000E+00 -0.00000000000E+00  0.11368683772E-12  0.17120000000E+03  0.17120000000E+03 0.  0.
         13    1    1    2    0    0  0.17959008616E+02  0.48821693774E+01  0.42551747357E+02  0.46443771762E+02  0.10566000000E+00 0.  1.
        994    1    1    2    0    0 -0.95773496643E+00 -0.11008536637E+02  0.44528278577E+01  0.17161402277E+03  0.17120000000E+03 0.  0.
        998    1    1    2    0    0 -0.17001273650E+02  0.61263672593E+01  0.14529954211E+04  0.14531422055E+04  0.10000000000E+02 0.  1.
</event>
<event>
 5    1  0.1607440E-008  0.3704337E+03  0.7957747E-01  0.3493900E+00
         13   -1    0    0    0    0  0.00000000000E+00  0.00000000000E+00  0.14999999963E+04  0.15000000000E+04  0.10566000000E+00 0. -1.
        994   -1    0    0    0    0 -0.00000000000E+00 -0.00000000000E+00  0.11368683772E-12  0.17120000000E+03  0.17120000000E+03 0.  0.
         13    1    1    2    0    0 -0.27483371901E+02  0.53611521574E+02  0.18476202256E+03  0.19433617039E+03  0.10566000000E+00 0. -1.
        994    1    1    2    0    0  0.27996491267E+02 -0.40830725430E+02  0.17552454426E+02  0.17907674422E+03  0.17120000000E+03 0.  0.
        998    1    1    2    0    0 -0.51311936637E+00 -0.12780796144E+02  0.12976855193E+04  0.12977870854E+04  0.10000000000E+02 0. -1.
</event>
<event>
 5    1  0.1607440E-008  0.3740791E+03  0.7957747E-01  0.3477352E+00
         13   -1    0    0    0    0  0.00000000000E+00  0.00000000000E+00  0.14999999963E+04  0.15000000000E+04  0.10566000000E+00 0. -1.
        994   -1    0    0    0    0 -0.00000000000E+00 -0.00000000000E+00  0.11368683772E-12  0.17120000000E+03  0.17120000000E+03 0.  0.
         13    1    1    2    0    0 -0.78187957216E+02  0.49943477401E+02  0.47918478174E+03  0.48808377744E+03  0.10566000000E+00 0. -1.
        994    1    1    2    0    0  0.77935723398E+02 -0.22334466947E+02  0.29906368003E+02  0.19177235526E+03  0.17120000000E+03 0.  0.
        998    1    1    2    0    0  0.25223381870E+00 -0.27609010454E+02  0.99090884654E+03  0.99134386729E+03  0.10000000000E+02 0. -1.
</event>
<event>
 5    1  0.1607440E-008  0.3841448E+03  0.7957747E-01  0.3433307E+00
         13   -1    0    0    0    0  0.00000000000E+00  0.00000000000E+00  0.14999999963E+04  0.15000000000E+04  0.10566000000E+00 0.  1.
        994   -1    0    0    0    0 -0.00000000000E+00 -0.00000000000E+00  0.11368683772E-12  0.17120000000E+03  0.17120000000E+03 0.  0.
         13    1    1    2    0    0  0.18582076134E+02  0.15543455089E+02  0.14006609201E+03  0.14214574860E+03  0.10566000000E+00 0.  1.
        994    1    1    2    0    0 -0.12485870055E+02 -0.11113299241E+02  0.29772640873E+01  0.17203983978E+03  0.17120000000E+03 0.  0.
        998    1    1    2    0    0 -0.60962060790E+01 -0.44301558479E+01  0.13569566402E+04  0.13570144116E+04  0.10000000000E+02 0.  1.
</event>
<event>
 5    1  0.1607440E-008  0.3820503E+03  0.7957747E-01  0.3442279E+00
         13   -1    0    0    0    0  0.00000000000E+00  0.00000000000E+00  0.14999999963E+04  0.15000000000E+04  0.10566000000E+00 0.  1.
        994   -1    0    0    0    0 -0.00000000000E+00 -0.00000000000E+00  0.11368683772E-12  0.17120000000E+03  0.17120000000E+03 0.  0.
         13    1    1    2    0    0  0.13430828999E+02 -0.35679622257E+01  0.35718971764E+02  0.38327191783E+02  0.10566000000E+00 0.  1.
        994    1    1    2    0    0  0.40545395015E+02  0.51274426332E+01  0.86674688682E+01  0.17622367815E+03  0.17120000000E+03 0.  0.
        998    1    1    2    0    0 -0.53976224014E+02 -0.15594804075E+01  0.14556135556E+04  0.14566491301E+04  0.10000000000E+02 0.  1.
</event>
<event>
 5    1  0.1607440E-008  0.3729299E+03  0.7957747E-01  0.3482533E+00
         13   -1    0    0    0    0  0.00000000000E+00  0.00000000000E+00  0.14999999963E+04  0.15000000000E+04  0.10566000000E+00 0. -1.
        994   -1    0    0    0    0 -0.00000000000E+00 -0.00000000000E+00  0.11368683772E-12  0.17120000000E+03  0.17120000000E+03 0.  0.
         13    1    1    2    0    0  0.20215259221E+02  0.24550275767E+01  0.11172471218E+02  0.23227551376E+02  0.10566000000E+00 0. -1.
        994    1    1    2    0    0 -0.13587086712E+02  0.12383190414E+01  0.13154270402E+02  0.17224580456E+03  0.17120000000E+03 0.  0.
        998    1    1    2    0    0 -0.66281725094E+01 -0.36933466181E+01  0.14756732547E+04  0.14757266441E+04  0.10000000000E+02 0. -1.
</event>
<event>
 5    1  0.1607440E-008  0.3807819E+03  0.7957747E-01  0.3447761E+00
         13   -1    0    0    0    0  0.00000000000E+00  0.00000000000E+00  0.14999999963E+04  0.15000000000E+04  0.10566000000E+00 0.  1.
        994   -1    0    0    0    0 -0.00000000000E+00 -0.00000000000E+00  0.11368683772E-12  0.17120000000E+03  0.17120000000E+03 0.  0.
         13    1    1    2    0    0 -0.24290821800E+02  0.16613192048E+02  0.11058117823E+03  0.11443011105E+03  0.10566000000E+00 0.  1.
        994    1    1    2    0    0  0.13298917685E+02 -0.23348550358E+02  0.61501012974E+01  0.17340495887E+03  0.17120000000E+03 0.  0.
        998    1    1    2    0    0  0.10991904115E+02  0.67353583096E+01  0.13832687168E+04  0.13833649301E+04  0.10000000000E+02 0.  1.
</event>
<event>
 5    1  0.1607440E-008  0.3839355E+03  0.7957747E-01  0.3434199E+00
         13   -1    0    0    0    0  0.00000000000E+00  0.00000000000E+00  0.14999999963E+04  0.15000000000E+04  0.10566000000E+00 0.  1.
        994   -1    0    0    0    0 -0.00000000000E+00 -0.00000000000E+00  0.11368683772E-12  0.17120000000E+03  0.17120000000E+03 0.  0.
         13    1    1    2    0    0 -0.15123745007E+02 -0.11536658427E+01  0.54192874694E+02  0.56275549215E+02  0.10566000000E+00 0.  1.
        994    1    1    2    0    0  0.47067180239E+01  0.24579122863E+01  0.22526167545E+01  0.17129713602E+03  0.17120000000E+03 0.  0.
        998    1    1    2    0    0  0.10417026983E+02 -0.13042464436E+01  0.14435545048E+04  0.14436273148E+04  0.10000000000E+02 0.  1.
</event>
<event>
 5    1  0.1607440E-008  0.3813961E+03  0.7957747E-01  0.3445102E+00
         13   -1    0    0    0    0  0.00000000000E+00  0.00000000000E+00  0.14999999963E+04  0.15000000000E+04  0.10566000000E+00 0.  1.
        994   -1    0    0    0    0 -0.00000000000E+00 -0.00000000000E+00  0.11368683772E-12  0.17120000000E+03  0.17120000000E+03 0.  0.
         13    1    1    2    0    0  0.23122545944E+02 -0.18866193084E-02  0.79055932064E+02  0.82368098758E+02  0.10566000000E+00 0.  1.
        994    1    1    2    0    0 -0.86617790475E+01  0.28581785172E+01  0.37069692423E+01  0.17148287734E+03  0.17120000000E+03 0.  0.
        998    1    1    2    0    0 -0.14460766897E+02 -0.28562918979E+01  0.14172370950E+04  0.14173490239E+04  0.10000000000E+02 0.  1.
</event>
<event>
 5    1  0.1607440E-008  0.3764710E+03  0.7957747E-01  0.3466670E+00
         13   -1    0    0    0    0  0.00000000000E+00  0.00000000000E+00  0.14999999963E+04  0.15000000000E+04  0.10566000000E+00 0. -1.
        994   -1    0    0    0    0 -0.00000000000E+00 -0.00000000000E+00  0.11368683772E-12  0.17120000000E+03  0.17120000000E+03 0.  0.
         13    1    1    2    0    0  0.51173025511E+02 -0.28327914520E+01  0.86770913595E+02  0.10077651441E+03  0.10566000000E+00 0. -1.
        994    1    1    2    0    0 -0.32374630260E+02 -0.58809359445E+01  0.18285023126E+02  0.17528971494E+03  0.17120000000E+03 0.  0.
        998    1    1    2    0    0 -0.18798395252E+02  0.87137273965E+01  0.13949440596E+04  0.13951337706E+04  0.10000000000E+02 0. -1.
</event>
<event>
 5    1  0.1607440E-008  0.3774743E+03  0.7957747E-01  0.3462230E+00
         13   -1    0    0    0    0  0.00000000000E+00  0.00000000000E+00  0.14999999963E+04  0.15000000000E+04  0.10566000000E+00 0. -1.
        994   -1    0    0    0    0 -0.00000000000E+00 -0.00000000000E+00  0.11368683772E-12  0.17120000000E+03  0.17120000000E+03 0.  0.
         13    1    1    2    0    0  0.49959069177E+01 -0.10852312108E+02  0.10680848986E+02  0.16025712562E+02  0.10566000000E+00 0. -1.
        994    1    1    2    0    0 -0.38227647949E+01  0.11559785214E+02  0.59134434824E+01  0.17173424521E+03  0.17120000000E+03 0.  0.
        998    1    1    2    0    0 -0.11731421228E+01 -0.70747310602E+00  0.14834057038E+04  0.14834400422E+04  0.10000000000E+02 0. -1.
</event>
<event>
 5    1  0.1607440E-008  0.3778641E+03  0.7957747E-01  0.3460512E+00
         13   -1    0    0    0    0  0.00000000000E+00  0.00000000000E+00  0.14999999963E+04  0.15000000000E+04  0.10566000000E+00 0.  1.
        994   -1    0    0    0    0 -0.00000000000E+00 -0.00000000000E+00  0.11368683772E-12  0.17120000000E+03  0.17120000000E+03 0.  0.
         13    1    1    2    0    0 -0.14572002943E+02 -0.28919789016E+02  0.10076053116E+03  0.10583663482E+03  0.10566000000E+00 0.  1.
        994    1    1    2    0    0 -0.28245273939E+01  0.18642732634E+02  0.64131122786E+01  0.17235456897E+03  0.17120000000E+03 0.  0.
        998    1    1    2    0    0  0.17396530336E+02  0.10277056382E+02  0.13928263528E+04  0.13930087962E+04  0.10000000000E+02 0.  1.
</event>
<event>
 5    1  0.1607440E-008  0.3752664E+03  0.7957747E-01  0.3472032E+00
         13   -1    0    0    0    0  0.00000000000E+00  0.00000000000E+00  0.14999999963E+04  0.15000000000E+04  0.10566000000E+00 0. -1.
        994   -1    0    0    0    0 -0.00000000000E+00 -0.00000000000E+00  0.11368683772E-12  0.17120000000E+03  0.17120000000E+03 0.  0.
         13    1    1    2    0    0 -0.12807915381E+02 -0.18041433763E+02  0.33543996431E+02  0.40183913314E+02  0.10566000000E+00 0. -1.
        994    1    1    2    0    0  0.73523401657E+01  0.28732916071E+02  0.95351575068E+01  0.17401148411E+03  0.17120000000E+03 0.  0.
        998    1    1    2    0    0  0.54555752152E+01 -0.10691482308E+02  0.14569208423E+04  0.14570046026E+04  0.10000000000E+02 0. -1.
</event>
<event>
 5    1  0.1607440E-008  0.3789705E+03  0.7957747E-01  0.3455654E+00
         13   -1    0    0    0    0  0.00000000000E+00  0.00000000000E+00  0.14999999963E+04  0.15000000000E+04  0.10566000000E+00 0.  1.
        994   -1    0    0    0    0 -0.00000000000E+00 -0.00000000000E+00  0.11368683772E-12  0.17120000000E+03  0.17120000000E+03 0.  0.
         13    1    1    2    0    0  0.34743294054E+01 -0.20772792683E+02  0.47050498059E+02  0.51549397788E+02  0.10566000000E+00 0.  1.
        994    1    1    2    0    0  0.61398476159E+01  0.77356656753E+01  0.49809851232E+01  0.17155695400E+03  0.17120000000E+03 0.  0.
        998    1    1    2    0    0 -0.96141770213E+01  0.13037127007E+02  0.14479685131E+04  0.14480936482E+04  0.10000000000E+02 0.  1.
</event>
<event>
 5    1  0.1607440E-008  0.3859266E+03  0.7957747E-01  0.3425752E+00
         13   -1    0    0    0    0  0.00000000000E+00  0.00000000000E+00  0.14999999963E+04  0.15000000000E+04  0.10566000000E+00 0. -1.
        994   -1    0    0    0    0 -0.00000000000E+00 -0.00000000000E+00  0.11368683772E-12  0.17120000000E+03  0.17120000000E+03 0.  0.
         13    1    1    2    0    0 -0.11917092717E+02  0.43540297908E+01  0.65449702003E+02  0.66668203295E+02  0.10566000000E+00 0. -1.
        994    1    1    2    0    0  0.11469816717E+02 -0.17440457933E+02  0.26007578425E+01  0.17248747841E+03  0.17120000000E+03 0.  0.
        998    1    1    2    0    0  0.44727600039E+00  0.13086428142E+02  0.14319495364E+04  0.14320443183E+04  0.10000000000E+02 0. -1.
</event>
<event>
 5    1  0.1607440E-008  0.3484668E+03  0.7957747E-01  0.3601111E+00
         13   -1    0    0    0    0  0.00000000000E+00  0.00000000000E+00  0.14999999963E+04  0.15000000000E+04  0.10566000000E+00 0. -1.
        994   -1    0    0    0    0 -0.00000000000E+00 -0.00000000000E+00  0.11368683772E-12  0.17120000000E+03  0.17120000000E+03 0.  0.
         13    1    1    2    0    0  0.30239223075E+03  0.14476383148E+02  0.57713913439E+03  0.65172096675E+03  0.10566000000E+00 0. -1.
        994    1    1    2    0    0 -0.30269848366E+03 -0.15893455659E+02  0.57988401983E+03  0.67635337686E+03  0.17120000000E+03 0.  0.
        998    1    1    2    0    0  0.30625290777E+00  0.14170725108E+01  0.34297684206E+03  0.34312565639E+03  0.10000000000E+02 0.  0.
</event>
<event>
 5    1  0.1607440E-008  0.3856901E+03  0.7957747E-01  0.3426751E+00
         13   -1    0    0    0    0  0.00000000000E+00  0.00000000000E+00  0.14999999963E+04  0.15000000000E+04  0.10566000000E+00 0. -1.
        994   -1    0    0    0    0 -0.00000000000E+00 -0.00000000000E+00  0.11368683772E-12  0.17120000000E+03  0.17120000000E+03 0.  0.
         13    1    1    2    0    0  0.12987267473E+02 -0.77608915408E+01  0.90759370526E+02  0.92011820198E+02  0.10566000000E+00 0. -1.
        994    1    1    2    0    0 -0.65667130348E+01  0.48789578348E+01  0.15075344225E+01  0.17140197960E+03  0.17120000000E+03 0.  0.
        998    1    1    2    0    0 -0.64205544379E+01  0.28819337060E+01  0.14077330913E+04  0.14077862002E+04  0.10000000000E+02 0. -1.
</event>
<event>
 5    1  0.1607440E-008  0.3774172E+03  0.7957747E-01  0.3462482E+00
         13   -1    0    0    0    0  0.00000000000E+00  0.00000000000E+00  0.14999999963E+04  0.15000000000E+04  0.10566000000E+00 0.  1.
        994   -1    0    0    0    0 -0.00000000000E+00 -0.00000000000E+00  0.11368683772E-12  0.17120000000E+03  0.17120000000E+03 0.  0.
         13    1    1    2    0    0  0.13351912416E+02  0.18664603852E+02  0.44789689741E+02  0.50326617940E+02  0.10566000000E+00 0.  1.
        994    1    1    2    0    0 -0.21581495606E+02 -0.15341680644E+02  0.78102343349E+01  0.17341155636E+03  0.17120000000E+03 0.  0.
        998    1    1    2    0    0  0.82295831906E+01 -0.33229232076E+01  0.14474000722E+04  0.14474618257E+04  0.10000000000E+02 0.  0.
</event>
<event>
 5    1  0.1607440E-008  0.3827182E+03  0.7957747E-01  0.3439407E+00
         13   -1    0    0    0    0  0.00000000000E+00  0.00000000000E+00  0.14999999963E+04  0.15000000000E+04  0.10566000000E+00 0. -1.
        994   -1    0    0    0    0 -0.00000000000E+00 -0.00000000000E+00  0.11368683772E-12  0.17120000000E+03  0.17120000000E+03 0.  0.
         13    1    1    2    0    0  0.16369880871E+01  0.15091983317E+02  0.38752888363E+02  0.41620250011E+02  0.10566000000E+00 0. -1.
        994    1    1    2    0    0  0.14766609960E+02 -0.24637722644E+02  0.55056427134E+01  0.17368022987E+03  0.17120000000E+03 0.  0.
        998    1    1    2    0    0 -0.16403598047E+02  0.95457393264E+01  0.14557414652E+04  0.14558995201E+04  0.10000000000E+02 0. -1.
</event>
<event>
 5    1  0.1607440E-008  0.3777567E+03  0.7957747E-01  0.3460985E+00
         13   -1    0    0    0    0  0.00000000000E+00  0.00000000000E+00  0.14999999963E+04  0.15000000000E+04  0.10566000000E+00 0.  1.
        994   -1    0    0    0    0 -0.00000000000E+00 -0.00000000000E+00  0.11368683772E-12  0.17120000000E+03  0.17120000000E+03 0.  0.
         13    1    1    2    0    0 -0.33950157142E+02  0.27676392533E+02  0.20395195687E+03  0.20860251137E+03  0.10566000000E+00 0.  1.
        994    1    1    2    0    0 -0.76310430474E+01 -0.21810134294E+02  0.70700805804E+01  0.17289690806E+03  0.17120000000E+03 0.  0.
        998    1    1    2    0    0  0.41581200189E+02 -0.58662582394E+01  0.12889779588E+04  0.12897005806E+04  0.10000000000E+02 0.  1.
</event>
<event>
 5    1  0.1607440E-008  0.3704685E+03  0.7957747E-01  0.3493740E+00
         13   -1    0    0    0    0  0.00000000000E+00  0.00000000000E+00  0.14999999963E+04  0.15000000000E+04  0.10566000000E+00 0. -1.
        994   -1    0    0    0    0 -0.00000000000E+00 -0.00000000000E+00  0.11368683772E-12  0.17120000000E+03  0.17120000000E+03 0.  0.
         13    1    1    2    0    0 -0.43628399411E+01  0.19455070893E+02  0.17973895519E+02  0.26844109968E+02  0.10566000000E+00 0. -1.
        994    1    1    2    0    0  0.66600875576E+01 -0.17243302466E+02  0.10204783814E+02  0.17249714739E+03  0.17120000000E+03 0.  0.
        998    1    1    2    0    0 -0.22972476165E+01 -0.22117684266E+01  0.14718213169E+04  0.14718587426E+04  0.10000000000E+02 0. -1.
</event>
<event>
 5    1  0.1607440E-008  0.3830782E+03  0.7957747E-01  0.3437864E+00
         13   -1    0    0    0    0  0.00000000000E+00  0.00000000000E+00  0.14999999963E+04  0.15000000000E+04  0.10566000000E+00 0. -1.
        994   -1    0    0    0    0 -0.00000000000E+00 -0.00000000000E+00  0.11368683772E-12  0.17120000000E+03  0.17120000000E+03 0.  0.
         13    1    1    2    0    0  0.10380164124E+02 -0.22850757221E+02  0.10412650196E+03  0.10710856403E+03  0.10566000000E+00 0. -1.
        994    1    1    2    0    0 -0.64002954714E+00  0.43096017172E+02  0.87593026139E+01  0.17675927618E+03  0.17120000000E+03 0.  0.
        998    1    1    2    0    0 -0.97401345774E+01 -0.20245259951E+02  0.13871141917E+04  0.13873321598E+04  0.10000000000E+02 0. -1.
</event>
<event>
 5    1  0.1607440E-008  0.3771625E+03  0.7957747E-01  0.3463608E+00
         13   -1    0    0    0    0  0.00000000000E+00  0.00000000000E+00  0.14999999963E+04  0.15000000000E+04  0.10566000000E+00 0.  1.
        994   -1    0    0    0    0 -0.00000000000E+00 -0.00000000000E+00  0.11368683772E-12  0.17120000000E+03  0.17120000000E+03 0.  0.
         13    1    1    2    0    0  0.21789180417E+02  0.29276476854E+02  0.11089008627E+03  0.11674117901E+03  0.10566000000E+00 0.  1.
        994    1    1    2    0    0 -0.10613554735E+02 -0.34948411550E+02  0.10087487662E+02  0.17534319611E+03  0.17120000000E+03 0.  0.
        998    1    1    2    0    0 -0.11175625682E+02  0.56719346962E+01  0.13790224223E+04  0.13791156249E+04  0.10000000000E+02 0.  1.
</event>
<event>
 5    1  0.1607440E-008  0.3818191E+03  0.7957747E-01  0.3443276E+00
         13   -1    0    0    0    0  0.00000000000E+00  0.00000000000E+00  0.14999999963E+04  0.15000000000E+04  0.10566000000E+00 0. -1.
        994   -1    0    0    0    0 -0.00000000000E+00 -0.00000000000E+00  0.11368683772E-12  0.17120000000E+03  0.17120000000E+03 0.  0.
         13    1    1    2    0    0  0.81219129939E+01 -0.17390825776E+02  0.57904544132E+02  0.61002899005E+02  0.10566000000E+00 0. -1.
        994    1    1    2    0    0 -0.12612270038E+02  0.30207353825E+00  0.37467211420E+01  0.17170509172E+03  0.17120000000E+03 0.  0.
        998    1    1    2    0    0  0.44903570439E+01  0.17088752238E+02  0.14383487310E+04  0.14384920093E+04  0.10000000000E+02 0. -1.
</event>
<event>
 5    1  0.1607440E-008  0.3861790E+03  0.7957747E-01  0.3424687E+00
         13   -1    0    0    0    0  0.00000000000E+00  0.00000000000E+00  0.14999999963E+04  0.15000000000E+04  0.10566000000E+00 0.  1.
        994   -1    0    0    0    0 -0.00000000000E+00 -0.00000000000E+00  0.11368683772E-12  0.17120000000E+03  0.17120000000E+03 0.  0.
         13    1    1    2    0    0  0.51273247837E+01  0.88652597307E+01  0.51205613099E+02  0.52219807223E+02  0.10566000000E+00 0.  1.
        994    1    1    2    0    0  0.32651039104E+01 -0.89332889764E+01  0.13423220471E+01  0.17146925784E+03  0.17120000000E+03 0.  0.
        998    1    1    2    0    0 -0.83924286941E+01  0.68029245653E-01  0.14474520611E+04  0.14475109349E+04  0.10000000000E+02 0.  1.
</event>
<event>
 5    1  0.1607440E-008  0.3853214E+03  0.7957747E-01  0.3428310E+00
         13   -1    0    0    0    0  0.00000000000E+00  0.00000000000E+00  0.14999999963E+04  0.15000000000E+04  0.10566000000E+00 0. -1.
        994   -1    0    0    0    0 -0.00000000000E+00 -0.00000000000E+00  0.11368683772E-12  0.17120000000E+03  0.17120000000E+03 0.  0.
         13    1    1    2    0    0 -0.68777922072E+01 -0.15636397264E+02  0.99863930022E+02  0.10131444432E+03  0.10566000000E+00 0. -1.
        994    1    1    2    0    0  0.93309011782E+01  0.74531074789E+01  0.19393351441E+01  0.17162696626E+03  0.17120000000E+03 0.  0.
        998    1    1    2    0    0 -0.24531089711E+01  0.81832897849E+01  0.13981967311E+04  0.13982585894E+04  0.10000000000E+02 0. -1.
</event>
<event>
 5    1  0.1607440E-008  0.3732646E+03  0.7957747E-01  0.3481021E+00
         13   -1    0    0    0    0  0.00000000000E+00  0.00000000000E+00  0.14999999963E+04  0.15000000000E+04  0.10566000000E+00 0.  1.
        994   -1    0    0    0    0 -0.00000000000E+00 -0.00000000000E+00  0.11368683772E-12  0.17120000000E+03  0.17120000000E+03 0.  0.
         13    1    1    2    0    0 -0.13565915349E+01  0.19241542876E+02  0.21518774756E+02  0.28898895202E+02  0.10566000000E+00 0.  1.
        994    1    1    2    0    0 -0.38290538244E+01 -0.10518466670E+02  0.80011601700E+01  0.17175202578E+03  0.17120000000E+03 0.  0.
        998    1    1    2    0    0  0.51856453593E+01 -0.87230762063E+01  0.14704800614E+04  0.14705490790E+04  0.10000000000E+02 0.  1.
</event>
<event>
 5    1  0.1607440E-008  0.3838194E+03  0.7957747E-01  0.3434695E+00
         13   -1    0    0    0    0  0.00000000000E+00  0.00000000000E+00  0.14999999963E+04  0.15000000000E+04  0.10566000000E+00 0. -1.
        994   -1    0    0    0    0 -0.00000000000E+00 -0.00000000000E+00  0.11368683772E-12  0.17120000000E+03  0.17120000000E+03 0.  0.
         13    1    1    2    0    0 -0.95245469622E+01  0.23466790669E+02  0.11549882795E+03  0.11824296039E+03  0.10566000000E+00 0. -1.
        994    1    1    2    0    0  0.14766465142E+02 -0.44590168767E+02  0.95354496837E+01  0.17778272257E+03  0.17120000000E+03 0.  0.
        998    1    1    2    0    0 -0.52419181795E+01  0.21123378098E+02  0.13749657186E+04  0.13751743170E+04  0.10000000000E+02 0. -1.
</event>
<event>
 5    1  0.1607440E-008  0.3775424E+03  0.7957747E-01  0.3461930E+00
         13   -1    0    0    0    0  0.00000000000E+00  0.00000000000E+00  0.14999999963E+04  0.15000000000E+04  0.10566000000E+00 0. -1.
        994   -1    0    0    0    0 -0.00000000000E+00 -0.00000000000E+00  0.11368683772E-12  0.17120000000E+03  0.17120000000E+03 0.  0.
         13    1    1    2    0    0 -0.12921221705E+02 -0.31299988460E+02  0.96622082819E+02  0.10238400901E+03  0.10566000000E+00 0. -1.
        994    1    1    2    0    0  0.11746604344E+02  0.36699622440E+02  0.10399669802E+02  0.17579089320E+03  0.17120000000E+03 0.  0.
        998    1    1    2    0    0  0.11746173616E+01 -0.53996339801E+01  0.13929782437E+04  0.13930250978E+04  0.10000000000E+02 0. -1.
</event>
<event>
 5    1  0.1607440E-008  0.3695584E+03  0.7957747E-01  0.3497923E+00
         13   -1    0    0    0    0  0.00000000000E+00  0.00000000000E+00  0.14999999963E+04  0.15000000000E+04  0.10566000000E+00 0. -1.
        994   -1    0    0    0    0 -0.00000000000E+00 -0.00000000000E+00  0.11368683772E-12  0.17120000000E+03  0.17120000000E+03 0.  0.
         13    1    1    2    0    0  0.44486923663E+01 -0.44743148184E+02  0.99313274383E+02  0.10901778665E+03  0.10566000000E+00 0. -1.
        994    1    1    2    0    0 -0.41387211727E+01  0.38007711641E+02  0.14578846766E+02  0.17602186776E+03  0.17120000000E+03 0.  0.
        998    1    1    2    0    0 -0.30997119367E+00  0.67354365433E+01  0.13861078751E+04  0.13861603456E+04  0.10000000000E+02 0. -1.
</event>
<event>
 5    1  0.2034848E-008  0.3840798E+03  0.7957747E-01  0.3433584E+00
         13   -1    0    0    0    0  0.00000000000E+00  0.00000000000E+00  0.14999999963E+04  0.15000000000E+04  0.10566000000E+00 0.  1.
        994   -1    0    0    0    0 -0.00000000000E+00 -0.00000000000E+00  0.11368683772E-12  0.17120000000E+03  0.17120000000E+03 0.  0.
         13    1    1    2    0    0 -0.89417776322E+01  0.63448911824E+01  0.27602516481E+02  0.29700557427E+02  0.10566000000E+00 0.  1.
        994    1    1    2    0    0  0.11068291673E+02 -0.71870383460E+01  0.26623684920E+01  0.17172853230E+03  0.17120000000E+03 0.  0.
        998    1    1    2    0    0 -0.21265140406E+01  0.84214716356E+00  0.14697351113E+04  0.14697709103E+04  0.10000000000E+02 0.  1.
</event>
<event>
 5    1  0.1607440E-008  0.3853715E+03  0.7957747E-01  0.3428098E+00
         13   -1    0    0    0    0  0.00000000000E+00  0.00000000000E+00  0.14999999963E+04  0.15000000000E+04  0.10566000000E+00 0.  1.
        994   -1    0    0    0    0 -0.00000000000E+00 -0.00000000000E+00  0.11368683772E-12  0.17120000000E+03  0.17120000000E+03 0.  0.
         13    1    1    2    0    0  0.11732086488E+02  0.10578861254E+02  0.84979162483E+02  0.86435081877E+02  0.10566000000E+00 0.  1.
        994    1    1    2    0    0 -0.72605037408E+01 -0.11036572274E+02  0.20192651237E+01  0.17172081491E+03  0.17120000000E+03 0.  0.
        998    1    1    2    0    0 -0.44715827467E+01  0.45771102006E+00  0.14130015687E+04  0.14130441032E+04  0.10000000000E+02 0.  1.
</event>
<event>
 5    1  0.1607440E-008  0.3831087E+03  0.7957747E-01  0.3437733E+00
         13   -1    0    0    0    0  0.00000000000E+00  0.00000000000E+00  0.14999999963E+04  0.15000000000E+04  0.10566000000E+00 0. -1.
        994   -1    0    0    0    0 -0.00000000000E+00 -0.00000000000E+00  0.11368683772E-12  0.17120000000E+03  0.17120000000E+03 0.  0.
         13    1    1    2    0    0  0.79989708183E+01 -0.84932590762E+01  0.25580440551E+02  0.28115637761E+02  0.10566000000E+00 0. -1.
        994    1    1    2    0    0 -0.39720545897E+01  0.71323635409E+01  0.27925951450E+01  0.17141728739E+03  0.17120000000E+03 0.  0.
        998    1    1    2    0    0 -0.40269162286E+01  0.13608955353E+01  0.14716269606E+04  0.14716670749E+04  0.10000000000E+02 0. -1.
</event>
<event>
 5    1  0.1607440E-008  0.3855648E+03  0.7957747E-01  0.3427280E+00
         13   -1    0    0    0    0  0.00000000000E+00  0.00000000000E+00  0.14999999963E+04  0.15000000000E+04  0.10566000000E+00 0. -1.
        994   -1    0    0    0    0 -0.00000000000E+00 -0.00000000000E+00  0.11368683772E-12  0.17120000000E+03  0.17120000000E+03 0.  0.
         13    1    1    2    0    0  0.10335935948E+02  0.57579989123E+00  0.32596038332E+02  0.34200526259E+02  0.10566000000E+00 0. -1.
        994    1    1    2    0    0 -0.49328285987E+02  0.15084227192E+02  0.10133667636E+02  0.17908920941E+03  0.17120000000E+03 0.  0.
        998    1    1    2    0    0  0.38992350039E+02 -0.15660027084E+02  0.14572702903E+04  0.14579102643E+04  0.10000000000E+02 0. -1.
</event>
<event>
 5    1  0.1607440E-008  0.3766764E+03  0.7957747E-01  0.3465759E+00
         13   -1    0    0    0    0  0.00000000000E+00  0.00000000000E+00  0.14999999963E+04  0.15000000000E+04  0.10566000000E+00 0. -1.
        994   -1    0    0    0    0 -0.00000000000E+00 -0.00000000000E+00  0.11368683772E-12  0.17120000000E+03  0.17120000000E+03 0.  0.
         13    1    1    2    0    0  0.40518201438E+02  0.27815160181E+01  0.16722487092E+03  0.17208611245E+03  0.10566000000E+00 0. -1.
        994    1    1    2    0    0  0.50872248319E+01  0.17024912961E+02  0.68882678133E+01  0.17225741131E+03  0.17120000000E+03 0.  0.
        998    1    1    2    0    0 -0.45605426270E+02 -0.19806428979E+02  0.13258868575E+04  0.13268564762E+04  0.10000000000E+02 0. -1.
</event>
<event>
 5    1  0.1607440E-008  0.3793746E+03  0.7957747E-01  0.3453886E+00
         13   -1    0    0    0    0  0.00000000000E+00  0.00000000000E+00  0.14999999963E+04  0.15000000000E+04  0.10566000000E+00 0. -1.
        994   -1    0    0    0    0 -0.00000000000E+00 -0.00000000000E+00  0.11368683772E-12  0.17120000000E+03  0.17120000000E+03 0.  0.
         13    1    1    2    0    0  0.32155981623E+02 -0.11524419996E+02  0.16970375456E+03  0.17310746629E+03  0.10566000000E+00 0. -1.
        994    1    1    2    0    0  0.10387051044E+02 -0.26373112603E+02  0.71452098978E+01  0.17367764946E+03  0.17120000000E+03 0.  0.
        998    1    1    2    0    0 -0.42543032667E+02  0.37897532600E+02  0.13231510318E+04  0.13244148842E+04  0.10000000000E+02 0. -1.
</event>
<event>
 5    1  0.1607440E-008  0.3797991E+03  0.7957747E-01  0.3452034E+00
         13   -1    0    0    0    0  0.00000000000E+00  0.00000000000E+00  0.14999999963E+04  0.15000000000E+04  0.10566000000E+00 0. -1.
        994   -1    0    0    0    0 -0.00000000000E+00 -0.00000000000E+00  0.11368683772E-12  0.17120000000E+03  0.17120000000E+03 0.  0.
         13    1    1    2    0    0  0.19361830603E+02 -0.29361281821E+02  0.17211484431E+03  0.17567155760E+03  0.10566000000E+00 0. -1.
        994    1    1    2    0    0  0.74939411512E+01 -0.40330149968E+00  0.44229960835E+01  0.17142148261E+03  0.17120000000E+03 0.  0.
        998    1    1    2    0    0 -0.26855771754E+02  0.29764583321E+02  0.13234621559E+04  0.13241069598E+04  0.10000000000E+02 0. -1.
</event>
<event>
 5    1  0.1607440E-008  0.3704638E+03  0.7957747E-01  0.3493762E+00
         13   -1    0    0    0    0  0.00000000000E+00  0.00000000000E+00  0.14999999963E+04  0.15000000000E+04  0.10566000000E+00 0.  1.
        994   -1    0    0    0    0 -0.00000000000E+00 -0.00000000000E+00  0.11368683772E-12  0.17120000000E+03  0.17120000000E+03 0.  0.
         13    1    1    2    0    0  0.12866545385E+02 -0.78907967661E+02  0.28083056377E+03  0.29198943827E+03  0.10566000000E+00 0.  1.
        994    1    1    2    0    0 -0.13607612847E+02  0.80825810278E+02  0.32589040779E+02  0.19258625162E+03  0.17120000000E+03 0.  0.
        998    1    1    2    0    0  0.74106746211E+00 -0.19178426164E+01  0.11865803917E+04  0.11866243101E+04  0.10000000000E+02 0.  1.
</event>
<event>
 5    1  0.1607440E-008  0.3851516E+03  0.7957747E-01  0.3429029E+00
         13   -1    0    0    0    0  0.00000000000E+00  0.00000000000E+00  0.14999999963E+04  0.15000000000E+04  0.10566000000E+00 0. -1.
        994   -1    0    0    0    0 -0.00000000000E+00 -0.00000000000E+00  0.11368683772E-12  0.17120000000E+03  0.17120000000E+03 0.  0.
         13    1    1    2    0    0  0.46095719860E+01 -0.90549727730E+01  0.33093160639E+02  0.34618046319E+02  0.10566000000E+00 0. -1.
        994    1    1    2    0    0 -0.42679275468E+01  0.53710498930E+01  0.17096029123E+01  0.17134592532E+03  0.17120000000E+03 0.  0.
        998    1    1    2    0    0 -0.34164443924E+00  0.36839228800E+01  0.14651972327E+04  0.14652360284E+04  0.10000000000E+02 0. -1.
</event>
<event>
 5    1  0.1607440E-008  0.3847654E+03  0.7957747E-01  0.3430668E+00
         13   -1    0    0    0    0  0.00000000000E+00  0.00000000000E+00  0.14999999963E+04  0.15000000000E+04  0.10566000000E+00 0.  1.
        994   -1    0    0    0    0 -0.00000000000E+00 -0.00000000000E+00  0.11368683772E-12  0.17120000000E+03  0.17120000000E+03 0.  0.
         13    1    1    2    0    0  0.13351419360E+01  0.10026765416E+02  0.29266190277E+02  0.30965136623E+02  0.10566000000E+00 0.  1.
        994    1    1    2    0    0  0.22364024039E+01 -0.47152789061E+01  0.18362932894E+01  0.17128936722E+03  0.17120000000E+03 0.  0.
        998    1    1    2    0    0 -0.35715443399E+01 -0.53114865096E+01  0.14688975127E+04  0.14689454962E+04  0.10000000000E+02 0.  1.
</event>
<event>
 5    1  0.1607440E-008  0.3775296E+03  0.7957747E-01  0.3461986E+00
         13   -1    0    0    0    0  0.00000000000E+00  0.00000000000E+00  0.14999999963E+04  0.15000000000E+04  0.10566000000E+00 0. -1.
        994   -1    0    0    0    0 -0.00000000000E+00 -0.00000000000E+00  0.11368683772E-12  0.17120000000E+03  0.17120000000E+03 0.  0.
         13    1    1    2    0    0 -0.17609307167E+02 -0.30941771610E+01  0.28896350759E+02  0.33980463246E+02  0.10566000000E+00 0. -1.
        994    1    1    2    0    0 -0.66003750509E+01  0.26755287520E+01  0.55563716157E+01  0.17143814240E+03  0.17120000000E+03 0.  0.
        998    1    1    2    0    0  0.24209682217E+02  0.41864840899E+00  0.14655472739E+04  0.14657813944E+04  0.10000000000E+02 0. -1.
</event>
<event>
 5    1  0.1607440E-008  0.4042630E+03  0.7957747E-01  0.3351870E+00
         13   -1    0    0    0    0  0.00000000000E+00  0.00000000000E+00  0.14999999963E+04  0.15000000000E+04  0.10566000000E+00 0. -1.
        994   -1    0    0    0    0 -0.00000000000E+00 -0.00000000000E+00  0.11368683772E-12  0.17120000000E+03  0.17120000000E+03 0.  0.
         13    1    1    2    0    0  0.13127338293E+03  0.38458977089E+02  0.22257107121E+03  0.26124641029E+03  0.10566000000E+00 0. -1.
        994    1    1    2    0    0 -0.14869220092E+03 -0.57576203761E+02  0.14093946754E+03  0.27312591119E+03  0.17120000000E+03 0.  0.
        998    1    1    2    0    0  0.17418817988E+02  0.19117226673E+02  0.11364894575E+04  0.11368276785E+04  0.10000000000E+02 0. -1.
</event>
<event>
 5    1  0.1607440E-008  0.3849110E+03  0.7957747E-01  0.3430050E+00
         13   -1    0    0    0    0  0.00000000000E+00  0.00000000000E+00  0.14999999963E+04  0.15000000000E+04  0.10566000000E+00 0. -1.
        994   -1    0    0    0    0 -0.00000000000E+00 -0.00000000000E+00  0.11368683772E-12  0.17120000000E+03  0.17120000000E+03 0.  0.
         13    1    1    2    0    0 -0.99045592372E+01  0.72323613670E+01  0.45392324636E+02  0.47020013234E+02  0.10566000000E+00 0. -1.
        994    1    1    2    0    0  0.76521643774E+01  0.81354683560E+00  0.18691828291E+01  0.17138305436E+03  0.17120000000E+03 0.  0.
        998    1    1    2    0    0  0.22523948598E+01 -0.80459082026E+01  0.14527384888E+04  0.14527969324E+04  0.10000000000E+02 0. -1.
</event>
<event>
 5    1  0.1607440E-008  0.3798339E+03  0.7957747E-01  0.3451882E+00
         13   -1    0    0    0    0  0.00000000000E+00  0.00000000000E+00  0.14999999963E+04  0.15000000000E+04  0.10566000000E+00 0. -1.
        994   -1    0    0    0    0 -0.00000000000E+00 -0.00000000000E+00  0.11368683772E-12  0.17120000000E+03  0.17120000000E+03 0.  0.
         13    1    1    2    0    0 -0.88585000024E+01 -0.48257636239E+02  0.26085338597E+03  0.26542752799E+03  0.10566000000E+00 0. -1.
        994    1    1    2    0    0  0.52353223071E+01  0.37768587799E+02  0.90952440701E+01  0.17563040252E+03  0.17120000000E+03 0.  0.
        998    1    1    2    0    0  0.36231776953E+01  0.10489048440E+02  0.12300513662E+04  0.12301420695E+04  0.10000000000E+02 0. -1.
</event>
<event>
 5    1  0.1607440E-008  0.3842764E+03  0.7957747E-01  0.3432747E+00
         13   -1    0    0    0    0  0.00000000000E+00  0.00000000000E+00  0.14999999963E+04  0.15000000000E+04  0.10566000000E+00 0.  1.
        994   -1    0    0    0    0 -0.00000000000E+00 -0.00000000000E+00  0.11368683772E-12  0.17120000000E+03  0.17120000000E+03 0.  0.
         13    1    1    2    0    0  0.58554058095E+01  0.22766181533E+02  0.13438780566E+03  0.13642828985E+03  0.10566000000E+00 0.  1.
        994    1    1    2    0    0 -0.29270764438E+01 -0.17874492802E+02  0.30719780319E+01  0.17218287464E+03  0.17120000000E+03 0.  0.
        998    1    1    2    0    0 -0.29283293657E+01 -0.48916887310E+01  0.13625402126E+04  0.13625888355E+04  0.10000000000E+02 0.  1.
</event>
<event>
 5    1  0.1607440E-008  0.3850173E+03  0.7957747E-01  0.3429599E+00
         13   -1    0    0    0    0  0.00000000000E+00  0.00000000000E+00  0.14999999963E+04  0.15000000000E+04  0.10566000000E+00 0. -1.
        994   -1    0    0    0    0 -0.00000000000E+00 -0.00000000000E+00  0.11368683772E-12  0.17120000000E+03  0.17120000000E+03 0.  0.
         13    1    1    2    0    0 -0.70933523923E+01 -0.81545871837E+01  0.35156962824E+02  0.36780920860E+02  0.10566000000E+00 0. -1.
        994    1    1    2    0    0  0.10518128765E+02  0.60854650919E+01  0.21072645714E+01  0.17164365553E+03  0.17120000000E+03 0.  0.
        998    1    1    2    0    0 -0.34247763726E+01  0.20691220919E+01  0.14627357689E+04  0.14627754236E+04  0.10000000000E+02 0. -1.
</event>
<event>
 5    1  0.1621916E-008  0.3860241E+03  0.7957747E-01  0.3425341E+00
         13   -1    0    0    0    0  0.00000000000E+00  0.00000000000E+00  0.14999999963E+04  0.15000000000E+04  0.10566000000E+00 0. -1.
        994   -1    0    0    0    0 -0.00000000000E+00 -0.00000000000E+00  0.11368683772E-12  0.17120000000E+03  0.17120000000E+03 0.  0.
         13    1    1    2    0    0  0.96693217164E+01 -0.57525622230E+01  0.56886572659E+02  0.57988628778E+02  0.10566000000E+00 0. -1.
        994    1    1    2    0    0 -0.69496476308E+01  0.39748046886E+01  0.13326695351E+01  0.17139227720E+03  0.17120000000E+03 0.  0.
        998    1    1    2    0    0 -0.27196740856E+01  0.17777575344E+01  0.14417807541E+04  0.14418190940E+04  0.10000000000E+02 0. -1.
</event>
<event>
 5    1  0.1607440E-008  0.3701339E+03  0.7957747E-01  0.3495276E+00
         13   -1    0    0    0    0  0.00000000000E+00  0.00000000000E+00  0.14999999963E+04  0.15000000000E+04  0.10566000000E+00 0.  1.
        994   -1    0    0    0    0 -0.00000000000E+00 -0.00000000000E+00  0.11368683772E-12  0.17120000000E+03  0.17120000000E+03 0.  0.
         13    1    1    2    0    0 -0.21978242160E+02  0.56611010322E+01  0.23639244693E+02  0.32770661376E+02  0.10566000000E+00 0.  1.
        994    1    1    2    0    0  0.24079696810E+02 -0.51574476200E+01  0.11297774493E+02  0.17333064003E+03  0.17120000000E+03 0.  0.
        998    1    1    2    0    0 -0.21014546502E+01 -0.50365341220E+00  0.14650629771E+04  0.14650986986E+04  0.10000000000E+02 0.  1.
</event>
<event>
 5    1  0.1607440E-008  0.3694681E+03  0.7957747E-01  0.3498339E+00
         13   -1    0    0    0    0  0.00000000000E+00  0.00000000000E+00  0.14999999963E+04  0.15000000000E+04  0.10566000000E+00 0. -1.
        994   -1    0    0    0    0 -0.00000000000E+00 -0.00000000000E+00  0.11368683772E-12  0.17120000000E+03  0.17120000000E+03 0.  0.
         13    1    1    2    0    0  0.37152081713E+02  0.56615965651E+02  0.32924586831E+03  0.33613761721E+03  0.10566000000E+00 0. -1.
        994    1    1    2    0    0 -0.25235770014E+02  0.22322967117E+02  0.13489696006E+02  0.17500448808E+03  0.17120000000E+03 0.  0.
        998    1    1    2    0    0 -0.11916311699E+02 -0.78938932767E+02  0.11572644320E+04  0.11600578947E+04  0.10000000000E+02 0. -1.
</event>
<event>
 5    1  0.1607440E-008  0.3837712E+03  0.7957747E-01  0.3434900E+00
         13   -1    0    0    0    0  0.00000000000E+00  0.00000000000E+00  0.14999999963E+04  0.15000000000E+04  0.10566000000E+00 0. -1.
        994   -1    0    0    0    0 -0.00000000000E+00 -0.00000000000E+00  0.11368683772E-12  0.17120000000E+03  0.17120000000E+03 0.  0.
         13    1    1    2    0    0 -0.56652978800E+01 -0.20096450916E+02  0.86735412228E+02  0.89213260437E+02  0.10566000000E+00 0. -1.
        994    1    1    2    0    0  0.12024808118E+01  0.31729021055E+02  0.55773489799E+01  0.17420885040E+03  0.17120000000E+03 0.  0.
        998    1    1    2    0    0  0.44628170682E+01 -0.11632570139E+02  0.14076872351E+04  0.14077778892E+04  0.10000000000E+02 0. -1.
</event>
<event>
 5    1  0.1607440E-008  0.3819463E+03  0.7957747E-01  0.3442727E+00
         13   -1    0    0    0    0  0.00000000000E+00  0.00000000000E+00  0.14999999963E+04  0.15000000000E+04  0.10566000000E+00 0. -1.
        994   -1    0    0    0    0 -0.00000000000E+00 -0.00000000000E+00  0.11368683772E-12  0.17120000000E+03  0.17120000000E+03 0.  0.
         13    1    1    2    0    0  0.12414296060E+02 -0.17607031942E+02  0.73267716860E+02  0.76369442962E+02  0.10566000000E+00 0. -1.
        994    1    1    2    0    0 -0.90185976362E+01  0.79212906631E+01  0.36325918426E+01  0.17165872443E+03  0.17120000000E+03 0.  0.
        998    1    1    2    0    0 -0.33956984238E+01  0.96857412785E+01  0.14230996876E+04  0.14231718326E+04  0.10000000000E+02 0. -1.
</event>
<event>
 5    1  0.1607440E-008  0.3691413E+03  0.7957747E-01  0.3499846E+00
         13   -1    0    0    0    0  0.00000000000E+00  0.00000000000E+00  0.14999999963E+04  0.15000000000E+04  0.10566000000E+00 0.  1.
        994   -1    0    0    0    0 -0.00000000000E+00 -0.00000000000E+00  0.11368683772E-12  0.17120000000E+03  0.17120000000E+03 0.  0.
         13    1    1    2    0    0 -0.42983570953E+02  0.25150512964E+02  0.11066650435E+03  0.12135576634E+03  0.10566000000E+00 0.  1.
        994    1    1    2    0    0  0.47384937747E+02  0.39238086191E+00  0.18353389935E+02  0.17858267892E+03  0.17120000000E+03 0.  0.
        998    1    1    2    0    0 -0.44013667944E+01 -0.25542893826E+02  0.13709801020E+04  0.13712615547E+04  0.10000000000E+02 0.  1.
</event>
<event>
 5    1  0.1607440E-008  0.3590321E+03  0.7957747E-01  0.3547867E+00
         13   -1    0    0    0    0  0.00000000000E+00  0.00000000000E+00  0.14999999963E+04  0.15000000000E+04  0.10566000000E+00 0.  1.
        994   -1    0    0    0    0 -0.00000000000E+00 -0.00000000000E+00  0.11368683772E-12  0.17120000000E+03  0.17120000000E+03 0.  0.
         13    1    1    2    0    0  0.44821876074E+02 -0.24554969535E+03  0.10214199415E+04  0.10514762772E+04  0.10566000000E+00 0.  1.
        994    1    1    2    0    0 -0.45712432156E+02  0.22937551299E+03  0.22893904321E+03  0.36935792657E+03  0.17120000000E+03 0.  0.
        998    1    1    2    0    0  0.89055608195E+00  0.16174182366E+02  0.24964101153E+03  0.25036579620E+03  0.10000000000E+02 0.  0.
</event>
<event>
 5    1  0.1607440E-008  0.3742933E+03  0.7957747E-01  0.3476389E+00
         13   -1    0    0    0    0  0.00000000000E+00  0.00000000000E+00  0.14999999963E+04  0.15000000000E+04  0.10566000000E+00 0.  1.
        994   -1    0    0    0    0 -0.00000000000E+00 -0.00000000000E+00  0.11368683772E-12  0.17120000000E+03  0.17120000000E+03 0.  0.
         13    1    1    2    0    0 -0.71289838087E+02  0.29306411144E+02  0.34479071371E+03  0.35330122300E+03  0.10566000000E+00 0.  1.
        994    1    1    2    0    0  0.57021382083E+02 -0.44581276824E+02  0.25108115991E+02  0.18756008570E+03  0.17120000000E+03 0.  0.
        998    1    1    2    0    0  0.14268456004E+02  0.15274865680E+02  0.11301011666E+04  0.11303386913E+04  0.10000000000E+02 0.  1.
</event>
<event>
 5    1  0.1607440E-008  0.3799175E+03  0.7957747E-01  0.3451518E+00
         13   -1    0    0    0    0  0.00000000000E+00  0.00000000000E+00  0.14999999963E+04  0.15000000000E+04  0.10566000000E+00 0.  1.
        994   -1    0    0    0    0 -0.00000000000E+00 -0.00000000000E+00  0.11368683772E-12  0.17120000000E+03  0.17120000000E+03 0.  0.
         13    1    1    2    0    0 -0.71178739943E+01 -0.37507273671E+02  0.20729299821E+03  0.21077916875E+03  0.10566000000E+00 0.  1.
        994    1    1    2    0    0  0.74968816126E+01 -0.24746534991E+01  0.43832420092E+01  0.17143797699E+03  0.17120000000E+03 0.  0.
        998    1    1    2    0    0 -0.37900761836E+00  0.39981927170E+02  0.12883237561E+04  0.12889828543E+04  0.10000000000E+02 0.  1.
</event>
<event>
 5    1  0.1607440E-008  0.3749010E+03  0.7957747E-01  0.3473666E+00
         13   -1    0    0    0    0  0.00000000000E+00  0.00000000000E+00  0.14999999963E+04  0.15000000000E+04  0.10566000000E+00 0.  1.
        994   -1    0    0    0    0 -0.00000000000E+00 -0.00000000000E+00  0.11368683772E-12  0.17120000000E+03  0.17120000000E+03 0.  0.
         13    1    1    2    0    0 -0.10120085837E+02  0.65801625841E+01  0.78743376696E+01  0.14412877393E+02  0.10566000000E+00 0.  1.
        994    1    1    2    0    0  0.33451378605E+01 -0.21335044466E+00  0.67677962179E+01  0.17136650353E+03  0.17120000000E+03 0.  0.
        998    1    1    2    0    0  0.67749479768E+01 -0.63668121395E+01  0.14853578624E+04  0.14854206191E+04  0.10000000000E+02 0.  1.
</event>
<event>
 5    1  0.1607440E-008  0.3818180E+03  0.7957747E-01  0.3443281E+00
         13   -1    0    0    0    0  0.00000000000E+00  0.00000000000E+00  0.14999999963E+04  0.15000000000E+04  0.10566000000E+00 0.  1.
        994   -1    0    0    0    0 -0.00000000000E+00 -0.00000000000E+00  0.11368683772E-12  0.17120000000E+03  0.17120000000E+03 0.  0.
         13    1    1    2    0    0  0.12024469936E+02  0.36683678360E+02  0.21791011489E+03  0.22130320709E+03  0.10566000000E+00 0.  1.
        994    1    1    2    0    0 -0.49671280448E+00 -0.30265300635E+02  0.62688096886E+01  0.17396831068E+03  0.17120000000E+03 0.  0.
        998    1    1    2    0    0 -0.11527757131E+02 -0.64183777251E+01  0.12758210717E+04  0.12759284822E+04  0.10000000000E+02 0.  1.
</event>
<event>
 5    1  0.1607440E-008  0.3767329E+03  0.7957747E-01  0.3465509E+00
         13   -1    0    0    0    0  0.00000000000E+00  0.00000000000E+00  0.14999999963E+04  0.15000000000E+04  0.10566000000E+00 0.  1.
        994   -1    0    0    0    0 -0.00000000000E+00 -0.00000000000E+00  0.11368683772E-12  0.17120000000E+03  0.17120000000E+03 0.  0.
         13    1    1    2    0    0 -0.27311917152E+02  0.11024819724E+02  0.73527173661E+02  0.79206968753E+02  0.10566000000E+00 0.  1.
        994    1    1    2    0    0  0.17219206023E+02  0.33981611106E+00  0.67945764402E+01  0.17219820789E+03  0.17120000000E+03 0.  0.
        998    1    1    2    0    0  0.10092711129E+02 -0.11364635835E+02  0.14196782462E+04  0.14197948234E+04  0.10000000000E+02 0.  1.
</event>
<event>
 5    1  0.1607440E-008  0.3857225E+03  0.7957747E-01  0.3426614E+00
         13   -1    0    0    0    0  0.00000000000E+00  0.00000000000E+00  0.14999999963E+04  0.15000000000E+04  0.10566000000E+00 0.  1.
        994   -1    0    0    0    0 -0.00000000000E+00 -0.00000000000E+00  0.11368683772E-12  0.17120000000E+03  0.17120000000E+03 0.  0.
         13    1    1    2    0    0 -0.10122108717E+02 -0.74559941285E+01  0.63290094006E+02  0.64526708397E+02  0.10566000000E+00 0.  1.
        994    1    1    2    0    0  0.33511304293E+01  0.70188888650E+01  0.14703808975E+01  0.17138289558E+03  0.17120000000E+03 0.  0.
        998    1    1    2    0    0  0.67709782873E+01  0.43710526348E+00  0.14352395214E+04  0.14352903960E+04  0.10000000000E+02 0.  1.
</event>
<event>
 5    1  0.1607440E-008  0.3846818E+03  0.7957747E-01  0.3431023E+00
         13   -1    0    0    0    0  0.00000000000E+00  0.00000000000E+00  0.14999999963E+04  0.15000000000E+04  0.10566000000E+00 0.  1.
        994   -1    0    0    0    0 -0.00000000000E+00 -0.00000000000E+00  0.11368683772E-12  0.17120000000E+03  0.17120000000E+03 0.  0.
         13    1    1    2    0    0 -0.89917540150E+01  0.16034463528E+02  0.10856629133E+03  0.11011179064E+03  0.10566000000E+00 0.  1.
        994    1    1    2    0    0 -0.50901173202E+01  0.36394463786E+01  0.19171352583E+01  0.17132504275E+03  0.17120000000E+03 0.  0.
        998    1    1    2    0    0  0.14081871335E+02 -0.19673909907E+02  0.13895165697E+04  0.13897631666E+04  0.10000000000E+02 0.  1.
</event>
<event>
 5    1  0.1607440E-008  0.3795957E+03  0.7957747E-01  0.3452921E+00
         13   -1    0    0    0    0  0.00000000000E+00  0.00000000000E+00  0.14999999963E+04  0.15000000000E+04  0.10566000000E+00 0. -1.
        994   -1    0    0    0    0 -0.00000000000E+00 -0.00000000000E+00  0.11368683772E-12  0.17120000000E+03  0.17120000000E+03 0.  0.
         13    1    1    2    0    0  0.20587838175E+02  0.73444261131E+01  0.53693250570E+02  0.57972200204E+02  0.10566000000E+00 0. -1.
        994    1    1    2    0    0 -0.12156214438E+02 -0.47008779211E+01  0.49062054376E+01  0.17176548738E+03  0.17120000000E+03 0.  0.
        998    1    1    2    0    0 -0.84316237369E+01 -0.26435481920E+01  0.14414005403E+04  0.14414623124E+04  0.10000000000E+02 0. -1.
</event>
<event>
 5    1  0.1607440E-008  0.3806939E+03  0.7957747E-01  0.3448142E+00
         13   -1    0    0    0    0  0.00000000000E+00  0.00000000000E+00  0.14999999963E+04  0.15000000000E+04  0.10566000000E+00 0.  1.
        994   -1    0    0    0    0 -0.00000000000E+00 -0.00000000000E+00  0.11368683772E-12  0.17120000000E+03  0.17120000000E+03 0.  0.
         13    1    1    2    0    0 -0.14364913455E+02 -0.99608462497E+01  0.39728222856E+02  0.43404055708E+02  0.10566000000E+00 0.  1.
        994    1    1    2    0    0  0.19671650317E+02 -0.17430916178E+02  0.60907073610E+01  0.17331285983E+03  0.17120000000E+03 0.  0.
        998    1    1    2    0    0 -0.53067368620E+01  0.27391762428E+02  0.14541810661E+04  0.14544830845E+04  0.10000000000E+02 0.  1.
</event>
<event>
 5    1  0.1607440E-008  0.3852352E+03  0.7957747E-01  0.3428675E+00
         13   -1    0    0    0    0  0.00000000000E+00  0.00000000000E+00  0.14999999963E+04  0.15000000000E+04  0.10566000000E+00 0. -1.
        994   -1    0    0    0    0 -0.00000000000E+00 -0.00000000000E+00  0.11368683772E-12  0.17120000000E+03  0.17120000000E+03 0.  0.
         13    1    1    2    0    0  0.17744122326E+02 -0.39938403582E+00  0.10708970677E+03  0.10855058657E+03  0.10566000000E+00 0. -1.
        994    1    1    2    0    0 -0.87472245749E+01  0.24307656553E+02  0.37095838501E+01  0.17317787710E+03  0.17120000000E+03 0.  0.
        998    1    1    2    0    0 -0.89968977515E+01 -0.23908272517E+02  0.13892007057E+04  0.13894715363E+04  0.10000000000E+02 0. -1.
</event>
<event>
 5    1  0.1607440E-008  0.3833113E+03  0.7957747E-01  0.3436866E+00
         13   -1    0    0    0    0  0.00000000000E+00  0.00000000000E+00  0.14999999963E+04  0.15000000000E+04  0.10566000000E+00 0. -1.
        994   -1    0    0    0    0 -0.00000000000E+00 -0.00000000000E+00  0.11368683772E-12  0.17120000000E+03  0.17120000000E+03 0.  0.
         13    1    1    2    0    0  0.47688535557E+01 -0.12407375414E+02  0.34769224341E+02  0.37223581964E+02  0.10566000000E+00 0. -1.
        994    1    1    2    0    0  0.42778243130E+00  0.11514664889E+02  0.29100526536E+01  0.17161200107E+03  0.17120000000E+03 0.  0.
        998    1    1    2    0    0 -0.51966359870E+01  0.89271052501E+00  0.14623207193E+04  0.14623644170E+04  0.10000000000E+02 0. -1.
</event>
<event>
 5    1  0.1607440E-008  0.3688947E+03  0.7957747E-01  0.3500986E+00
         13   -1    0    0    0    0  0.00000000000E+00  0.00000000000E+00  0.14999999963E+04  0.15000000000E+04  0.10566000000E+00 0.  1.
        994   -1    0    0    0    0 -0.00000000000E+00 -0.00000000000E+00  0.11368683772E-12  0.17120000000E+03  0.17120000000E+03 0.  0.
         13    1    1    2    0    0  0.10852197084E+02 -0.15106277190E+02  0.12627192536E+02  0.22481702504E+02  0.10566000000E+00 0.  1.
        994    1    1    2    0    0  0.55986865318E+01  0.33245601884E+00  0.10465090194E+02  0.17161122903E+03  0.17120000000E+03 0.  0.
        998    1    1    2    0    0 -0.16450883616E+02  0.14773821171E+02  0.14769077135E+04  0.14771070685E+04  0.10000000000E+02 0.  1.
</event>
<event>
 5    1  0.1607440E-008  0.3843665E+03  0.7957747E-01  0.3432363E+00
         13   -1    0    0    0    0  0.00000000000E+00  0.00000000000E+00  0.14999999963E+04  0.15000000000E+04  0.10566000000E+00 0.  1.
        994   -1    0    0    0    0 -0.00000000000E+00 -0.00000000000E+00  0.11368683772E-12  0.17120000000E+03  0.17120000000E+03 0.  0.
         13    1    1    2    0    0  0.16032359308E+02 -0.19036061416E+01  0.65780646129E+02  0.67733040907E+02  0.10566000000E+00 0.  1.
        994    1    1    2    0    0 -0.11817253689E+02  0.11411354225E+02  0.28348204264E+01  0.17200971687E+03  0.17120000000E+03 0.  0.
        998    1    1    2    0    0 -0.42151056183E+01 -0.95077480838E+01  0.14313845297E+04  0.14314572422E+04  0.10000000000E+02 0.  1.
</event>
<event>
 5    1  0.1607440E-008  0.3861117E+03  0.7957747E-01  0.3424971E+00
         13   -1    0    0    0    0  0.00000000000E+00  0.00000000000E+00  0.14999999963E+04  0.15000000000E+04  0.10566000000E+00 0. -1.
        994   -1    0    0    0    0 -0.00000000000E+00 -0.00000000000E+00  0.11368683772E-12  0.17120000000E+03  0.17120000000E+03 0.  0.
         13    1    1    2    0    0 -0.81075107086E+01  0.87970553683E+01  0.70190667631E+02  0.71202955694E+02  0.10566000000E+00 0. -1.
        994    1    1    2    0    0 -0.79598827050E+01 -0.11285497084E+02  0.17044131272E+01  0.17176456911E+03  0.17120000000E+03 0.  0.
        998    1    1    2    0    0  0.16067393414E+02  0.24884417161E+01  0.14281049155E+04  0.14282324752E+04  0.10000000000E+02 0. -1.
</event>
<event>
 5    1  0.1607440E-008  0.3707983E+03  0.7957747E-01  0.3492230E+00
         13   -1    0    0    0    0  0.00000000000E+00  0.00000000000E+00  0.14999999963E+04  0.15000000000E+04  0.10566000000E+00 0.  1.
        994   -1    0    0    0    0 -0.00000000000E+00 -0.00000000000E+00  0.11368683772E-12  0.17120000000E+03  0.17120000000E+03 0.  0.
         13    1    1    2    0    0 -0.40238424097E+02  0.27026808466E+02  0.12005559764E+03  0.12947176078E+03  0.10566000000E+00 0.  1.
        994    1    1    2    0    0  0.40391477525E+02 -0.26524357881E+02  0.16947272561E+02  0.17869432858E+03  0.17120000000E+03 0.  0.
        998    1    1    2    0    0 -0.15305342833E+00 -0.50245058466E+00  0.13629971261E+04  0.13630339106E+04  0.10000000000E+02 0.  1.
</event>
<event>
 5    1  0.1607440E-008  0.3705510E+03  0.7957747E-01  0.3493363E+00
         13   -1    0    0    0    0  0.00000000000E+00  0.00000000000E+00  0.14999999963E+04  0.15000000000E+04  0.10566000000E+00 0.  1.
        994   -1    0    0    0    0 -0.00000000000E+00 -0.00000000000E+00  0.11368683772E-12  0.17120000000E+03  0.17120000000E+03 0.  0.
         13    1    1    2    0    0  0.14869895855E+02 -0.74152212381E+01  0.11491181264E+02  0.20202913643E+02  0.10566000000E+00 0.  1.
        994    1    1    2    0    0  0.11915849912E+01  0.19711545399E+02  0.10328319193E+02  0.17264437168E+03  0.17120000000E+03 0.  0.
        998    1    1    2    0    0 -0.16061480847E+02 -0.12296324160E+02  0.14781804958E+04  0.14783527147E+04  0.10000000000E+02 0.  1.
</event>
<event>
 5    1  0.1607440E-008  0.3817587E+03  0.7957747E-01  0.3443536E+00
         13   -1    0    0    0    0  0.00000000000E+00  0.00000000000E+00  0.14999999963E+04  0.15000000000E+04  0.10566000000E+00 0. -1.
        994   -1    0    0    0    0 -0.00000000000E+00 -0.00000000000E+00  0.11368683772E-12  0.17120000000E+03  0.17120000000E+03 0.  0.
         13    1    1    2    0    0 -0.38709408288E+02  0.46077713258E+01  0.18047414098E+03  0.18463633601E+03  0.10566000000E+00 0. -1.
        994    1    1    2    0    0  0.61343322998E+02  0.23422505072E+02  0.17713051515E+02  0.18421403099E+03  0.17120000000E+03 0.  0.
        998    1    1    2    0    0 -0.22633914710E+02 -0.28030276398E+02  0.13018128038E+04  0.13023496330E+04  0.10000000000E+02 0. -1.
</event>
<event>
 5    1  0.1898805E-008  0.3855796E+03  0.7957747E-01  0.3427218E+00
         13   -1    0    0    0    0  0.00000000000E+00  0.00000000000E+00  0.14999999963E+04  0.15000000000E+04  0.10566000000E+00 0. -1.
        994   -1    0    0    0    0 -0.00000000000E+00 -0.00000000000E+00  0.11368683772E-12  0.17120000000E+03  0.17120000000E+03 0.  0.
         13    1    1    2    0    0 -0.29265578390E+00 -0.10237485586E+02  0.37843403111E+02  0.39204924201E+02  0.10566000000E+00 0. -1.
        994    1    1    2    0    0 -0.76480878826E+00  0.13632374366E+02  0.19548198358E+01  0.17175473177E+03  0.17120000000E+03 0.  0.
        998    1    1    2    0    0  0.10574645722E+01 -0.33948887794E+01  0.14602017733E+04  0.14602403440E+04  0.10000000000E+02 0. -1.
</event>
<event>
 5    1  0.1607440E-008  0.3821573E+03  0.7957747E-01  0.3441819E+00
         13   -1    0    0    0    0  0.00000000000E+00  0.00000000000E+00  0.14999999963E+04  0.15000000000E+04  0.10566000000E+00 0. -1.
        994   -1    0    0    0    0 -0.00000000000E+00 -0.00000000000E+00  0.11368683772E-12  0.17120000000E+03  0.17120000000E+03 0.  0.
         13    1    1    2    0    0  0.24426016775E+01  0.18202291803E+02  0.59721649271E+02  0.62481807636E+02  0.10566000000E+00 0. -1.
        994    1    1    2    0    0  0.16105810892E+01  0.83209968570E+01  0.32865838546E+01  0.17144116948E+03  0.17120000000E+03 0.  0.
        998    1    1    2    0    0 -0.40531827666E+01 -0.26523288660E+02  0.14369917632E+04  0.14372770229E+04  0.10000000000E+02 0. -1.
</event>
<event>
 5    1  0.1607440E-008  0.3840265E+03  0.7957747E-01  0.3433811E+00
         13   -1    0    0    0    0  0.00000000000E+00  0.00000000000E+00  0.14999999963E+04  0.15000000000E+04  0.10566000000E+00 0. -1.
        994   -1    0    0    0    0 -0.00000000000E+00 -0.00000000000E+00  0.11368683772E-12  0.17120000000E+03  0.17120000000E+03 0.  0.
         13    1    1    2    0    0 -0.17023425445E+02  0.11182511983E+02  0.98909975026E+02  0.10098534503E+03  0.10566000000E+00 0. -1.
        994    1    1    2    0    0  0.14832819095E+02  0.22402011294E+01  0.28569713919E+01  0.17187970593E+03  0.17120000000E+03 0.  0.
        998    1    1    2    0    0  0.21906063506E+01 -0.13422713113E+02  0.13982330499E+04  0.13983349490E+04  0.10000000000E+02 0. -1.
</event>
<event>
 5    1  0.1607440E-008  0.3840631E+03  0.7957747E-01  0.3433655E+00
         13   -1    0    0    0    0  0.00000000000E+00  0.00000000000E+00  0.14999999963E+04  0.15000000000E+04  0.10566000000E+00 0. -1.
        994   -1    0    0    0    0 -0.00000000000E+00 -0.00000000000E+00  0.11368683772E-12  0.17120000000E+03  0.17120000000E+03 0.  0.
         13    1    1    2    0    0 -0.14223193884E+02  0.76317651840E+01  0.59682843204E+02  0.61827146311E+02  0.10566000000E+00 0. -1.
        994    1    1    2    0    0  0.16048761409E+02 -0.57585779177E+01  0.30555808404E+01  0.17207411350E+03  0.17120000000E+03 0.  0.
        998    1    1    2    0    0 -0.18255675255E+01 -0.18731872663E+01  0.14372615722E+04  0.14372987402E+04  0.10000000000E+02 0. -1.
</event>
<event>
 5    1  0.1607440E-008  0.3751850E+03  0.7957747E-01  0.3472396E+00
         13   -1    0    0    0    0  0.00000000000E+00  0.00000000000E+00  0.14999999963E+04  0.15000000000E+04  0.10566000000E+00 0.  1.
        994   -1    0    0    0    0 -0.00000000000E+00 -0.00000000000E+00  0.11368683772E-12  0.17120000000E+03  0.17120000000E+03 0.  0.
         13    1    1    2    0    0 -0.41214483103E+01 -0.51925150902E+02  0.18620506432E+03  0.19335341935E+03  0.10566000000E+00 0.  1.
        994    1    1    2    0    0 -0.15577135273E+02  0.47827476927E+02  0.15227716816E+02  0.17908500231E+03  0.17120000000E+03 0.  0.
        998    1    1    2    0    0  0.19698583583E+02  0.40976739749E+01  0.12985672151E+04  0.12987615783E+04  0.10000000000E+02 0.  1.
</event>
<event>
 5    1  0.1607440E-008  0.3777339E+03  0.7957747E-01  0.3461086E+00
         13   -1    0    0    0    0  0.00000000000E+00  0.00000000000E+00  0.14999999963E+04  0.15000000000E+04  0.10566000000E+00 0.  1.
        994   -1    0    0    0    0 -0.00000000000E+00 -0.00000000000E+00  0.11368683772E-12  0.17120000000E+03  0.17120000000E+03 0.  0.
         13    1    1    2    0    0 -0.20101407316E+02  0.40612658428E+02  0.20982442227E+03  0.21466195272E+03  0.10566000000E+00 0.  1.
        994    1    1    2    0    0  0.55004790156E+01 -0.12587662281E+02  0.59173114711E+01  0.17185214309E+03  0.17120000000E+03 0.  0.
        998    1    1    2    0    0  0.14600928300E+02 -0.28024996148E+02  0.12842582625E+04  0.12846859042E+04  0.10000000000E+02 0.  1.
</event>
<event>
 5    1  0.1607440E-008  0.3812035E+03  0.7957747E-01  0.3445935E+00
         13   -1    0    0    0    0  0.00000000000E+00  0.00000000000E+00  0.14999999963E+04  0.15000000000E+04  0.10566000000E+00 0.  1.
        994   -1    0    0    0    0 -0.00000000000E+00 -0.00000000000E+00  0.11368683772E-12  0.17120000000E+03  0.17120000000E+03 0.  0.
         13    1    1    2    0    0  0.11298177773E+02  0.22528119638E+02  0.10140206785E+03  0.10448710697E+03  0.10566000000E+00 0.  1.
        994    1    1    2    0    0 -0.21086454953E+01  0.97427205294E+01  0.38577701867E+01  0.17153334772E+03  0.17120000000E+03 0.  0.
        998    1    1    2    0    0 -0.91895322780E+01 -0.32270840168E+02  0.13947401582E+04  0.13951795453E+04  0.10000000000E+02 0.  1.
</event>
<event>
 5    1  0.1607440E-008  0.3853955E+03  0.7957747E-01  0.3427996E+00
         13   -1    0    0    0    0  0.00000000000E+00  0.00000000000E+00  0.14999999963E+04  0.15000000000E+04  0.10566000000E+00 0.  1.
        994   -1    0    0    0    0 -0.00000000000E+00 -0.00000000000E+00  0.11368683772E-12  0.17120000000E+03  0.17120000000E+03 0.  0.
         13    1    1    2    0    0  0.11969501157E+02 -0.75705796583E+01  0.81841129417E+02  0.83057596056E+02  0.10566000000E+00 0.  1.
        994    1    1    2    0    0  0.50156094355E+01 -0.11301375070E+02  0.19361633482E+01  0.17165682668E+03  0.17120000000E+03 0.  0.
        998    1    1    2    0    0 -0.16985110593E+02  0.18871954728E+02  0.14162227035E+04  0.14164855773E+04  0.10000000000E+02 0.  1.
</event>
<event>
 5    1  0.1607440E-008  0.3740937E+03  0.7957747E-01  0.3477286E+00
         13   -1    0    0    0    0  0.00000000000E+00  0.00000000000E+00  0.14999999963E+04  0.15000000000E+04  0.10566000000E+00 0. -1.
        994   -1    0    0    0    0 -0.00000000000E+00 -0.00000000000E+00  0.11368683772E-12  0.17120000000E+03  0.17120000000E+03 0.  0.
         13    1    1    2    0    0 -0.10970683323E+03  0.85531757935E+01  0.33798296474E+03  0.35544513176E+03  0.10566000000E+00 0. -1.
        994    1    1    2    0    0  0.11253353638E+03 -0.29918503255E+02  0.62913002433E+02  0.21639408384E+03  0.17120000000E+03 0.  0.
        998    1    1    2    0    0 -0.28267031478E+01  0.21365327462E+02  0.10991040291E+04  0.10993607844E+04  0.10000000000E+02 0. -1.
</event>
<event>
 5    1  0.1607440E-008  0.3830550E+03  0.7957747E-01  0.3437963E+00
         13   -1    0    0    0    0  0.00000000000E+00  0.00000000000E+00  0.14999999963E+04  0.15000000000E+04  0.10566000000E+00 0.  1.
        994   -1    0    0    0    0 -0.00000000000E+00 -0.00000000000E+00  0.11368683772E-12  0.17120000000E+03  0.17120000000E+03 0.  0.
         13    1    1    2    0    0  0.55361481796E+01  0.24113683132E+02  0.13078338601E+03  0.13310305733E+03  0.10566000000E+00 0.  1.
        994    1    1    2    0    0 -0.42496180287E+01  0.88861396322E+00  0.26612719322E+01  0.17127571707E+03  0.17120000000E+03 0.  0.
        998    1    1    2    0    0 -0.12865301509E+01 -0.25002297096E+02  0.13665553383E+04  0.13668212256E+04  0.10000000000E+02 0.  1.
</event>
<event>
 5    1  0.1607440E-008  0.3835171E+03  0.7957747E-01  0.3435986E+00
         13   -1    0    0    0    0  0.00000000000E+00  0.00000000000E+00  0.14999999963E+04  0.15000000000E+04  0.10566000000E+00 0.  1.
        994   -1    0    0    0    0 -0.00000000000E+00 -0.00000000000E+00  0.11368683772E-12  0.17120000000E+03  0.17120000000E+03 0.  0.
         13    1    1    2    0    0  0.15430021059E+02  0.10715480043E+02  0.70041968107E+02  0.72517553205E+02  0.10566000000E+00 0.  1.
        994    1    1    2    0    0 -0.16815278489E+02 -0.14151593693E+02  0.39659416109E+01  0.17265048476E+03  0.17120000000E+03 0.  0.
        998    1    1    2    0    0  0.13852574293E+01  0.34361136496E+01  0.14259920866E+04  0.14260319620E+04  0.10000000000E+02 0.  1.
</event>
<event>
 5    1  0.1607440E-008  0.3832735E+03  0.7957747E-01  0.3437028E+00
         13   -1    0    0    0    0  0.00000000000E+00  0.00000000000E+00  0.14999999963E+04  0.15000000000E+04  0.10566000000E+00 0.  1.
        994   -1    0    0    0    0 -0.00000000000E+00 -0.00000000000E+00  0.11368683772E-12  0.17120000000E+03  0.17120000000E+03 0.  0.
         13    1    1    2    0    0  0.10624076463E+02  0.20184043596E+02  0.12032839312E+03  0.12247122100E+03  0.10566000000E+00 0.  1.
        994    1    1    2    0    0 -0.47096956496E+01  0.93640128293E+01  0.28531602817E+01  0.17154429892E+03  0.17120000000E+03 0.  0.
        998    1    1    2    0    0 -0.59143808132E+01 -0.29548056426E+02  0.13768184429E+04  0.13771844801E+04  0.10000000000E+02 0.  1.
</event>
<event>
 5    1  0.1607440E-008  0.3802225E+03  0.7957747E-01  0.3450190E+00
         13   -1    0    0    0    0  0.00000000000E+00  0.00000000000E+00  0.14999999963E+04  0.15000000000E+04  0.10566000000E+00 0.  1.
        994   -1    0    0    0    0 -0.00000000000E+00 -0.00000000000E+00  0.11368683772E-12  0.17120000000E+03  0.17120000000E+03 0.  0.
         13    1    1    2    0    0  0.82733541130E+02 -0.81701666376E+02  0.62304126756E+03  0.63379841698E+03  0.10566000000E+00 0.  1.
        994    1    1    2    0    0 -0.12275968767E+03  0.82055093663E+02  0.80665591228E+02  0.24004032353E+03  0.17120000000E+03 0.  0.
        998    1    1    2    0    0  0.40026146545E+02 -0.35342728706E+00  0.79629313749E+03  0.79736125949E+03  0.10000000000E+02 0.  1.
</event>
<event>
 5    1  0.1607440E-008  0.3837475E+03  0.7957747E-01  0.3435002E+00
         13   -1    0    0    0    0  0.00000000000E+00  0.00000000000E+00  0.14999999963E+04  0.15000000000E+04  0.10566000000E+00 0.  1.
        994   -1    0    0    0    0 -0.00000000000E+00 -0.00000000000E+00  0.11368683772E-12  0.17120000000E+03  0.17120000000E+03 0.  0.
         13    1    1    2    0    0 -0.96467184710E+01 -0.17116393468E+02  0.90541903934E+02  0.92649218208E+02  0.10566000000E+00 0.  1.
        994    1    1    2    0    0  0.38867440946E+01  0.12483637131E+01  0.23083165542E+01  0.17126422136E+03  0.17120000000E+03 0.  0.
        998    1    1    2    0    0  0.57599743764E+01  0.15868029755E+02  0.14071497758E+04  0.14072865604E+04  0.10000000000E+02 0.  1.
</event>
<event>
 5    1  0.1607440E-008  0.3780785E+03  0.7957747E-01  0.3459568E+00
         13   -1    0    0    0    0  0.00000000000E+00  0.00000000000E+00  0.14999999963E+04  0.15000000000E+04  0.10566000000E+00 0.  1.
        994   -1    0    0    0    0 -0.00000000000E+00 -0.00000000000E+00  0.11368683772E-12  0.17120000000E+03  0.17120000000E+03 0.  0.
         13    1    1    2    0    0 -0.13763893841E+02 -0.84984189855E+01  0.23522788431E+02  0.28548216031E+02  0.10566000000E+00 0.  1.
        994    1    1    2    0    0  0.10106930059E+02  0.39980202834E+01  0.55037837028E+01  0.17163293925E+03  0.17120000000E+03 0.  0.
        998    1    1    2    0    0  0.36569637816E+01  0.45003987021E+01  0.14709734241E+04  0.14710188447E+04  0.10000000000E+02 0.  1.
</event>
<event>
 5    1  0.1607440E-008  0.3856604E+03  0.7957747E-01  0.3426876E+00
         13   -1    0    0    0    0  0.00000000000E+00  0.00000000000E+00  0.14999999963E+04  0.15000000000E+04  0.10566000000E+00 0.  1.
        994   -1    0    0    0    0 -0.00000000000E+00 -0.00000000000E+00  0.11368683772E-12  0.17120000000E+03  0.17120000000E+03 0.  0.
         13    1    1    2    0    0  0.62675383470E+01 -0.78229351840E+01  0.38137312896E+02  0.39432805515E+02  0.10566000000E+00 0.  1.
        994    1    1    2    0    0 -0.57340526742E+01  0.79199240557E+01  0.16164400434E+01  0.17148661008E+03  0.17120000000E+03 0.  0.
        998    1    1    2    0    0 -0.53348567278E+00 -0.96988871673E-01  0.14602462433E+04  0.14602805844E+04  0.10000000000E+02 0.  0.
</event>
<event>
 5    1  0.1607440E-008  0.3790484E+03  0.7957747E-01  0.3455313E+00
         13   -1    0    0    0    0  0.00000000000E+00  0.00000000000E+00  0.14999999963E+04  0.15000000000E+04  0.10566000000E+00 0.  1.
        994   -1    0    0    0    0 -0.00000000000E+00 -0.00000000000E+00  0.11368683772E-12  0.17120000000E+03  0.17120000000E+03 0.  0.
         13    1    1    2    0    0  0.16917559457E+02  0.16092172364E+01  0.30464920031E+02  0.34884321903E+02  0.10566000000E+00 0.  1.
        994    1    1    2    0    0  0.78930016547E+00 -0.81548298629E+01  0.48394185844E+01  0.17146423597E+03  0.17120000000E+03 0.  0.
        998    1    1    2    0    0 -0.17706859622E+02  0.65456126265E+01  0.14646956577E+04  0.14648514421E+04  0.10000000000E+02 0.  1.
</event>
<event>
 5    1  0.1607440E-008  0.3836738E+03  0.7957747E-01  0.3435316E+00
         13   -1    0    0    0    0  0.00000000000E+00  0.00000000000E+00  0.14999999963E+04  0.15000000000E+04  0.10566000000E+00 0. -1.
        994   -1    0    0    0    0 -0.00000000000E+00 -0.00000000000E+00  0.11368683772E-12  0.17120000000E+03  0.17120000000E+03 0.  0.
         13    1    1    2    0    0  0.12872643908E+02  0.21974579251E+01  0.39294032774E+02  0.41407317689E+02  0.10566000000E+00 0. -1.
        994    1    1    2    0    0  0.69993740599E+01  0.43588926744E+01  0.25146068629E+01  0.17141690241E+03  0.17120000000E+03 0.  0.
        998    1    1    2    0    0 -0.19872017967E+02 -0.65563505995E+01  0.14581913566E+04  0.14583757799E+04  0.10000000000E+02 0. -1.
</event>
<event>
 5    1  0.1607440E-008  0.3823834E+03  0.7957747E-01  0.3440846E+00
         13   -1    0    0    0    0  0.00000000000E+00  0.00000000000E+00  0.14999999963E+04  0.15000000000E+04  0.10566000000E+00 0. -1.
        994   -1    0    0    0    0 -0.00000000000E+00 -0.00000000000E+00  0.11368683772E-12  0.17120000000E+03  0.17120000000E+03 0.  0.
         13    1    1    2    0    0  0.19287688016E+02  0.31676980893E+02  0.20027089920E+03  0.20367594423E+03  0.10566000000E+00 0. -1.
        994    1    1    2    0    0 -0.21052908586E+02 -0.33634187689E+02  0.81746929459E+01  0.17592824999E+03  0.17120000000E+03 0.  0.
        998    1    1    2    0    0  0.17652205696E+01  0.19572067964E+01  0.12915544041E+04  0.12915958058E+04  0.10000000000E+02 0. -1.
</event>
<event>
 5    1  0.1607440E-008  0.3836397E+03  0.7957747E-01  0.3435462E+00
         13   -1    0    0    0    0  0.00000000000E+00  0.00000000000E+00  0.14999999963E+04  0.15000000000E+04  0.10566000000E+00 0. -1.
        994   -1    0    0    0    0 -0.00000000000E+00 -0.00000000000E+00  0.11368683772E-12  0.17120000000E+03  0.17120000000E+03 0.  0.
         13    1    1    2    0    0  0.84527319285E+01  0.10308835010E+02  0.38099130403E+02  0.40364286911E+02  0.10566000000E+00 0. -1.
        994    1    1    2    0    0 -0.64048287293E+01 -0.45284974578E+01  0.25102861876E+01  0.17139798907E+03  0.17120000000E+03 0.  0.
        998    1    1    2    0    0 -0.20479031992E+01 -0.57803375525E+01  0.14593905797E+04  0.14594377240E+04  0.10000000000E+02 0. -1.
</event>
<event>
 5    1  0.1607440E-008  0.3755642E+03  0.7957747E-01  0.3470703E+00
         13   -1    0    0    0    0  0.00000000000E+00  0.00000000000E+00  0.14999999963E+04  0.15000000000E+04  0.10566000000E+00 0.  1.
        994   -1    0    0    0    0 -0.00000000000E+00 -0.00000000000E+00  0.11368683772E-12  0.17120000000E+03  0.17120000000E+03 0.  0.
         13    1    1    2    0    0 -0.57369876417E+02  0.62092292490E+00  0.34687308198E+03  0.35158588486E+03  0.10566000000E+00 0.  1.
        994    1    1    2    0    0 -0.14851338532E+01  0.49888040759E+01  0.64812022067E+01  0.17140169127E+03  0.17120000000E+03 0.  0.
        998    1    1    2    0    0  0.58855010270E+02 -0.56097270008E+01  0.11466457121E+04  0.11482124239E+04  0.10000000000E+02 0.  1.
</event>
<event>
 5    1  0.1607440E-008  0.3823287E+03  0.7957747E-01  0.3441081E+00
         13   -1    0    0    0    0  0.00000000000E+00  0.00000000000E+00  0.14999999963E+04  0.15000000000E+04  0.10566000000E+00 0. -1.
        994   -1    0    0    0    0 -0.00000000000E+00 -0.00000000000E+00  0.11368683772E-12  0.17120000000E+03  0.17120000000E+03 0.  0.
         13    1    1    2    0    0 -0.68387029215E+01 -0.15920973768E+02  0.50246569516E+02  0.53150486127E+02  0.10566000000E+00 0. -1.
        994    1    1    2    0    0  0.16996787507E+02  0.24532051680E+01  0.39411765089E+01  0.17210427616E+03  0.17120000000E+03 0.  0.
        998    1    1    2    0    0 -0.10158084586E+02  0.13467768600E+02  0.14458122503E+04  0.14459452377E+04  0.10000000000E+02 0. -1.
</event>
<event>
 5    1  0.1607440E-008  0.3824580E+03  0.7957747E-01  0.3440525E+00
         13   -1    0    0    0    0  0.00000000000E+00  0.00000000000E+00  0.14999999963E+04  0.15000000000E+04  0.10566000000E+00 0.  1.
        994   -1    0    0    0    0 -0.00000000000E+00 -0.00000000000E+00  0.11368683772E-12  0.17120000000E+03  0.17120000000E+03 0.  0.
         13    1    1    2    0    0  0.20718584033E+02  0.21535511401E+01  0.74888681622E+02  0.77731739373E+02  0.10566000000E+00 0.  1.
        994    1    1    2    0    0 -0.95835559518E+01 -0.14346707486E+02  0.38851854413E+01  0.17211103168E+03  0.17120000000E+03 0.  0.
        998    1    1    2    0    0 -0.11135028082E+02  0.12193156346E+02  0.14212261292E+04  0.14213572289E+04  0.10000000000E+02 0.  1.
</event>
<event>
 5    1  0.1607440E-008  0.3708993E+03  0.7957747E-01  0.3491768E+00
         13   -1    0    0    0    0  0.00000000000E+00  0.00000000000E+00  0.14999999963E+04  0.15000000000E+04  0.10566000000E+00 0. -1.
        994   -1    0    0    0    0 -0.00000000000E+00 -0.00000000000E+00  0.11368683772E-12  0.17120000000E+03  0.17120000000E+03 0.  0.
         13    1    1    2    0    0  0.37198696765E+02 -0.51252632115E+02  0.17682309848E+03  0.18782170977E+03  0.10566000000E+00 0. -1.
        994    1    1    2    0    0 -0.46508415547E+02  0.72672595935E+02  0.34915377314E+02  0.19486626822E+03  0.17120000000E+03 0.  0.
        998    1    1    2    0    0  0.93097187820E+01 -0.21419963820E+02  0.12882615205E+04  0.12885120220E+04  0.10000000000E+02 0. -1.
</event>
<event>
 5    1  0.1607440E-008  0.3748085E+03  0.7957747E-01  0.3474080E+00
         13   -1    0    0    0    0  0.00000000000E+00  0.00000000000E+00  0.14999999963E+04  0.15000000000E+04  0.10566000000E+00 0.  1.
        994   -1    0    0    0    0 -0.00000000000E+00 -0.00000000000E+00  0.11368683772E-12  0.17120000000E+03  0.17120000000E+03 0.  0.
         13    1    1    2    0    0 -0.32295302148E+02 -0.21742928158E+02  0.10897290436E+03  0.11571882524E+03  0.10566000000E+00 0.  1.
        994    1    1    2    0    0  0.42749456893E+02 -0.18062347692E+02  0.14138421796E+02  0.17794128088E+03  0.17120000000E+03 0.  0.
        998    1    1    2    0    0 -0.10454154745E+02  0.39805275850E+02  0.13768886701E+04  0.13775398939E+04  0.10000000000E+02 0.  1.
</event>
<event>
 5    1  0.1607440E-008  0.3860386E+03  0.7957747E-01  0.3425279E+00
         13   -1    0    0    0    0  0.00000000000E+00  0.00000000000E+00  0.14999999963E+04  0.15000000000E+04  0.10566000000E+00 0.  1.
        994   -1    0    0    0    0 -0.00000000000E+00 -0.00000000000E+00  0.11368683772E-12  0.17120000000E+03  0.17120000000E+03 0.  0.
         13    1    1    2    0    0  0.78723234742E+01  0.78429214083E+01  0.56377344266E+02  0.57462170196E+02  0.10566000000E+00 0.  1.
        994    1    1    2    0    0 -0.16934130065E+02  0.70259825785E+01  0.22178499455E+01  0.17219317074E+03  0.17120000000E+03 0.  0.
        998    1    1    2    0    0  0.90618065911E+01 -0.14868903987E+02  0.14414048021E+04  0.14415446591E+04  0.10000000000E+02 0.  1.
</event>
<event>
 5    1  0.1607440E-008  0.3796523E+03  0.7957747E-01  0.3452674E+00
         13   -1    0    0    0    0  0.00000000000E+00  0.00000000000E+00  0.14999999963E+04  0.15000000000E+04  0.10566000000E+00 0. -1.
        994   -1    0    0    0    0 -0.00000000000E+00 -0.00000000000E+00  0.11368683772E-12  0.17120000000E+03  0.17120000000E+03 0.  0.
         13    1    1    2    0    0 -0.75676615576E+01 -0.12235427214E+02 -0.10441077336E+01  0.14424857211E+02  0.10566000000E+00 0. -1.
        994    1    1    2    0    0  0.20717756844E+02  0.86941381620E+01  0.17965333513E+02  0.17360013449E+03  0.17120000000E+03 0.  0.
        998    1    1    2    0    0 -0.13150095287E+02  0.35412890520E+01  0.14830787705E+04  0.14831750083E+04  0.10000000000E+02 0. -1.
</event>
<event>
 5    1  0.1607440E-008  0.3766952E+03  0.7957747E-01  0.3465676E+00
         13   -1    0    0    0    0  0.00000000000E+00  0.00000000000E+00  0.14999999963E+04  0.15000000000E+04  0.10566000000E+00 0. -1.
        994   -1    0    0    0    0 -0.00000000000E+00 -0.00000000000E+00  0.11368683772E-12  0.17120000000E+03  0.17120000000E+03 0.  0.
         13    1    1    2    0    0  0.33572902067E+01  0.43406381782E+02  0.14783738488E+03  0.15411453179E+03  0.10566000000E+00 0. -1.
        994    1    1    2    0    0 -0.36279923789E+01 -0.41515137752E+02  0.11703096080E+02  0.17658729130E+03  0.17120000000E+03 0.  0.
        998    1    1    2    0    0  0.27070217219E+00 -0.18912440292E+01  0.13404595153E+04  0.13404981769E+04  0.10000000000E+02 0.  0.
</event>
<event>
 5    1  0.1607440E-008  0.3768159E+03  0.7957747E-01  0.3465141E+00
         13   -1    0    0    0    0  0.00000000000E+00  0.00000000000E+00  0.14999999963E+04  0.15000000000E+04  0.10566000000E+00 0. -1.
        994   -1    0    0    0    0 -0.00000000000E+00 -0.00000000000E+00  0.11368683772E-12  0.17120000000E+03  0.17120000000E+03 0.  0.
         13    1    1    2    0    0  0.19927697992E+02  0.19815576067E+02  0.63214760943E+02  0.69180108176E+02  0.10566000000E+00 0. -1.
        994    1    1    2    0    0 -0.10369816437E+02 -0.34855025566E+02  0.10229956949E+02  0.17531827606E+03  0.17120000000E+03 0.  0.
        998    1    1    2    0    0 -0.95578815558E+01  0.15039449499E+02  0.14265552784E+04  0.14267016158E+04  0.10000000000E+02 0. -1.
</event>
<event>
 5    1  0.1607440E-008  0.3836709E+03  0.7957747E-01  0.3435329E+00
         13   -1    0    0    0    0  0.00000000000E+00  0.00000000000E+00  0.14999999963E+04  0.15000000000E+04  0.10566000000E+00 0. -1.
        994   -1    0    0    0    0 -0.00000000000E+00 -0.00000000000E+00  0.11368683772E-12  0.17120000000E+03  0.17120000000E+03 0.  0.
         13    1    1    2    0    0 -0.19749448853E+02 -0.95036676297E+01  0.10343361085E+03  0.10573023903E+03  0.10566000000E+00 0. -1.
        994    1    1    2    0    0  0.14345646869E+02  0.43993340194E+01  0.30354453225E+01  0.17188311625E+03  0.17120000000E+03 0.  0.
        998    1    1    2    0    0  0.54038019841E+01  0.51043336102E+01  0.13935309401E+04  0.13935866447E+04  0.10000000000E+02 0. -1.
</event>
<event>
 5    1  0.1607440E-008  0.2358220E+03  0.7957747E-01  0.4496947E+00
         13   -1    0    0    0    0  0.00000000000E+00  0.00000000000E+00  0.14999999963E+04  0.15000000000E+04  0.10566000000E+00 0. -1.
        994   -1    0    0    0    0 -0.00000000000E+00 -0.00000000000E+00  0.11368683772E-12  0.17120000000E+03  0.17120000000E+03 0.  0.
         13    1    1    2    0    0 -0.32962948811E+02  0.16392470418E+03  0.23558754338E+03  0.28889334779E+03  0.10566000000E+00 0. -1.
        994    1    1    2    0    0 -0.26391319139E+02 -0.14280545117E+03  0.15910788192E+03  0.27516296389E+03  0.17120000000E+03 0.  0.
        998    1    1    2    0    0  0.59354267950E+02 -0.21119253013E+02  0.11053045710E+04  0.11071436883E+04  0.10000000000E+02 0. -1.
</event>
<event>
 5    1  0.1607440E-008  0.3798827E+03  0.7957747E-01  0.3451670E+00
         13   -1    0    0    0    0  0.00000000000E+00  0.00000000000E+00  0.14999999963E+04  0.15000000000E+04  0.10566000000E+00 0. -1.
        994   -1    0    0    0    0 -0.00000000000E+00 -0.00000000000E+00  0.11368683772E-12  0.17120000000E+03  0.17120000000E+03 0.  0.
         13    1    1    2    0    0 -0.12930792982E+02  0.14408599132E+02  0.44426605049E+02  0.48461815240E+02  0.10566000000E+00 0. -1.
        994    1    1    2    0    0  0.18202095323E+01 -0.41840822212E+01  0.42620171901E+01  0.17131381876E+03  0.17120000000E+03 0.  0.
        998    1    1    2    0    0  0.11110583450E+02 -0.10224516911E+02  0.14513113740E+04  0.14514243660E+04  0.10000000000E+02 0. -1.
</event>
<event>
 5    1  0.1607440E-008  0.3794573E+03  0.7957747E-01  0.3453525E+00
         13   -1    0    0    0    0  0.00000000000E+00  0.00000000000E+00  0.14999999963E+04  0.15000000000E+04  0.10566000000E+00 0. -1.
        994   -1    0    0    0    0 -0.00000000000E+00 -0.00000000000E+00  0.11368683772E-12  0.17120000000E+03  0.17120000000E+03 0.  0.
         13    1    1    2    0    0 -0.43374661666E+01 -0.15278532201E+02  0.27824954682E+02  0.32038826851E+02  0.10566000000E+00 0. -1.
        994    1    1    2    0    0  0.14405651564E+01 -0.20193857477E+01  0.44279339246E+01  0.17127521638E+03  0.17120000000E+03 0.  0.
        998    1    1    2    0    0  0.28969010103E+01  0.17297917948E+02  0.14677471077E+04  0.14678859568E+04  0.10000000000E+02 0. -1.
</event>
<event>
 5    1  0.1607440E-008  0.3817164E+03  0.7957747E-01  0.3443719E+00
         13   -1    0    0    0    0  0.00000000000E+00  0.00000000000E+00  0.14999999963E+04  0.15000000000E+04  0.10566000000E+00 0. -1.
        994   -1    0    0    0    0 -0.00000000000E+00 -0.00000000000E+00  0.11368683772E-12  0.17120000000E+03  0.17120000000E+03 0.  0.
         13    1    1    2    0    0 -0.33032113772E+02  0.17312735155E+02  0.19431106065E+03  0.19785765286E+03  0.10566000000E+00 0. -1.
        994    1    1    2    0    0  0.22064482599E+02 -0.28320160323E+02  0.75653562648E+01  0.17508725678E+03  0.17120000000E+03 0.  0.
        998    1    1    2    0    0  0.10967631174E+02  0.11007425168E+02  0.12981235794E+04  0.12982550904E+04  0.10000000000E+02 0. -1.
</event>
<event>
 5    1  0.1607440E-008  0.3858100E+03  0.7957747E-01  0.3426244E+00
         13   -1    0    0    0    0  0.00000000000E+00  0.00000000000E+00  0.14999999963E+04  0.15000000000E+04  0.10566000000E+00 0. -1.
        994   -1    0    0    0    0 -0.00000000000E+00 -0.00000000000E+00  0.11368683772E-12  0.17120000000E+03  0.17120000000E+03 0.  0.
         13    1    1    2    0    0  0.12321227013E+02 -0.57350878900E-01  0.59499893075E+02  0.60762359765E+02  0.10566000000E+00 0. -1.
        994    1    1    2    0    0 -0.15038978109E+02 -0.40052786427E+01  0.20233756895E+01  0.17191785006E+03  0.17120000000E+03 0.  0.
        998    1    1    2    0    0  0.27177510954E+01  0.40626295216E+01  0.14384767275E+04  0.14385197902E+04  0.10000000000E+02 0. -1.
</event>
<event>
 5    1  0.1607440E-008  0.3757277E+03  0.7957747E-01  0.3469975E+00
         13   -1    0    0    0    0  0.00000000000E+00  0.00000000000E+00  0.14999999963E+04  0.15000000000E+04  0.10566000000E+00 0. -1.
        994   -1    0    0    0    0 -0.00000000000E+00 -0.00000000000E+00  0.11368683772E-12  0.17120000000E+03  0.17120000000E+03 0.  0.
         13    1    1    2    0    0  0.32996100733E+02 -0.79887204259E+01  0.92045734969E+02  0.98107037503E+02  0.10566000000E+00 0. -1.
        994    1    1    2    0    0 -0.15001089455E+02 -0.56173265654E+01  0.71760642889E+01  0.17209742282E+03  0.17120000000E+03 0.  0.
        998    1    1    2    0    0 -0.17995011278E+02  0.13606046991E+02  0.14007781970E+04  0.14009955397E+04  0.10000000000E+02 0. -1.
</event>
<event>
 5    1  0.1607440E-008  0.3848859E+03  0.7957747E-01  0.3430156E+00
         13   -1    0    0    0    0  0.00000000000E+00  0.00000000000E+00  0.14999999963E+04  0.15000000000E+04  0.10566000000E+00 0.  1.
        994   -1    0    0    0    0 -0.00000000000E+00 -0.00000000000E+00  0.11368683772E-12  0.17120000000E+03  0.17120000000E+03 0.  0.
         13    1    1    2    0    0  0.13651613473E+02 -0.83860038819E+01  0.77548265171E+02  0.79186085940E+02  0.10566000000E+00 0.  1.
        994    1    1    2    0    0 -0.81485197068E+01  0.12827633424E+01  0.19106928034E+01  0.17140926055E+03  0.17120000000E+03 0.  0.
        998    1    1    2    0    0 -0.55030937659E+01  0.71032405395E+01  0.14205410383E+04  0.14206046535E+04  0.10000000000E+02 0.  1.
</event>
<event>
 5    1  0.1607440E-008  0.3802560E+03  0.7957747E-01  0.3450045E+00
         13   -1    0    0    0    0  0.00000000000E+00  0.00000000000E+00  0.14999999963E+04  0.15000000000E+04  0.10566000000E+00 0.  1.
        994   -1    0    0    0    0 -0.00000000000E+00 -0.00000000000E+00  0.11368683772E-12  0.17120000000E+03  0.17120000000E+03 0.  0.
         13    1    1    2    0    0 -0.65820584047E+00 -0.20672203103E+02  0.53322939767E+02  0.57193708443E+02  0.10566000000E+00 0.  1.
        994    1    1    2    0    0  0.12591053076E+02  0.63975694284E+01  0.46704949202E+01  0.17184503785E+03  0.17120000000E+03 0.  0.
        998    1    1    2    0    0 -0.11932847236E+02  0.14274633674E+02  0.14420065616E+04  0.14421612537E+04  0.10000000000E+02 0.  1.
</event>
<event>
 5    1  0.1607440E-008  0.3795248E+03  0.7957747E-01  0.3453230E+00
         13   -1    0    0    0    0  0.00000000000E+00  0.00000000000E+00  0.14999999963E+04  0.15000000000E+04  0.10566000000E+00 0.  1.
        994   -1    0    0    0    0 -0.00000000000E+00 -0.00000000000E+00  0.11368683772E-12  0.17120000000E+03  0.17120000000E+03 0.  0.
         13    1    1    2    0    0 -0.75851568270E+01 -0.11222453904E+02  0.18958174789E+02  0.23300249593E+02  0.10566000000E+00 0.  1.
        994    1    1    2    0    0  0.91740397333E+01  0.95760268093E+01  0.49622548715E+01  0.17178453734E+03  0.17120000000E+03 0.  0.
        998    1    1    2    0    0 -0.15888829063E+01  0.16464270950E+01  0.14760795666E+04  0.14761152131E+04  0.10000000000E+02 0.  1.
</event>
<event>
 5    1  0.1607440E-008  0.3844798E+03  0.7957747E-01  0.3431881E+00
         13   -1    0    0    0    0  0.00000000000E+00  0.00000000000E+00  0.14999999963E+04  0.15000000000E+04  0.10566000000E+00 0.  1.
        994   -1    0    0    0    0 -0.00000000000E+00 -0.00000000000E+00  0.11368683772E-12  0.17120000000E+03  0.17120000000E+03 0.  0.
         13    1    1    2    0    0 -0.18386142052E+03 -0.90766152574E+02  0.92454028445E+03  0.94700489182E+03  0.10566000000E+00 0.  1.
        994    1    1    2    0    0  0.21068334659E+03  0.11300334874E+03  0.22088604144E+03  0.36777345290E+03  0.17120000000E+03 0.  0.
        998    1    1    2    0    0 -0.26821926075E+02 -0.22237196165E+02  0.35457367039E+03  0.35642165527E+03  0.10000000000E+02 0.  1.
</event>
<event>
 5    1  0.1998370E-008  0.3863208E+03  0.7957747E-01  0.3424090E+00
         13   -1    0    0    0    0  0.00000000000E+00  0.00000000000E+00  0.14999999963E+04  0.15000000000E+04  0.10566000000E+00 0. -1.
        994   -1    0    0    0    0 -0.00000000000E+00 -0.00000000000E+00  0.11368683772E-12  0.17120000000E+03  0.17120000000E+03 0.  0.
         13    1    1    2    0    0 -0.53299227023E+01  0.88035448729E+01  0.54759429462E+02  0.55718190543E+02  0.10566000000E+00 0. -1.
        994    1    1    2    0    0  0.49615547234E+01 -0.64670220418E+01  0.11934042885E+01  0.17139808521E+03  0.17120000000E+03 0.  0.
        998    1    1    2    0    0  0.36836797892E+00 -0.23365228312E+01  0.14440471625E+04  0.14440837242E+04  0.10000000000E+02 0. -1.
</event>
<event>
 5    1  0.1607440E-008  0.4368560E+03  0.7957747E-01  0.3235697E+00
         13   -1    0    0    0    0  0.00000000000E+00  0.00000000000E+00  0.14999999963E+04  0.15000000000E+04  0.10566000000E+00 0. -1.
        994   -1    0    0    0    0 -0.00000000000E+00 -0.00000000000E+00  0.11368683772E-12  0.17120000000E+03  0.17120000000E+03 0.  0.
         13    1    1    2    0    0  0.10698944602E+03  0.39425792034E+02  0.12921483940E+03  0.17232997569E+03  0.10566000000E+00 0. -1.
        994    1    1    2    0    0 -0.49726909821E+02  0.15678945212E+02  0.64652805746E+02  0.19028405129E+03  0.17120000000E+03 0.  0.
        998    1    1    2    0    0 -0.57262536194E+02 -0.55104737246E+02  0.13061323511E+04  0.13085859730E+04  0.10000000000E+02 0. -1.
</event>
<event>
 5    1  0.1607440E-008  0.3851904E+03  0.7957747E-01  0.3428865E+00
         13   -1    0    0    0    0  0.00000000000E+00  0.00000000000E+00  0.14999999963E+04  0.15000000000E+04  0.10566000000E+00 0.  1.
        994   -1    0    0    0    0 -0.00000000000E+00 -0.00000000000E+00  0.11368683772E-12  0.17120000000E+03  0.17120000000E+03 0.  0.
         13    1    1    2    0    0  0.80071476673E+01 -0.11089682821E+02  0.62292287755E+02  0.63776451427E+02  0.10566000000E+00 0.  1.
        994    1    1    2    0    0 -0.10834332564E+02 -0.47586126457E+00  0.19222572251E+01  0.17155391071E+03  0.17120000000E+03 0.  0.
        998    1    1    2    0    0  0.28271848971E+01  0.11565544086E+02  0.14357854513E+04  0.14358696379E+04  0.10000000000E+02 0.  1.
</event>
<event>
 5    1  0.1607440E-008  0.3846564E+03  0.7957747E-01  0.3431131E+00
         13   -1    0    0    0    0  0.00000000000E+00  0.00000000000E+00  0.14999999963E+04  0.15000000000E+04  0.10566000000E+00 0. -1.
        994   -1    0    0    0    0 -0.00000000000E+00 -0.00000000000E+00  0.11368683772E-12  0.17120000000E+03  0.17120000000E+03 0.  0.
         13    1    1    2    0    0  0.12475015270E+02  0.87331800059E+01  0.72191439426E+02  0.73780143192E+02  0.10566000000E+00 0. -1.
        994    1    1    2    0    0  0.13856612212E+02 -0.62181348261E+01  0.25606552019E+01  0.17189144207E+03  0.17120000000E+03 0.  0.
        998    1    1    2    0    0 -0.26331627482E+02 -0.25150451797E+01  0.14252479017E+04  0.14255284147E+04  0.10000000000E+02 0. -1.
</event>
<event>
 5    1  0.1607440E-008  0.3749628E+03  0.7957747E-01  0.3473389E+00
         13   -1    0    0    0    0  0.00000000000E+00  0.00000000000E+00  0.14999999963E+04  0.15000000000E+04  0.10566000000E+00 0.  1.
        994   -1    0    0    0    0 -0.00000000000E+00 -0.00000000000E+00  0.11368683772E-12  0.17120000000E+03  0.17120000000E+03 0.  0.
         13    1    1    2    0    0 -0.94043656332E+01 -0.27082114975E+02  0.55779164556E+02  0.62715304409E+02  0.10566000000E+00 0.  1.
        994    1    1    2    0    0  0.10921705213E+02  0.32747764207E+02  0.10759915439E+02  0.17497689986E+03  0.17120000000E+03 0.  0.
        998    1    1    2    0    0 -0.15173395798E+01 -0.56656492323E+01  0.14334609163E+04  0.14335077957E+04  0.10000000000E+02 0.  1.
</event>
<event>
 5    1  0.1607440E-008  0.3772491E+03  0.7957747E-01  0.3463225E+00
         13   -1    0    0    0    0  0.00000000000E+00  0.00000000000E+00  0.14999999963E+04  0.15000000000E+04  0.10566000000E+00 0.  1.
        994   -1    0    0    0    0 -0.00000000000E+00 -0.00000000000E+00  0.11368683772E-12  0.17120000000E+03  0.17120000000E+03 0.  0.
         13    1    1    2    0    0 -0.21523820662E+02 -0.69407728522E+02  0.28738898927E+03  0.29643405667E+03  0.10566000000E+00 0.  1.
        994    1    1    2    0    0  0.70319161275E+02  0.94404005502E+02  0.53802839848E+02  0.21461846676E+03  0.17120000000E+03 0.  0.
        998    1    1    2    0    0 -0.48795340613E+02 -0.24996276980E+02  0.11588081672E+04  0.11601474766E+04  0.10000000000E+02 0.  1.
</event>
<event>
 5    1  0.1607440E-008  0.3856597E+03  0.7957747E-01  0.3426879E+00
         13   -1    0    0    0    0  0.00000000000E+00  0.00000000000E+00  0.14999999963E+04  0.15000000000E+04  0.10566000000E+00 0. -1.
        994   -1    0    0    0    0 -0.00000000000E+00 -0.00000000000E+00  0.11368683772E-12  0.17120000000E+03  0.17120000000E+03 0.  0.
         13    1    1    2    0    0  0.25804156568E+01 -0.11015228854E+02  0.50927756880E+02  0.52169353040E+02  0.10566000000E+00 0. -1.
        994    1    1    2    0    0 -0.91931776093E+01  0.88387317653E+00  0.15829311125E+01  0.17145623762E+03  0.17120000000E+03 0.  0.
        998    1    1    2    0    0  0.66127619525E+01  0.10131355678E+02  0.14474893083E+04  0.14475744093E+04  0.10000000000E+02 0. -1.
</event>
<event>
 5    1  0.1607440E-008  0.2836193E+03  0.7957747E-01  0.4020379E+00
         13   -1    0    0    0    0  0.00000000000E+00  0.00000000000E+00  0.14999999963E+04  0.15000000000E+04  0.10566000000E+00 0.  1.
        994   -1    0    0    0    0 -0.00000000000E+00 -0.00000000000E+00  0.11368683772E-12  0.17120000000E+03  0.17120000000E+03 0.  0.
         13    1    1    2    0    0 -0.18183187019E+03 -0.33545520055E+02  0.61798832196E+03  0.64505636047E+03  0.10566000000E+00 0.  1.
        994    1    1    2    0    0  0.12292785049E+03 -0.82998227295E+01  0.87604581472E+02  0.22839471574E+03  0.17120000000E+03 0.  0.
        998    1    1    2    0    0  0.58904019693E+02  0.41845342785E+02  0.79440709284E+03  0.79774892379E+03  0.10000000000E+02 0.  1.
</event>
<event>
 5    1  0.1607440E-008  0.3915758E+03  0.7957747E-01  0.3402253E+00
         13   -1    0    0    0    0  0.00000000000E+00  0.00000000000E+00  0.14999999963E+04  0.15000000000E+04  0.10566000000E+00 0.  1.
        994   -1    0    0    0    0 -0.00000000000E+00 -0.00000000000E+00  0.11368683772E-12  0.17120000000E+03  0.17120000000E+03 0.  0.
         13    1    1    2    0    0  0.10111354511E+03  0.65950275761E+02  0.29060852894E+03  0.31468510631E+03  0.10566000000E+00 0.  1.
        994    1    1    2    0    0 -0.79535313887E+02 -0.42722756338E+02  0.54402609514E+02  0.20104771569E+03  0.17120000000E+03 0.  0.
        998    1    1    2    0    0 -0.21578231221E+02 -0.23227519423E+02  0.11549888578E+04  0.11554671780E+04  0.10000000000E+02 0.  1.
</event>
<event>
 5    1  0.1607440E-008  0.3837123E+03  0.7957747E-01  0.3435152E+00
         13   -1    0    0    0    0  0.00000000000E+00  0.00000000000E+00  0.14999999963E+04  0.15000000000E+04  0.10566000000E+00 0.  1.
        994   -1    0    0    0    0 -0.00000000000E+00 -0.00000000000E+00  0.11368683772E-12  0.17120000000E+03  0.17120000000E+03 0.  0.
         13    1    1    2    0    0 -0.82946187408E+01  0.67378012743E+01  0.23734574828E+02  0.26029596085E+02  0.10566000000E+00 0.  1.
        994    1    1    2    0    0  0.11717741704E+02 -0.10102466447E+02  0.30616992920E+01  0.17192492344E+03  0.17120000000E+03 0.  0.
        998    1    1    2    0    0 -0.34231229637E+01  0.33646651727E+01  0.14732037222E+04  0.14732454805E+04  0.10000000000E+02 0.  1.
</event>
<event>
 5    1  0.1607440E-008  0.3833569E+03  0.7957747E-01  0.3436671E+00
         13   -1    0    0    0    0  0.00000000000E+00  0.00000000000E+00  0.14999999963E+04  0.15000000000E+04  0.10566000000E+00 0. -1.
        994   -1    0    0    0    0 -0.00000000000E+00 -0.00000000000E+00  0.11368683772E-12  0.17120000000E+03  0.17120000000E+03 0.  0.
         13    1    1    2    0    0 -0.21342789071E+02 -0.13115049807E+02  0.12752653117E+03  0.12996363527E+03  0.10566000000E+00 0. -1.
        994    1    1    2    0    0  0.17339155953E+02  0.10236972965E+01  0.34462355718E+01  0.17211336620E+03  0.17120000000E+03 0.  0.
        998    1    1    2    0    0  0.40036331184E+01  0.12091352511E+02  0.13690272295E+04  0.13691229985E+04  0.10000000000E+02 0. -1.
</event>
<event>
 5    1  0.1607440E-008  0.3795335E+03  0.7957747E-01  0.3453192E+00
         13   -1    0    0    0    0  0.00000000000E+00  0.00000000000E+00  0.14999999963E+04  0.15000000000E+04  0.10566000000E+00 0.  1.
        994   -1    0    0    0    0 -0.00000000000E+00 -0.00000000000E+00  0.11368683772E-12  0.17120000000E+03  0.17120000000E+03 0.  0.
         13    1    1    2    0    0  0.38614991730E+02  0.78211762397E+00  0.14928353553E+03  0.15419894435E+03  0.10566000000E+00 0.  1.
        994    1    1    2    0    0 -0.43322936635E+02 -0.36589802765E+01  0.10723683084E+02  0.17695960656E+03  0.17120000000E+03 0.  0.
        998    1    1    2    0    0  0.47079449048E+01  0.28768626526E+01  0.13399927777E+04  0.13400414491E+04  0.10000000000E+02 0.  1.
</event>
<event>
 5    1  0.1607440E-008  0.3753135E+03  0.7957747E-01  0.3471822E+00
         13   -1    0    0    0    0  0.00000000000E+00  0.00000000000E+00  0.14999999963E+04  0.15000000000E+04  0.10566000000E+00 0.  1.
        994   -1    0    0    0    0 -0.00000000000E+00 -0.00000000000E+00  0.11368683772E-12  0.17120000000E+03  0.17120000000E+03 0.  0.
         13    1    1    2    0    0 -0.41915298418E+02 -0.60172083638E+02  0.32965980761E+03  0.33771759180E+03  0.10566000000E+00 0.  1.
        994    1    1    2    0    0  0.37451954296E+02  0.58979161055E+02  0.23277126119E+02  0.18636645331E+03  0.17120000000E+03 0.  0.
        998    1    1    2    0    0  0.44633441217E+01  0.11929225838E+01  0.11470630625E+04  0.11471159549E+04  0.10000000000E+02 0.  0.
</event>
<event>
 5    1  0.1607440E-008  0.3788454E+03  0.7957747E-01  0.3456201E+00
         13   -1    0    0    0    0  0.00000000000E+00  0.00000000000E+00  0.14999999963E+04  0.15000000000E+04  0.10566000000E+00 0.  1.
        994   -1    0    0    0    0 -0.00000000000E+00 -0.00000000000E+00  0.11368683772E-12  0.17120000000E+03  0.17120000000E+03 0.  0.
         13    1    1    2    0    0 -0.78278802417E+02 -0.15589199482E+01  0.42891926867E+03  0.43600659552E+03  0.10566000000E+00 0.  1.
        994    1    1    2    0    0  0.84618853852E+02  0.10104504902E+02  0.29487484305E+02  0.19349781181E+03  0.17120000000E+03 0.  0.
        998    1    1    2    0    0 -0.63400514355E+01 -0.85455849539E+01  0.10415932433E+04  0.10416955927E+04  0.10000000000E+02 0.  1.
</event>
<event>
 5    1  0.1607440E-008  0.3821614E+03  0.7957747E-01  0.3441801E+00
         13   -1    0    0    0    0  0.00000000000E+00  0.00000000000E+00  0.14999999963E+04  0.15000000000E+04  0.10566000000E+00 0. -1.
        994   -1    0    0    0    0 -0.00000000000E+00 -0.00000000000E+00  0.11368683772E-12  0.17120000000E+03  0.17120000000E+03 0.  0.
         13    1    1    2    0    0  0.18547019097E+02  0.14465585307E+02  0.83859963852E+02  0.87096209889E+02  0.10566000000E+00 0. -1.
        994    1    1    2    0    0 -0.18840618368E+02 -0.20672250861E+02  0.56470067537E+01  0.17356163038E+03  0.17120000000E+03 0.  0.
        998    1    1    2    0    0  0.29359927144E+00  0.62066655537E+01  0.14104930257E+04  0.14105421597E+04  0.10000000000E+02 0. -1.
</event>
<event>
 5    1  0.1607440E-008  0.3757724E+03  0.7957747E-01  0.3469776E+00
         13   -1    0    0    0    0  0.00000000000E+00  0.00000000000E+00  0.14999999963E+04  0.15000000000E+04  0.10566000000E+00 0.  1.
        994   -1    0    0    0    0 -0.00000000000E+00 -0.00000000000E+00  0.11368683772E-12  0.17120000000E+03  0.17120000000E+03 0.  0.
         13    1    1    2    0    0 -0.55555753197E+02 -0.12815128404E+01  0.32935780209E+03  0.33401295926E+03  0.10566000000E+00 0.  1.
        994    1    1    2    0    0  0.47319414498E+01 -0.59095187965E+02  0.18293093064E+02  0.18209533153E+03  0.17120000000E+03 0.  0.
        998    1    1    2    0    0  0.50823811747E+02  0.60376700805E+02  0.11523491011E+04  0.11550917092E+04  0.10000000000E+02 0.  1.
</event>
<event>
 5    1  0.1607440E-008  0.3806442E+03  0.7957747E-01  0.3448358E+00
         13   -1    0    0    0    0  0.00000000000E+00  0.00000000000E+00  0.14999999963E+04  0.15000000000E+04  0.10566000000E+00 0.  1.
        994   -1    0    0    0    0 -0.00000000000E+00 -0.00000000000E+00  0.11368683772E-12  0.17120000000E+03  0.17120000000E+03 0.  0.
         13    1    1    2    0    0 -0.72250291639E+01 -0.16559907705E+02  0.40937783838E+02  0.44747568640E+02  0.10566000000E+00 0.  1.
        994    1    1    2    0    0  0.45719125346E+01  0.14767973329E+02  0.46059620857E+01  0.17195828072E+03  0.17120000000E+03 0.  0.
        998    1    1    2    0    0  0.26531166293E+01  0.17919343759E+01  0.14544562504E+04  0.14544941506E+04  0.10000000000E+02 0.  1.
</event>
<event>
 5    1  0.1607440E-008  0.3832017E+03  0.7957747E-01  0.3437335E+00
         13   -1    0    0    0    0  0.00000000000E+00  0.00000000000E+00  0.14999999963E+04  0.15000000000E+04  0.10566000000E+00 0.  1.
        994   -1    0    0    0    0 -0.00000000000E+00 -0.00000000000E+00  0.11368683772E-12  0.17120000000E+03  0.17120000000E+03 0.  0.
         13    1    1    2    0    0 -0.52953412291E+01  0.16906233565E+02  0.63243335389E+02  0.65677941558E+02  0.10566000000E+00 0.  1.
        994    1    1    2    0    0  0.87316541805E+01 -0.34408104838E+01  0.28170013893E+01  0.17148019261E+03  0.17120000000E+03 0.  0.
        998    1    1    2    0    0 -0.34363129514E+01 -0.13465423081E+02  0.14339396595E+04  0.14340418658E+04  0.10000000000E+02 0.  1.
</event>
<event>
 5    1  0.1607440E-008  0.3845680E+03  0.7957747E-01  0.3431507E+00
         13   -1    0    0    0    0  0.00000000000E+00  0.00000000000E+00  0.14999999963E+04  0.15000000000E+04  0.10566000000E+00 0.  1.
        994   -1    0    0    0    0 -0.00000000000E+00 -0.00000000000E+00  0.11368683772E-12  0.17120000000E+03  0.17120000000E+03 0.  0.
         13    1    1    2    0    0  0.13594151227E+02  0.17834301411E+02  0.13536134450E+03  0.13720629724E+03  0.10566000000E+00 0.  1.
        994    1    1    2    0    0 -0.42177573306E+00 -0.18091019356E+02  0.29239464312E+01  0.17217854785E+03  0.17120000000E+03 0.  0.
        998    1    1    2    0    0 -0.13172375494E+02  0.25671794505E+00  0.13617147054E+04  0.13618151549E+04  0.10000000000E+02 0.  1.
</event>
<event>
 5    1  0.1607440E-008  0.3764002E+03  0.7957747E-01  0.3466984E+00
         13   -1    0    0    0    0  0.00000000000E+00  0.00000000000E+00  0.14999999963E+04  0.15000000000E+04  0.10566000000E+00 0. -1.
        994   -1    0    0    0    0 -0.00000000000E+00 -0.00000000000E+00  0.11368683772E-12  0.17120000000E+03  0.17120000000E+03 0.  0.
         13    1    1    2    0    0 -0.10168023137E+02 -0.12483901315E+02  0.24442329262E+01  0.16285635548E+02  0.10566000000E+00 0. -1.
        994    1    1    2    0    0  0.14339796894E+02  0.10953092584E+02  0.15529110143E+02  0.17284731202E+03  0.17120000000E+03 0.  0.
        998    1    1    2    0    0 -0.41717737572E+01  0.15308087310E+01  0.14820266532E+04  0.14820670524E+04  0.10000000000E+02 0. -1.
</event>
<event>
 5    1  0.1607440E-008  0.3817785E+03  0.7957747E-01  0.3443451E+00
         13   -1    0    0    0    0  0.00000000000E+00  0.00000000000E+00  0.14999999963E+04  0.15000000000E+04  0.10566000000E+00 0. -1.
        994   -1    0    0    0    0 -0.00000000000E+00 -0.00000000000E+00  0.11368683772E-12  0.17120000000E+03  0.17120000000E+03 0.  0.
         13    1    1    2    0    0  0.45926044271E+02  0.12326117682E+01  0.25912201870E+03  0.26316335728E+03  0.10566000000E+00 0. -1.
        994    1    1    2    0    0 -0.50721279488E+02 -0.98736980880E+01  0.12163290431E+02  0.17924152348E+03  0.17120000000E+03 0.  0.
        998    1    1    2    0    0  0.47952352167E+01  0.86410863198E+01  0.12287146871E+04  0.12287951192E+04  0.10000000000E+02 0. -1.
</event>
<event>
 5    1  0.1607440E-008  0.3843527E+03  0.7957747E-01  0.3432422E+00
         13   -1    0    0    0    0  0.00000000000E+00  0.00000000000E+00  0.14999999963E+04  0.15000000000E+04  0.10566000000E+00 0.  1.
        994   -1    0    0    0    0 -0.00000000000E+00 -0.00000000000E+00  0.11368683772E-12  0.17120000000E+03  0.17120000000E+03 0.  0.
         13    1    1    2    0    0  0.17779184625E+02 -0.11176493576E+02  0.10889265689E+03  0.11089921236E+03  0.10566000000E+00 0.  1.
        994    1    1    2    0    0 -0.16010549220E+02  0.77901160416E+01  0.29973205053E+01  0.17214949179E+03  0.17120000000E+03 0.  0.
        998    1    1    2    0    0 -0.17686354051E+01  0.33863775345E+01  0.13881100189E+04  0.13881512958E+04  0.10000000000E+02 0.  1.
</event>
<event>
 5    1  0.1607440E-008  0.3701679E+03  0.7957747E-01  0.3495120E+00
         13   -1    0    0    0    0  0.00000000000E+00  0.00000000000E+00  0.14999999963E+04  0.15000000000E+04  0.10566000000E+00 0. -1.
        994   -1    0    0    0    0 -0.00000000000E+00 -0.00000000000E+00  0.11368683772E-12  0.17120000000E+03  0.17120000000E+03 0.  0.
         13    1    1    2    0    0  0.18109228426E+03 -0.89583097083E+02  0.12124857215E+04  0.12292034749E+04  0.10566000000E+00 0. -1.
        994    1    1    2    0    0 -0.16993918735E+03  0.82476885519E+02  0.13478817919E+03  0.28837312165E+03  0.17120000000E+03 0.  0.
        998    1    1    2    0    0 -0.11153096917E+02  0.71062115643E+01  0.15272609559E+03  0.15362340345E+03  0.10000000000E+02 0.  0.
</event>
<event>
 5    1  0.1607440E-008  0.3841067E+03  0.7957747E-01  0.3433470E+00
         13   -1    0    0    0    0  0.00000000000E+00  0.00000000000E+00  0.14999999963E+04  0.15000000000E+04  0.10566000000E+00 0.  1.
        994   -1    0    0    0    0 -0.00000000000E+00 -0.00000000000E+00  0.11368683772E-12  0.17120000000E+03  0.17120000000E+03 0.  0.
         13    1    1    2    0    0 -0.18395777748E+02 -0.87214350049E+01  0.97073934899E+02  0.99185825945E+02  0.10566000000E+00 0.  1.
        994    1    1    2    0    0  0.12496992565E+02  0.12115487901E+02  0.30741418610E+01  0.17210999453E+03  0.17120000000E+03 0.  0.
        998    1    1    2    0    0  0.58987851833E+01 -0.33940528959E+01  0.13998519195E+04  0.13999041795E+04  0.10000000000E+02 0.  1.
</event>
<event>
 5    1  0.1607440E-008  0.3848250E+03  0.7957747E-01  0.3430415E+00
         13   -1    0    0    0    0  0.00000000000E+00  0.00000000000E+00  0.14999999963E+04  0.15000000000E+04  0.10566000000E+00 0. -1.
        994   -1    0    0    0    0 -0.00000000000E+00 -0.00000000000E+00  0.11368683772E-12  0.17120000000E+03  0.17120000000E+03 0.  0.
         13    1    1    2    0    0 -0.75914488409E+01  0.12981166970E+02  0.64281403166E+02  0.66017048922E+02  0.10566000000E+00 0. -1.
        994    1    1    2    0    0  0.78941740221E+01 -0.11192002125E+02  0.23344997940E+01  0.17176282713E+03  0.17120000000E+03 0.  0.
        998    1    1    2    0    0 -0.30272518119E+00 -0.17891648453E+01  0.14333840933E+04  0.14334201239E+04  0.10000000000E+02 0. -1.
</event>
<event>
 5    1  0.1607440E-008  0.3813591E+03  0.7957747E-01  0.3445262E+00
         13   -1    0    0    0    0  0.00000000000E+00  0.00000000000E+00  0.14999999963E+04  0.15000000000E+04  0.10566000000E+00 0. -1.
        994   -1    0    0    0    0 -0.00000000000E+00 -0.00000000000E+00  0.11368683772E-12  0.17120000000E+03  0.17120000000E+03 0.  0.
         13    1    1    2    0    0  0.27162184076E+02 -0.39161530865E+01  0.12602648743E+03  0.12897987129E+03  0.10566000000E+00 0. -1.
        994    1    1    2    0    0  0.64283030102E+01 -0.69233154509E+01  0.37457721378E+01  0.17150138829E+03  0.17120000000E+03 0.  0.
        998    1    1    2    0    0 -0.33590487086E+02  0.10839468537E+02  0.13702277367E+04  0.13707187404E+04  0.10000000000E+02 0. -1.
</event>
<event>
 5    1  0.1607440E-008  0.3840073E+03  0.7957747E-01  0.3433893E+00
         13   -1    0    0    0    0  0.00000000000E+00  0.00000000000E+00  0.14999999963E+04  0.15000000000E+04  0.10566000000E+00 0.  1.
        994   -1    0    0    0    0 -0.00000000000E+00 -0.00000000000E+00  0.11368683772E-12  0.17120000000E+03  0.17120000000E+03 0.  0.
         13    1    1    2    0    0  0.60929670341E+01  0.13267769171E+02  0.49066796065E+02  0.51192964225E+02  0.10566000000E+00 0.  1.
        994    1    1    2    0    0 -0.25451476619E+01 -0.12454593114E+02  0.26571220302E+01  0.17169186051E+03  0.17120000000E+03 0.  0.
        998    1    1    2    0    0 -0.35478193723E+01 -0.81317605610E+00  0.14482760782E+04  0.14483151753E+04  0.10000000000E+02 0.  1.
</event>
<event>
 5    1  0.1607440E-008  0.3749630E+03  0.7957747E-01  0.3473388E+00
         13   -1    0    0    0    0  0.00000000000E+00  0.00000000000E+00  0.14999999963E+04  0.15000000000E+04  0.10566000000E+00 0. -1.
        994   -1    0    0    0    0 -0.00000000000E+00 -0.00000000000E+00  0.11368683772E-12  0.17120000000E+03  0.17120000000E+03 0.  0.
         13    1    1    2    0    0 -0.59816224239E+01  0.38150861175E+02  0.10338446492E+03  0.11036134634E+03  0.10566000000E+00 0. -1.
        994    1    1    2    0    0  0.10201371779E+02 -0.34700550018E+02  0.11158049738E+02  0.17533436124E+03  0.17120000000E+03 0.  0.
        998    1    1    2    0    0 -0.42197493555E+01 -0.34503111568E+01  0.13854574816E+04  0.13855042924E+04  0.10000000000E+02 0. -1.
</event>
<event>
 5    1  0.1607440E-008  0.3772731E+03  0.7957747E-01  0.3463119E+00
         13   -1    0    0    0    0  0.00000000000E+00  0.00000000000E+00  0.14999999963E+04  0.15000000000E+04  0.10566000000E+00 0.  1.
        994   -1    0    0    0    0 -0.00000000000E+00 -0.00000000000E+00  0.11368683772E-12  0.17120000000E+03  0.17120000000E+03 0.  0.
         13    1    1    2    0    0  0.23339861387E+02  0.14990408418E+02  0.66773847345E+02  0.72306426598E+02  0.10566000000E+00 0.  1.
        994    1    1    2    0    0 -0.15544037127E+02 -0.15028883716E+02  0.70946411313E+01  0.17270569872E+03  0.17120000000E+03 0.  0.
        998    1    1    2    0    0 -0.77958242598E+01  0.38475297767E-01  0.14261315078E+04  0.14261878747E+04  0.10000000000E+02 0.  1.
</event>
<event>
 5    1  0.1607440E-008  0.3838614E+03  0.7957747E-01  0.3434516E+00
         13   -1    0    0    0    0  0.00000000000E+00  0.00000000000E+00  0.14999999963E+04  0.15000000000E+04  0.10566000000E+00 0.  1.
        994   -1    0    0    0    0 -0.00000000000E+00 -0.00000000000E+00  0.11368683772E-12  0.17120000000E+03  0.17120000000E+03 0.  0.
         13    1    1    2    0    0 -0.11491671771E+02 -0.14010750252E+01  0.29094176132E+02  0.31312996984E+02  0.10566000000E+00 0.  1.
        994    1    1    2    0    0  0.14781614324E+02  0.93854416246E+00  0.29209696715E+01  0.17186433327E+03  0.17120000000E+03 0.  0.
        998    1    1    2    0    0 -0.32899425539E+01  0.46253086277E+00  0.14679848505E+04  0.14680226697E+04  0.10000000000E+02 0.  1.
</event>
<event>
 5    1  0.1607440E-008  0.3801225E+03  0.7957747E-01  0.3450625E+00
         13   -1    0    0    0    0  0.00000000000E+00  0.00000000000E+00  0.14999999963E+04  0.15000000000E+04  0.10566000000E+00 0.  1.
        994   -1    0    0    0    0 -0.00000000000E+00 -0.00000000000E+00  0.11368683772E-12  0.17120000000E+03  0.17120000000E+03 0.  0.
         13    1    1    2    0    0 -0.22164428547E+02 -0.39667590291E+02  0.23476114416E+03  0.23911835058E+03  0.10566000000E+00 0.  1.
        994    1    1    2    0    0  0.15463757656E+02  0.31351273373E+02  0.81656030086E+01  0.17492326093E+03  0.17120000000E+03 0.  0.
        998    1    1    2    0    0  0.67006708916E+01  0.83163169189E+01  0.12570732491E+04  0.12571583885E+04  0.10000000000E+02 0.  1.
</event>
<event>
 5    1  0.1607440E-008  0.3837832E+03  0.7957747E-01  0.3434849E+00
         13   -1    0    0    0    0  0.00000000000E+00  0.00000000000E+00  0.14999999963E+04  0.15000000000E+04  0.10566000000E+00 0. -1.
        994   -1    0    0    0    0 -0.00000000000E+00 -0.00000000000E+00  0.11368683772E-12  0.17120000000E+03  0.17120000000E+03 0.  0.
         13    1    1    2    0    0 -0.85321008323E+01 -0.68364099872E+01  0.28620977474E+02  0.30638289145E+02  0.10566000000E+00 0. -1.
        994    1    1    2    0    0 -0.15022652777E+02 -0.87832420227E+01  0.32359470970E+01  0.17211257011E+03  0.17120000000E+03 0.  0.
        998    1    1    2    0    0  0.23554753609E+02  0.15619652010E+02  0.14681430717E+04  0.14684491407E+04  0.10000000000E+02 0. -1.
</event>
<event>
 5    1  0.1607440E-008  0.3766989E+03  0.7957747E-01  0.3465659E+00
         13   -1    0    0    0    0  0.00000000000E+00  0.00000000000E+00  0.14999999963E+04  0.15000000000E+04  0.10566000000E+00 0.  1.
        994   -1    0    0    0    0 -0.00000000000E+00 -0.00000000000E+00  0.11368683772E-12  0.17120000000E+03  0.17120000000E+03 0.  0.
         13    1    1    2    0    0 -0.13718200552E+01 -0.36792984541E+02  0.11010925376E+03  0.11610195747E+03  0.10566000000E+00 0.  1.
        994    1    1    2    0    0  0.15572789998E+01  0.30861642687E+02  0.90429246805E+01  0.17420126462E+03  0.17120000000E+03 0.  0.
        998    1    1    2    0    0 -0.18545894459E+00  0.59313418540E+01  0.13808478178E+04  0.13808967779E+04  0.10000000000E+02 0.  1.
</event>
<event>
 5    1  0.1607440E-008  0.3847595E+03  0.7957747E-01  0.3430693E+00
         13   -1    0    0    0    0  0.00000000000E+00  0.00000000000E+00  0.14999999963E+04  0.15000000000E+04  0.10566000000E+00 0.  1.
        994   -1    0    0    0    0 -0.00000000000E+00 -0.00000000000E+00  0.11368683772E-12  0.17120000000E+03  0.17120000000E+03 0.  0.
         13    1    1    2    0    0 -0.55741865057E+01 -0.12428111705E+02  0.59445455372E+02  0.60986087300E+02  0.10566000000E+00 0.  1.
        994    1    1    2    0    0 -0.26710527416E+02  0.11987065271E+01  0.41060075713E+01  0.17332394085E+03  0.17120000000E+03 0.  0.
        998    1    1    2    0    0  0.32284713921E+02  0.11229405178E+02  0.14364485333E+04  0.14368899719E+04  0.10000000000E+02 0.  1.
</event>
<event>
 5    1  0.1607440E-008  0.3857419E+03  0.7957747E-01  0.3426532E+00
         13   -1    0    0    0    0  0.00000000000E+00  0.00000000000E+00  0.14999999963E+04  0.15000000000E+04  0.10566000000E+00 0. -1.
        994   -1    0    0    0    0 -0.00000000000E+00 -0.00000000000E+00  0.11368683772E-12  0.17120000000E+03  0.17120000000E+03 0.  0.
         13    1    1    2    0    0 -0.12540741268E+02  0.47435299505E+01  0.68095850941E+02  0.69403366975E+02  0.10566000000E+00 0. -1.
        994    1    1    2    0    0  0.14991408683E+02 -0.59633485989E+01  0.21166822666E+01  0.17197157964E+03  0.17120000000E+03 0.  0.
        998    1    1    2    0    0 -0.24506674148E+01  0.12198186484E+01  0.14297874631E+04  0.14298250534E+04  0.10000000000E+02 0. -1.
</event>
<event>
 5    1  0.1607440E-008  0.4016149E+03  0.7957747E-01  0.3362124E+00
         13   -1    0    0    0    0  0.00000000000E+00  0.00000000000E+00  0.14999999963E+04  0.15000000000E+04  0.10566000000E+00 0. -1.
        994   -1    0    0    0    0 -0.00000000000E+00 -0.00000000000E+00  0.11368683772E-12  0.17120000000E+03  0.17120000000E+03 0.  0.
         13    1    1    2    0    0 -0.53605906527E+02  0.10938673912E+03  0.33693850034E+03  0.35828287160E+03  0.10566000000E+00 0. -1.
        994    1    1    2    0    0  0.36234828511E+02  0.79858060762E+00  0.33940287022E+02  0.17825538873E+03  0.17120000000E+03 0.  0.
        998    1    1    2    0    0  0.17371078016E+02 -0.11018531973E+03  0.11291212089E+04  0.11346617397E+04  0.10000000000E+02 0. -1.
</event>
<event>
 5    1  0.1607440E-008  0.3845546E+03  0.7957747E-01  0.3431564E+00
         13   -1    0    0    0    0  0.00000000000E+00  0.00000000000E+00  0.14999999963E+04  0.15000000000E+04  0.10566000000E+00 0.  1.
        994   -1    0    0    0    0 -0.00000000000E+00 -0.00000000000E+00  0.11368683772E-12  0.17120000000E+03  0.17120000000E+03 0.  0.
         13    1    1    2    0    0 -0.93335063755E+01  0.60059461339E+01  0.32015760850E+02  0.33885186100E+02  0.10566000000E+00 0.  1.
        994    1    1    2    0    0  0.99218383187E+01 -0.10169245877E+02  0.25165254035E+01  0.17180695369E+03  0.17120000000E+03 0.  0.
        998    1    1    2    0    0 -0.58833194318E+00  0.41632997432E+01  0.14654677100E+04  0.14655078602E+04  0.10000000000E+02 0.  1.
</event>
<event>
 5    1  0.1607440E-008  0.3802107E+03  0.7957747E-01  0.3450241E+00
         13   -1    0    0    0    0  0.00000000000E+00  0.00000000000E+00  0.14999999963E+04  0.15000000000E+04  0.10566000000E+00 0.  1.
        994   -1    0    0    0    0 -0.00000000000E+00 -0.00000000000E+00  0.11368683772E-12  0.17120000000E+03  0.17120000000E+03 0.  0.
         13    1    1    2    0    0  0.14417760535E+01  0.15629628246E+02  0.30668228395E+02  0.34451638484E+02  0.10566000000E+00 0.  1.
        994    1    1    2    0    0  0.92779357033E+01  0.64517849875E+01  0.44535253054E+01  0.17163035719E+03  0.17120000000E+03 0.  0.
        998    1    1    2    0    0 -0.10719711757E+02 -0.22081413234E+02  0.14648782426E+04  0.14651180043E+04  0.10000000000E+02 0.  1.
</event>
<event>
 5    1  0.1607440E-008  0.3781216E+03  0.7957747E-01  0.3459378E+00
         13   -1    0    0    0    0  0.00000000000E+00  0.00000000000E+00  0.14999999963E+04  0.15000000000E+04  0.10566000000E+00 0. -1.
        994   -1    0    0    0    0 -0.00000000000E+00 -0.00000000000E+00  0.11368683772E-12  0.17120000000E+03  0.17120000000E+03 0.  0.
         13    1    1    2    0    0  0.14726587499E+02 -0.18752770105E+01  0.19668962540E+02  0.24642814260E+02  0.10566000000E+00 0. -1.
        994    1    1    2    0    0 -0.69464809400E+01  0.30697224098E+01  0.52783828806E+01  0.17144963727E+03  0.17120000000E+03 0.  0.
        998    1    1    2    0    0 -0.77801065591E+01 -0.11944453993E+01  0.14750526509E+04  0.14751075485E+04  0.10000000000E+02 0. -1.
</event>
<event>
 5    1  0.1607440E-008  0.3689776E+03  0.7957747E-01  0.3500603E+00
         13   -1    0    0    0    0  0.00000000000E+00  0.00000000000E+00  0.14999999963E+04  0.15000000000E+04  0.10566000000E+00 0.  1.
        994   -1    0    0    0    0 -0.00000000000E+00 -0.00000000000E+00  0.11368683772E-12  0.17120000000E+03  0.17120000000E+03 0.  0.
         13    1    1    2    0    0  0.47717720528E+02  0.37164209761E+02  0.21423483668E+03  0.22260893008E+03  0.10566000000E+00 0.  1.
        994    1    1    2    0    0  0.12280517074E+01 -0.12867368872E+02  0.10384386496E+02  0.17200102551E+03  0.17120000000E+03 0.  0.
        998    1    1    2    0    0 -0.48945772236E+02 -0.24296840889E+02  0.12753807731E+04  0.12765900444E+04  0.10000000000E+02 0.  1.
</event>
<event>
 5    1  0.1607440E-008  0.3808920E+03  0.7957747E-01  0.3447283E+00
         13   -1    0    0    0    0  0.00000000000E+00  0.00000000000E+00  0.14999999963E+04  0.15000000000E+04  0.10566000000E+00 0.  1.
        994   -1    0    0    0    0 -0.00000000000E+00 -0.00000000000E+00  0.11368683772E-12  0.17120000000E+03  0.17120000000E+03 0.  0.
         13    1    1    2    0    0  0.15137520238E+02  0.71673448655E+01  0.38023386224E+02  0.41548819663E+02  0.10566000000E+00 0.  1.
        994    1    1    2    0    0 -0.77491445073E+01  0.13842502894E+02  0.45227882391E+01  0.17199290608E+03  0.17120000000E+03 0.  0.
        998    1    1    2    0    0 -0.73883757304E+01 -0.21009847760E+02  0.14574538218E+04  0.14576582743E+04  0.10000000000E+02 0.  1.
</event>
<event>
 5    1  0.1607440E-008  0.3828762E+03  0.7957747E-01  0.3438730E+00
         13   -1    0    0    0    0  0.00000000000E+00  0.00000000000E+00  0.14999999963E+04  0.15000000000E+04  0.10566000000E+00 0. -1.
        994   -1    0    0    0    0 -0.00000000000E+00 -0.00000000000E+00  0.11368683772E-12  0.17120000000E+03  0.17120000000E+03 0.  0.
         13    1    1    2    0    0  0.23375755103E+02 -0.22078384138E+01  0.84099997848E+02  0.87316214297E+02  0.10566000000E+00 0. -1.
        994    1    1    2    0    0 -0.50474229344E+02 -0.12222076770E+02  0.11671189114E+02  0.17928380753E+03  0.17120000000E+03 0.  0.
        998    1    1    2    0    0  0.27098474241E+02  0.14429915184E+02  0.14042288093E+04  0.14045999782E+04  0.10000000000E+02 0. -1.
</event>
<event>
 5    1  0.1607440E-008  0.3719653E+03  0.7957747E-01  0.3486907E+00
         13   -1    0    0    0    0  0.00000000000E+00  0.00000000000E+00  0.14999999963E+04  0.15000000000E+04  0.10566000000E+00 0.  1.
        994   -1    0    0    0    0 -0.00000000000E+00 -0.00000000000E+00  0.11368683772E-12  0.17120000000E+03  0.17120000000E+03 0.  0.
         13    1    1    2    0    0  0.63465329497E+02  0.10290164667E+02  0.22459983229E+03  0.23362112783E+03  0.10566000000E+00 0.  1.
        994    1    1    2    0    0 -0.52342864431E+02 -0.18215629404E+02  0.18869184855E+02  0.18093388502E+03  0.17120000000E+03 0.  0.
        998    1    1    2    0    0 -0.11122465065E+02  0.79254647368E+01  0.12565309791E+04  0.12566449872E+04  0.10000000000E+02 0.  1.
</event>
<event>
 5    1  0.1607440E-008  0.3829679E+03  0.7957747E-01  0.3438337E+00
         13   -1    0    0    0    0  0.00000000000E+00  0.00000000000E+00  0.14999999963E+04  0.15000000000E+04  0.10566000000E+00 0.  1.
        994   -1    0    0    0    0 -0.00000000000E+00 -0.00000000000E+00  0.11368683772E-12  0.17120000000E+03  0.17120000000E+03 0.  0.
         13    1    1    2    0    0  0.10643274133E+02  0.10141154577E+02  0.38636388380E+02  0.41338891754E+02  0.10566000000E+00 0.  1.
        994    1    1    2    0    0 -0.12903250030E+02 -0.13794973381E+02  0.38244802503E+01  0.17228134490E+03  0.17120000000E+03 0.  0.
        998    1    1    2    0    0  0.22599758969E+01  0.36538188042E+01  0.14575391276E+04  0.14575797633E+04  0.10000000000E+02 0.  1.
</event>
<event>
 5    1  0.1607440E-008  0.3851424E+03  0.7957747E-01  0.3429069E+00
         13   -1    0    0    0    0  0.00000000000E+00  0.00000000000E+00  0.14999999963E+04  0.15000000000E+04  0.10566000000E+00 0.  1.
        994   -1    0    0    0    0 -0.00000000000E+00 -0.00000000000E+00  0.11368683772E-12  0.17120000000E+03  0.17120000000E+03 0.  0.
         13    1    1    2    0    0 -0.95221493183E+00  0.15299318443E+02  0.83292827096E+02  0.84691688304E+02  0.10566000000E+00 0.  1.
        994    1    1    2    0    0  0.23373746132E+01  0.33719723198E+01  0.16148076229E+01  0.17125676956E+03  0.17120000000E+03 0.  0.
        998    1    1    2    0    0 -0.13851596814E+01 -0.18671290762E+02  0.14150923616E+04  0.14152515421E+04  0.10000000000E+02 0.  1.
</event>
<event>
 5    1  0.1607440E-008  0.3747265E+03  0.7957747E-01  0.3474447E+00
         13   -1    0    0    0    0  0.00000000000E+00  0.00000000000E+00  0.14999999963E+04  0.15000000000E+04  0.10566000000E+00 0. -1.
        994   -1    0    0    0    0 -0.00000000000E+00 -0.00000000000E+00  0.11368683772E-12  0.17120000000E+03  0.17120000000E+03 0.  0.
         13    1    1    2    0    0 -0.16240216976E+02  0.18854747686E+02  0.42935488199E+02  0.49625733935E+02  0.10566000000E+00 0. -1.
        994    1    1    2    0    0  0.26839298861E+02  0.37387678760E+01  0.93217086794E+01  0.17358185562E+03  0.17120000000E+03 0.  0.
        998    1    1    2    0    0 -0.10599081886E+02 -0.22593515562E+02  0.14477427994E+04  0.14479924104E+04  0.10000000000E+02 0. -1.
</event>
<event>
 5    1  0.1607440E-008  0.3814708E+03  0.7957747E-01  0.3444779E+00
         13   -1    0    0    0    0  0.00000000000E+00  0.00000000000E+00  0.14999999963E+04  0.15000000000E+04  0.10566000000E+00 0.  1.
        994   -1    0    0    0    0 -0.00000000000E+00 -0.00000000000E+00  0.11368683772E-12  0.17120000000E+03  0.17120000000E+03 0.  0.
         13    1    1    2    0    0  0.17800457279E+02 -0.15952926474E+02  0.80043087005E+02  0.83535974788E+02  0.10566000000E+00 0.  1.
        994    1    1    2    0    0 -0.17837311327E+02  0.13563123069E+02  0.50647767175E+01  0.17273453605E+03  0.17120000000E+03 0.  0.
        998    1    1    2    0    0  0.36854048026E-01  0.23898034044E+01  0.14148921326E+04  0.14149294892E+04  0.10000000000E+02 0.  1.
</event>
<event>
 5    1  0.1607440E-008  0.3835025E+03  0.7957747E-01  0.3436048E+00
         13   -1    0    0    0    0  0.00000000000E+00  0.00000000000E+00  0.14999999963E+04  0.15000000000E+04  0.10566000000E+00 0.  1.
        994   -1    0    0    0    0 -0.00000000000E+00 -0.00000000000E+00  0.11368683772E-12  0.17120000000E+03  0.17120000000E+03 0.  0.
         13    1    1    2    0    0  0.21722458421E+02 -0.35796855361E+01  0.10868386277E+03  0.11089126448E+03  0.10566000000E+00 0.  1.
        994    1    1    2    0    0 -0.42792732689E+01 -0.28987065178E+01  0.24637604893E+01  0.17129572322E+03  0.17120000000E+03 0.  0.
        998    1    1    2    0    0 -0.17443185152E+02  0.64783920539E+01  0.13888523730E+04  0.13890130123E+04  0.10000000000E+02 0.  1.
</event>
<event>
 5    1  0.1607440E-008  0.3781384E+03  0.7957747E-01  0.3459305E+00
         13   -1    0    0    0    0  0.00000000000E+00  0.00000000000E+00  0.14999999963E+04  0.15000000000E+04  0.10566000000E+00 0. -1.
        994   -1    0    0    0    0 -0.00000000000E+00 -0.00000000000E+00  0.11368683772E-12  0.17120000000E+03  0.17120000000E+03 0.  0.
         13    1    1    2    0    0 -0.18914433294E+02  0.39986395962E+02  0.17099360259E+03  0.17662245310E+03  0.10566000000E+00 0. -1.
        994    1    1    2    0    0  0.20693420275E+02 -0.38757107338E+02  0.11596342017E+02  0.17712776790E+03  0.17120000000E+03 0.  0.
        998    1    1    2    0    0 -0.17789869812E+01 -0.12292886239E+01  0.13174100517E+04  0.13174497790E+04  0.10000000000E+02 0. -1.
</event>
<event>
 5    1  0.1607440E-008  0.3839525E+03  0.7957747E-01  0.3434127E+00
         13   -1    0    0    0    0  0.00000000000E+00  0.00000000000E+00  0.14999999963E+04  0.15000000000E+04  0.10566000000E+00 0. -1.
        994   -1    0    0    0    0 -0.00000000000E+00 -0.00000000000E+00  0.11368683772E-12  0.17120000000E+03  0.17120000000E+03 0.  0.
         13    1    1    2    0    0 -0.12933318350E+02 -0.41972591989E+01  0.42336377677E+02  0.44466478916E+02  0.10566000000E+00 0. -1.
        994    1    1    2    0    0  0.76634378121E+01  0.79683612175E+01  0.25544936098E+01  0.17157560578E+03  0.17120000000E+03 0.  0.
        998    1    1    2    0    0  0.52698805379E+01 -0.37711020187E+01  0.14551091250E+04  0.14551579153E+04  0.10000000000E+02 0. -1.
</event>
<event>
 5    1  0.1863857E-008  0.3863207E+03  0.7957747E-01  0.3424090E+00
         13   -1    0    0    0    0  0.00000000000E+00  0.00000000000E+00  0.14999999963E+04  0.15000000000E+04  0.10566000000E+00 0. -1.
        994   -1    0    0    0    0 -0.00000000000E+00 -0.00000000000E+00  0.11368683772E-12  0.17120000000E+03  0.17120000000E+03 0.  0.
         13    1    1    2    0    0  0.10788879024E+02  0.55280446576E+01  0.69485577098E+02  0.70535209484E+02  0.10566000000E+00 0. -1.
        994    1    1    2    0    0 -0.17507279805E+02 -0.94200964109E+01  0.22711696585E+01  0.17236542946E+03  0.17120000000E+03 0.  0.
        998    1    1    2    0    0  0.67184007812E+01  0.38920517533E+01  0.14282432495E+04  0.14282993611E+04  0.10000000000E+02 0. -1.
</event>
<event>
 5    1  0.1607440E-008  0.3833354E+03  0.7957747E-01  0.3436763E+00
         13   -1    0    0    0    0  0.00000000000E+00  0.00000000000E+00  0.14999999963E+04  0.15000000000E+04  0.10566000000E+00 0.  1.
        994   -1    0    0    0    0 -0.00000000000E+00 -0.00000000000E+00  0.11368683772E-12  0.17120000000E+03  0.17120000000E+03 0.  0.
         13    1    1    2    0    0 -0.39418357606E+01 -0.17334005070E+02  0.60168093731E+02  0.62739273730E+02  0.10566000000E+00 0.  1.
        994    1    1    2    0    0  0.18226562205E+02  0.19146344903E+02  0.47728300758E+01  0.17329457579E+03  0.17120000000E+03 0.  0.
        998    1    1    2    0    0 -0.14284726445E+02 -0.18123398328E+01  0.14350590725E+04  0.14351661505E+04  0.10000000000E+02 0.  1.
</event>
<event>
 5    1  0.1607440E-008  0.3804340E+03  0.7957747E-01  0.3449271E+00
         13   -1    0    0    0    0  0.00000000000E+00  0.00000000000E+00  0.14999999963E+04  0.15000000000E+04  0.10566000000E+00 0. -1.
        994   -1    0    0    0    0 -0.00000000000E+00 -0.00000000000E+00  0.11368683772E-12  0.17120000000E+03  0.17120000000E+03 0.  0.
         13    1    1    2    0    0 -0.10259548183E+02  0.13019492740E+02  0.34233958760E+02  0.38036043650E+02  0.10566000000E+00 0. -1.
        994    1    1    2    0    0  0.41582464309E+01 -0.35473456341E+01  0.40139615875E+01  0.17133425391E+03  0.17120000000E+03 0.  0.
        998    1    1    2    0    0  0.61013017523E+01 -0.94721471061E+01  0.14617520759E+04  0.14618297024E+04  0.10000000000E+02 0. -1.
</event>
<event>
 5    1  0.1607440E-008  0.3809459E+03  0.7957747E-01  0.3447050E+00
         13   -1    0    0    0    0  0.00000000000E+00  0.00000000000E+00  0.14999999963E+04  0.15000000000E+04  0.10566000000E+00 0. -1.
        994   -1    0    0    0    0 -0.00000000000E+00 -0.00000000000E+00  0.11368683772E-12  0.17120000000E+03  0.17120000000E+03 0.  0.
         13    1    1    2    0    0 -0.15856537430E+03 -0.68936350927E+02  0.92478187834E+03  0.94080642646E+03  0.10566000000E+00 0. -1.
        994    1    1    2    0    0  0.16792840962E+03  0.77545366255E+02  0.12762492945E+03  0.28250804803E+03  0.17120000000E+03 0.  0.
        998    1    1    2    0    0 -0.93630353207E+01 -0.86090153283E+01  0.44759318849E+03  0.44788552550E+03  0.10000000000E+02 0. -1.
</event>
<event>
 5    1  0.1607440E-008  0.3829860E+03  0.7957747E-01  0.3438259E+00
         13   -1    0    0    0    0  0.00000000000E+00  0.00000000000E+00  0.14999999963E+04  0.15000000000E+04  0.10566000000E+00 0. -1.
        994   -1    0    0    0    0 -0.00000000000E+00 -0.00000000000E+00  0.11368683772E-12  0.17120000000E+03  0.17120000000E+03 0.  0.
         13    1    1    2    0    0 -0.10922754347E+02 -0.41896602096E+01  0.24633256020E+02  0.27270282019E+02  0.10566000000E+00 0. -1.
        994    1    1    2    0    0  0.13229300639E+02  0.22030427218E+01  0.32290001179E+01  0.17175486670E+03  0.17120000000E+03 0.  0.
        998    1    1    2    0    0 -0.23065462921E+01  0.19866174879E+01  0.14721377401E+04  0.14721748513E+04  0.10000000000E+02 0. -1.
</event>
<event>
 5    1  0.1607440E-008  0.3836818E+03  0.7957747E-01  0.3435282E+00
         13   -1    0    0    0    0  0.00000000000E+00  0.00000000000E+00  0.14999999963E+04  0.15000000000E+04  0.10566000000E+00 0.  1.
        994   -1    0    0    0    0 -0.00000000000E+00 -0.00000000000E+00  0.11368683772E-12  0.17120000000E+03  0.17120000000E+03 0.  0.
         13    1    1    2    0    0 -0.48914042773E+01 -0.24866175239E+02  0.13089889507E+03  0.13332960812E+03  0.10566000000E+00 0.  1.
        994    1    1    2    0    0  0.29105973008E+01  0.24016744240E+02  0.42214540965E+01  0.17295241038E+03  0.17120000000E+03 0.  0.
        998    1    1    2    0    0  0.19808069766E+01  0.84943099935E+00  0.13648796471E+04  0.13649179815E+04  0.10000000000E+02 0.  0.
</event>
<event>
 5    1  0.1607440E-008  0.3754948E+03  0.7957747E-01  0.3471013E+00
         13   -1    0    0    0    0  0.00000000000E+00  0.00000000000E+00  0.14999999963E+04  0.15000000000E+04  0.10566000000E+00 0. -1.
        994   -1    0    0    0    0 -0.00000000000E+00 -0.00000000000E+00  0.11368683772E-12  0.17120000000E+03  0.17120000000E+03 0.  0.
         13    1    1    2    0    0 -0.26049103585E+02  0.36295769426E+02  0.17339532811E+03  0.17905834147E+03  0.10566000000E+00 0. -1.
        994    1    1    2    0    0  0.55657487478E+01 -0.15847016197E+01  0.65385295522E+01  0.17142252246E+03  0.17120000000E+03 0.  0.
        998    1    1    2    0    0  0.20483354838E+02 -0.34711067807E+02  0.13200661386E+04  0.13207191361E+04  0.10000000000E+02 0. -1.
</event>
<event>
 5    1  0.1607440E-008  0.3753012E+03  0.7957747E-01  0.3471877E+00
         13   -1    0    0    0    0  0.00000000000E+00  0.00000000000E+00  0.14999999963E+04  0.15000000000E+04  0.10566000000E+00 0.  1.
        994   -1    0    0    0    0 -0.00000000000E+00 -0.00000000000E+00  0.11368683772E-12  0.17120000000E+03  0.17120000000E+03 0.  0.
         13    1    1    2    0    0  0.53472454079E+01 -0.38775998990E+02  0.51057137898E+02  0.64335166321E+02  0.10566000000E+00 0.  1.
        994    1    1    2    0    0  0.64902659351E+01  0.23823492378E+02  0.15944596088E+02  0.17370478544E+03  0.17120000000E+03 0.  0.
        998    1    1    2    0    0 -0.11837511343E+02  0.14952506613E+02  0.14329982623E+04  0.14331600482E+04  0.10000000000E+02 0.  1.
</event>
<event>
 5    1  0.1607440E-008  0.3862477E+03  0.7957747E-01  0.3424398E+00
         13   -1    0    0    0    0  0.00000000000E+00  0.00000000000E+00  0.14999999963E+04  0.15000000000E+04  0.10566000000E+00 0. -1.
        994   -1    0    0    0    0 -0.00000000000E+00 -0.00000000000E+00  0.11368683772E-12  0.17120000000E+03  0.17120000000E+03 0.  0.
         13    1    1    2    0    0 -0.17710245197E+01  0.10701836928E+02  0.57865932216E+02  0.58873959581E+02  0.10566000000E+00 0. -1.
        994    1    1    2    0    0  0.90457398369E+01 -0.87903200249E+01  0.15332315247E+01  0.17167086513E+03  0.17120000000E+03 0.  0.
        998    1    1    2    0    0 -0.72747153172E+01 -0.19115169031E+01  0.14406008325E+04  0.14406551753E+04  0.10000000000E+02 0. -1.
</event>
<event>
 5    1  0.1607440E-008  0.3767649E+03  0.7957747E-01  0.3465367E+00
         13   -1    0    0    0    0  0.00000000000E+00  0.00000000000E+00  0.14999999963E+04  0.15000000000E+04  0.10566000000E+00 0. -1.
        994   -1    0    0    0    0 -0.00000000000E+00 -0.00000000000E+00  0.11368683772E-12  0.17120000000E+03  0.17120000000E+03 0.  0.
         13    1    1    2    0    0  0.39737929919E+02 -0.14464172182E+03  0.84014026713E+03  0.85342604272E+03  0.10566000000E+00 0. -1.
        994    1    1    2    0    0 -0.38148436049E+02  0.14043558641E+03  0.81055433991E+02  0.23886582109E+03  0.17120000000E+03 0.  0.
        998    1    1    2    0    0 -0.15894938694E+01  0.42061354035E+01  0.57880429515E+03  0.57890813620E+03  0.10000000000E+02 0.  0.
</event>
<event>
 5    1  0.1607440E-008  0.3779994E+03  0.7957747E-01  0.3459916E+00
         13   -1    0    0    0    0  0.00000000000E+00  0.00000000000E+00  0.14999999963E+04  0.15000000000E+04  0.10566000000E+00 0.  1.
        994   -1    0    0    0    0 -0.00000000000E+00 -0.00000000000E+00  0.11368683772E-12  0.17120000000E+03  0.17120000000E+03 0.  0.
         13    1    1    2    0    0 -0.53042177961E+02  0.26482406921E+02  0.28629702811E+03  0.29237098007E+03  0.10566000000E+00 0.  1.
        994    1    1    2    0    0  0.51051657780E+02 -0.21163258305E+02  0.15493967036E+02  0.18056483123E+03  0.17120000000E+03 0.  0.
        998    1    1    2    0    0  0.19905201803E+01 -0.53191486154E+01  0.11982090011E+04  0.11982641887E+04  0.10000000000E+02 0.  1.
</event>
<event>
 5    1  0.1607440E-008  0.3731997E+03  0.7957747E-01  0.3481314E+00
         13   -1    0    0    0    0  0.00000000000E+00  0.00000000000E+00  0.14999999963E+04  0.15000000000E+04  0.10566000000E+00 0.  1.
        994   -1    0    0    0    0 -0.00000000000E+00 -0.00000000000E+00  0.11368683772E-12  0.17120000000E+03  0.17120000000E+03 0.  0.
         13    1    1    2    0    0  0.66192509292E+02  0.74997611310E+01  0.38822201792E+03  0.39389597747E+03  0.10566000000E+00 0.  1.
        994    1    1    2    0    0 -0.42232008046E+01 -0.63501023908E+01  0.78050898943E+01  0.17154742392E+03  0.17120000000E+03 0.  0.
        998    1    1    2    0    0 -0.61969308487E+02 -0.11496587402E+01  0.11039728885E+04  0.11057565986E+04  0.10000000000E+02 0.  1.
</event>
<event>
 5    1  0.1607440E-008  0.3856550E+03  0.7957747E-01  0.3426899E+00
         13   -1    0    0    0    0  0.00000000000E+00  0.00000000000E+00  0.14999999963E+04  0.15000000000E+04  0.10566000000E+00 0. -1.
        994   -1    0    0    0    0 -0.00000000000E+00 -0.00000000000E+00  0.11368683772E-12  0.17120000000E+03  0.17120000000E+03 0.  0.
         13    1    1    2    0    0 -0.13345732923E+02 -0.60164339907E+01  0.70896990055E+02  0.72392682145E+02  0.10566000000E+00 0. -1.
        994    1    1    2    0    0  0.30441084254E+02  0.81733748143E+01  0.45723220757E+01  0.17413733028E+03  0.17120000000E+03 0.  0.
        998    1    1    2    0    0 -0.17095351332E+02 -0.21569408236E+01  0.14245306841E+04  0.14246699876E+04  0.10000000000E+02 0. -1.
</event>
<event>
 5    1  0.1607440E-008  0.3760217E+03  0.7957747E-01  0.3468666E+00
         13   -1    0    0    0    0  0.00000000000E+00  0.00000000000E+00  0.14999999963E+04  0.15000000000E+04  0.10566000000E+00 0.  1.
        994   -1    0    0    0    0 -0.00000000000E+00 -0.00000000000E+00  0.11368683772E-12  0.17120000000E+03  0.17120000000E+03 0.  0.
         13    1    1    2    0    0  0.12742191701E+02  0.79841443891E+01  0.15547037224E+02  0.21629413803E+02  0.10566000000E+00 0.  1.
        994    1    1    2    0    0 -0.73355943724E+01 -0.15270668360E+02  0.71278488063E+01  0.17218376952E+03  0.17120000000E+03 0.  0.
        998    1    1    2    0    0 -0.54065973287E+01  0.72865239707E+01  0.14773251102E+04  0.14773868167E+04  0.10000000000E+02 0.  1.
</event>
<event>
 5    1  0.1607440E-008  0.3804432E+03  0.7957747E-01  0.3449231E+00
         13   -1    0    0    0    0  0.00000000000E+00  0.00000000000E+00  0.14999999963E+04  0.15000000000E+04  0.10566000000E+00 0.  1.
        994   -1    0    0    0    0 -0.00000000000E+00 -0.00000000000E+00  0.11368683772E-12  0.17120000000E+03  0.17120000000E+03 0.  0.
         13    1    1    2    0    0  0.25542582650E+02  0.39933812642E+02  0.58166936877E+02  0.75036901790E+02  0.10566000000E+00 0.  1.
        994    1    1    2    0    0 -0.44558807977E+02 -0.37252291769E+02  0.28917476129E+02  0.18308162397E+03  0.17120000000E+03 0.  0.
        998    1    1    2    0    0  0.19016225328E+02 -0.26815208733E+01  0.14129155833E+04  0.14130814742E+04  0.10000000000E+02 0.  1.
</event>
<event>
 5    1  0.1607440E-008  0.3832306E+03  0.7957747E-01  0.3437211E+00
         13   -1    0    0    0    0  0.00000000000E+00  0.00000000000E+00  0.14999999963E+04  0.15000000000E+04  0.10566000000E+00 0. -1.
        994   -1    0    0    0    0 -0.00000000000E+00 -0.00000000000E+00  0.11368683772E-12  0.17120000000E+03  0.17120000000E+03 0.  0.
         13    1    1    2    0    0  0.16339488753E+01  0.14276318184E+02  0.39296132591E+02  0.41841131085E+02  0.10566000000E+00 0. -1.
        994    1    1    2    0    0 -0.60776262182E+00 -0.16105358513E+02  0.33707955321E+01  0.17198998288E+03  0.17120000000E+03 0.  0.
        998    1    1    2    0    0 -0.10261862535E+01  0.18290403289E+01  0.14573330682E+04  0.14573688860E+04  0.10000000000E+02 0. -1.
</event>
<event>
 5    1  0.1607440E-008  0.3836290E+03  0.7957747E-01  0.3435508E+00
         13   -1    0    0    0    0  0.00000000000E+00  0.00000000000E+00  0.14999999963E+04  0.15000000000E+04  0.10566000000E+00 0.  1.
        994   -1    0    0    0    0 -0.00000000000E+00 -0.00000000000E+00  0.11368683772E-12  0.17120000000E+03  0.17120000000E+03 0.  0.
         13    1    1    2    0    0 -0.29224666662E+02  0.77464409409E+01  0.16911053616E+03  0.17179194711E+03  0.10566000000E+00 0.  1.
        994    1    1    2    0    0  0.50156262799E+02  0.34181417882E+02  0.14578388528E+02  0.18222510650E+03  0.17120000000E+03 0.  0.
        998    1    1    2    0    0 -0.20931596137E+02 -0.41927858823E+02  0.13163110716E+04  0.13171829464E+04  0.10000000000E+02 0.  1.
</event>
<event>
 5    1  0.1607440E-008  0.3770914E+03  0.7957747E-01  0.3463922E+00
         13   -1    0    0    0    0  0.00000000000E+00  0.00000000000E+00  0.14999999963E+04  0.15000000000E+04  0.10566000000E+00 0.  1.
        994   -1    0    0    0    0 -0.00000000000E+00 -0.00000000000E+00  0.11368683772E-12  0.17120000000E+03  0.17120000000E+03 0.  0.
         13    1    1    2    0    0 -0.21406742155E+02  0.31788652467E+02  0.22101557806E+03  0.22431376227E+03  0.10566000000E+00 0.  1.
        994    1    1    2    0    0 -0.22802754765E+02  0.43796130208E+02  0.13882706603E+02  0.17871831520E+03  0.17120000000E+03 0.  0.
        998    1    1    2    0    0  0.44209496920E+02 -0.75584782674E+02  0.12651017116E+04  0.12681679225E+04  0.10000000000E+02 0.  1.
</event>
<event>
 5    1  0.1607440E-008  0.3746743E+03  0.7957747E-01  0.3474681E+00
         13   -1    0    0    0    0  0.00000000000E+00  0.00000000000E+00  0.14999999963E+04  0.15000000000E+04  0.10566000000E+00 0.  1.
        994   -1    0    0    0    0 -0.00000000000E+00 -0.00000000000E+00  0.11368683772E-12  0.17120000000E+03  0.17120000000E+03 0.  0.
         13    1    1    2    0    0  0.11959773248E+03 -0.36382332336E+02  0.61789341221E+03  0.63041222366E+03  0.10566000000E+00 0.  1.
        994    1    1    2    0    0 -0.12474156949E+03  0.28185748401E+02  0.64713150461E+02  0.22327589976E+03  0.17120000000E+03 0.  0.
        998    1    1    2    0    0  0.51438370138E+01  0.81965839346E+01  0.81739343360E+03  0.81751187658E+03  0.10000000000E+02 0.  1.
</event>
<event>
 5    1  0.1607440E-008  0.3751084E+03  0.7957747E-01  0.3472738E+00
         13   -1    0    0    0    0  0.00000000000E+00  0.00000000000E+00  0.14999999963E+04  0.15000000000E+04  0.10566000000E+00 0. -1.
        994   -1    0    0    0    0 -0.00000000000E+00 -0.00000000000E+00  0.11368683772E-12  0.17120000000E+03  0.17120000000E+03 0.  0.
         13    1    1    2    0    0 -0.13484687055E+02  0.31597204958E+02  0.93693034695E+02  0.99792865780E+02  0.10566000000E+00 0. -1.
        994    1    1    2    0    0  0.96674310579E+01  0.13327581405E+01  0.69467220370E+01  0.17161856664E+03  0.17120000000E+03 0.  0.
        998    1    1    2    0    0  0.38172559967E+01 -0.32929963098E+02  0.13993602395E+04  0.13997885676E+04  0.10000000000E+02 0. -1.
</event>
<event>
 5    1  0.1607440E-008  0.3702732E+03  0.7957747E-01  0.3494636E+00
         13   -1    0    0    0    0  0.00000000000E+00  0.00000000000E+00  0.14999999963E+04  0.15000000000E+04  0.10566000000E+00 0.  1.
        994   -1    0    0    0    0 -0.00000000000E+00 -0.00000000000E+00  0.11368683772E-12  0.17120000000E+03  0.17120000000E+03 0.  0.
         13    1    1    2    0    0 -0.48196144359E+02  0.53506491403E+02  0.27974579443E+03  0.28886594403E+03  0.10566000000E+00 0.  1.
        994    1    1    2    0    0  0.13939873159E+02 -0.45167561945E+02  0.16884784904E+02  0.17840673944E+03  0.17120000000E+03 0.  0.
        998    1    1    2    0    0  0.34256271200E+02 -0.83389294583E+01  0.12033694169E+04  0.12039273165E+04  0.10000000000E+02 0.  1.
</event>
<event>
 5    1  0.1607440E-008  0.3731094E+03  0.7957747E-01  0.3481722E+00
         13   -1    0    0    0    0  0.00000000000E+00  0.00000000000E+00  0.14999999963E+04  0.15000000000E+04  0.10566000000E+00 0. -1.
        994   -1    0    0    0    0 -0.00000000000E+00 -0.00000000000E+00  0.11368683772E-12  0.17120000000E+03  0.17120000000E+03 0.  0.
         13    1    1    2    0    0  0.50682883821E+02  0.24202512204E+02  0.18046449893E+03  0.18900254720E+03  0.10566000000E+00 0. -1.
        994    1    1    2    0    0 -0.46502660780E+02 -0.31988925632E+02  0.18631068157E+02  0.18122457207E+03  0.17120000000E+03 0.  0.
        998    1    1    2    0    0 -0.41802230405E+01  0.77864134284E+01  0.13009044292E+04  0.13009728807E+04  0.10000000000E+02 0. -1.
</event>
<event>
 5    1  0.1607440E-008  0.3812102E+03  0.7957747E-01  0.3445906E+00
         13   -1    0    0    0    0  0.00000000000E+00  0.00000000000E+00  0.14999999963E+04  0.15000000000E+04  0.10566000000E+00 0. -1.
        994   -1    0    0    0    0 -0.00000000000E+00 -0.00000000000E+00  0.11368683772E-12  0.17120000000E+03  0.17120000000E+03 0.  0.
         13    1    1    2    0    0 -0.37180653928E+01  0.19264912904E+02  0.54018428464E+02  0.57471407301E+02  0.10566000000E+00 0. -1.
        994    1    1    2    0    0 -0.83117814302E+01 -0.11710805028E+02  0.42104622313E+01  0.17185283430E+03  0.17120000000E+03 0.  0.
        998    1    1    2    0    0  0.12029846823E+02 -0.75541078756E+01  0.14417711056E+04  0.14418757584E+04  0.10000000000E+02 0. -1.
</event>
<event>
 5    1  0.1607440E-008  0.3751584E+03  0.7957747E-01  0.3472515E+00
         13   -1    0    0    0    0  0.00000000000E+00  0.00000000000E+00  0.14999999963E+04  0.15000000000E+04  0.10566000000E+00 0. -1.
        994   -1    0    0    0    0 -0.00000000000E+00 -0.00000000000E+00  0.11368683772E-12  0.17120000000E+03  0.17120000000E+03 0.  0.
         13    1    1    2    0    0 -0.61596802356E+01 -0.11238501100E+02  0.93267514643E+01  0.15850710536E+02  0.10566000000E+00 0. -1.
        994    1    1    2    0    0  0.10313394627E+02  0.12783386746E+02  0.75144792917E+01  0.17215019165E+03  0.17120000000E+03 0.  0.
        998    1    1    2    0    0 -0.41537143916E+01 -0.15448856453E+01  0.14831587655E+04  0.14831990978E+04  0.10000000000E+02 0. -1.
</event>
<event>
 5    1  0.1607440E-008  0.3783961E+03  0.7957747E-01  0.3458172E+00
         13   -1    0    0    0    0  0.00000000000E+00  0.00000000000E+00  0.14999999963E+04  0.15000000000E+04  0.10566000000E+00 0.  1.
        994   -1    0    0    0    0 -0.00000000000E+00 -0.00000000000E+00  0.11368683772E-12  0.17120000000E+03  0.17120000000E+03 0.  0.
         13    1    1    2    0    0 -0.14383405161E+02 -0.13746571259E+02  0.39785570697E+02  0.44483180700E+02  0.10566000000E+00 0.  1.
        994    1    1    2    0    0  0.39470209179E+01 -0.47288920122E+01  0.50725254289E+01  0.17138585679E+03  0.17120000000E+03 0.  0.
        998    1    1    2    0    0  0.10436384243E+02  0.18475463272E+02  0.14551419002E+04  0.14553309625E+04  0.10000000000E+02 0.  1.
</event>
<event>
 5    1  0.1607440E-008  0.3782369E+03  0.7957747E-01  0.3458872E+00
         13   -1    0    0    0    0  0.00000000000E+00  0.00000000000E+00  0.14999999963E+04  0.15000000000E+04  0.10566000000E+00 0. -1.
        994   -1    0    0    0    0 -0.00000000000E+00 -0.00000000000E+00  0.11368683772E-12  0.17120000000E+03  0.17120000000E+03 0.  0.
         13    1    1    2    0    0  0.11722968597E+02 -0.12453435803E+02  0.27049275996E+02  0.32002977236E+02  0.10566000000E+00 0. -1.
        994    1    1    2    0    0 -0.10219968797E+02  0.62678858988E+01  0.55092520506E+01  0.17170767605E+03  0.17120000000E+03 0.  0.
        998    1    1    2    0    0 -0.15029998005E+01  0.61855499039E+01  0.14674414682E+04  0.14674893467E+04  0.10000000000E+02 0. -1.
</event>
<event>
 5    1  0.1607440E-008  0.3784290E+03  0.7957747E-01  0.3458028E+00
         13   -1    0    0    0    0  0.00000000000E+00  0.00000000000E+00  0.14999999963E+04  0.15000000000E+04  0.10566000000E+00 0. -1.
        994   -1    0    0    0    0 -0.00000000000E+00 -0.00000000000E+00  0.11368683772E-12  0.17120000000E+03  0.17120000000E+03 0.  0.
         13    1    1    2    0    0  0.24974464815E+02 -0.19137054229E+02  0.95035321066E+02  0.10010831210E+03  0.10566000000E+00 0. -1.
        994    1    1    2    0    0 -0.23561769019E+02  0.14191181328E+02  0.74747295355E+01  0.17355649849E+03  0.17120000000E+03 0.  0.
        998    1    1    2    0    0 -0.14126957961E+01  0.49458729003E+01  0.13974899457E+04  0.13975351894E+04  0.10000000000E+02 0. -1.
</event>
<event>
 5    1  0.1607440E-008  0.3814144E+03  0.7957747E-01  0.3445023E+00
         13   -1    0    0    0    0  0.00000000000E+00  0.00000000000E+00  0.14999999963E+04  0.15000000000E+04  0.10566000000E+00 0.  1.
        994   -1    0    0    0    0 -0.00000000000E+00 -0.00000000000E+00  0.11368683772E-12  0.17120000000E+03  0.17120000000E+03 0.  0.
         13    1    1    2    0    0  0.57968764753E+01 -0.14223922239E+02  0.32436855865E+02  0.35889894443E+02  0.10566000000E+00 0.  1.
        994    1    1    2    0    0 -0.52966381372E+01  0.16492462041E+02  0.44199066006E+01  0.17213085503E+03  0.17120000000E+03 0.  0.
        998    1    1    2    0    0 -0.50023833802E+00 -0.22685398012E+01  0.14631432338E+04  0.14631792505E+04  0.10000000000E+02 0.  0.
</event>
<event>
 5    1  0.1607440E-008  0.3733677E+03  0.7957747E-01  0.3480555E+00
         13   -1    0    0    0    0  0.00000000000E+00  0.00000000000E+00  0.14999999963E+04  0.15000000000E+04  0.10566000000E+00 0.  1.
        994   -1    0    0    0    0 -0.00000000000E+00 -0.00000000000E+00  0.11368683772E-12  0.17120000000E+03  0.17120000000E+03 0.  0.
         13    1    1    2    0    0 -0.39803102081E+00  0.10812153024E+02  0.44936894862E+01  0.11716035633E+02  0.10566000000E+00 0.  1.
        994    1    1    2    0    0  0.15441798985E+02  0.93099723706E+01  0.86313914791E+01  0.17236317954E+03  0.17120000000E+03 0.  0.
        998    1    1    2    0    0 -0.15043767964E+02 -0.20122125395E+02  0.14868749153E+04  0.14871207848E+04  0.10000000000E+02 0.  1.
</event>
<event>
 5    1  0.1607440E-008  0.3807632E+03  0.7957747E-01  0.3447842E+00
         13   -1    0    0    0    0  0.00000000000E+00  0.00000000000E+00  0.14999999963E+04  0.15000000000E+04  0.10566000000E+00 0. -1.
        994   -1    0    0    0    0 -0.00000000000E+00 -0.00000000000E+00  0.11368683772E-12  0.17120000000E+03  0.17120000000E+03 0.  0.
         13    1    1    2    0    0  0.17594536096E+02 -0.32396983728E+01  0.35161992236E+02  0.39451745310E+02  0.10566000000E+00 0. -1.
        994    1    1    2    0    0 -0.48741896366E+02  0.61136369844E+02  0.24409920791E+02  0.18978596474E+03  0.17120000000E+03 0.  0.
        998    1    1    2    0    0  0.31147360270E+02 -0.57896671471E+02  0.14404280833E+04  0.14419622900E+04  0.10000000000E+02 0. -1.
</event>
<event>
 5    1  0.1898667E-008  0.3850030E+03  0.7957747E-01  0.3429659E+00
         13   -1    0    0    0    0  0.00000000000E+00  0.00000000000E+00  0.14999999963E+04  0.15000000000E+04  0.10566000000E+00 0. -1.
        994   -1    0    0    0    0 -0.00000000000E+00 -0.00000000000E+00  0.11368683772E-12  0.17120000000E+03  0.17120000000E+03 0.  0.
         13    1    1    2    0    0 -0.10910482037E+02  0.30454635646E+01  0.38939620634E+02  0.40553898528E+02  0.10566000000E+00 0. -1.
        994    1    1    2    0    0  0.86294350402E+01 -0.36422460419E+01  0.19172024475E+01  0.17146675704E+03  0.17120000000E+03 0.  0.
        998    1    1    2    0    0  0.22810469972E+01  0.59678247731E+00  0.14591431732E+04  0.14591793444E+04  0.10000000000E+02 0. -1.
</event>
<event>
 5    1  0.1607440E-008  0.3848848E+03  0.7957747E-01  0.3430161E+00
         13   -1    0    0    0    0  0.00000000000E+00  0.00000000000E+00  0.14999999963E+04  0.15000000000E+04  0.10566000000E+00 0.  1.
        994   -1    0    0    0    0 -0.00000000000E+00 -0.00000000000E+00  0.11368683772E-12  0.17120000000E+03  0.17120000000E+03 0.  0.
         13    1    1    2    0    0 -0.20250958371E+01  0.11212814026E+02  0.37379033781E+02  0.39077250952E+02  0.10566000000E+00 0.  1.
        994    1    1    2    0    0  0.41620364713E+01 -0.12109333237E+02  0.22269144618E+01  0.17169262549E+03  0.17120000000E+03 0.  0.
        998    1    1    2    0    0 -0.21369406341E+01  0.89651921050E+00  0.14603940480E+04  0.14604301236E+04  0.10000000000E+02 0.  1.
</event>
<event>
 5    1  0.1607440E-008  0.4061349E+03  0.7957747E-01  0.3344701E+00
         13   -1    0    0    0    0  0.00000000000E+00  0.00000000000E+00  0.14999999963E+04  0.15000000000E+04  0.10566000000E+00 0. -1.
        994   -1    0    0    0    0 -0.00000000000E+00 -0.00000000000E+00  0.11368683772E-12  0.17120000000E+03  0.17120000000E+03 0.  0.
         13    1    1    2    0    0  0.54237995683E+02  0.22297525719E+02  0.42887242737E+02  0.72651679833E+02  0.10566000000E+00 0. -1.
        994    1    1    2    0    0 -0.55873613886E+02 -0.33795309594E+01  0.44186831097E+02  0.18545942414E+03  0.17120000000E+03 0.  0.
        998    1    1    2    0    0  0.16356182023E+01 -0.18917994760E+02  0.14129259224E+04  0.14130888960E+04  0.10000000000E+02 0. -1.
</event>
<event>
 5    1  0.1607440E-008  0.3830414E+03  0.7957747E-01  0.3438022E+00
         13   -1    0    0    0    0  0.00000000000E+00  0.00000000000E+00  0.14999999963E+04  0.15000000000E+04  0.10566000000E+00 0. -1.
        994   -1    0    0    0    0 -0.00000000000E+00 -0.00000000000E+00  0.11368683772E-12  0.17120000000E+03  0.17120000000E+03 0.  0.
         13    1    1    2    0    0  0.83311470998E+01  0.29145312610E+02  0.16171314623E+03  0.16452966324E+03  0.10566000000E+00 0. -1.
        994    1    1    2    0    0 -0.36968057797E+01 -0.28291435928E+02  0.53046599365E+01  0.17364230803E+03  0.17120000000E+03 0.  0.
        998    1    1    2    0    0 -0.46343413201E+01 -0.85387668110E+00  0.13329821901E+04  0.13330280287E+04  0.10000000000E+02 0. -1.
</event>
<event>
 5    1  0.1607440E-008  0.3768668E+03  0.7957747E-01  0.3464916E+00
         13   -1    0    0    0    0  0.00000000000E+00  0.00000000000E+00  0.14999999963E+04  0.15000000000E+04  0.10566000000E+00 0. -1.
        994   -1    0    0    0    0 -0.00000000000E+00 -0.00000000000E+00  0.11368683772E-12  0.17120000000E+03  0.17120000000E+03 0.  0.
         13    1    1    2    0    0 -0.94712480746E+01 -0.72915607988E+01  0.99412200771E+01  0.15547038935E+02  0.10566000000E+00 0. -1.
        994    1    1    2    0    0  0.11546617863E+02 -0.30371084360E+01  0.62048578194E+01  0.17172794960E+03  0.17120000000E+03 0.  0.
        998    1    1    2    0    0 -0.20753697888E+01  0.10328669235E+02  0.14838539184E+04  0.14839250115E+04  0.10000000000E+02 0. -1.
</event>
<event>
 5    1  0.1607440E-008  0.3841234E+03  0.7957747E-01  0.3433399E+00
         13   -1    0    0    0    0  0.00000000000E+00  0.00000000000E+00  0.14999999963E+04  0.15000000000E+04  0.10566000000E+00 0.  1.
        994   -1    0    0    0    0 -0.00000000000E+00 -0.00000000000E+00  0.11368683772E-12  0.17120000000E+03  0.17120000000E+03 0.  0.
         13    1    1    2    0    0  0.92346551314E+01  0.59382737007E+01  0.28048363996E+02  0.30120820653E+02  0.10566000000E+00 0.  1.
        994    1    1    2    0    0 -0.19515658765E+02  0.68519666389E+01  0.34781801221E+01  0.17247999339E+03  0.17120000000E+03 0.  0.
        998    1    1    2    0    0  0.10281003634E+02 -0.12790240340E+02  0.14684734522E+04  0.14685991860E+04  0.10000000000E+02 0.  1.
</event>
<event>
 5    1  0.1607440E-008  0.3752582E+03  0.7957747E-01  0.3472069E+00
         13   -1    0    0    0    0  0.00000000000E+00  0.00000000000E+00  0.14999999963E+04  0.15000000000E+04  0.10566000000E+00 0. -1.
        994   -1    0    0    0    0 -0.00000000000E+00 -0.00000000000E+00  0.11368683772E-12  0.17120000000E+03  0.17120000000E+03 0.  0.
         13    1    1    2    0    0 -0.48762043316E+02  0.29985861445E+02  0.34210069083E+03  0.34685700596E+03  0.10566000000E+00 0. -1.
        994    1    1    2    0    0 -0.53031815651E+01 -0.10655273411E+01  0.66455822321E+01  0.17141430176E+03  0.17120000000E+03 0.  0.
        998    1    1    2    0    0  0.54065224881E+02 -0.28920334104E+02  0.11512537232E+04  0.11529286923E+04  0.10000000000E+02 0. -1.
</event>
<event>
 5    1  0.1607440E-008  0.3843050E+03  0.7957747E-01  0.3432625E+00
         13   -1    0    0    0    0  0.00000000000E+00  0.00000000000E+00  0.14999999963E+04  0.15000000000E+04  0.10566000000E+00 0.  1.
        994   -1    0    0    0    0 -0.00000000000E+00 -0.00000000000E+00  0.11368683772E-12  0.17120000000E+03  0.17120000000E+03 0.  0.
         13    1    1    2    0    0  0.12941367711E+02  0.62842139714E+02  0.89902571980E+02  0.11044952302E+03  0.10566000000E+00 0.  1.
        994    1    1    2    0    0  0.11690856534E+02 -0.94096843735E+02  0.52623097212E+02  0.20265616815E+03  0.17120000000E+03 0.  0.
        998    1    1    2    0    0 -0.24632224245E+02  0.31254704022E+02  0.13574743271E+04  0.13580943088E+04  0.10000000000E+02 0.  1.
</event>
<event>
 5    1  0.1607440E-008  0.3821294E+03  0.7957747E-01  0.3441939E+00
         13   -1    0    0    0    0  0.00000000000E+00  0.00000000000E+00  0.14999999963E+04  0.15000000000E+04  0.10566000000E+00 0. -1.
        994   -1    0    0    0    0 -0.00000000000E+00 -0.00000000000E+00  0.11368683772E-12  0.17120000000E+03  0.17120000000E+03 0.  0.
         13    1    1    2    0    0  0.12291250970E+02 -0.31250958147E+01  0.24809632387E+02  0.27863418625E+02  0.10566000000E+00 0. -1.
        994    1    1    2    0    0 -0.12783155238E+02  0.40410736532E+00  0.36052668034E+01  0.17171490998E+03  0.17120000000E+03 0.  0.
        998    1    1    2    0    0  0.49190426792E+00  0.27209884494E+01  0.14715850971E+04  0.14716216714E+04  0.10000000000E+02 0. -1.
</event>
<event>
 5    1  0.1607440E-008  0.3798418E+03  0.7957747E-01  0.3451848E+00
         13   -1    0    0    0    0  0.00000000000E+00  0.00000000000E+00  0.14999999963E+04  0.15000000000E+04  0.10566000000E+00 0.  1.
        994   -1    0    0    0    0 -0.00000000000E+00 -0.00000000000E+00  0.11368683772E-12  0.17120000000E+03  0.17120000000E+03 0.  0.
         13    1    1    2    0    0 -0.59138028885E+02 -0.23739534390E+02  0.35832934771E+03  0.36395165138E+03  0.10566000000E+00 0.  1.
        994    1    1    2    0    0  0.60902028094E+02  0.25521686979E+02  0.18937767664E+02  0.18446813431E+03  0.17120000000E+03 0.  0.
        998    1    1    2    0    0 -0.17639992088E+01 -0.17821525884E+01  0.11227328809E+04  0.11227802143E+04  0.10000000000E+02 0.  1.
</event>
<event>
 5    1  0.1607440E-008  0.4036281E+03  0.7957747E-01  0.3354316E+00
         13   -1    0    0    0    0  0.00000000000E+00  0.00000000000E+00  0.14999999963E+04  0.15000000000E+04  0.10566000000E+00 0.  1.
        994   -1    0    0    0    0 -0.00000000000E+00 -0.00000000000E+00  0.11368683772E-12  0.17120000000E+03  0.17120000000E+03 0.  0.
         13    1    1    2    0    0  0.87231739424E+02 -0.17517425049E+02  0.12017366537E+03  0.14952577556E+03  0.10566000000E+00 0.  1.
        994    1    1    2    0    0 -0.54307948982E+02  0.80459570164E+02  0.68498214133E+02  0.20838555874E+03  0.17120000000E+03 0.  0.
        998    1    1    2    0    0 -0.32923790442E+02 -0.62942145115E+02  0.13113281168E+04  0.13132886657E+04  0.10000000000E+02 0.  1.
</event>
<event>
 5    1  0.1607440E-008  0.3707353E+03  0.7957747E-01  0.3492518E+00
         13   -1    0    0    0    0  0.00000000000E+00  0.00000000000E+00  0.14999999963E+04  0.15000000000E+04  0.10566000000E+00 0. -1.
        994   -1    0    0    0    0 -0.00000000000E+00 -0.00000000000E+00  0.11368683772E-12  0.17120000000E+03  0.17120000000E+03 0.  0.
         13    1    1    2    0    0  0.16372953457E+02 -0.53004958079E+01  0.84468357474E+01  0.19171047413E+02  0.10566000000E+00 0. -1.
        994    1    1    2    0    0  0.16445508532E+02  0.20124955842E+02  0.13699273081E+02  0.17370255807E+03  0.17120000000E+03 0.  0.
        998    1    1    2    0    0 -0.32818461989E+02 -0.14824460035E+02  0.14778538875E+04  0.14783263945E+04  0.10000000000E+02 0. -1.
</event>
<event>
 5    1  0.1607440E-008  0.3763653E+03  0.7957747E-01  0.3467139E+00
         13   -1    0    0    0    0  0.00000000000E+00  0.00000000000E+00  0.14999999963E+04  0.15000000000E+04  0.10566000000E+00 0.  1.
        994   -1    0    0    0    0 -0.00000000000E+00 -0.00000000000E+00  0.11368683772E-12  0.17120000000E+03  0.17120000000E+03 0.  0.
         13    1    1    2    0    0 -0.19413881452E+02  0.29020486093E+02  0.95411885155E+02  0.10159983464E+03  0.10566000000E+00 0.  1.
        994    1    1    2    0    0  0.20761327323E+02 -0.24428845791E+02  0.94648568989E+01  0.17443286598E+03  0.17120000000E+03 0.  0.
        998    1    1    2    0    0 -0.13474458716E+01 -0.45916403027E+01  0.13951232542E+04  0.13951672994E+04  0.10000000000E+02 0.  1.
</event>
<event>
 5    1  0.1607440E-008  0.3699818E+03  0.7957747E-01  0.3495975E+00
         13   -1    0    0    0    0  0.00000000000E+00  0.00000000000E+00  0.14999999963E+04  0.15000000000E+04  0.10566000000E+00 0. -1.
        994   -1    0    0    0    0 -0.00000000000E+00 -0.00000000000E+00  0.11368683772E-12  0.17120000000E+03  0.17120000000E+03 0.  0.
         13    1    1    2    0    0  0.42453647096E+02  0.62652641534E+01  0.92690478966E+02  0.10214255598E+03  0.10566000000E+00 0. -1.
        994    1    1    2    0    0 -0.36382079248E+02 -0.39259398012E+01  0.13923081093E+02  0.17561993304E+03  0.17120000000E+03 0.  0.
        998    1    1    2    0    0 -0.60715678478E+01 -0.23393243522E+01  0.13933864362E+04  0.13934375110E+04  0.10000000000E+02 0. -1.
</event>
<event>
 5    1  0.1607440E-008  0.3716272E+03  0.7957747E-01  0.3488446E+00
         13   -1    0    0    0    0  0.00000000000E+00  0.00000000000E+00  0.14999999963E+04  0.15000000000E+04  0.10566000000E+00 0.  1.
        994   -1    0    0    0    0 -0.00000000000E+00 -0.00000000000E+00  0.11368683772E-12  0.17120000000E+03  0.17120000000E+03 0.  0.
         13    1    1    2    0    0  0.21719508811E+02 -0.56210086923E+02  0.25907954895E+03  0.26599536610E+03  0.10566000000E+00 0.  1.
        994    1    1    2    0    0 -0.60697009976E+01  0.24177424257E+01  0.85678015983E+01  0.17153872441E+03  0.17120000000E+03 0.  0.
        998    1    1    2    0    0 -0.15649807813E+02  0.53792344498E+02  0.12323526457E+04  0.12336659095E+04  0.10000000000E+02 0.  1.
</event>
<event>
 5    1  0.1607440E-008  0.3771655E+03  0.7957747E-01  0.3463594E+00
         13   -1    0    0    0    0  0.00000000000E+00  0.00000000000E+00  0.14999999963E+04  0.15000000000E+04  0.10566000000E+00 0.  1.
        994   -1    0    0    0    0 -0.00000000000E+00 -0.00000000000E+00  0.11368683772E-12  0.17120000000E+03  0.17120000000E+03 0.  0.
         13    1    1    2    0    0 -0.34726630631E+02  0.57482345764E+02  0.13898986388E+03  0.15436434943E+03  0.10566000000E+00 0.  1.
        994    1    1    2    0    0  0.46574075778E+02 -0.40912736104E+02  0.28692715370E+02  0.18432500760E+03  0.17120000000E+03 0.  0.
        998    1    1    2    0    0 -0.11847445148E+02 -0.16569609660E+02  0.13323174170E+04  0.13325106430E+04  0.10000000000E+02 0.  1.
</event>
<event>
 5    1  0.1607440E-008  0.3790256E+03  0.7957747E-01  0.3455412E+00
         13   -1    0    0    0    0  0.00000000000E+00  0.00000000000E+00  0.14999999963E+04  0.15000000000E+04  0.10566000000E+00 0.  1.
        994   -1    0    0    0    0 -0.00000000000E+00 -0.00000000000E+00  0.11368683772E-12  0.17120000000E+03  0.17120000000E+03 0.  0.
         13    1    1    2    0    0  0.10072658934E+02  0.12098930938E+01  0.90559867698E+01  0.13599424977E+02  0.10566000000E+00 0.  1.
        994    1    1    2    0    0 -0.66030192984E+01 -0.39274572204E+01  0.48237889334E+01  0.17144017535E+03  0.17120000000E+03 0.  0.
        998    1    1    2    0    0 -0.34696396361E+01  0.27175641266E+01  0.14861202206E+04  0.14861603997E+04  0.10000000000E+02 0.  1.
</event>
<event>
 5    1  0.1607440E-008  0.3850485E+03  0.7957747E-01  0.3429467E+00
         13   -1    0    0    0    0  0.00000000000E+00  0.00000000000E+00  0.14999999963E+04  0.15000000000E+04  0.10566000000E+00 0. -1.
        994   -1    0    0    0    0 -0.00000000000E+00 -0.00000000000E+00  0.11368683772E-12  0.17120000000E+03  0.17120000000E+03 0.  0.
         13    1    1    2    0    0 -0.10683497239E+02 -0.66943253195E+01  0.50724839259E+02  0.52268265579E+02  0.10566000000E+00 0. -1.
        994    1    1    2    0    0 -0.15416867891E+01  0.10079106528E+02  0.19479859529E+01  0.17151443040E+03  0.17120000000E+03 0.  0.
        998    1    1    2    0    0  0.12225184028E+02 -0.33847812084E+01  0.14473271711E+04  0.14474173040E+04  0.10000000000E+02 0. -1.
</event>
<event>
 5    1  0.1607440E-008  0.3720640E+03  0.7957747E-01  0.3486459E+00
         13   -1    0    0    0    0  0.00000000000E+00  0.00000000000E+00  0.14999999963E+04  0.15000000000E+04  0.10566000000E+00 0.  1.
        994   -1    0    0    0    0 -0.00000000000E+00 -0.00000000000E+00  0.11368683772E-12  0.17120000000E+03  0.17120000000E+03 0.  0.
         13    1    1    2    0    0  0.19880908361E+02  0.65000650333E+01  0.12928120912E+02  0.24589608314E+02  0.10566000000E+00 0.  1.
        994    1    1    2    0    0 -0.14001752451E+02 -0.84323787676E+01  0.12975670858E+02  0.17246727840E+03  0.17120000000E+03 0.  0.
        998    1    1    2    0    0 -0.58791559092E+01  0.19323137343E+01  0.14740962045E+04  0.14741431133E+04  0.10000000000E+02 0.  1.
</event>
<event>
 5    1  0.1607440E-008  0.3753667E+03  0.7957747E-01  0.3471584E+00
         13   -1    0    0    0    0  0.00000000000E+00  0.00000000000E+00  0.14999999963E+04  0.15000000000E+04  0.10566000000E+00 0.  1.
        994   -1    0    0    0    0 -0.00000000000E+00 -0.00000000000E+00  0.11368683772E-12  0.17120000000E+03  0.17120000000E+03 0.  0.
         13    1    1    2    0    0  0.12825144049E+03 -0.28795026074E+01  0.74073556343E+03  0.75176187029E+03  0.10566000000E+00 0.  1.
        994    1    1    2    0    0 -0.12759850224E+03 -0.51626683789E+02  0.73801697357E+02  0.23173869505E+03  0.17120000000E+03 0.  0.
        998    1    1    2    0    0 -0.65293825263E+00  0.54506186397E+02  0.68546273549E+03  0.68769943466E+03  0.10000000000E+02 0. -1.
</event>
<event>
 5    1  0.1607440E-008  0.3835506E+03  0.7957747E-01  0.3435843E+00
         13   -1    0    0    0    0  0.00000000000E+00  0.00000000000E+00  0.14999999963E+04  0.15000000000E+04  0.10566000000E+00 0.  1.
        994   -1    0    0    0    0 -0.00000000000E+00 -0.00000000000E+00  0.11368683772E-12  0.17120000000E+03  0.17120000000E+03 0.  0.
         13    1    1    2    0    0 -0.79484599164E+01  0.17681805695E+02  0.80588745943E+02  0.82887763900E+02  0.10566000000E+00 0.  1.
        994    1    1    2    0    0  0.10721644550E+02 -0.59006273264E+01  0.28464729752E+01  0.17166045984E+03  0.17120000000E+03 0.  0.
        998    1    1    2    0    0 -0.27731846338E+01 -0.11781178368E+02  0.14165647774E+04  0.14166517763E+04  0.10000000000E+02 0.  1.
</event>
<event>
 5    1  0.1607440E-008  0.3792360E+03  0.7957747E-01  0.3454492E+00
         13   -1    0    0    0    0  0.00000000000E+00  0.00000000000E+00  0.14999999963E+04  0.15000000000E+04  0.10566000000E+00 0. -1.
        994   -1    0    0    0    0 -0.00000000000E+00 -0.00000000000E+00  0.11368683772E-12  0.17120000000E+03  0.17120000000E+03 0.  0.
         13    1    1    2    0    0 -0.65459302019E+02 -0.11369066192E+03  0.74145851272E+03  0.75297491597E+03  0.10566000000E+00 0. -1.
        994    1    1    2    0    0  0.10432010568E+03  0.10922147494E+03  0.85210684609E+02  0.24368486988E+03  0.17120000000E+03 0.  0.
        998    1    1    2    0    0 -0.38860803657E+02  0.44691869811E+01  0.67333079895E+03  0.67454021415E+03  0.10000000000E+02 0. -1.
</event>
<event>
 5    1  0.1607440E-008  0.3728795E+03  0.7957747E-01  0.3482761E+00
         13   -1    0    0    0    0  0.00000000000E+00  0.00000000000E+00  0.14999999963E+04  0.15000000000E+04  0.10566000000E+00 0. -1.
        994   -1    0    0    0    0 -0.00000000000E+00 -0.00000000000E+00  0.11368683772E-12  0.17120000000E+03  0.17120000000E+03 0.  0.
         13    1    1    2    0    0 -0.36078806762E+02  0.14036142791E+01  0.82256197218E+02  0.89831751487E+02  0.10566000000E+00 0. -1.
        994    1    1    2    0    0  0.18549456137E+02 -0.47207980304E+01  0.90270355110E+01  0.17250303078E+03  0.17120000000E+03 0.  0.
        998    1    1    2    0    0  0.17529350625E+02  0.33171837513E+01  0.14087167635E+04  0.14088652177E+04  0.10000000000E+02 0. -1.
</event>
<event>
 5    1  0.1607440E-008  0.3838372E+03  0.7957747E-01  0.3434619E+00
         13   -1    0    0    0    0  0.00000000000E+00  0.00000000000E+00  0.14999999963E+04  0.15000000000E+04  0.10566000000E+00 0. -1.
        994   -1    0    0    0    0 -0.00000000000E+00 -0.00000000000E+00  0.11368683772E-12  0.17120000000E+03  0.17120000000E+03 0.  0.
         13    1    1    2    0    0 -0.17716432304E+02  0.15432990013E+01  0.70994759863E+02  0.73188256144E+02  0.10566000000E+00 0. -1.
        994    1    1    2    0    0  0.12063313169E+02  0.26618439630E+01  0.27125061345E+01  0.17166655652E+03  0.17120000000E+03 0.  0.
        998    1    1    2    0    0  0.56531191354E+01 -0.42051429643E+01  0.14262927303E+04  0.14263451873E+04  0.10000000000E+02 0. -1.
</event>
<event>
 5    1  0.1607440E-008  0.3762308E+03  0.7957747E-01  0.3467737E+00
         13   -1    0    0    0    0  0.00000000000E+00  0.00000000000E+00  0.14999999963E+04  0.15000000000E+04  0.10566000000E+00 0.  1.
        994   -1    0    0    0    0 -0.00000000000E+00 -0.00000000000E+00  0.11368683772E-12  0.17120000000E+03  0.17120000000E+03 0.  0.
         13    1    1    2    0    0 -0.11217376517E+02  0.88277026740E+01  0.14296448563E+02  0.20202907612E+02  0.10566000000E+00 0.  1.
        994    1    1    2    0    0  0.67064291622E+01 -0.27705905861E+01  0.62263141461E+01  0.17146678790E+03  0.17120000000E+03 0.  0.
        998    1    1    2    0    0  0.45109473548E+01 -0.60571120879E+01  0.14794772336E+04  0.14795303045E+04  0.10000000000E+02 0.  1.
</event>
<event>
 5    1  0.1607440E-008  0.3844250E+03  0.7957747E-01  0.3432114E+00
         13   -1    0    0    0    0  0.00000000000E+00  0.00000000000E+00  0.14999999963E+04  0.15000000000E+04  0.10566000000E+00 0.  1.
        994   -1    0    0    0    0 -0.00000000000E+00 -0.00000000000E+00  0.11368683772E-12  0.17120000000E+03  0.17120000000E+03 0.  0.
         13    1    1    2    0    0 -0.18488518917E+02 -0.10155563945E+02  0.12634831940E+03  0.12809711078E+03  0.10566000000E+00 0.  1.
        994    1    1    2    0    0  0.45759591616E+01 -0.25205103274E+01  0.20057952179E+01  0.17129143466E+03  0.17120000000E+03 0.  0.
        998    1    1    2    0    0  0.13912559755E+02  0.12676074272E+02  0.13716458817E+04  0.13718114546E+04  0.10000000000E+02 0.  1.
</event>
<event>
 5    1  0.1607440E-008  0.3720460E+03  0.7957747E-01  0.3486540E+00
         13   -1    0    0    0    0  0.00000000000E+00  0.00000000000E+00  0.14999999963E+04  0.15000000000E+04  0.10566000000E+00 0.  1.
        994   -1    0    0    0    0 -0.00000000000E+00 -0.00000000000E+00  0.11368683772E-12  0.17120000000E+03  0.17120000000E+03 0.  0.
         13    1    1    2    0    0  0.17764251321E+02  0.26639990956E+01  0.81065362146E+01  0.19707678951E+02  0.10566000000E+00 0.  1.
        994    1    1    2    0    0 -0.11782988840E+02  0.21155646517E+01  0.12529571518E+02  0.17207482269E+03  0.17120000000E+03 0.  0.
        998    1    1    2    0    0 -0.59812624809E+01 -0.47795637473E+01  0.14793638885E+04  0.14794174984E+04  0.10000000000E+02 0.  1.
</event>
<event>
 5    1  0.1607440E-008  0.3826784E+03  0.7957747E-01  0.3439578E+00
         13   -1    0    0    0    0  0.00000000000E+00  0.00000000000E+00  0.14999999963E+04  0.15000000000E+04  0.10566000000E+00 0.  1.
        994   -1    0    0    0    0 -0.00000000000E+00 -0.00000000000E+00  0.11368683772E-12  0.17120000000E+03  0.17120000000E+03 0.  0.
         13    1    1    2    0    0  0.13097658058E+02  0.56406748873E+01  0.36593009021E+02  0.39273723188E+02  0.10566000000E+00 0.  1.
        994    1    1    2    0    0  0.56195458674E+00 -0.65373759037E+01  0.29298386191E+01  0.17135074272E+03  0.17120000000E+03 0.  0.
        998    1    1    2    0    0 -0.13659612645E+02  0.89670101639E+00  0.14604771486E+04  0.14605755341E+04  0.10000000000E+02 0.  1.
</event>
<event>
 5    1  0.1607440E-008  0.2590626E+03  0.7957747E-01  0.4239956E+00
         13   -1    0    0    0    0  0.00000000000E+00  0.00000000000E+00  0.14999999963E+04  0.15000000000E+04  0.10566000000E+00 0. -1.
        994   -1    0    0    0    0 -0.00000000000E+00 -0.00000000000E+00  0.11368683772E-12  0.17120000000E+03  0.17120000000E+03 0.  0.
         13    1    1    2    0    0 -0.29744223763E+02 -0.14453123606E+03  0.58114627844E+03  0.59958736240E+03  0.10566000000E+00 0. -1.
        994    1    1    2    0    0 -0.66751150709E+02  0.34448005954E+02  0.54277415794E+02  0.19467372473E+03  0.17120000000E+03 0.  0.
        998    1    1    2    0    0  0.96495374471E+02  0.11008323010E+03  0.86457630205E+03  0.87693891287E+03  0.10000000000E+02 0. -1.
</event>
<event>
 5    1  0.1607440E-008  0.3818435E+03  0.7957747E-01  0.3443171E+00
         13   -1    0    0    0    0  0.00000000000E+00  0.00000000000E+00  0.14999999963E+04  0.15000000000E+04  0.10566000000E+00 0. -1.
        994   -1    0    0    0    0 -0.00000000000E+00 -0.00000000000E+00  0.11368683772E-12  0.17120000000E+03  0.17120000000E+03 0.  0.
         13    1    1    2    0    0 -0.37963848400E+01 -0.13430681526E+02  0.28820613757E+02  0.32022409114E+02  0.10566000000E+00 0. -1.
        994    1    1    2    0    0  0.37176138049E+01  0.12807446982E+02  0.37966053621E+01  0.17176060539E+03  0.17120000000E+03 0.  0.
        998    1    1    2    0    0  0.78771035095E-01  0.62323454409E+00  0.14673827772E+04  0.14674169855E+04  0.10000000000E+02 0. -1.
</event>
<event>
 5    1  0.1607440E-008  0.3732100E+03  0.7957747E-01  0.3481267E+00
         13   -1    0    0    0    0  0.00000000000E+00  0.00000000000E+00  0.14999999963E+04  0.15000000000E+04  0.10566000000E+00 0.  1.
        994   -1    0    0    0    0 -0.00000000000E+00 -0.00000000000E+00  0.11368683772E-12  0.17120000000E+03  0.17120000000E+03 0.  0.
         13    1    1    2    0    0  0.88782388926E+01  0.59361244477E+01 -0.14504113819E+01  0.10778476539E+02  0.10566000000E+00 0.  1.
        994    1    1    2    0    0 -0.12954059377E+02 -0.92523133239E+01  0.13542808602E+02  0.17247104285E+03  0.17120000000E+03 0.  0.
        998    1    1    2    0    0  0.40758204843E+01  0.33161888762E+01  0.14879075991E+04  0.14879504806E+04  0.10000000000E+02 0.  1.
</event>
<event>
 5    1  0.1607440E-008  0.3841263E+03  0.7957747E-01  0.3433386E+00
         13   -1    0    0    0    0  0.00000000000E+00  0.00000000000E+00  0.14999999963E+04  0.15000000000E+04  0.10566000000E+00 0.  1.
        994   -1    0    0    0    0 -0.00000000000E+00 -0.00000000000E+00  0.11368683772E-12  0.17120000000E+03  0.17120000000E+03 0.  0.
         13    1    1    2    0    0  0.11723408571E+02 -0.10768709726E+02  0.64074734490E+02  0.66022618713E+02  0.10566000000E+00 0.  1.
        994    1    1    2    0    0 -0.35074792853E+01 -0.12621813682E+01  0.21103432138E+01  0.17125358116E+03  0.17120000000E+03 0.  0.
        998    1    1    2    0    0 -0.82159292857E+01  0.12030891094E+02  0.14338149186E+04  0.14339238001E+04  0.10000000000E+02 0.  1.
</event>
<event>
 5    1  0.1607440E-008  0.3781803E+03  0.7957747E-01  0.3459120E+00
         13   -1    0    0    0    0  0.00000000000E+00  0.00000000000E+00  0.14999999963E+04  0.15000000000E+04  0.10566000000E+00 0. -1.
        994   -1    0    0    0    0 -0.00000000000E+00 -0.00000000000E+00  0.11368683772E-12  0.17120000000E+03  0.17120000000E+03 0.  0.
         13    1    1    2    0    0 -0.51160907104E+02 -0.74165978759E+02  0.53281110528E+03  0.54037553229E+03  0.10566000000E+00 0. -1.
        994    1    1    2    0    0  0.64735147400E+02  0.61946103242E+02  0.32547146561E+02  0.19595079935E+03  0.17120000000E+03 0.  0.
        998    1    1    2    0    0 -0.13574240296E+02  0.12219875517E+02  0.93464174443E+03  0.93487366836E+03  0.10000000000E+02 0. -1.
</event>
<event>
 5    1  0.1607440E-008  0.3841542E+03  0.7957747E-01  0.3433267E+00
         13   -1    0    0    0    0  0.00000000000E+00  0.00000000000E+00  0.14999999963E+04  0.15000000000E+04  0.10566000000E+00 0.  1.
        994   -1    0    0    0    0 -0.00000000000E+00 -0.00000000000E+00  0.11368683772E-12  0.17120000000E+03  0.17120000000E+03 0.  0.
         13    1    1    2    0    0  0.81750027705E+01  0.12404789012E+02  0.54955534060E+02  0.56928300068E+02  0.10566000000E+00 0.  1.
        994    1    1    2    0    0 -0.50918642998E+01 -0.19716109067E+01  0.21489588088E+01  0.17130053227E+03  0.17120000000E+03 0.  0.
        998    1    1    2    0    0 -0.30831384707E+01 -0.10433178105E+02  0.14428955034E+04  0.14429711677E+04  0.10000000000E+02 0.  1.
</event>
<event>
 5    1  0.1607440E-008  0.3845728E+03  0.7957747E-01  0.3431486E+00
         13   -1    0    0    0    0  0.00000000000E+00  0.00000000000E+00  0.14999999963E+04  0.15000000000E+04  0.10566000000E+00 0.  1.
        994   -1    0    0    0    0 -0.00000000000E+00 -0.00000000000E+00  0.11368683772E-12  0.17120000000E+03  0.17120000000E+03 0.  0.
         13    1    1    2    0    0  0.77009991877E+01 -0.16857766435E+02  0.96552145560E+02  0.98314890296E+02  0.10566000000E+00 0.  1.
        994    1    1    2    0    0 -0.25640512076E+01  0.62594377568E+01  0.19930744529E+01  0.17134516995E+03  0.17120000000E+03 0.  0.
        998    1    1    2    0    0 -0.51369479801E+01  0.10598328678E+02  0.14014547763E+04  0.14015399398E+04  0.10000000000E+02 0.  1.
</event>
<event>
 5    1  0.1607440E-008  0.3852088E+03  0.7957747E-01  0.3428787E+00
         13   -1    0    0    0    0  0.00000000000E+00  0.00000000000E+00  0.14999999963E+04  0.15000000000E+04  0.10566000000E+00 0.  1.
        994   -1    0    0    0    0 -0.00000000000E+00 -0.00000000000E+00  0.11368683772E-12  0.17120000000E+03  0.17120000000E+03 0.  0.
         13    1    1    2    0    0 -0.14993054662E+02  0.34345594973E+01  0.77136687365E+02  0.78655372282E+02  0.10566000000E+00 0.  1.
        994    1    1    2    0    0  0.71872616088E+01 -0.20051493048E+02  0.30190205235E+01  0.17254643893E+03  0.17120000000E+03 0.  0.
        998    1    1    2    0    0  0.78057930529E+01  0.16616933550E+02  0.14198442884E+04  0.14199981888E+04  0.10000000000E+02 0.  1.
</event>
<event>
 5    1  0.1607440E-008  0.3715560E+03  0.7957747E-01  0.3488770E+00
         13   -1    0    0    0    0  0.00000000000E+00  0.00000000000E+00  0.14999999963E+04  0.15000000000E+04  0.10566000000E+00 0. -1.
        994   -1    0    0    0    0 -0.00000000000E+00 -0.00000000000E+00  0.11368683772E-12  0.17120000000E+03  0.17120000000E+03 0.  0.
         13    1    1    2    0    0 -0.54312637770E+02 -0.91428310482E+01  0.18025320249E+03  0.18847992506E+03  0.10566000000E+00 0. -1.
        994    1    1    2    0    0  0.29931384195E+02 -0.57942367944E+01  0.11661326510E+02  0.17428392776E+03  0.17120000000E+03 0.  0.
        998    1    1    2    0    0  0.24381253575E+02  0.14937067843E+02  0.13080854673E+04  0.13084361472E+04  0.10000000000E+02 0. -1.
</event>
<event>
 5    1  0.2147414E-008  0.3806310E+03  0.7957747E-01  0.3448416E+00
         13   -1    0    0    0    0  0.00000000000E+00  0.00000000000E+00  0.14999999963E+04  0.15000000000E+04  0.10566000000E+00 0.  1.
        994   -1    0    0    0    0 -0.00000000000E+00 -0.00000000000E+00  0.11368683772E-12  0.17120000000E+03  0.17120000000E+03 0.  0.
         13    1    1    2    0    0 -0.44568995852E+01 -0.97390473843E+01  0.13349121402E+02  0.17114999390E+02  0.10566000000E+00 0.  1.
        994    1    1    2    0    0  0.29822915921E+01  0.85969156082E+01  0.40912365833E+01  0.17149046399E+03  0.17120000000E+03 0.  0.
        998    1    1    2    0    0  0.14746079931E+01  0.11421317761E+01  0.14825596383E+04  0.14825945366E+04  0.10000000000E+02 0.  1.
</event>
<event>
 5    1  0.1607440E-008  0.3828482E+03  0.7957747E-01  0.3438850E+00
         13   -1    0    0    0    0  0.00000000000E+00  0.00000000000E+00  0.14999999963E+04  0.15000000000E+04  0.10566000000E+00 0.  1.
        994   -1    0    0    0    0 -0.00000000000E+00 -0.00000000000E+00  0.11368683772E-12  0.17120000000E+03  0.17120000000E+03 0.  0.
         13    1    1    2    0    0 -0.13472113791E+02  0.10213661043E+02  0.49801463117E+02  0.52592904603E+02  0.10566000000E+00 0.  1.
        994    1    1    2    0    0  0.20030041094E+02 -0.85279172511E+01  0.42733557159E+01  0.17263148464E+03  0.17120000000E+03 0.  0.
        998    1    1    2    0    0 -0.65579273033E+01 -0.16857437922E+01  0.14459251774E+04  0.14459756108E+04  0.10000000000E+02 0.  1.
</event>
<event>
 5    1  0.1607440E-008  0.3830998E+03  0.7957747E-01  0.3437772E+00
         13   -1    0    0    0    0  0.00000000000E+00  0.00000000000E+00  0.14999999963E+04  0.15000000000E+04  0.10566000000E+00 0. -1.
        994   -1    0    0    0    0 -0.00000000000E+00 -0.00000000000E+00  0.11368683772E-12  0.17120000000E+03  0.17120000000E+03 0.  0.
         13    1    1    2    0    0 -0.82345932094E+01 -0.20961283952E+02  0.10492278330E+03  0.10731256017E+03  0.10566000000E+00 0. -1.
        994    1    1    2    0    0  0.82444362919E+01  0.21811890331E+00  0.28016284272E+01  0.17142143223E+03  0.17120000000E+03 0.  0.
        998    1    1    2    0    0 -0.98430824893E-02  0.20743165048E+02  0.13922755846E+04  0.13924660076E+04  0.10000000000E+02 0. -1.
</event>
<event>
 5    1  0.1607440E-008  0.3806975E+03  0.7957747E-01  0.3448127E+00
         13   -1    0    0    0    0  0.00000000000E+00  0.00000000000E+00  0.14999999963E+04  0.15000000000E+04  0.10566000000E+00 0. -1.
        994   -1    0    0    0    0 -0.00000000000E+00 -0.00000000000E+00  0.11368683772E-12  0.17120000000E+03  0.17120000000E+03 0.  0.
         13    1    1    2    0    0  0.22606598915E+02  0.29115375646E+02  0.19356750747E+03  0.19704607209E+03  0.10566000000E+00 0. -1.
        994    1    1    2    0    0 -0.95345118009E+01 -0.62111485128E+01  0.42134385818E+01  0.17162947983E+03  0.17120000000E+03 0.  0.
        998    1    1    2    0    0 -0.13072087114E+02 -0.22904227133E+02  0.13022190502E+04  0.13025244481E+04  0.10000000000E+02 0. -1.
</event>
<event>
 5    1  0.1607440E-008  0.2237378E+03  0.7957747E-01  0.4656015E+00
         13   -1    0    0    0    0  0.00000000000E+00  0.00000000000E+00  0.14999999963E+04  0.15000000000E+04  0.10566000000E+00 0. -1.
        994   -1    0    0    0    0 -0.00000000000E+00 -0.00000000000E+00  0.11368683772E-12  0.17120000000E+03  0.17120000000E+03 0.  0.
         13    1    1    2    0    0  0.16499724793E+02 -0.13978019592E+03  0.14723310154E+03  0.20368687106E+03  0.10566000000E+00 0. -1.
        994    1    1    2    0    0 -0.21736702855E+02  0.14368739344E+03  0.16250871805E+03  0.27719501209E+03  0.17120000000E+03 0.  0.
        998    1    1    2    0    0  0.52369780616E+01 -0.39071975168E+01  0.11902581767E+04  0.11903181169E+04  0.10000000000E+02 0. -1.
</event>
<event>
 5    1  0.1607440E-008  0.3825708E+03  0.7957747E-01  0.3440041E+00
         13   -1    0    0    0    0  0.00000000000E+00  0.00000000000E+00  0.14999999963E+04  0.15000000000E+04  0.10566000000E+00 0.  1.
        994   -1    0    0    0    0 -0.00000000000E+00 -0.00000000000E+00  0.11368683772E-12  0.17120000000E+03  0.17120000000E+03 0.  0.
         13    1    1    2    0    0 -0.13851489015E+02  0.17592747752E+02  0.91703678990E+02  0.94397798839E+02  0.10566000000E+00 0.  1.
        994    1    1    2    0    0 -0.85820003933E+01 -0.14362360309E+02  0.37694707391E+01  0.17205690057E+03  0.17120000000E+03 0.  0.
        998    1    1    2    0    0  0.22433489409E+02 -0.32303874436E+01  0.14045268465E+04  0.14047453006E+04  0.10000000000E+02 0.  1.
</event>
<event>
 5    1  0.1607440E-008  0.3838630E+03  0.7957747E-01  0.3434509E+00
         13   -1    0    0    0    0  0.00000000000E+00  0.00000000000E+00  0.14999999963E+04  0.15000000000E+04  0.10566000000E+00 0. -1.
        994   -1    0    0    0    0 -0.00000000000E+00 -0.00000000000E+00  0.11368683772E-12  0.17120000000E+03  0.17120000000E+03 0.  0.
         13    1    1    2    0    0  0.17970266581E+02  0.50869965640E+01  0.84189565219E+02  0.86236315267E+02  0.10566000000E+00 0. -1.
        994    1    1    2    0    0  0.20796252496E+01 -0.14984328966E+02  0.29514761435E+01  0.17189242615E+03  0.17120000000E+03 0.  0.
        998    1    1    2    0    0 -0.20049891831E+02  0.98973324022E+01  0.14128589549E+04  0.14130712586E+04  0.10000000000E+02 0. -1.
</event>
<event>
 5    1  0.1607440E-008  0.3703402E+03  0.7957747E-01  0.3494329E+00
         13   -1    0    0    0    0  0.00000000000E+00  0.00000000000E+00  0.14999999963E+04  0.15000000000E+04  0.10566000000E+00 0.  1.
        994   -1    0    0    0    0 -0.00000000000E+00 -0.00000000000E+00  0.11368683772E-12  0.17120000000E+03  0.17120000000E+03 0.  0.
         13    1    1    2    0    0 -0.46753226064E+01  0.55191301494E+02  0.14446027660E+03  0.15471496722E+03  0.10566000000E+00 0.  1.
        994    1    1    2    0    0 -0.35276836754E+02 -0.20007238541E+02  0.16897775936E+02  0.17674761565E+03  0.17120000000E+03 0.  0.
        998    1    1    2    0    0  0.39952159360E+02 -0.35184062953E+02  0.13386419437E+04  0.13397374171E+04  0.10000000000E+02 0.  1.
</event>
<event>
 5    1  0.1607440E-008  0.3690526E+03  0.7957747E-01  0.3500256E+00
         13   -1    0    0    0    0  0.00000000000E+00  0.00000000000E+00  0.14999999963E+04  0.15000000000E+04  0.10566000000E+00 0.  1.
        994   -1    0    0    0    0 -0.00000000000E+00 -0.00000000000E+00  0.11368683772E-12  0.17120000000E+03  0.17120000000E+03 0.  0.
         13    1    1    2    0    0  0.75384044684E+02  0.45237697974E+01  0.27005184139E+03  0.28041260116E+03  0.10566000000E+00 0.  1.
        994    1    1    2    0    0 -0.45347111256E+02  0.16462071699E+02  0.18592537083E+02  0.17883646926E+03  0.17120000000E+03 0.  0.
        998    1    1    2    0    0 -0.30036933429E+02 -0.20985841497E+02  0.12113556178E+04  0.12119509296E+04  0.10000000000E+02 0.  1.
</event>
<event>
 5    1  0.1607440E-008  0.3726064E+03  0.7957747E-01  0.3483998E+00
         13   -1    0    0    0    0  0.00000000000E+00  0.00000000000E+00  0.14999999963E+04  0.15000000000E+04  0.10566000000E+00 0. -1.
        994   -1    0    0    0    0 -0.00000000000E+00 -0.00000000000E+00  0.11368683772E-12  0.17120000000E+03  0.17120000000E+03 0.  0.
         13    1    1    2    0    0  0.19323871774E+02 -0.30781792527E+01  0.21479911622E+02  0.29056582304E+02  0.10566000000E+00 0. -1.
        994    1    1    2    0    0  0.10264173966E+01  0.10866309961E+02  0.83214170839E+01  0.17174928299E+03  0.17120000000E+03 0.  0.
        998    1    1    2    0    0 -0.20350289171E+02 -0.77881307080E+01  0.14701986676E+04  0.14703941347E+04  0.10000000000E+02 0. -1.
</event>
<event>
 5    1  0.2552350E-008  0.3860825E+03  0.7957747E-01  0.3425094E+00
         13   -1    0    0    0    0  0.00000000000E+00  0.00000000000E+00  0.14999999963E+04  0.15000000000E+04  0.10566000000E+00 0. -1.
        994   -1    0    0    0    0 -0.00000000000E+00 -0.00000000000E+00  0.11368683772E-12  0.17120000000E+03  0.17120000000E+03 0.  0.
         13    1    1    2    0    0 -0.12138013548E+02 -0.32092813998E+01  0.70257159512E+02  0.71370235299E+02  0.10566000000E+00 0. -1.
        994    1    1    2    0    0  0.12808905904E+02  0.29950818210E+01  0.16609161865E+01  0.17171265890E+03  0.17120000000E+03 0.  0.
        998    1    1    2    0    0 -0.67089235510E+00  0.21419957874E+00  0.14280819206E+04  0.14281171058E+04  0.10000000000E+02 0. -1.
</event>
<event>
 5    1  0.1607440E-008  0.3690797E+03  0.7957747E-01  0.3500131E+00
         13   -1    0    0    0    0  0.00000000000E+00  0.00000000000E+00  0.14999999963E+04  0.15000000000E+04  0.10566000000E+00 0. -1.
        994   -1    0    0    0    0 -0.00000000000E+00 -0.00000000000E+00  0.11368683772E-12  0.17120000000E+03  0.17120000000E+03 0.  0.
         13    1    1    2    0    0 -0.11267429678E+03  0.11970215089E+03  0.57260328009E+03  0.59573369018E+03  0.10566000000E+00 0. -1.
        994    1    1    2    0    0  0.18582081122E+03 -0.96859296542E+02  0.18207070167E+03  0.32614456551E+03  0.17120000000E+03 0.  0.
        998    1    1    2    0    0 -0.73146514434E+02 -0.22842854346E+02  0.74532601452E+03  0.74932174431E+03  0.10000000000E+02 0. -1.
</event>
<event>
 5    1  0.1607440E-008  0.3760623E+03  0.7957747E-01  0.3468485E+00
         13   -1    0    0    0    0  0.00000000000E+00  0.00000000000E+00  0.14999999963E+04  0.15000000000E+04  0.10566000000E+00 0.  1.
        994   -1    0    0    0    0 -0.00000000000E+00 -0.00000000000E+00  0.11368683772E-12  0.17120000000E+03  0.17120000000E+03 0.  0.
         13    1    1    2    0    0  0.15817926496E+02  0.13185015453E+02  0.33269367298E+02  0.39126888396E+02  0.10566000000E+00 0.  1.
        994    1    1    2    0    0 -0.99187103105E+01  0.10609361747E+02  0.68489881664E+01  0.17195141177E+03  0.17120000000E+03 0.  0.
        998    1    1    2    0    0 -0.58992161852E+01 -0.23794377200E+02  0.14598816408E+04  0.14601216998E+04  0.10000000000E+02 0.  1.
</event>
<event>
 5    1  0.1607440E-008  0.3830671E+03  0.7957747E-01  0.3437911E+00
         13   -1    0    0    0    0  0.00000000000E+00  0.00000000000E+00  0.14999999963E+04  0.15000000000E+04  0.10566000000E+00 0. -1.
        994   -1    0    0    0    0 -0.00000000000E+00 -0.00000000000E+00  0.11368683772E-12  0.17120000000E+03  0.17120000000E+03 0.  0.
         13    1    1    2    0    0  0.17583617708E+02  0.84997659613E+01  0.71295456892E+02  0.73922141275E+02  0.10566000000E+00 0. -1.
        994    1    1    2    0    0 -0.14170676021E+02 -0.85020121287E+01  0.34971318413E+01  0.17203128262E+03  0.17120000000E+03 0.  0.
        998    1    1    2    0    0 -0.34129416872E+01  0.22461674192E-02  0.14252074075E+04  0.14252465761E+04  0.10000000000E+02 0. -1.
</event>
<event>
 5    1  0.1607440E-008  0.3830049E+03  0.7957747E-01  0.3438178E+00
         13   -1    0    0    0    0  0.00000000000E+00  0.00000000000E+00  0.14999999963E+04  0.15000000000E+04  0.10566000000E+00 0. -1.
        994   -1    0    0    0    0 -0.00000000000E+00 -0.00000000000E+00  0.11368683772E-12  0.17120000000E+03  0.17120000000E+03 0.  0.
         13    1    1    2    0    0 -0.24581560021E+02  0.13309361434E+02  0.16273679960E+03  0.16512016625E+03  0.10566000000E+00 0. -1.
        994    1    1    2    0    0  0.63659781256E-01 -0.11349665687E+02  0.30504514895E+01  0.17160292602E+03  0.17120000000E+03 0.  0.
        998    1    1    2    0    0  0.24517900240E+02 -0.19596957463E+01  0.13342127452E+04  0.13344769077E+04  0.10000000000E+02 0. -1.
</event>
<event>
 5    1  0.1607440E-008  0.3839088E+03  0.7957747E-01  0.3434313E+00
         13   -1    0    0    0    0  0.00000000000E+00  0.00000000000E+00  0.14999999963E+04  0.15000000000E+04  0.10566000000E+00 0.  1.
        994   -1    0    0    0    0 -0.00000000000E+00 -0.00000000000E+00  0.11368683772E-12  0.17120000000E+03  0.17120000000E+03 0.  0.
         13    1    1    2    0    0 -0.25995975790E+02  0.57083833966E+01  0.15217725379E+03  0.15448722968E+03  0.10566000000E+00 0.  1.
        994    1    1    2    0    0  0.21888020597E+02 -0.11481301099E+02  0.41916304002E+01  0.17302576538E+03  0.17120000000E+03 0.  0.
        998    1    1    2    0    0  0.41079551937E+01  0.57729177020E+01  0.13436311121E+04  0.13436870049E+04  0.10000000000E+02 0.  1.
</event>
<event>
 5    1  0.1607440E-008  0.3750678E+03  0.7957747E-01  0.3472919E+00
         13   -1    0    0    0    0  0.00000000000E+00  0.00000000000E+00  0.14999999963E+04  0.15000000000E+04  0.10566000000E+00 0. -1.
        994   -1    0    0    0    0 -0.00000000000E+00 -0.00000000000E+00  0.11368683772E-12  0.17120000000E+03  0.17120000000E+03 0.  0.
         13    1    1    2    0    0 -0.17034144438E+02  0.38891386271E+02  0.57150620669E+02  0.71196254183E+02  0.10566000000E+00 0. -1.
        994    1    1    2    0    0 -0.30929748914E+01 -0.58380071974E+02  0.25910705996E+02  0.18275284945E+03  0.17120000000E+03 0.  0.
        998    1    1    2    0    0  0.20127119330E+02  0.19488685704E+02  0.14169386696E+04  0.14172508964E+04  0.10000000000E+02 0. -1.
</event>
<event>
 5    1  0.1607440E-008  0.3837816E+03  0.7957747E-01  0.3434856E+00
         13   -1    0    0    0    0  0.00000000000E+00  0.00000000000E+00  0.14999999963E+04  0.15000000000E+04  0.10566000000E+00 0. -1.
        994   -1    0    0    0    0 -0.00000000000E+00 -0.00000000000E+00  0.11368683772E-12  0.17120000000E+03  0.17120000000E+03 0.  0.
         13    1    1    2    0    0  0.23395554924E+02  0.32133718831E+01  0.13136738283E+03  0.13347313657E+03  0.10566000000E+00 0. -1.
        994    1    1    2    0    0 -0.79971435477E+01  0.42021977396E+01  0.25057515119E+01  0.17145650049E+03  0.17120000000E+03 0.  0.
        998    1    1    2    0    0 -0.15398411376E+02 -0.74155696227E+01  0.13661268619E+04  0.13662703629E+04  0.10000000000E+02 0. -1.
</event>
<event>
 5    1  0.1607440E-008  0.3790559E+03  0.7957747E-01  0.3455280E+00
         13   -1    0    0    0    0  0.00000000000E+00  0.00000000000E+00  0.14999999963E+04  0.15000000000E+04  0.10566000000E+00 0.  1.
        994   -1    0    0    0    0 -0.00000000000E+00 -0.00000000000E+00  0.11368683772E-12  0.17120000000E+03  0.17120000000E+03 0.  0.
         13    1    1    2    0    0 -0.24629715650E+02  0.15609062412E+03  0.95166889166E+03  0.96469922585E+03  0.10566000000E+00 0.  1.
        994    1    1    2    0    0  0.21311723157E+02 -0.15249389092E+03  0.88724107903E+02  0.24675895857E+03  0.17120000000E+03 0.  0.
        998    1    1    2    0    0  0.33179924922E+01 -0.35967332014E+01  0.45960699671E+03  0.45974181558E+03  0.10000000000E+02 0.  0.
</event>
<event>
 5    1  0.1607440E-008  0.4005948E+03  0.7957747E-01  0.3366111E+00
         13   -1    0    0    0    0  0.00000000000E+00  0.00000000000E+00  0.14999999963E+04  0.15000000000E+04  0.10566000000E+00 0.  1.
        994   -1    0    0    0    0 -0.00000000000E+00 -0.00000000000E+00  0.11368683772E-12  0.17120000000E+03  0.17120000000E+03 0.  0.
         13    1    1    2    0    0  0.18063077476E+02 -0.80941364839E+02  0.10910544034E+03  0.13704666208E+03  0.10566000000E+00 0.  1.
        994    1    1    2    0    0 -0.17236795892E+02  0.70948459892E+02  0.49371988893E+02  0.19255602920E+03  0.17120000000E+03 0.  0.
        998    1    1    2    0    0 -0.82628158343E+00  0.99929049468E+01  0.13415225670E+04  0.13415973087E+04  0.10000000000E+02 0.  1.
</event>
<event>
 5    1  0.1607440E-008  0.3855568E+03  0.7957747E-01  0.3427314E+00
         13   -1    0    0    0    0  0.00000000000E+00  0.00000000000E+00  0.14999999963E+04  0.15000000000E+04  0.10566000000E+00 0. -1.
        994   -1    0    0    0    0 -0.00000000000E+00 -0.00000000000E+00  0.11368683772E-12  0.17120000000E+03  0.17120000000E+03 0.  0.
         13    1    1    2    0    0 -0.83299910046E+01  0.79007286113E+01  0.48232818466E+02  0.49580502256E+02  0.10566000000E+00 0. -1.
        994    1    1    2    0    0  0.10025480321E+02 -0.41125874027E+01  0.17395206322E+01  0.17155141959E+03  0.17120000000E+03 0.  0.
        998    1    1    2    0    0 -0.16954893162E+01 -0.37881412086E+01  0.14500276572E+04  0.14500680782E+04  0.10000000000E+02 0. -1.
</event>
<event>
 5    1  0.1607440E-008  0.3799239E+03  0.7957747E-01  0.3451490E+00
         13   -1    0    0    0    0  0.00000000000E+00  0.00000000000E+00  0.14999999963E+04  0.15000000000E+04  0.10566000000E+00 0. -1.
        994   -1    0    0    0    0 -0.00000000000E+00 -0.00000000000E+00  0.11368683772E-12  0.17120000000E+03  0.17120000000E+03 0.  0.
         13    1    1    2    0    0 -0.89085625515E+01 -0.20851789567E+02  0.65319264342E+02  0.69143163603E+02  0.10566000000E+00 0. -1.
        994    1    1    2    0    0  0.96098060403E+01 -0.96489243730E+01  0.47918953650E+01  0.17180760279E+03  0.17120000000E+03 0.  0.
        998    1    1    2    0    0 -0.70124348883E+00  0.30500713939E+02  0.14298888366E+04  0.14302492336E+04  0.10000000000E+02 0. -1.
</event>
<event>
 5    1  0.1607440E-008  0.3812363E+03  0.7957747E-01  0.3445793E+00
         13   -1    0    0    0    0  0.00000000000E+00  0.00000000000E+00  0.14999999963E+04  0.15000000000E+04  0.10566000000E+00 0.  1.
        994   -1    0    0    0    0 -0.00000000000E+00 -0.00000000000E+00  0.11368683772E-12  0.17120000000E+03  0.17120000000E+03 0.  0.
         13    1    1    2    0    0 -0.83803936168E+01  0.26151107894E+02  0.84779307612E+02  0.89115955948E+02  0.10566000000E+00 0.  1.
        994    1    1    2    0    0  0.43901644606E+02 -0.51623586573E+02  0.18953822996E+02  0.18509737031E+03  0.17120000000E+03 0.  0.
        998    1    1    2    0    0 -0.35521250989E+02  0.25472478679E+02  0.13962668657E+04  0.13969866737E+04  0.10000000000E+02 0.  1.
</event>
<event>
 5    1  0.1607440E-008  0.3701008E+03  0.7957747E-01  0.3495428E+00
         13   -1    0    0    0    0  0.00000000000E+00  0.00000000000E+00  0.14999999963E+04  0.15000000000E+04  0.10566000000E+00 0. -1.
        994   -1    0    0    0    0 -0.00000000000E+00 -0.00000000000E+00  0.11368683772E-12  0.17120000000E+03  0.17120000000E+03 0.  0.
         13    1    1    2    0    0  0.42974720144E+02 -0.14618397923E+02  0.82790785922E+02  0.94418480855E+02  0.10566000000E+00 0. -1.
        994    1    1    2    0    0 -0.58411670636E+02 -0.44267977434E+01  0.23091152907E+02  0.18241206415E+03  0.17120000000E+03 0.  0.
        998    1    1    2    0    0  0.15436950492E+02  0.19045195666E+02  0.13941180574E+04  0.13943694550E+04  0.10000000000E+02 0. -1.
</event>
<event>
 5    1  0.1607440E-008  0.3854037E+03  0.7957747E-01  0.3427962E+00
         13   -1    0    0    0    0  0.00000000000E+00  0.00000000000E+00  0.14999999963E+04  0.15000000000E+04  0.10566000000E+00 0.  1.
        994   -1    0    0    0    0 -0.00000000000E+00 -0.00000000000E+00  0.11368683772E-12  0.17120000000E+03  0.17120000000E+03 0.  0.
         13    1    1    2    0    0 -0.14938122035E+02  0.79318644115E+00  0.82344347972E+02  0.83692170731E+02  0.10566000000E+00 0.  1.
        994    1    1    2    0    0  0.33999658982E+01 -0.55391811744E+01  0.15685911689E+01  0.17133050742E+03  0.17120000000E+03 0.  0.
        998    1    1    2    0    0  0.11538156137E+02  0.47459947332E+01  0.14160870571E+04  0.14161773218E+04  0.10000000000E+02 0.  1.
</event>
<event>
 5    1  0.1607440E-008  0.3817234E+03  0.7957747E-01  0.3443689E+00
         13   -1    0    0    0    0  0.00000000000E+00  0.00000000000E+00  0.14999999963E+04  0.15000000000E+04  0.10566000000E+00 0. -1.
        994   -1    0    0    0    0 -0.00000000000E+00 -0.00000000000E+00  0.11368683772E-12  0.17120000000E+03  0.17120000000E+03 0.  0.
         13    1    1    2    0    0 -0.30670698463E+01  0.15576681354E+02  0.37957278354E+02  0.41143724473E+02  0.10566000000E+00 0. -1.
        994    1    1    2    0    0  0.30805418207E+01 -0.61962332620E+01  0.34248980068E+01  0.17137401486E+03  0.17120000000E+03 0.  0.
        998    1    1    2    0    0 -0.13471974345E-01 -0.93804480921E+01  0.14586178199E+04  0.14586822607E+04  0.10000000000E+02 0. -1.
</event>
<event>
 5    1  0.1607440E-008  0.3836789E+03  0.7957747E-01  0.3435295E+00
         13   -1    0    0    0    0  0.00000000000E+00  0.00000000000E+00  0.14999999963E+04  0.15000000000E+04  0.10566000000E+00 0. -1.
        994   -1    0    0    0    0 -0.00000000000E+00 -0.00000000000E+00  0.11368683772E-12  0.17120000000E+03  0.17120000000E+03 0.  0.
         13    1    1    2    0    0 -0.63770052514E+00 -0.21389947484E+02  0.81875682974E+02  0.84626090196E+02  0.10566000000E+00 0. -1.
        994    1    1    2    0    0 -0.13934176122E+02  0.47343564304E+02  0.10373577530E+02  0.17847303846E+03  0.17120000000E+03 0.  0.
        998    1    1    2    0    0  0.14571876647E+02 -0.25953616820E+02  0.14077507358E+04  0.14081008713E+04  0.10000000000E+02 0. -1.
</event>
<event>
 5    1  0.1607440E-008  0.3737906E+03  0.7957747E-01  0.3478650E+00
         13   -1    0    0    0    0  0.00000000000E+00  0.00000000000E+00  0.14999999963E+04  0.15000000000E+04  0.10566000000E+00 0. -1.
        994   -1    0    0    0    0 -0.00000000000E+00 -0.00000000000E+00  0.11368683772E-12  0.17120000000E+03  0.17120000000E+03 0.  0.
         13    1    1    2    0    0  0.43602352607E+02 -0.74130341980E+02  0.51217689027E+03  0.51934733160E+03  0.10566000000E+00 0. -1.
        994    1    1    2    0    0 -0.31959948984E+01  0.55642940591E+02  0.17978603629E+02  0.18093927548E+03  0.17120000000E+03 0.  0.
        998    1    1    2    0    0 -0.40406357709E+02  0.18487401389E+02  0.96984450238E+03  0.97091339292E+03  0.10000000000E+02 0. -1.
</event>
<event>
 5    1  0.1607440E-008  0.3849517E+03  0.7957747E-01  0.3429877E+00
         13   -1    0    0    0    0  0.00000000000E+00  0.00000000000E+00  0.14999999963E+04  0.15000000000E+04  0.10566000000E+00 0.  1.
        994   -1    0    0    0    0 -0.00000000000E+00 -0.00000000000E+00  0.11368683772E-12  0.17120000000E+03  0.17120000000E+03 0.  0.
         13    1    1    2    0    0  0.39891064292E+01  0.99975327014E+01  0.35923126683E+02  0.37501277644E+02  0.10566000000E+00 0.  1.
        994    1    1    2    0    0 -0.68356783959E+01  0.18421280715E+01  0.18190118975E+01  0.17135597083E+03  0.17120000000E+03 0.  0.
        998    1    1    2    0    0  0.28465719667E+01 -0.11839660773E+02  0.14622578577E+04  0.14623427515E+04  0.10000000000E+02 0.  1.
</event>
<event>
 5    1  0.1607440E-008  0.3776964E+03  0.7957747E-01  0.3461250E+00
         13   -1    0    0    0    0  0.00000000000E+00  0.00000000000E+00  0.14999999963E+04  0.15000000000E+04  0.10566000000E+00 0. -1.
        994   -1    0    0    0    0 -0.00000000000E+00 -0.00000000000E+00  0.11368683772E-12  0.17120000000E+03  0.17120000000E+03 0.  0.
         13    1    1    2    0    0 -0.10052123617E+02 -0.16967411855E+02  0.36987736517E+02  0.41917085669E+02  0.10566000000E+00 0. -1.
        994    1    1    2    0    0  0.62714632230E+01 -0.14180532380E+02  0.61107913184E+01  0.17200930359E+03  0.17120000000E+03 0.  0.
        998    1    1    2    0    0  0.37806603941E+01  0.31147944235E+02  0.14569014684E+04  0.14572736107E+04  0.10000000000E+02 0. -1.
</event>
<event>
 5    1  0.1607440E-008  0.3695189E+03  0.7957747E-01  0.3498105E+00
         13   -1    0    0    0    0  0.00000000000E+00  0.00000000000E+00  0.14999999963E+04  0.15000000000E+04  0.10566000000E+00 0.  1.
        994   -1    0    0    0    0 -0.00000000000E+00 -0.00000000000E+00  0.11368683772E-12  0.17120000000E+03  0.17120000000E+03 0.  0.
         13    1    1    2    0    0  0.18051019439E+02  0.67731276989E+02  0.31142491484E+03  0.31921599887E+03  0.10566000000E+00 0.  1.
        994    1    1    2    0    0 -0.98170294333E+00 -0.11392841765E+02  0.99737628521E+01  0.17187110441E+03  0.17120000000E+03 0.  0.
        998    1    1    2    0    0 -0.17069316495E+02 -0.56338435225E+02  0.11786013186E+04  0.11801128967E+04  0.10000000000E+02 0.  1.
</event>
<event>
 5    1  0.1607440E-008  0.3767146E+03  0.7957747E-01  0.3465590E+00
         13   -1    0    0    0    0  0.00000000000E+00  0.00000000000E+00  0.14999999963E+04  0.15000000000E+04  0.10566000000E+00 0.  1.
        994   -1    0    0    0    0 -0.00000000000E+00 -0.00000000000E+00  0.11368683772E-12  0.17120000000E+03  0.17120000000E+03 0.  0.
         13    1    1    2    0    0 -0.48419968552E+02 -0.25257914409E+02  0.21758194952E+03  0.22433094195E+03  0.10566000000E+00 0.  1.
        994    1    1    2    0    0  0.42708890165E+02  0.39397976941E+02  0.17297889142E+02  0.18161747398E+03  0.17120000000E+03 0.  0.
        998    1    1    2    0    0  0.57110783870E+01 -0.14140062532E+02  0.12651201576E+04  0.12652515841E+04  0.10000000000E+02 0.  1.
</event>
<event>
 5    1  0.1607440E-008  0.3733181E+03  0.7957747E-01  0.3480779E+00
         13   -1    0    0    0    0  0.00000000000E+00  0.00000000000E+00  0.14999999963E+04  0.15000000000E+04  0.10566000000E+00 0.  1.
        994   -1    0    0    0    0 -0.00000000000E+00 -0.00000000000E+00  0.11368683772E-12  0.17120000000E+03  0.17120000000E+03 0.  0.
         13    1    1    2    0    0 -0.42454149094E+02 -0.34639329624E+02  0.23254929463E+03  0.23891718969E+03  0.10566000000E+00 0.  1.
        994    1    1    2    0    0  0.33907681260E+01  0.38882114634E+01  0.76359397504E+01  0.17144784359E+03  0.17120000000E+03 0.  0.
        998    1    1    2    0    0  0.39063380968E+02  0.30751118161E+02  0.12598147619E+04  0.12608349667E+04  0.10000000000E+02 0.  1.
</event>
<event>
 5    1  0.1607440E-008  0.3798943E+03  0.7957747E-01  0.3451619E+00
         13   -1    0    0    0    0  0.00000000000E+00  0.00000000000E+00  0.14999999963E+04  0.15000000000E+04  0.10566000000E+00 0.  1.
        994   -1    0    0    0    0 -0.00000000000E+00 -0.00000000000E+00  0.11368683772E-12  0.17120000000E+03  0.17120000000E+03 0.  0.
         13    1    1    2    0    0 -0.56361381950E+02 -0.14683939335E+02  0.96114761656E+02  0.11238452750E+03  0.10566000000E+00 0.  1.
        994    1    1    2    0    0  0.46337434474E+02  0.11266505586E+02  0.24552190063E+02  0.17940552394E+03  0.17120000000E+03 0.  0.
        998    1    1    2    0    0  0.10023947476E+02  0.34174337495E+01  0.13793330446E+04  0.13794099486E+04  0.10000000000E+02 0.  1.
</event>
<event>
 5    1  0.1607440E-008  0.3852035E+03  0.7957747E-01  0.3428810E+00
         13   -1    0    0    0    0  0.00000000000E+00  0.00000000000E+00  0.14999999963E+04  0.15000000000E+04  0.10566000000E+00 0.  1.
        994   -1    0    0    0    0 -0.00000000000E+00 -0.00000000000E+00  0.11368683772E-12  0.17120000000E+03  0.17120000000E+03 0.  0.
         13    1    1    2    0    0 -0.50441948227E+01 -0.87979345376E+01  0.39268803549E+02  0.40557337804E+02  0.10566000000E+00 0.  1.
        994    1    1    2    0    0 -0.12279956507E+00 -0.26430931307E+02  0.38284817486E+01  0.17327061633E+03  0.17120000000E+03 0.  0.
        998    1    1    2    0    0  0.51669943878E+01  0.35228865844E+02  0.14569027110E+04  0.14573720459E+04  0.10000000000E+02 0.  1.
</event>
<event>
 5    1  0.1607440E-008  0.3711038E+03  0.7957747E-01  0.3490833E+00
         13   -1    0    0    0    0  0.00000000000E+00  0.00000000000E+00  0.14999999963E+04  0.15000000000E+04  0.10566000000E+00 0.  1.
        994   -1    0    0    0    0 -0.00000000000E+00 -0.00000000000E+00  0.11368683772E-12  0.17120000000E+03  0.17120000000E+03 0.  0.
         13    1    1    2    0    0  0.28392574833E+02  0.27217276065E+02  0.84116737956E+02  0.92857714760E+02  0.10566000000E+00 0.  1.
        994    1    1    2    0    0 -0.22597200417E+02 -0.20641843491E+02  0.11926645538E+02  0.17432270088E+03  0.17120000000E+03 0.  0.
        998    1    1    2    0    0 -0.57953744162E+01 -0.65754325737E+01  0.14039566128E+04  0.14040195844E+04  0.10000000000E+02 0.  1.
</event>
<event>
 5    1  0.1607440E-008  0.3842753E+03  0.7957747E-01  0.3432752E+00
         13   -1    0    0    0    0  0.00000000000E+00  0.00000000000E+00  0.14999999963E+04  0.15000000000E+04  0.10566000000E+00 0.  1.
        994   -1    0    0    0    0 -0.00000000000E+00 -0.00000000000E+00  0.11368683772E-12  0.17120000000E+03  0.17120000000E+03 0.  0.
         13    1    1    2    0    0 -0.10218506378E+02 -0.17009133186E+02  0.10082489787E+03  0.10275893965E+03  0.10566000000E+00 0.  1.
        994    1    1    2    0    0  0.12457540524E+02  0.36329957838E+01  0.25456410000E+01  0.17170995679E+03  0.17120000000E+03 0.  0.
        998    1    1    2    0    0 -0.22390341457E+01  0.13376137402E+02  0.13966294574E+04  0.13967311036E+04  0.10000000000E+02 0.  1.
</event>
<event>
 5    1  0.1607440E-008  0.3838216E+03  0.7957747E-01  0.3434685E+00
         13   -1    0    0    0    0  0.00000000000E+00  0.00000000000E+00  0.14999999963E+04  0.15000000000E+04  0.10566000000E+00 0.  1.
        994   -1    0    0    0    0 -0.00000000000E+00 -0.00000000000E+00  0.11368683772E-12  0.17120000000E+03  0.17120000000E+03 0.  0.
         13    1    1    2    0    0  0.74582022425E+01  0.83395241429E+01  0.28192086748E+02  0.30331128612E+02  0.10566000000E+00 0.  1.
        994    1    1    2    0    0  0.18262927446E+01 -0.40529020127E+01  0.22815444761E+01  0.17127290155E+03  0.17120000000E+03 0.  0.
        998    1    1    2    0    0 -0.92844949871E+01 -0.42866221301E+01  0.14695263651E+04  0.14695959698E+04  0.10000000000E+02 0.  1.
</event>
<event>
 5    1  0.1607440E-008  0.3847356E+03  0.7957747E-01  0.3430794E+00
         13   -1    0    0    0    0  0.00000000000E+00  0.00000000000E+00  0.14999999963E+04  0.15000000000E+04  0.10566000000E+00 0.  1.
        994   -1    0    0    0    0 -0.00000000000E+00 -0.00000000000E+00  0.11368683772E-12  0.17120000000E+03  0.17120000000E+03 0.  0.
         13    1    1    2    0    0 -0.82724909986E+01 -0.15296048864E+02  0.91159354543E+02  0.92803245110E+02  0.10566000000E+00 0.  1.
        994    1    1    2    0    0 -0.11564219410E+01  0.38240661772E+01  0.18139942868E+01  0.17125621556E+03  0.17120000000E+03 0.  0.
        998    1    1    2    0    0  0.94289129396E+01  0.11471982686E+02  0.14070266474E+04  0.14071405393E+04  0.10000000000E+02 0.  1.
</event>
<event>
 5    1  0.1607440E-008  0.3768227E+03  0.7957747E-01  0.3465111E+00
         13   -1    0    0    0    0  0.00000000000E+00  0.00000000000E+00  0.14999999963E+04  0.15000000000E+04  0.10566000000E+00 0. -1.
        994   -1    0    0    0    0 -0.00000000000E+00 -0.00000000000E+00  0.11368683772E-12  0.17120000000E+03  0.17120000000E+03 0.  0.
         13    1    1    2    0    0 -0.56163114295E+02  0.23816341519E+01  0.28080190059E+03  0.28637333348E+03  0.10566000000E+00 0. -1.
        994    1    1    2    0    0  0.28166690421E+02 -0.12941813570E+02  0.89987393387E+01  0.17421615969E+03  0.17120000000E+03 0.  0.
        998    1    1    2    0    0  0.27996423874E+02  0.10560179418E+02  0.12101993563E+04  0.12106105068E+04  0.10000000000E+02 0. -1.
</event>
<event>
 5    1  0.1607440E-008  0.3810176E+03  0.7957747E-01  0.3446739E+00
         13   -1    0    0    0    0  0.00000000000E+00  0.00000000000E+00  0.14999999963E+04  0.15000000000E+04  0.10566000000E+00 0. -1.
        994   -1    0    0    0    0 -0.00000000000E+00 -0.00000000000E+00  0.11368683772E-12  0.17120000000E+03  0.17120000000E+03 0.  0.
         13    1    1    2    0    0  0.19511331830E+01  0.18574217223E+02  0.50810213827E+02  0.54134069303E+02  0.10566000000E+00 0. -1.
        994    1    1    2    0    0  0.74308539914E+01  0.71924528232E+01  0.39767314039E+01  0.17155816320E+03  0.17120000000E+03 0.  0.
        998    1    1    2    0    0 -0.93819871744E+01 -0.25766670046E+02  0.14452130510E+04  0.14455077675E+04  0.10000000000E+02 0. -1.
</event>
<event>
 5    1  0.1735968E-008  0.3821516E+03  0.7957747E-01  0.3441843E+00
         13   -1    0    0    0    0  0.00000000000E+00  0.00000000000E+00  0.14999999963E+04  0.15000000000E+04  0.10566000000E+00 0. -1.
        994   -1    0    0    0    0 -0.00000000000E+00 -0.00000000000E+00  0.11368683772E-12  0.17120000000E+03  0.17120000000E+03 0.  0.
         13    1    1    2    0    0 -0.10551293318E+02 -0.49768537810E+01  0.20853497356E+02  0.23895153907E+02  0.10566000000E+00 0. -1.
        994    1    1    2    0    0  0.10717311153E+02  0.62392075367E+01  0.35615939134E+01  0.17168550731E+03  0.17120000000E+03 0.  0.
        998    1    1    2    0    0 -0.16601783458E+00 -0.12623537558E+01  0.14755849050E+04  0.14756193388E+04  0.10000000000E+02 0. -1.
</event>
<event>
 5    1  0.1607440E-008  0.3771494E+03  0.7957747E-01  0.3463665E+00
         13   -1    0    0    0    0  0.00000000000E+00  0.00000000000E+00  0.14999999963E+04  0.15000000000E+04  0.10566000000E+00 0.  1.
        994   -1    0    0    0    0 -0.00000000000E+00 -0.00000000000E+00  0.11368683772E-12  0.17120000000E+03  0.17120000000E+03 0.  0.
         13    1    1    2    0    0  0.80220538193E+02  0.78923649877E+02  0.34735981745E+03  0.36513440156E+03  0.10566000000E+00 0.  1.
        994    1    1    2    0    0 -0.80848992437E+02 -0.60412456691E+02  0.52269954343E+02  0.20549406957E+03  0.17120000000E+03 0.  0.
        998    1    1    2    0    0  0.62845424490E+00 -0.18511193186E+02  0.11003702245E+04  0.11005715289E+04  0.10000000000E+02 0.  1.
</event>
<event>
 5    1  0.1607440E-008  0.3862590E+03  0.7957747E-01  0.3424350E+00
         13   -1    0    0    0    0  0.00000000000E+00  0.00000000000E+00  0.14999999963E+04  0.15000000000E+04  0.10566000000E+00 0. -1.
        994   -1    0    0    0    0 -0.00000000000E+00 -0.00000000000E+00  0.11368683772E-12  0.17120000000E+03  0.17120000000E+03 0.  0.
         13    1    1    2    0    0  0.98133906964E+01 -0.43580438573E+01  0.58599865507E+02  0.59575587154E+02  0.10566000000E+00 0. -1.
        994    1    1    2    0    0 -0.30057075738E+01  0.91440466941E+01  0.13098536467E+01  0.17147537311E+03  0.17120000000E+03 0.  0.
        998    1    1    2    0    0 -0.68076831226E+01 -0.47860028368E+01  0.14400902771E+04  0.14401490397E+04  0.10000000000E+02 0. -1.
</event>
<event>
 5    1  0.1607440E-008  0.3752325E+03  0.7957747E-01  0.3472184E+00
         13   -1    0    0    0    0  0.00000000000E+00  0.00000000000E+00  0.14999999963E+04  0.15000000000E+04  0.10566000000E+00 0.  1.
        994   -1    0    0    0    0 -0.00000000000E+00 -0.00000000000E+00  0.11368683772E-12  0.17120000000E+03  0.17120000000E+03 0.  0.
         13    1    1    2    0    0 -0.95624738103E+01  0.18458087643E+02  0.29743147847E+02  0.36287848004E+02  0.10566000000E+00 0.  1.
        994    1    1    2    0    0  0.21953545157E+02 -0.11516897744E+02  0.86496801559E+01  0.17320177264E+03  0.17120000000E+03 0.  0.
        998    1    1    2    0    0 -0.12391071347E+02 -0.69411898996E+01  0.14616071683E+04  0.14617103794E+04  0.10000000000E+02 0.  1.
</event>
<event>
 5    1  0.1607440E-008  0.3820511E+03  0.7957747E-01  0.3442276E+00
         13   -1    0    0    0    0  0.00000000000E+00  0.00000000000E+00  0.14999999963E+04  0.15000000000E+04  0.10566000000E+00 0.  1.
        994   -1    0    0    0    0 -0.00000000000E+00 -0.00000000000E+00  0.11368683772E-12  0.17120000000E+03  0.17120000000E+03 0.  0.
         13    1    1    2    0    0 -0.78853447986E+01  0.10552353430E+02  0.26469855934E+02  0.29566793243E+02  0.10566000000E+00 0.  1.
        994    1    1    2    0    0  0.90080274604E+01 -0.95295458528E+01  0.36724809328E+01  0.17174074624E+03  0.17120000000E+03 0.  0.
        998    1    1    2    0    0 -0.11226826618E+01 -0.10228075768E+01  0.14698576594E+04  0.14698924605E+04  0.10000000000E+02 0.  1.
</event>
<event>
 5    1  0.1607440E-008  0.3781984E+03  0.7957747E-01  0.3459041E+00
         13   -1    0    0    0    0  0.00000000000E+00  0.00000000000E+00  0.14999999963E+04  0.15000000000E+04  0.10566000000E+00 0.  1.
        994   -1    0    0    0    0 -0.00000000000E+00 -0.00000000000E+00  0.11368683772E-12  0.17120000000E+03  0.17120000000E+03 0.  0.
         13    1    1    2    0    0  0.97110951498E+01 -0.39583841774E+02  0.15375493381E+03  0.15906532222E+03  0.10566000000E+00 0.  1.
        994    1    1    2    0    0  0.13366829427E+02  0.38584849404E+02  0.10673468700E+02  0.17632590753E+03  0.17120000000E+03 0.  0.
        998    1    1    2    0    0 -0.23077924577E+02  0.99899236991E+00  0.13355715938E+04  0.13358087702E+04  0.10000000000E+02 0.  1.
</event>
<event>
 5    1  0.1607440E-008  0.3814103E+03  0.7957747E-01  0.3445041E+00
         13   -1    0    0    0    0  0.00000000000E+00  0.00000000000E+00  0.14999999963E+04  0.15000000000E+04  0.10566000000E+00 0. -1.
        994   -1    0    0    0    0 -0.00000000000E+00 -0.00000000000E+00  0.11368683772E-12  0.17120000000E+03  0.17120000000E+03 0.  0.
         13    1    1    2    0    0 -0.15640077661E+02 -0.32389587002E+01  0.35873083299E+02  0.39268207906E+02  0.10566000000E+00 0. -1.
        994    1    1    2    0    0  0.12224738291E+02 -0.12248974800E+01  0.39253354244E+01  0.17168515620E+03  0.17120000000E+03 0.  0.
        998    1    1    2    0    0  0.34153393708E+01  0.44638561801E+01  0.14602015776E+04  0.14602466359E+04  0.10000000000E+02 0. -1.
</event>
<event>
 5    1  0.1607440E-008  0.3845508E+03  0.7957747E-01  0.3431580E+00
         13   -1    0    0    0    0  0.00000000000E+00  0.00000000000E+00  0.14999999963E+04  0.15000000000E+04  0.10566000000E+00 0.  1.
        994   -1    0    0    0    0 -0.00000000000E+00 -0.00000000000E+00  0.11368683772E-12  0.17120000000E+03  0.17120000000E+03 0.  0.
         13    1    1    2    0    0  0.70359415217E+01  0.10399286273E+02  0.43180653934E+02  0.44969207979E+02  0.10566000000E+00 0.  1.
        994    1    1    2    0    0 -0.90553718574E+01  0.13258882194E+01  0.21292417198E+01  0.17145766652E+03  0.17120000000E+03 0.  0.
        998    1    1    2    0    0  0.20194303357E+01 -0.11725174492E+02  0.14546901006E+04  0.14547731255E+04  0.10000000000E+02 0.  1.
</event>
<event>
 5    1  0.1607440E-008  0.3844472E+03  0.7957747E-01  0.3432020E+00
         13   -1    0    0    0    0  0.00000000000E+00  0.00000000000E+00  0.14999999963E+04  0.15000000000E+04  0.10566000000E+00 0. -1.
        994   -1    0    0    0    0 -0.00000000000E+00 -0.00000000000E+00  0.11368683772E-12  0.17120000000E+03  0.17120000000E+03 0.  0.
         13    1    1    2    0    0  0.13806675742E+02 -0.96236981478E+01  0.81796516305E+02  0.83510006015E+02  0.10566000000E+00 0. -1.
        994    1    1    2    0    0  0.39678292970E+01 -0.95808202334E+00  0.19597166196E+01  0.17125986710E+03  0.17120000000E+03 0.  0.
        998    1    1    2    0    0 -0.17774505039E+02  0.10581780171E+02  0.14162437634E+04  0.14164301269E+04  0.10000000000E+02 0. -1.
</event>
<event>
 5    1  0.1607440E-008  0.3835270E+03  0.7957747E-01  0.3435943E+00
         13   -1    0    0    0    0  0.00000000000E+00  0.00000000000E+00  0.14999999963E+04  0.15000000000E+04  0.10566000000E+00 0. -1.
        994   -1    0    0    0    0 -0.00000000000E+00 -0.00000000000E+00  0.11368683772E-12  0.17120000000E+03  0.17120000000E+03 0.  0.
         13    1    1    2    0    0  0.27367018140E+02 -0.15147668528E+01  0.16059974310E+03  0.16292187345E+03  0.10566000000E+00 0. -1.
        994    1    1    2    0    0 -0.16123416530E+02 -0.15999197520E+02  0.40699549195E+01  0.17274820814E+03  0.17120000000E+03 0.  0.
        998    1    1    2    0    0 -0.11243601610E+02  0.17513964373E+02  0.13353302983E+04  0.13355299184E+04  0.10000000000E+02 0. -1.
</event>
<event>
 5    1  0.1607440E-008  0.3803120E+03  0.7957747E-01  0.3449801E+00
         13   -1    0    0    0    0  0.00000000000E+00  0.00000000000E+00  0.14999999963E+04  0.15000000000E+04  0.10566000000E+00 0.  1.
        994   -1    0    0    0    0 -0.00000000000E+00 -0.00000000000E+00  0.11368683772E-12  0.17120000000E+03  0.17120000000E+03 0.  0.
         13    1    1    2    0    0 -0.15179571963E+00 -0.43729110659E+02  0.49918569077E+02  0.66363641127E+02  0.10566000000E+00 0.  1.
        994    1    1    2    0    0  0.43548256250E+01  0.45538783623E+02  0.24129332062E+02  0.17884185748E+03  0.17120000000E+03 0.  0.
        998    1    1    2    0    0 -0.42030299054E+01 -0.18096729642E+01  0.14259520951E+04  0.14259945014E+04  0.10000000000E+02 0.  1.
</event>
<event>
 5    1  0.1607440E-008  0.3821632E+03  0.7957747E-01  0.3441793E+00
         13   -1    0    0    0    0  0.00000000000E+00  0.00000000000E+00  0.14999999963E+04  0.15000000000E+04  0.10566000000E+00 0. -1.
        994   -1    0    0    0    0 -0.00000000000E+00 -0.00000000000E+00  0.11368683772E-12  0.17120000000E+03  0.17120000000E+03 0.  0.
         13    1    1    2    0    0 -0.13723347229E+02  0.17472261363E+02  0.10480968604E+03  0.10713865609E+03  0.10566000000E+00 0. -1.
        994    1    1    2    0    0 -0.27417688196E+02  0.14799075993E+02  0.62739021621E+01  0.17412508184E+03  0.17120000000E+03 0.  0.
        998    1    1    2    0    0  0.41141035426E+02 -0.32271337356E+02  0.13889164081E+04  0.13899362621E+04  0.10000000000E+02 0. -1.
</event>
<event>
 5    1  0.1607440E-008  0.3853362E+03  0.7957747E-01  0.3428247E+00
         13   -1    0    0    0    0  0.00000000000E+00  0.00000000000E+00  0.14999999963E+04  0.15000000000E+04  0.10566000000E+00 0.  1.
        994   -1    0    0    0    0 -0.00000000000E+00 -0.00000000000E+00  0.11368683772E-12  0.17120000000E+03  0.17120000000E+03 0.  0.
         13    1    1    2    0    0 -0.90604497284E+00 -0.18495076140E+02  0.11151804369E+03  0.11304500870E+03  0.10566000000E+00 0.  1.
        994    1    1    2    0    0  0.12187028869E+01  0.17720668448E+02  0.25004412025E+01  0.17213715326E+03  0.17120000000E+03 0.  0.
        998    1    1    2    0    0 -0.31265791409E+00  0.77440769230E+00  0.13859815114E+04  0.13860178380E+04  0.10000000000E+02 0.  1.
</event>
<event>
 5    1  0.1607440E-008  0.3860625E+03  0.7957747E-01  0.3425178E+00
         13   -1    0    0    0    0  0.00000000000E+00  0.00000000000E+00  0.14999999963E+04  0.15000000000E+04  0.10566000000E+00 0. -1.
        994   -1    0    0    0    0 -0.00000000000E+00 -0.00000000000E+00  0.11368683772E-12  0.17120000000E+03  0.17120000000E+03 0.  0.
         13    1    1    2    0    0  0.79729659361E+01 -0.10066394562E+02  0.76215458258E+02  0.77289764696E+02  0.10566000000E+00 0. -1.
        994    1    1    2    0    0 -0.47921233008E+01  0.58636487683E+01  0.12914859180E+01  0.17137226951E+03  0.17120000000E+03 0.  0.
        998    1    1    2    0    0 -0.31808426353E+01  0.42027457936E+01  0.14224930521E+04  0.14225379658E+04  0.10000000000E+02 0. -1.
</event>
<event>
 5    1  0.1607440E-008  0.3860572E+03  0.7957747E-01  0.3425201E+00
         13   -1    0    0    0    0  0.00000000000E+00  0.00000000000E+00  0.14999999963E+04  0.15000000000E+04  0.10566000000E+00 0. -1.
        994   -1    0    0    0    0 -0.00000000000E+00 -0.00000000000E+00  0.11368683772E-12  0.17120000000E+03  0.17120000000E+03 0.  0.
         13    1    1    2    0    0  0.47776988282E+01  0.93500303576E+01  0.50371978850E+02  0.51454804354E+02  0.10566000000E+00 0. -1.
        994    1    1    2    0    0 -0.53562951878E+01 -0.55306850026E+01  0.13004682264E+01  0.17137797289E+03  0.17120000000E+03 0.  0.
        998    1    1    2    0    0  0.57859635961E+00 -0.38193453550E+01  0.14483275492E+04  0.14483672228E+04  0.10000000000E+02 0. -1.
</event>
<event>
 5    1  0.1607440E-008  0.3754820E+03  0.7957747E-01  0.3471070E+00
         13   -1    0    0    0    0  0.00000000000E+00  0.00000000000E+00  0.14999999963E+04  0.15000000000E+04  0.10566000000E+00 0. -1.
        994   -1    0    0    0    0 -0.00000000000E+00 -0.00000000000E+00  0.11368683772E-12  0.17120000000E+03  0.17120000000E+03 0.  0.
         13    1    1    2    0    0 -0.40718519798E+01  0.11030006400E+03  0.56431851435E+03  0.57501137458E+03  0.10566000000E+00 0. -1.
        994    1    1    2    0    0  0.53367104045E+02 -0.11548712344E+03  0.63505756812E+02  0.22254829728E+03  0.17120000000E+03 0.  0.
        998    1    1    2    0    0 -0.49295252065E+02  0.51870594470E+01  0.87217572512E+03  0.87364032814E+03  0.10000000000E+02 0. -1.
</event>
<event>
 5    1  0.1607440E-008  0.3849271E+03  0.7957747E-01  0.3429981E+00
         13   -1    0    0    0    0  0.00000000000E+00  0.00000000000E+00  0.14999999963E+04  0.15000000000E+04  0.10566000000E+00 0. -1.
        994   -1    0    0    0    0 -0.00000000000E+00 -0.00000000000E+00  0.11368683772E-12  0.17120000000E+03  0.17120000000E+03 0.  0.
         13    1    1    2    0    0 -0.10711343231E+02  0.42075123158E+01  0.38274302403E+02  0.39967104251E+02  0.10566000000E+00 0. -1.
        994    1    1    2    0    0  0.24018737268E+02  0.19706985979E+02  0.48479453677E+01  0.17406380328E+03  0.17120000000E+03 0.  0.
        998    1    1    2    0    0 -0.13307394036E+02 -0.23914498295E+02  0.14568777485E+04  0.14571690925E+04  0.10000000000E+02 0. -1.
</event>
<event>
 5    1  0.1607440E-008  0.3783207E+03  0.7957747E-01  0.3458503E+00
         13   -1    0    0    0    0  0.00000000000E+00  0.00000000000E+00  0.14999999963E+04  0.15000000000E+04  0.10566000000E+00 0. -1.
        994   -1    0    0    0    0 -0.00000000000E+00 -0.00000000000E+00  0.11368683772E-12  0.17120000000E+03  0.17120000000E+03 0.  0.
         13    1    1    2    0    0 -0.42065661140E+02  0.23505013155E+02  0.22407631166E+03  0.22919906218E+03  0.10566000000E+00 0. -1.
        994    1    1    2    0    0  0.16109068387E+02 -0.38807128287E+02  0.10941122745E+02  0.17662005395E+03  0.17120000000E+03 0.  0.
        998    1    1    2    0    0  0.25956592753E+02  0.15302115132E+02  0.12649825619E+04  0.12653808839E+04  0.10000000000E+02 0. -1.
</event>
<event>
 5    1  0.1607440E-008  0.3842813E+03  0.7957747E-01  0.3432726E+00
         13   -1    0    0    0    0  0.00000000000E+00  0.00000000000E+00  0.14999999963E+04  0.15000000000E+04  0.10566000000E+00 0. -1.
        994   -1    0    0    0    0 -0.00000000000E+00 -0.00000000000E+00  0.11368683772E-12  0.17120000000E+03  0.17120000000E+03 0.  0.
         13    1    1    2    0    0  0.21492392060E+02  0.80822130117E+01  0.12719344095E+03  0.12924947840E+03  0.10566000000E+00 0. -1.
        994    1    1    2    0    0 -0.20490740253E+02  0.16918313539E+00  0.33727324626E+01  0.17245496335E+03  0.17120000000E+03 0.  0.
        998    1    1    2    0    0 -0.10016518073E+01 -0.82513961471E+01  0.13694338229E+04  0.13694955582E+04  0.10000000000E+02 0. -1.
</event>
<event>
 5    1  0.1607440E-008  0.3793818E+03  0.7957747E-01  0.3453855E+00
         13   -1    0    0    0    0  0.00000000000E+00  0.00000000000E+00  0.14999999963E+04  0.15000000000E+04  0.10566000000E+00 0.  1.
        994   -1    0    0    0    0 -0.00000000000E+00 -0.00000000000E+00  0.11368683772E-12  0.17120000000E+03  0.17120000000E+03 0.  0.
         13    1    1    2    0    0 -0.12792810616E+02 -0.61203140205E+01  0.20329259098E+02  0.24787177868E+02  0.10566000000E+00 0.  1.
        994    1    1    2    0    0  0.16133292096E+02  0.74363424753E+01  0.55033743110E+01  0.17220717009E+03  0.17120000000E+03 0.  0.
        998    1    1    2    0    0 -0.33404814801E+01 -0.13160284548E+01  0.14741673629E+04  0.14742056520E+04  0.10000000000E+02 0.  1.
</event>
<event>
 5    1  0.1607440E-008  0.3844509E+03  0.7957747E-01  0.3432004E+00
         13   -1    0    0    0    0  0.00000000000E+00  0.00000000000E+00  0.14999999963E+04  0.15000000000E+04  0.10566000000E+00 0.  1.
        994   -1    0    0    0    0 -0.00000000000E+00 -0.00000000000E+00  0.11368683772E-12  0.17120000000E+03  0.17120000000E+03 0.  0.
         13    1    1    2    0    0 -0.13859088073E+02  0.10136834296E+02  0.74487303912E+02  0.76440822470E+02  0.10566000000E+00 0.  1.
        994    1    1    2    0    0  0.15443683467E+02 -0.75046912543E+01  0.28749019977E+01  0.17208292423E+03  0.17120000000E+03 0.  0.
        998    1    1    2    0    0 -0.15845953935E+01 -0.26321430418E+01  0.14226377904E+04  0.14226762533E+04  0.10000000000E+02 0.  1.
</event>
<event>
 5    1  0.3154060E-008  0.3864233E+03  0.7957747E-01  0.3423658E+00
         13   -1    0    0    0    0  0.00000000000E+00  0.00000000000E+00  0.14999999963E+04  0.15000000000E+04  0.10566000000E+00 0.  1.
        994   -1    0    0    0    0 -0.00000000000E+00 -0.00000000000E+00  0.11368683772E-12  0.17120000000E+03  0.17120000000E+03 0.  0.
         13    1    1    2    0    0 -0.10509063986E+02  0.26999166208E+01  0.64250285944E+02  0.65160113440E+02  0.10566000000E+00 0.  1.
        994    1    1    2    0    0  0.94392787905E+01  0.25550317364E+01  0.12382330527E+01  0.17148353097E+03  0.17120000000E+03 0.  0.
        998    1    1    2    0    0  0.10697851953E+01 -0.52549483572E+01  0.14345114773E+04  0.14345563556E+04  0.10000000000E+02 0.  1.
</event>
<event>
 5    1  0.1607440E-008  0.3832885E+03  0.7957747E-01  0.3436964E+00
         13   -1    0    0    0    0  0.00000000000E+00  0.00000000000E+00  0.14999999963E+04  0.15000000000E+04  0.10566000000E+00 0.  1.
        994   -1    0    0    0    0 -0.00000000000E+00 -0.00000000000E+00  0.11368683772E-12  0.17120000000E+03  0.17120000000E+03 0.  0.
         13    1    1    2    0    0  0.13729984339E+02 -0.84789492093E+01  0.50533792314E+02  0.53047906455E+02  0.10566000000E+00 0.  1.
        994    1    1    2    0    0 -0.15676869623E+02  0.46757700195E+01  0.33678143670E+01  0.17201281708E+03  0.17120000000E+03 0.  0.
        998    1    1    2    0    0  0.19468852848E+01  0.38031791898E+01  0.14460983896E+04  0.14461392765E+04  0.10000000000E+02 0.  1.
</event>
<event>
 5    1  0.1607440E-008  0.3739318E+03  0.7957747E-01  0.3478014E+00
         13   -1    0    0    0    0  0.00000000000E+00  0.00000000000E+00  0.14999999963E+04  0.15000000000E+04  0.10566000000E+00 0. -1.
        994   -1    0    0    0    0 -0.00000000000E+00 -0.00000000000E+00  0.11368683772E-12  0.17120000000E+03  0.17120000000E+03 0.  0.
         13    1    1    2    0    0  0.40860196370E+02  0.31555166769E+02  0.16847022037E+03  0.17620303775E+03  0.10566000000E+00 0. -1.
        994    1    1    2    0    0 -0.35967963592E+02 -0.27081995262E+02  0.14175490022E+02  0.17758804405E+03  0.17120000000E+03 0.  0.
        998    1    1    2    0    0 -0.48922327776E+01 -0.44731715072E+01  0.13173542859E+04  0.13174089182E+04  0.10000000000E+02 0. -1.
</event>
<event>
 5    1  0.1607440E-008  0.3810285E+03  0.7957747E-01  0.3446693E+00
         13   -1    0    0    0    0  0.00000000000E+00  0.00000000000E+00  0.14999999963E+04  0.15000000000E+04  0.10566000000E+00 0. -1.
        994   -1    0    0    0    0 -0.00000000000E+00 -0.00000000000E+00  0.11368683772E-12  0.17120000000E+03  0.17120000000E+03 0.  0.
         13    1    1    2    0    0 -0.18458868294E+02 -0.21384583637E+02  0.94964544321E+02  0.99077273267E+02  0.10566000000E+00 0. -1.
        994    1    1    2    0    0  0.36149786524E+02  0.26826749732E+02  0.10395943401E+02  0.17732455331E+03  0.17120000000E+03 0.  0.
        998    1    1    2    0    0 -0.17690918229E+02 -0.54421660956E+01  0.13946395086E+04  0.13947981734E+04  0.10000000000E+02 0. -1.
</event>
<event>
 5    1  0.1607440E-008  0.3708235E+03  0.7957747E-01  0.3492115E+00
         13   -1    0    0    0    0  0.00000000000E+00  0.00000000000E+00  0.14999999963E+04  0.15000000000E+04  0.10566000000E+00 0.  1.
        994   -1    0    0    0    0 -0.00000000000E+00 -0.00000000000E+00  0.11368683772E-12  0.17120000000E+03  0.17120000000E+03 0.  0.
         13    1    1    2    0    0  0.81440231282E+02 -0.56039159811E+01  0.24444314289E+03  0.25771374899E+03  0.10566000000E+00 0.  1.
        994    1    1    2    0    0 -0.79685387656E+02  0.27022099684E+01  0.34009898539E+02  0.19189365842E+03  0.17120000000E+03 0.  0.
        998    1    1    2    0    0 -0.17548436258E+01  0.29017060128E+01  0.12215469548E+04  0.12215925926E+04  0.10000000000E+02 0.  0.
</event>
<event>
 5    1  0.1607440E-008  0.3860700E+03  0.7957747E-01  0.3425147E+00
         13   -1    0    0    0    0  0.00000000000E+00  0.00000000000E+00  0.14999999963E+04  0.15000000000E+04  0.10566000000E+00 0. -1.
        994   -1    0    0    0    0 -0.00000000000E+00 -0.00000000000E+00  0.11368683772E-12  0.17120000000E+03  0.17120000000E+03 0.  0.
         13    1    1    2    0    0  0.20314170190E+03 -0.35964843127E+01  0.11544344766E+04  0.11721768031E+04  0.10566000000E+00 0. -1.
        994    1    1    2    0    0 -0.21611910908E+03 -0.46554403687E+01  0.17308905761E+03  0.32557396134E+03  0.17120000000E+03 0.  0.
        998    1    1    2    0    0  0.12977407180E+02  0.82519246814E+01  0.17247646205E+03  0.17344923557E+03  0.10000000000E+02 0. -1.
</event>
<event>
 5    1  0.1607440E-008  0.3840689E+03  0.7957747E-01  0.3433631E+00
         13   -1    0    0    0    0  0.00000000000E+00  0.00000000000E+00  0.14999999963E+04  0.15000000000E+04  0.10566000000E+00 0.  1.
        994   -1    0    0    0    0 -0.00000000000E+00 -0.00000000000E+00  0.11368683772E-12  0.17120000000E+03  0.17120000000E+03 0.  0.
         13    1    1    2    0    0  0.15411490326E+02 -0.13886157527E+02  0.10182898448E+03  0.10392060744E+03  0.10566000000E+00 0.  1.
        994    1    1    2    0    0 -0.10695330178E+02  0.87489380693E+01  0.27231904404E+01  0.17177831578E+03  0.17120000000E+03 0.  0.
        998    1    1    2    0    0 -0.47161601480E+01  0.51372194576E+01  0.13954478214E+04  0.13955010768E+04  0.10000000000E+02 0.  1.
</event>
<event>
 5    1  0.1607440E-008  0.3732569E+03  0.7957747E-01  0.3481055E+00
         13   -1    0    0    0    0  0.00000000000E+00  0.00000000000E+00  0.14999999963E+04  0.15000000000E+04  0.10566000000E+00 0.  1.
        994   -1    0    0    0    0 -0.00000000000E+00 -0.00000000000E+00  0.11368683772E-12  0.17120000000E+03  0.17120000000E+03 0.  0.
         13    1    1    2    0    0 -0.32032115114E+02 -0.17891474187E+02  0.53248542015E+02  0.64665134640E+02  0.10566000000E+00 0.  1.
        994    1    1    2    0    0 -0.10293458478E+02 -0.43421498823E+01  0.13112941370E+02  0.17206451925E+03  0.17120000000E+03 0.  0.
        998    1    1    2    0    0  0.42325573592E+02  0.22233624069E+02  0.14336385129E+04  0.14344703461E+04  0.10000000000E+02 0.  1.
</event>
<event>
 5    1  0.1607440E-008  0.3846265E+03  0.7957747E-01  0.3431258E+00
         13   -1    0    0    0    0  0.00000000000E+00  0.00000000000E+00  0.14999999963E+04  0.15000000000E+04  0.10566000000E+00 0. -1.
        994   -1    0    0    0    0 -0.00000000000E+00 -0.00000000000E+00  0.11368683772E-12  0.17120000000E+03  0.17120000000E+03 0.  0.
         13    1    1    2    0    0 -0.23224792800E+02 -0.38420064424E+01  0.12851052658E+03  0.13064883704E+03  0.10566000000E+00 0. -1.
        994    1    1    2    0    0  0.36170060168E+02 -0.23875693620E+01  0.61541518188E+01  0.17510364738E+03  0.17120000000E+03 0.  0.
        998    1    1    2    0    0 -0.12945267368E+02  0.62295758044E+01  0.13653353179E+04  0.13654475156E+04  0.10000000000E+02 0. -1.
</event>
<event>
 5    1  0.1607440E-008  0.3731943E+03  0.7957747E-01  0.3481338E+00
         13   -1    0    0    0    0  0.00000000000E+00  0.00000000000E+00  0.14999999963E+04  0.15000000000E+04  0.10566000000E+00 0. -1.
        994   -1    0    0    0    0 -0.00000000000E+00 -0.00000000000E+00  0.11368683772E-12  0.17120000000E+03  0.17120000000E+03 0.  0.
         13    1    1    2    0    0 -0.71228956550E+02 -0.57037709132E+02  0.54318499172E+03  0.55079652405E+03  0.10566000000E+00 0. -1.
        994    1    1    2    0    0 -0.25271537886E+02  0.35532104234E+02  0.19389988780E+02  0.17772617343E+03  0.17120000000E+03 0.  0.
        998    1    1    2    0    0  0.96500494436E+02  0.21505604898E+02  0.93742501578E+03  0.94267730251E+03  0.10000000000E+02 0. -1.
</event>
<event>
 5    1  0.1607440E-008  0.3833154E+03  0.7957747E-01  0.3436848E+00
         13   -1    0    0    0    0  0.00000000000E+00  0.00000000000E+00  0.14999999963E+04  0.15000000000E+04  0.10566000000E+00 0. -1.
        994   -1    0    0    0    0 -0.00000000000E+00 -0.00000000000E+00  0.11368683772E-12  0.17120000000E+03  0.17120000000E+03 0.  0.
         13    1    1    2    0    0 -0.18312038834E+02 -0.18633661488E+03  0.10110871781E+04  0.10282771794E+04  0.10566000000E+00 0. -1.
        994    1    1    2    0    0  0.23110545206E+02  0.20016721079E+03  0.15088128630E+03  0.30442669418E+03  0.17120000000E+03 0.  0.
        998    1    1    2    0    0 -0.47985063723E+01 -0.13830595908E+02  0.33803153193E+03  0.33849612645E+03  0.10000000000E+02 0. -1.
</event>
<event>
 5    1  0.1607440E-008  0.3724038E+03  0.7957747E-01  0.3484916E+00
         13   -1    0    0    0    0  0.00000000000E+00  0.00000000000E+00  0.14999999963E+04  0.15000000000E+04  0.10566000000E+00 0. -1.
        994   -1    0    0    0    0 -0.00000000000E+00 -0.00000000000E+00  0.11368683772E-12  0.17120000000E+03  0.17120000000E+03 0.  0.
         13    1    1    2    0    0  0.71471711005E+02 -0.13521229062E+02  0.29121746454E+03  0.30016437484E+03  0.10566000000E+00 0. -1.
        994    1    1    2    0    0 -0.59062600015E+02  0.59050389662E+01  0.20198400271E+02  0.18232025554E+03  0.17120000000E+03 0.  0.
        998    1    1    2    0    0 -0.12409110991E+02  0.76161900959E+01  0.11885841315E+04  0.11887153696E+04  0.10000000000E+02 0. -1.
</event>
<event>
 5    1  0.1607440E-008  0.3696632E+03  0.7957747E-01  0.3497440E+00
         13   -1    0    0    0    0  0.00000000000E+00  0.00000000000E+00  0.14999999963E+04  0.15000000000E+04  0.10566000000E+00 0.  1.
        994   -1    0    0    0    0 -0.00000000000E+00 -0.00000000000E+00  0.11368683772E-12  0.17120000000E+03  0.17120000000E+03 0.  0.
         13    1    1    2    0    0 -0.15172624518E+03  0.95343453268E+02  0.77965678109E+03  0.79998495925E+03  0.10566000000E+00 0.  1.
        994    1    1    2    0    0  0.14838169457E+03 -0.86525924453E+02  0.11975759855E+03  0.27047215253E+03  0.17120000000E+03 0.  0.
        998    1    1    2    0    0  0.33445506075E+01 -0.88175288147E+01  0.60058561664E+03  0.60074288822E+03  0.10000000000E+02 0.  0.
</event>
<event>
 5    1  0.1607440E-008  0.3746853E+03  0.7957747E-01  0.3474631E+00
         13   -1    0    0    0    0  0.00000000000E+00  0.00000000000E+00  0.14999999963E+04  0.15000000000E+04  0.10566000000E+00 0. -1.
        994   -1    0    0    0    0 -0.00000000000E+00 -0.00000000000E+00  0.11368683772E-12  0.17120000000E+03  0.17120000000E+03 0.  0.
         13    1    1    2    0    0  0.27741752251E+02  0.25234022491E+02  0.93593642882E+02  0.10082728728E+03  0.10566000000E+00 0. -1.
        994    1    1    2    0    0 -0.27673470881E+02 -0.29489875204E+02  0.12425997297E+02  0.17634999047E+03  0.17120000000E+03 0.  0.
        998    1    1    2    0    0 -0.68281369678E-01  0.42558527128E+01  0.13939803561E+04  0.13940227222E+04  0.10000000000E+02 0. -1.
</event>
<event>
 5    1  0.1607440E-008  0.3748575E+03  0.7957747E-01  0.3473860E+00
         13   -1    0    0    0    0  0.00000000000E+00  0.00000000000E+00  0.14999999963E+04  0.15000000000E+04  0.10566000000E+00 0.  1.
        994   -1    0    0    0    0 -0.00000000000E+00 -0.00000000000E+00  0.11368683772E-12  0.17120000000E+03  0.17120000000E+03 0.  0.
         13    1    1    2    0    0  0.15573378897E+02 -0.61811533277E+01  0.17751581316E+02  0.24410378735E+02  0.10566000000E+00 0.  1.
        994    1    1    2    0    0 -0.14453456395E+02  0.34201432497E+01  0.75024711691E+01  0.17200676398E+03  0.17120000000E+03 0.  0.
        998    1    1    2    0    0 -0.11199225022E+01  0.27610100780E+01  0.14747459438E+04  0.14747828573E+04  0.10000000000E+02 0.  1.
</event>
<event>
 5    1  0.1607440E-008  0.3693012E+03  0.7957747E-01  0.3499108E+00
         13   -1    0    0    0    0  0.00000000000E+00  0.00000000000E+00  0.14999999963E+04  0.15000000000E+04  0.10566000000E+00 0. -1.
        994   -1    0    0    0    0 -0.00000000000E+00 -0.00000000000E+00  0.11368683772E-12  0.17120000000E+03  0.17120000000E+03 0.  0.
         13    1    1    2    0    0 -0.65190707871E+02  0.83805646310E+02  0.47514319774E+03  0.48686166851E+03  0.10566000000E+00 0. -1.
        994    1    1    2    0    0  0.40517630627E+02 -0.76989254426E+02  0.36347605257E+02  0.19544721051E+03  0.17120000000E+03 0.  0.
        998    1    1    2    0    0  0.24673077244E+02 -0.68163918843E+01  0.98850919328E+03  0.98889112098E+03  0.10000000000E+02 0. -1.
</event>
<event>
 5    1  0.1607440E-008  0.3800152E+03  0.7957747E-01  0.3451092E+00
         13   -1    0    0    0    0  0.00000000000E+00  0.00000000000E+00  0.14999999963E+04  0.15000000000E+04  0.10566000000E+00 0. -1.
        994   -1    0    0    0    0 -0.00000000000E+00 -0.00000000000E+00  0.11368683772E-12  0.17120000000E+03  0.17120000000E+03 0.  0.
         13    1    1    2    0    0  0.14835177837E+02 -0.11778579281E+02  0.41892272985E+02  0.45975984288E+02  0.10566000000E+00 0. -1.
        994    1    1    2    0    0 -0.88387592403E+01  0.93531184962E+01  0.46792329959E+01  0.17174673130E+03  0.17120000000E+03 0.  0.
        998    1    1    2    0    0 -0.59964185968E+01  0.24254607848E+01  0.14534284903E+04  0.14534772844E+04  0.10000000000E+02 0. -1.
</event>
<event>
 5    1  0.1607440E-008  0.3811438E+03  0.7957747E-01  0.3446193E+00
         13   -1    0    0    0    0  0.00000000000E+00  0.00000000000E+00  0.14999999963E+04  0.15000000000E+04  0.10566000000E+00 0.  1.
        994   -1    0    0    0    0 -0.00000000000E+00 -0.00000000000E+00  0.11368683772E-12  0.17120000000E+03  0.17120000000E+03 0.  0.
         13    1    1    2    0    0 -0.17193991379E+02 -0.39340965394E+02  0.23939051771E+03  0.24321014787E+03  0.10566000000E+00 0.  1.
        994    1    1    2    0    0  0.15031858245E+02  0.29685877557E+02  0.72530153392E+01  0.17455444515E+03  0.17120000000E+03 0.  0.
        998    1    1    2    0    0  0.21621331338E+01  0.96550878365E+01  0.12533564632E+04  0.12534354070E+04  0.10000000000E+02 0.  1.
</event>
<event>
 5    1  0.1607440E-008  0.3701290E+03  0.7957747E-01  0.3495298E+00
         13   -1    0    0    0    0  0.00000000000E+00  0.00000000000E+00  0.14999999963E+04  0.15000000000E+04  0.10566000000E+00 0. -1.
        994   -1    0    0    0    0 -0.00000000000E+00 -0.00000000000E+00  0.11368683772E-12  0.17120000000E+03  0.17120000000E+03 0.  0.
         13    1    1    2    0    0 -0.82998398983E+01 -0.10595353537E+02  0.31521961330E+01  0.13823760827E+02  0.10566000000E+00 0. -1.
        994    1    1    2    0    0  0.76308912671E+01  0.93606204494E+01  0.11517342685E+02  0.17201145572E+03  0.17120000000E+03 0.  0.
        998    1    1    2    0    0  0.66894863114E+00  0.12347330878E+01  0.14853304575E+04  0.14853647835E+04  0.10000000000E+02 0. -1.
</event>
<event>
 5    1  0.1607440E-008  0.3747141E+03  0.7957747E-01  0.3474502E+00
         13   -1    0    0    0    0  0.00000000000E+00  0.00000000000E+00  0.14999999963E+04  0.15000000000E+04  0.10566000000E+00 0.  1.
        994   -1    0    0    0    0 -0.00000000000E+00 -0.00000000000E+00  0.11368683772E-12  0.17120000000E+03  0.17120000000E+03 0.  0.
         13    1    1    2    0    0  0.20383727563E+02 -0.18973537418E+02  0.56536398658E+02  0.63022749931E+02  0.10566000000E+00 0.  1.
        994    1    1    2    0    0 -0.17078712795E+02 -0.10670864349E+02  0.82066980563E+01  0.17257560566E+03  0.17120000000E+03 0.  0.
        998    1    1    2    0    0 -0.33050147689E+01  0.29644401767E+02  0.14352568996E+04  0.14356016444E+04  0.10000000000E+02 0.  1.
</event>
<event>
 5    1  0.1607440E-008  0.3852294E+03  0.7957747E-01  0.3428700E+00
         13   -1    0    0    0    0  0.00000000000E+00  0.00000000000E+00  0.14999999963E+04  0.15000000000E+04  0.10566000000E+00 0.  1.
        994   -1    0    0    0    0 -0.00000000000E+00 -0.00000000000E+00  0.11368683772E-12  0.17120000000E+03  0.17120000000E+03 0.  0.
         13    1    1    2    0    0 -0.14299161335E+02 -0.14038381953E+02  0.11986062568E+03  0.12152416605E+03  0.10566000000E+00 0.  1.
        994    1    1    2    0    0  0.76613720598E+01  0.27199600628E+02  0.41447575607E+01  0.17356593534E+03  0.17120000000E+03 0.  0.
        998    1    1    2    0    0  0.66377892752E+01 -0.13161218674E+02  0.13759946130E+04  0.13761098986E+04  0.10000000000E+02 0.  1.
</event>
<event>
 5    1  0.1607440E-008  0.3859237E+03  0.7957747E-01  0.3425764E+00
         13   -1    0    0    0    0  0.00000000000E+00  0.00000000000E+00  0.14999999963E+04  0.15000000000E+04  0.10566000000E+00 0. -1.
        994   -1    0    0    0    0 -0.00000000000E+00 -0.00000000000E+00  0.11368683772E-12  0.17120000000E+03  0.17120000000E+03 0.  0.
         13    1    1    2    0    0 -0.18613211040E+03  0.10555772314E+03  0.12349773352E+04  0.12533780854E+04  0.10566000000E+00 0. -1.
        994    1    1    2    0    0  0.19257660378E+03 -0.10324412994E+03  0.17754764719E+03  0.32951131348E+03  0.17120000000E+03 0.  0.
        998    1    1    2    0    0 -0.64444933781E+01 -0.23135931951E+01  0.87475013882E+02  0.88310601074E+02  0.10000000000E+02 0.  1.
</event>
<event>
 5    1  0.1607440E-008  0.3846825E+03  0.7957747E-01  0.3431020E+00
         13   -1    0    0    0    0  0.00000000000E+00  0.00000000000E+00  0.14999999963E+04  0.15000000000E+04  0.10566000000E+00 0.  1.
        994   -1    0    0    0    0 -0.00000000000E+00 -0.00000000000E+00  0.11368683772E-12  0.17120000000E+03  0.17120000000E+03 0.  0.
         13    1    1    2    0    0 -0.14453835127E+01 -0.16879248595E+02  0.83942966251E+02  0.85635453603E+02  0.10566000000E+00 0.  1.
        994    1    1    2    0    0  0.49589181473E+01  0.38849091819E+01  0.19185043652E+01  0.17132660053E+03  0.17120000000E+03 0.  0.
        998    1    1    2    0    0 -0.35135346346E+01  0.12994339413E+02  0.14141385257E+04  0.14142379459E+04  0.10000000000E+02 0.  1.
</event>
<event>
 5    1  0.1607440E-008  0.3818999E+03  0.7957747E-01  0.3442927E+00
         13   -1    0    0    0    0  0.00000000000E+00  0.00000000000E+00  0.14999999963E+04  0.15000000000E+04  0.10566000000E+00 0.  1.
        994   -1    0    0    0    0 -0.00000000000E+00 -0.00000000000E+00  0.11368683772E-12  0.17120000000E+03  0.17120000000E+03 0.  0.
         13    1    1    2    0    0 -0.29696298249E+02 -0.29174765378E+02  0.43461866861E+02  0.60182905377E+02  0.10566000000E+00 0.  1.
        994    1    1    2    0    0  0.21796087243E+02  0.19227190320E+02  0.20463219679E+02  0.17485118709E+03  0.17120000000E+03 0.  0.
        998    1    1    2    0    0  0.79002110060E+01  0.99475750575E+01  0.14360749097E+04  0.14361659075E+04  0.10000000000E+02 0.  1.
</event>
<event>
 5    1  0.1607440E-008  0.3814118E+03  0.7957747E-01  0.3445034E+00
         13   -1    0    0    0    0  0.00000000000E+00  0.00000000000E+00  0.14999999963E+04  0.15000000000E+04  0.10566000000E+00 0. -1.
        994   -1    0    0    0    0 -0.00000000000E+00 -0.00000000000E+00  0.11368683772E-12  0.17120000000E+03  0.17120000000E+03 0.  0.
         13    1    1    2    0    0 -0.53922600797E+01  0.13971224814E+02  0.29183207851E+02  0.32801560574E+02  0.10566000000E+00 0. -1.
        994    1    1    2    0    0  0.66326701705E+01 -0.33166195907E+02  0.72380492728E+01  0.17465914869E+03  0.17120000000E+03 0.  0.
        998    1    1    2    0    0 -0.12404100908E+01  0.19194971092E+02  0.14635787392E+04  0.14637392907E+04  0.10000000000E+02 0. -1.
</event>
<event>
 5    1  0.1607440E-008  0.3753238E+03  0.7957747E-01  0.3471776E+00
         13   -1    0    0    0    0  0.00000000000E+00  0.00000000000E+00  0.14999999963E+04  0.15000000000E+04  0.10566000000E+00 0.  1.
        994   -1    0    0    0    0 -0.00000000000E+00 -0.00000000000E+00  0.11368683772E-12  0.17120000000E+03  0.17120000000E+03 0.  0.
         13    1    1    2    0    0 -0.24548101858E+02  0.78594541906E+02  0.19596409366E+03  0.21255975275E+03  0.10566000000E+00 0.  1.
        994    1    1    2    0    0  0.52775786496E+01 -0.99729817348E+02  0.50227081118E+02  0.20446537355E+03  0.17120000000E+03 0.  0.
        998    1    1    2    0    0  0.19270523208E+02  0.21135275441E+02  0.12538088215E+04  0.12541748737E+04  0.10000000000E+02 0.  1.
</event>
<event>
 5    1  0.1607440E-008  0.3808677E+03  0.7957747E-01  0.3447389E+00
         13   -1    0    0    0    0  0.00000000000E+00  0.00000000000E+00  0.14999999963E+04  0.15000000000E+04  0.10566000000E+00 0.  1.
        994   -1    0    0    0    0 -0.00000000000E+00 -0.00000000000E+00  0.11368683772E-12  0.17120000000E+03  0.17120000000E+03 0.  0.
         13    1    1    2    0    0 -0.15114149696E+02  0.39986183047E+02  0.21393029148E+03  0.21815937553E+03  0.10566000000E+00 0.  1.
        994    1    1    2    0    0  0.11393615564E+01 -0.45141745683E+02  0.10522785612E+02  0.17736754034E+03  0.17120000000E+03 0.  0.
        998    1    1    2    0    0  0.13974788140E+02  0.51555626363E+01  0.12755469192E+04  0.12756730841E+04  0.10000000000E+02 0.  1.
</event>
<event>
 5    1  0.1607440E-008  0.3857137E+03  0.7957747E-01  0.3426651E+00
         13   -1    0    0    0    0  0.00000000000E+00  0.00000000000E+00  0.14999999963E+04  0.15000000000E+04  0.10566000000E+00 0.  1.
        994   -1    0    0    0    0 -0.00000000000E+00 -0.00000000000E+00  0.11368683772E-12  0.17120000000E+03  0.17120000000E+03 0.  0.
         13    1    1    2    0    0  0.93911649535E+01 -0.66101803043E+01  0.51412648558E+02  0.52679787951E+02  0.10566000000E+00 0.  1.
        994    1    1    2    0    0 -0.48354507009E+01  0.99720294812E+01  0.16793248617E+01  0.17156655585E+03  0.17120000000E+03 0.  0.
        998    1    1    2    0    0 -0.45557142526E+01 -0.33618491768E+01  0.14469080229E+04  0.14469536562E+04  0.10000000000E+02 0.  1.
</event>
<event>
 5    1  0.1607440E-008  0.3847508E+03  0.7957747E-01  0.3430730E+00
         13   -1    0    0    0    0  0.00000000000E+00  0.00000000000E+00  0.14999999963E+04  0.15000000000E+04  0.10566000000E+00 0.  1.
        994   -1    0    0    0    0 -0.00000000000E+00 -0.00000000000E+00  0.11368683772E-12  0.17120000000E+03  0.17120000000E+03 0.  0.
         13    1    1    2    0    0  0.82419510818E+01 -0.14983692469E+02  0.79249745442E+02  0.81073880593E+02  0.10566000000E+00 0.  1.
        994    1    1    2    0    0 -0.55337106639E+01  0.18060723634E+02  0.29291650168E+01  0.17226384327E+03  0.17120000000E+03 0.  0.
        998    1    1    2    0    0 -0.27082404180E+01 -0.30770311648E+01  0.14178210858E+04  0.14178622761E+04  0.10000000000E+02 0.  1.
</event>
<event>
 5    1  0.1607440E-008  0.3846664E+03  0.7957747E-01  0.3431088E+00
         13   -1    0    0    0    0  0.00000000000E+00  0.00000000000E+00  0.14999999963E+04  0.15000000000E+04  0.10566000000E+00 0.  1.
        994   -1    0    0    0    0 -0.00000000000E+00 -0.00000000000E+00  0.11368683772E-12  0.17120000000E+03  0.17120000000E+03 0.  0.
         13    1    1    2    0    0  0.11907546594E+02 -0.59147817788E+01  0.48108075598E+02  0.49911646048E+02  0.10566000000E+00 0.  1.
        994    1    1    2    0    0 -0.10866161801E+02  0.60068803710E+01  0.23035234606E+01  0.17166508761E+03  0.17120000000E+03 0.  0.
        998    1    1    2    0    0 -0.10413847931E+01 -0.92098592211E-01  0.14495883972E+04  0.14496232663E+04  0.10000000000E+02 0.  1.
</event>
<event>
 5    1  0.1607440E-008  0.3847115E+03  0.7957747E-01  0.3430897E+00
         13   -1    0    0    0    0  0.00000000000E+00  0.00000000000E+00  0.14999999963E+04  0.15000000000E+04  0.10566000000E+00 0. -1.
        994   -1    0    0    0    0 -0.00000000000E+00 -0.00000000000E+00  0.11368683772E-12  0.17120000000E+03  0.17120000000E+03 0.  0.
         13    1    1    2    0    0  0.33352684041E+01 -0.15867622776E+02  0.75310155090E+02  0.77035940259E+02  0.10566000000E+00 0. -1.
        994    1    1    2    0    0  0.12059220078E+02  0.10854597752E+02  0.26404802632E+01  0.17198738098E+03  0.17120000000E+03 0.  0.
        998    1    1    2    0    0 -0.15394488482E+02  0.50130250231E+01  0.14220493609E+04  0.14221766788E+04  0.10000000000E+02 0. -1.
</event>
<event>
 5    1  0.1607440E-008  0.3748498E+03  0.7957747E-01  0.3473895E+00
         13   -1    0    0    0    0  0.00000000000E+00  0.00000000000E+00  0.14999999963E+04  0.15000000000E+04  0.10566000000E+00 0. -1.
        994   -1    0    0    0    0 -0.00000000000E+00 -0.00000000000E+00  0.11368683772E-12  0.17120000000E+03  0.17120000000E+03 0.  0.
         13    1    1    2    0    0  0.19392230863E+02  0.16413147418E+02  0.45141862672E+02  0.51800086443E+02  0.10566000000E+00 0. -1.
        994    1    1    2    0    0 -0.38166710657E+01 -0.21206426682E+02  0.83364696527E+01  0.17275189214E+03  0.17120000000E+03 0.  0.
        998    1    1    2    0    0 -0.15575559797E+02  0.47932792640E+01  0.14465216640E+04  0.14466480214E+04  0.10000000000E+02 0. -1.
</event>
<event>
 5    1  0.1607440E-008  0.3808839E+03  0.7957747E-01  0.3447319E+00
         13   -1    0    0    0    0  0.00000000000E+00  0.00000000000E+00  0.14999999963E+04  0.15000000000E+04  0.10566000000E+00 0.  1.
        994   -1    0    0    0    0 -0.00000000000E+00 -0.00000000000E+00  0.11368683772E-12  0.17120000000E+03  0.17120000000E+03 0.  0.
         13    1    1    2    0    0 -0.60771816653E+01  0.22000404442E+02  0.78972680036E+02  0.82204898204E+02  0.10566000000E+00 0.  1.
        994    1    1    2    0    0 -0.14767181840E+02  0.83675275744E+01  0.46484560260E+01  0.17210210144E+03  0.17120000000E+03 0.  0.
        998    1    1    2    0    0  0.20844363505E+02 -0.30367932016E+02  0.14163788602E+04  0.14168930004E+04  0.10000000000E+02 0.  1.
</event>
<event>
 5    1  0.1607440E-008  0.3835743E+03  0.7957747E-01  0.3435741E+00
         13   -1    0    0    0    0  0.00000000000E+00  0.00000000000E+00  0.14999999963E+04  0.15000000000E+04  0.10566000000E+00 0. -1.
        994   -1    0    0    0    0 -0.00000000000E+00 -0.00000000000E+00  0.11368683772E-12  0.17120000000E+03  0.17120000000E+03 0.  0.
         13    1    1    2    0    0 -0.13629474986E+02 -0.39960337266E+01  0.40943480635E+02  0.43337173933E+02  0.10566000000E+00 0. -1.
        994    1    1    2    0    0  0.16667250030E+02  0.69946901936E+01  0.34198307876E+01  0.17218553411E+03  0.17120000000E+03 0.  0.
        998    1    1    2    0    0 -0.30377750436E+01 -0.29986564670E+01  0.14556366849E+04  0.14556772920E+04  0.10000000000E+02 0. -1.
</event>
<event>
 5    1  0.1607440E-008  0.3806051E+03  0.7957747E-01  0.3448528E+00
         13   -1    0    0    0    0  0.00000000000E+00  0.00000000000E+00  0.14999999963E+04  0.15000000000E+04  0.10566000000E+00 0. -1.
        994   -1    0    0    0    0 -0.00000000000E+00 -0.00000000000E+00  0.11368683772E-12  0.17120000000E+03  0.17120000000E+03 0.  0.
         13    1    1    2    0    0  0.80341551285E+01 -0.97101017867E+01  0.19196987191E+02  0.22964520605E+02  0.10566000000E+00 0. -1.
        994    1    1    2    0    0 -0.37372702157E+01  0.75118176063E+01  0.40628887144E+01  0.17145361372E+03  0.17120000000E+03 0.  0.
        998    1    1    2    0    0 -0.42968849128E+01  0.21982841804E+01  0.14767401204E+04  0.14767818657E+04  0.10000000000E+02 0. -1.
</event>
<event>
 5    1  0.1607440E-008  0.3858716E+03  0.7957747E-01  0.3425984E+00
         13   -1    0    0    0    0  0.00000000000E+00  0.00000000000E+00  0.14999999963E+04  0.15000000000E+04  0.10566000000E+00 0.  1.
        994   -1    0    0    0    0 -0.00000000000E+00 -0.00000000000E+00  0.11368683772E-12  0.17120000000E+03  0.17120000000E+03 0.  0.
         13    1    1    2    0    0 -0.10247445840E+02  0.74615715241E+01  0.69389102211E+02  0.70537535153E+02  0.10566000000E+00 0.  1.
        994    1    1    2    0    0  0.26305972594E+01 -0.52542927249E+01  0.13112388010E+01  0.17130582880E+03  0.17120000000E+03 0.  0.
        998    1    1    2    0    0  0.76168485803E+01 -0.22072787992E+01  0.14292996553E+04  0.14293566360E+04  0.10000000000E+02 0.  1.
</event>
<event>
 5    1  0.1607440E-008  0.3797286E+03  0.7957747E-01  0.3452341E+00
         13   -1    0    0    0    0  0.00000000000E+00  0.00000000000E+00  0.14999999963E+04  0.15000000000E+04  0.10566000000E+00 0. -1.
        994   -1    0    0    0    0 -0.00000000000E+00 -0.00000000000E+00  0.11368683772E-12  0.17120000000E+03  0.17120000000E+03 0.  0.
         13    1    1    2    0    0  0.24207118297E+02 -0.35005414994E+02  0.19601030333E+03  0.20057770023E+03  0.10566000000E+00 0. -1.
        994    1    1    2    0    0 -0.11653518895E+02  0.34257308178E+02  0.86636899593E+01  0.17519665291E+03  0.17120000000E+03 0.  0.
        998    1    1    2    0    0 -0.12553599402E+02  0.74810681575E+00  0.12953260030E+04  0.12954256469E+04  0.10000000000E+02 0. -1.
</event>
<event>
 5    1  0.1607440E-008  0.3743500E+03  0.7957747E-01  0.3476135E+00
         13   -1    0    0    0    0  0.00000000000E+00  0.00000000000E+00  0.14999999963E+04  0.15000000000E+04  0.10566000000E+00 0. -1.
        994   -1    0    0    0    0 -0.00000000000E+00 -0.00000000000E+00  0.11368683772E-12  0.17120000000E+03  0.17120000000E+03 0.  0.
         13    1    1    2    0    0  0.41718399657E+02 -0.66258994323E+01  0.62358673863E+02  0.75318940402E+02  0.10566000000E+00 0. -1.
        994    1    1    2    0    0 -0.27597153401E+02  0.12114993659E+02  0.16489230344E+02  0.17461303120E+03  0.17120000000E+03 0.  0.
        998    1    1    2    0    0 -0.14121246256E+02 -0.54890942269E+01  0.14211520921E+04  0.14212680284E+04  0.10000000000E+02 0. -1.
</event>
<event>
 5    1  0.1607440E-008  0.3836151E+03  0.7957747E-01  0.3435567E+00
         13   -1    0    0    0    0  0.00000000000E+00  0.00000000000E+00  0.14999999963E+04  0.15000000000E+04  0.10566000000E+00 0. -1.
        994   -1    0    0    0    0 -0.00000000000E+00 -0.00000000000E+00  0.11368683772E-12  0.17120000000E+03  0.17120000000E+03 0.  0.
         13    1    1    2    0    0  0.14058983690E+02  0.13707016662E+02  0.80765763680E+02  0.83118331763E+02  0.10566000000E+00 0. -1.
        994    1    1    2    0    0 -0.13772353169E+01 -0.22089194925E+02  0.39391132169E+01  0.17266958598E+03  0.17120000000E+03 0.  0.
        998    1    1    2    0    0 -0.12681748373E+02  0.83821782635E+01  0.14152951194E+04  0.14154120823E+04  0.10000000000E+02 0. -1.
</event>
<event>
 5    1  0.1607440E-008  0.3796493E+03  0.7957747E-01  0.3452687E+00
         13   -1    0    0    0    0  0.00000000000E+00  0.00000000000E+00  0.14999999963E+04  0.15000000000E+04  0.10566000000E+00 0. -1.
        994   -1    0    0    0    0 -0.00000000000E+00 -0.00000000000E+00  0.11368683772E-12  0.17120000000E+03  0.17120000000E+03 0.  0.
         13    1    1    2    0    0 -0.16158679730E+02  0.44666252402E+02  0.27859516417E+03  0.28261538121E+03  0.10566000000E+00 0. -1.
        994    1    1    2    0    0  0.14447611769E+02 -0.15565037299E+02  0.58211718402E+01  0.17261034127E+03  0.17120000000E+03 0.  0.
        998    1    1    2    0    0  0.17110679615E+01 -0.29101215103E+02  0.12155836603E+04  0.12159742775E+04  0.10000000000E+02 0. -1.
</event>
<event>
 5    1  0.1607440E-008  0.3709754E+03  0.7957747E-01  0.3491420E+00
         13   -1    0    0    0    0  0.00000000000E+00  0.00000000000E+00  0.14999999963E+04  0.15000000000E+04  0.10566000000E+00 0.  1.
        994   -1    0    0    0    0 -0.00000000000E+00 -0.00000000000E+00  0.11368683772E-12  0.17120000000E+03  0.17120000000E+03 0.  0.
         13    1    1    2    0    0 -0.30993854657E+00  0.13015986919E+02  0.19384638123E+01  0.13163615892E+02  0.10566000000E+00 0.  1.
        994    1    1    2    0    0 -0.23709967521E+01 -0.26002596314E+02  0.13850736988E+02  0.17373266692E+03  0.17120000000E+03 0.  0.
        998    1    1    2    0    0  0.26809352986E+01  0.12986609395E+02  0.14842107955E+04  0.14843037172E+04  0.10000000000E+02 0.  1.
</event>
<event>
 5    1  0.1607440E-008  0.3768315E+03  0.7957747E-01  0.3465072E+00
         13   -1    0    0    0    0  0.00000000000E+00  0.00000000000E+00  0.14999999963E+04  0.15000000000E+04  0.10566000000E+00 0. -1.
        994   -1    0    0    0    0 -0.00000000000E+00 -0.00000000000E+00  0.11368683772E-12  0.17120000000E+03  0.17120000000E+03 0.  0.
         13    1    1    2    0    0  0.11948785680E+02 -0.42901628212E+02  0.23208701228E+03  0.23632121279E+03  0.10566000000E+00 0. -1.
        994    1    1    2    0    0 -0.65623061696E+01 -0.18470391824E+02  0.70402717633E+01  0.17246224127E+03  0.17120000000E+03 0.  0.
        998    1    1    2    0    0 -0.53864795106E+01  0.61372020036E+02  0.12608727122E+04  0.12624165459E+04  0.10000000000E+02 0. -1.
</event>
<event>
 5    1  0.1607440E-008  0.2811700E+03  0.7957747E-01  0.4040351E+00
         13   -1    0    0    0    0  0.00000000000E+00  0.00000000000E+00  0.14999999963E+04  0.15000000000E+04  0.10566000000E+00 0.  1.
        994   -1    0    0    0    0 -0.00000000000E+00 -0.00000000000E+00  0.11368683772E-12  0.17120000000E+03  0.17120000000E+03 0.  0.
         13    1    1    2    0    0 -0.93969738307E+02  0.66297498919E+02  0.68518672576E+03  0.69477084740E+03  0.10566000000E+00 0.  1.
        994    1    1    2    0    0  0.29719921671E+02 -0.79376701718E+01  0.18034411449E+02  0.17487412715E+03  0.17120000000E+03 0.  0.
        998    1    1    2    0    0  0.64249816636E+02 -0.58359828748E+02  0.79677885907E+03  0.80155502544E+03  0.10000000000E+02 0.  1.
</event>
<event>
 5    1  0.1607440E-008  0.3845651E+03  0.7957747E-01  0.3431519E+00
         13   -1    0    0    0    0  0.00000000000E+00  0.00000000000E+00  0.14999999963E+04  0.15000000000E+04  0.10566000000E+00 0. -1.
        994   -1    0    0    0    0 -0.00000000000E+00 -0.00000000000E+00  0.11368683772E-12  0.17120000000E+03  0.17120000000E+03 0.  0.
         13    1    1    2    0    0  0.62516630640E+01 -0.18393263232E+02  0.11085002044E+03  0.11253947583E+03  0.10566000000E+00 0. -1.
        994    1    1    2    0    0 -0.52451443631E+01  0.17093801558E+00  0.19369018823E+01  0.17129136682E+03  0.17120000000E+03 0.  0.
        998    1    1    2    0    0 -0.10065187009E+01  0.18222325217E+02  0.13872130740E+04  0.13873691573E+04  0.10000000000E+02 0. -1.
</event>
<event>
 5    1  0.1893393E-008  0.3863533E+03  0.7957747E-01  0.3423953E+00
         13   -1    0    0    0    0  0.00000000000E+00  0.00000000000E+00  0.14999999963E+04  0.15000000000E+04  0.10566000000E+00 0.  1.
        994   -1    0    0    0    0 -0.00000000000E+00 -0.00000000000E+00  0.11368683772E-12  0.17120000000E+03  0.17120000000E+03 0.  0.
         13    1    1    2    0    0  0.11759671472E+02  0.92283686650E+00  0.67745870151E+02  0.68765220770E+02  0.10566000000E+00 0.  1.
        994    1    1    2    0    0 -0.17620367719E+02 -0.10762295884E+02  0.23568349888E+01  0.17245665845E+03  0.17120000000E+03 0.  0.
        998    1    1    2    0    0  0.58606962472E+01  0.98394590173E+01  0.14298972911E+04  0.14299781208E+04  0.10000000000E+02 0.  1.
</event>
<event>
 5    1  0.1607440E-008  0.3694585E+03  0.7957747E-01  0.3498383E+00
         13   -1    0    0    0    0  0.00000000000E+00  0.00000000000E+00  0.14999999963E+04  0.15000000000E+04  0.10566000000E+00 0. -1.
        994   -1    0    0    0    0 -0.00000000000E+00 -0.00000000000E+00  0.11368683772E-12  0.17120000000E+03  0.17120000000E+03 0.  0.
         13    1    1    2    0    0  0.47961775426E+02  0.24399726539E+02  0.12288953664E+03  0.13415486550E+03  0.10566000000E+00 0. -1.
        994    1    1    2    0    0 -0.56790485031E+02 -0.63190444964E+02  0.34990744850E+02  0.19429869724E+03  0.17120000000E+03 0.  0.
        998    1    1    2    0    0  0.88287096045E+01  0.38790718425E+02  0.13421197148E+04  0.13427464373E+04  0.10000000000E+02 0. -1.
</event>
<event>
 5    1  0.1607440E-008  0.3846492E+03  0.7957747E-01  0.3431161E+00
         13   -1    0    0    0    0  0.00000000000E+00  0.00000000000E+00  0.14999999963E+04  0.15000000000E+04  0.10566000000E+00 0. -1.
        994   -1    0    0    0    0 -0.00000000000E+00 -0.00000000000E+00  0.11368683772E-12  0.17120000000E+03  0.17120000000E+03 0.  0.
         13    1    1    2    0    0 -0.12413176106E+01 -0.19153595234E+02  0.94896043900E+02  0.96817722508E+02  0.10566000000E+00 0. -1.
        994    1    1    2    0    0  0.11225989907E+02  0.21602546997E+02  0.37582306380E+01  0.17296316713E+03  0.17120000000E+03 0.  0.
        998    1    1    2    0    0 -0.99846722967E+01 -0.24489517623E+01  0.14013457217E+04  0.14014191104E+04  0.10000000000E+02 0. -1.
</event>
<event>
 5    1  0.1607440E-008  0.3827511E+03  0.7957747E-01  0.3439266E+00
         13   -1    0    0    0    0  0.00000000000E+00  0.00000000000E+00  0.14999999963E+04  0.15000000000E+04  0.10566000000E+00 0. -1.
        994   -1    0    0    0    0 -0.00000000000E+00 -0.00000000000E+00  0.11368683772E-12  0.17120000000E+03  0.17120000000E+03 0.  0.
         13    1    1    2    0    0  0.38557149561E+01  0.20552217936E+02  0.79363784205E+02  0.82072416848E+02  0.10566000000E+00 0. -1.
        994    1    1    2    0    0 -0.73215421602E+01 -0.10462126955E+02  0.32911710209E+01  0.17170711368E+03  0.17120000000E+03 0.  0.
        998    1    1    2    0    0  0.34658272041E+01 -0.10090090981E+02  0.14173450411E+04  0.14174204695E+04  0.10000000000E+02 0. -1.
</event>
<event>
 5    1  0.1607440E-008  0.3755825E+03  0.7957747E-01  0.3470621E+00
         13   -1    0    0    0    0  0.00000000000E+00  0.00000000000E+00  0.14999999963E+04  0.15000000000E+04  0.10566000000E+00 0.  1.
        994   -1    0    0    0    0 -0.00000000000E+00 -0.00000000000E+00  0.11368683772E-12  0.17120000000E+03  0.17120000000E+03 0.  0.
         13    1    1    2    0    0 -0.18298515682E+02 -0.53590545056E+02  0.10257957184E+03  0.11717235987E+03  0.10566000000E+00 0.  1.
        994    1    1    2    0    0  0.21640209974E+02  0.54759425652E+02  0.26389370560E+02  0.18295554723E+03  0.17120000000E+03 0.  0.
        998    1    1    2    0    0 -0.33416942916E+01 -0.11688805964E+01  0.13710310539E+04  0.13710720929E+04  0.10000000000E+02 0.  1.
</event>
<event>
 5    1  0.1607440E-008  0.3840162E+03  0.7957747E-01  0.3433855E+00
         13   -1    0    0    0    0  0.00000000000E+00  0.00000000000E+00  0.14999999963E+04  0.15000000000E+04  0.10566000000E+00 0. -1.
        994   -1    0    0    0    0 -0.00000000000E+00 -0.00000000000E+00  0.11368683772E-12  0.17120000000E+03  0.17120000000E+03 0.  0.
         13    1    1    2    0    0  0.15887817812E+02 -0.14974272424E+01  0.68422427285E+02  0.70258841172E+02  0.10566000000E+00 0. -1.
        994    1    1    2    0    0  0.89798277045E+01 -0.31335094379E+02  0.56327075765E+01  0.17436654737E+03  0.17120000000E+03 0.  0.
        998    1    1    2    0    0 -0.24867645517E+02  0.32832521622E+02  0.14259448614E+04  0.14265746115E+04  0.10000000000E+02 0. -1.
</event>
<event>
 5    1  0.1607440E-008  0.3818313E+03  0.7957747E-01  0.3443223E+00
         13   -1    0    0    0    0  0.00000000000E+00  0.00000000000E+00  0.14999999963E+04  0.15000000000E+04  0.10566000000E+00 0. -1.
        994   -1    0    0    0    0 -0.00000000000E+00 -0.00000000000E+00  0.11368683772E-12  0.17120000000E+03  0.17120000000E+03 0.  0.
         13    1    1    2    0    0  0.38347913406E+02 -0.92679711439E+01  0.20304249731E+03  0.20683985261E+03  0.10566000000E+00 0. -1.
        994    1    1    2    0    0 -0.38179402514E+02  0.33544387101E+02  0.11841975070E+02  0.17897643715E+03  0.17120000000E+03 0.  0.
        998    1    1    2    0    0 -0.16851089263E+00 -0.24276415957E+02  0.12851155239E+04  0.12853837102E+04  0.10000000000E+02 0. -1.
</event>
<event>
 5    1  0.1607440E-008  0.3807214E+03  0.7957747E-01  0.3448023E+00
         13   -1    0    0    0    0  0.00000000000E+00  0.00000000000E+00  0.14999999963E+04  0.15000000000E+04  0.10566000000E+00 0.  1.
        994   -1    0    0    0    0 -0.00000000000E+00 -0.00000000000E+00  0.11368683772E-12  0.17120000000E+03  0.17120000000E+03 0.  0.
         13    1    1    2    0    0  0.17756978119E+02 -0.46886371764E+02  0.27950420272E+03  0.28396523138E+03  0.10566000000E+00 0.  1.
        994    1    1    2    0    0 -0.14179085331E+02  0.45523020694E+02  0.11388565217E+02  0.17808012604E+03  0.17120000000E+03 0.  0.
        998    1    1    2    0    0 -0.35778927877E+01  0.13633510698E+01  0.12091072283E+04  0.12091546426E+04  0.10000000000E+02 0.  1.
</event>
<event>
 5    1  0.1607440E-008  0.3093434E+03  0.7957747E-01  0.3831494E+00
         13   -1    0    0    0    0  0.00000000000E+00  0.00000000000E+00  0.14999999963E+04  0.15000000000E+04  0.10566000000E+00 0. -1.
        994   -1    0    0    0    0 -0.00000000000E+00 -0.00000000000E+00  0.11368683772E-12  0.17120000000E+03  0.17120000000E+03 0.  0.
         13    1    1    2    0    0 -0.21954165675E+03  0.50003636109E+02  0.88351040861E+03  0.91175081900E+03  0.10566000000E+00 0. -1.
        994    1    1    2    0    0  0.12134749742E+03  0.20009870307E+02  0.10818192860E+03  0.23693539144E+03  0.17120000000E+03 0.  0.
        998    1    1    2    0    0  0.98194159331E+02 -0.70013506416E+02  0.50830765907E+03  0.52251378956E+03  0.10000000000E+02 0.  1.
</event>
<event>
 5    1  0.1607440E-008  0.3968436E+03  0.7957747E-01  0.3380944E+00
         13   -1    0    0    0    0  0.00000000000E+00  0.00000000000E+00  0.14999999963E+04  0.15000000000E+04  0.10566000000E+00 0. -1.
        994   -1    0    0    0    0 -0.00000000000E+00 -0.00000000000E+00  0.11368683772E-12  0.17120000000E+03  0.17120000000E+03 0.  0.
         13    1    1    2    0    0  0.45857600257E+02 -0.89297842452E+02  0.17076859530E+03  0.19808823406E+03  0.10566000000E+00 0. -1.
        994    1    1    2    0    0 -0.20096197324E+02  0.92841732171E+02  0.61707914999E+02  0.20528212575E+03  0.17120000000E+03 0.  0.
        998    1    1    2    0    0 -0.25761402933E+02 -0.35438897190E+01  0.12675234860E+04  0.12678296402E+04  0.10000000000E+02 0. -1.
</event>
<event>
 5    1  0.1607440E-008  0.3791859E+03  0.7957747E-01  0.3454711E+00
         13   -1    0    0    0    0  0.00000000000E+00  0.00000000000E+00  0.14999999963E+04  0.15000000000E+04  0.10566000000E+00 0.  1.
        994   -1    0    0    0    0 -0.00000000000E+00 -0.00000000000E+00  0.11368683772E-12  0.17120000000E+03  0.17120000000E+03 0.  0.
         13    1    1    2    0    0 -0.30849676059E+02  0.19508707305E+02  0.14040142257E+03  0.14506847623E+03  0.10566000000E+00 0.  1.
        994    1    1    2    0    0  0.27963235877E+02 -0.66281169965E+01  0.73178797606E+01  0.17374943413E+03  0.17120000000E+03 0.  0.
        998    1    1    2    0    0  0.28864401814E+01 -0.12880590309E+02  0.13522806940E+04  0.13523820896E+04  0.10000000000E+02 0.  1.
</event>
<event>
 5    1  0.1607440E-008  0.3747526E+03  0.7957747E-01  0.3474330E+00
         13   -1    0    0    0    0  0.00000000000E+00  0.00000000000E+00  0.14999999963E+04  0.15000000000E+04  0.10566000000E+00 0. -1.
        994   -1    0    0    0    0 -0.00000000000E+00 -0.00000000000E+00  0.11368683772E-12  0.17120000000E+03  0.17120000000E+03 0.  0.
         13    1    1    2    0    0 -0.32857438215E+02  0.28231825797E+02  0.12602005311E+03  0.13325806611E+03  0.10566000000E+00 0. -1.
        994    1    1    2    0    0  0.28804061808E+02 -0.30311357665E+02  0.12777457018E+02  0.17669509271E+03  0.17120000000E+03 0.  0.
        998    1    1    2    0    0  0.40533764070E+01  0.20795318680E+01  0.13612024862E+04  0.13612468412E+04  0.10000000000E+02 0. -1.
</event>
<event>
 5    1  0.1607440E-008  0.3775749E+03  0.7957747E-01  0.3461786E+00
         13   -1    0    0    0    0  0.00000000000E+00  0.00000000000E+00  0.14999999963E+04  0.15000000000E+04  0.10566000000E+00 0. -1.
        994   -1    0    0    0    0 -0.00000000000E+00 -0.00000000000E+00  0.11368683772E-12  0.17120000000E+03  0.17120000000E+03 0.  0.
         13    1    1    2    0    0 -0.11391058879E+02 -0.98316211192E+00  0.97295329005E+01  0.15013254298E+02  0.10566000000E+00 0. -1.
        994    1    1    2    0    0  0.10623818823E+02  0.84255633275E+00  0.57451719772E+01  0.17162756896E+03  0.17120000000E+03 0.  0.
        998    1    1    2    0    0  0.76724005587E+00  0.14060577917E+00  0.14845252914E+04  0.14845591767E+04  0.10000000000E+02 0. -1.
</event>
<event>
 5    1  0.1607440E-008  0.3810756E+03  0.7957747E-01  0.3446488E+00
         13   -1    0    0    0    0  0.00000000000E+00  0.00000000000E+00  0.14999999963E+04  0.15000000000E+04  0.10566000000E+00 0. -1.
        994   -1    0    0    0    0 -0.00000000000E+00 -0.00000000000E+00  0.11368683772E-12  0.17120000000E+03  0.17120000000E+03 0.  0.
         13    1    1    2    0    0  0.49814467563E+02 -0.32159586443E+01  0.26683734991E+03  0.27146639947E+03  0.10566000000E+00 0. -1.
        994    1    1    2    0    0 -0.60878107193E+02 -0.24556448999E+02  0.18080999716E+02  0.18424311567E+03  0.17120000000E+03 0.  0.
        998    1    1    2    0    0  0.11063639630E+02  0.27772407643E+02  0.12150816467E+04  0.12154904849E+04  0.10000000000E+02 0. -1.
</event>
<event>
 5    1  0.1607440E-008  0.3698736E+03  0.7957747E-01  0.3496472E+00
         13   -1    0    0    0    0  0.00000000000E+00  0.00000000000E+00  0.14999999963E+04  0.15000000000E+04  0.10566000000E+00 0.  1.
        994   -1    0    0    0    0 -0.00000000000E+00 -0.00000000000E+00  0.11368683772E-12  0.17120000000E+03  0.17120000000E+03 0.  0.
         13    1    1    2    0    0  0.36644482155E+01 -0.16209878352E+02  0.77647683182E+01  0.18343694502E+02  0.10566000000E+00 0.  1.
        994    1    1    2    0    0 -0.22916561114E+01  0.15363522255E+02  0.11715587715E+02  0.17230201537E+03  0.17120000000E+03 0.  0.
        998    1    1    2    0    0 -0.13727921040E+01  0.84635609667E+00  0.14805196402E+04  0.14805542901E+04  0.10000000000E+02 0.  1.
</event>
<event>
 5    1  0.1607440E-008  0.3706119E+03  0.7957747E-01  0.3493083E+00
         13   -1    0    0    0    0  0.00000000000E+00  0.00000000000E+00  0.14999999963E+04  0.15000000000E+04  0.10566000000E+00 0. -1.
        994   -1    0    0    0    0 -0.00000000000E+00 -0.00000000000E+00  0.11368683772E-12  0.17120000000E+03  0.17120000000E+03 0.  0.
         13    1    1    2    0    0  0.31500847148E+02 -0.24304582588E+02  0.90438987472E+02  0.98804036986E+02  0.10566000000E+00 0. -1.
        994    1    1    2    0    0 -0.24032047993E+01  0.11324229648E+02  0.94121102422E+01  0.17184889115E+03  0.17120000000E+03 0.  0.
        998    1    1    2    0    0 -0.29097642349E+02  0.12980352940E+02  0.14001488986E+04  0.14005470719E+04  0.10000000000E+02 0. -1.
</event>
<event>
 5    1  0.1607440E-008  0.3806519E+03  0.7957747E-01  0.3448325E+00
         13   -1    0    0    0    0  0.00000000000E+00  0.00000000000E+00  0.14999999963E+04  0.15000000000E+04  0.10566000000E+00 0.  1.
        994   -1    0    0    0    0 -0.00000000000E+00 -0.00000000000E+00  0.11368683772E-12  0.17120000000E+03  0.17120000000E+03 0.  0.
         13    1    1    2    0    0  0.21062280072E+02 -0.41450575191E+02  0.22642650352E+03  0.23115090847E+03  0.10566000000E+00 0.  1.
        994    1    1    2    0    0 -0.20057361650E+02  0.51199123054E+02  0.13957115190E+02  0.18035489742E+03  0.17120000000E+03 0.  0.
        998    1    1    2    0    0 -0.10049184227E+01 -0.97485478633E+01  0.12596163776E+04  0.12596941941E+04  0.10000000000E+02 0.  1.
</event>
<event>
 5    1  0.1607440E-008  0.3769090E+03  0.7957747E-01  0.3464729E+00
         13   -1    0    0    0    0  0.00000000000E+00  0.00000000000E+00  0.14999999963E+04  0.15000000000E+04  0.10566000000E+00 0.  1.
        994   -1    0    0    0    0 -0.00000000000E+00 -0.00000000000E+00  0.11368683772E-12  0.17120000000E+03  0.17120000000E+03 0.  0.
         13    1    1    2    0    0  0.37753103273E+02 -0.21060803877E+02  0.15019736880E+03  0.15629496161E+03  0.10566000000E+00 0.  1.
        994    1    1    2    0    0 -0.32311335648E+02  0.22622365458E+02  0.10974375771E+02  0.17602747159E+03  0.17120000000E+03 0.  0.
        998    1    1    2    0    0 -0.54417676250E+01 -0.15615615818E+01  0.13388282517E+04  0.13388775668E+04  0.10000000000E+02 0.  1.
</event>
<event>
 5    1  0.1607440E-008  0.3841917E+03  0.7957747E-01  0.3433107E+00
         13   -1    0    0    0    0  0.00000000000E+00  0.00000000000E+00  0.14999999963E+04  0.15000000000E+04  0.10566000000E+00 0. -1.
        994   -1    0    0    0    0 -0.00000000000E+00 -0.00000000000E+00  0.11368683772E-12  0.17120000000E+03  0.17120000000E+03 0.  0.
         13    1    1    2    0    0  0.17375428253E+02  0.13319302712E+02  0.11223359472E+03  0.11434902832E+03  0.10566000000E+00 0. -1.
        994    1    1    2    0    0 -0.17261751606E+02 -0.10118561883E+02  0.33531535190E+01  0.17239790312E+03  0.17120000000E+03 0.  0.
        998    1    1    2    0    0 -0.11367664674E+00 -0.32007408288E+01  0.13844132480E+04  0.13844530686E+04  0.10000000000E+02 0. -1.
</event>
<event>
 5    1  0.1607440E-008  0.4105296E+03  0.7957747E-01  0.3328125E+00
         13   -1    0    0    0    0  0.00000000000E+00  0.00000000000E+00  0.14999999963E+04  0.15000000000E+04  0.10566000000E+00 0.  1.
        994   -1    0    0    0    0 -0.00000000000E+00 -0.00000000000E+00  0.11368683772E-12  0.17120000000E+03  0.17120000000E+03 0.  0.
         13    1    1    2    0    0 -0.46118710964E+01  0.26005561740E+02 -0.44524297955E+01  0.26784209743E+02  0.10566000000E+00 0.  1.
        994    1    1    2    0    0  0.51030224561E+01 -0.31864108818E+02  0.38500926274E+02  0.17841839477E+03  0.17120000000E+03 0.  0.
        998    1    1    2    0    0 -0.49115135965E+00  0.58585470779E+01  0.14659514998E+04  0.14659973955E+04  0.10000000000E+02 0.  1.
</event>
<event>
 5    1  0.1607440E-008  0.3805832E+03  0.7957747E-01  0.3448623E+00
         13   -1    0    0    0    0  0.00000000000E+00  0.00000000000E+00  0.14999999963E+04  0.15000000000E+04  0.10566000000E+00 0.  1.
        994   -1    0    0    0    0 -0.00000000000E+00 -0.00000000000E+00  0.11368683772E-12  0.17120000000E+03  0.17120000000E+03 0.  0.
         13    1    1    2    0    0  0.36988345812E+02  0.14826615535E+02  0.23697227239E+03  0.24029947004E+03  0.10566000000E+00 0.  1.
        994    1    1    2    0    0 -0.49715060744E+01 -0.49343072352E+01  0.40027481175E+01  0.17138998003E+03  0.17120000000E+03 0.  0.
        998    1    1    2    0    0 -0.32016839738E+02 -0.98923082993E+01  0.12590249758E+04  0.12595105499E+04  0.10000000000E+02 0.  1.
</event>
<event>
 5    1  0.1607440E-008  0.3747540E+03  0.7957747E-01  0.3474324E+00
         13   -1    0    0    0    0  0.00000000000E+00  0.00000000000E+00  0.14999999963E+04  0.15000000000E+04  0.10566000000E+00 0. -1.
        994   -1    0    0    0    0 -0.00000000000E+00 -0.00000000000E+00  0.11368683772E-12  0.17120000000E+03  0.17120000000E+03 0.  0.
         13    1    1    2    0    0  0.19804926018E+02  0.76928908047E+02  0.44938376619E+03  0.45635082170E+03  0.10566000000E+00 0. -1.
        994    1    1    2    0    0 -0.34419021938E+01 -0.49092764612E+02  0.15089641126E+02  0.17877103652E+03  0.17120000000E+03 0.  0.
        998    1    1    2    0    0 -0.16363023824E+02 -0.27836143434E+02  0.10355265890E+04  0.10360781418E+04  0.10000000000E+02 0. -1.
</event>
<event>
 5    1  0.1607440E-008  0.3853373E+03  0.7957747E-01  0.3428243E+00
         13   -1    0    0    0    0  0.00000000000E+00  0.00000000000E+00  0.14999999963E+04  0.15000000000E+04  0.10566000000E+00 0.  1.
        994   -1    0    0    0    0 -0.00000000000E+00 -0.00000000000E+00  0.11368683772E-12  0.17120000000E+03  0.17120000000E+03 0.  0.
         13    1    1    2    0    0  0.14642587939E+02  0.32522606525E+01  0.78833176236E+02  0.80247513484E+02  0.10566000000E+00 0.  1.
        994    1    1    2    0    0 -0.60452557364E+01 -0.47453029201E+01  0.16567947763E+01  0.17138041891E+03  0.17120000000E+03 0.  0.
        998    1    1    2    0    0 -0.85973322022E+01  0.14930422676E+01  0.14195100253E+04  0.14195720676E+04  0.10000000000E+02 0.  1.
</event>
<event>
 5    1  0.1607440E-008  0.3806887E+03  0.7957747E-01  0.3448165E+00
         13   -1    0    0    0    0  0.00000000000E+00  0.00000000000E+00  0.14999999963E+04  0.15000000000E+04  0.10566000000E+00 0.  1.
        994   -1    0    0    0    0 -0.00000000000E+00 -0.00000000000E+00  0.11368683772E-12  0.17120000000E+03  0.17120000000E+03 0.  0.
         13    1    1    2    0    0  0.21086854141E+01  0.22003488969E+02  0.72282244570E+01  0.23256364157E+02  0.10566000000E+00 0.  1.
        994    1    1    2    0    0 -0.22014219852E+00 -0.21378535814E+02  0.18368205707E+02  0.17350481618E+03  0.17120000000E+03 0.  0.
        998    1    1    2    0    0 -0.18885432156E+01 -0.62495315424E+00  0.14744035661E+04  0.14744388197E+04  0.10000000000E+02 0.  1.
</event>
<event>
 5    1  0.1607440E-008  0.3772780E+03  0.7957747E-01  0.3463097E+00
         13   -1    0    0    0    0  0.00000000000E+00  0.00000000000E+00  0.14999999963E+04  0.15000000000E+04  0.10566000000E+00 0. -1.
        994   -1    0    0    0    0 -0.00000000000E+00 -0.00000000000E+00  0.11368683772E-12  0.17120000000E+03  0.17120000000E+03 0.  0.
         13    1    1    2    0    0  0.24787443826E+02 -0.64411149348E+01  0.60464587273E+02  0.65664928319E+02  0.10566000000E+00 0. -1.
        994    1    1    2    0    0 -0.14735311311E+01  0.30376247812E+01  0.55520180765E+01  0.17132327152E+03  0.17120000000E+03 0.  0.
        998    1    1    2    0    0 -0.23313912695E+02  0.34034901536E+01  0.14339833909E+04  0.14342118002E+04  0.10000000000E+02 0. -1.
</event>
<event>
 5    1  0.1607440E-008  0.3853705E+03  0.7957747E-01  0.3428102E+00
         13   -1    0    0    0    0  0.00000000000E+00  0.00000000000E+00  0.14999999963E+04  0.15000000000E+04  0.10566000000E+00 0. -1.
        994   -1    0    0    0    0 -0.00000000000E+00 -0.00000000000E+00  0.11368683772E-12  0.17120000000E+03  0.17120000000E+03 0.  0.
         13    1    1    2    0    0 -0.13415847270E+02 -0.84966229996E+01  0.90088216654E+02  0.91477185704E+02  0.10566000000E+00 0. -1.
        994    1    1    2    0    0  0.38508939287E+01  0.63189614970E+01  0.16262011089E+01  0.17136756749E+03  0.17120000000E+03 0.  0.
        998    1    1    2    0    0  0.95649533413E+01  0.21776615027E+01  0.14082855785E+04  0.14083552468E+04  0.10000000000E+02 0. -1.
</event>
<event>
 5    1  0.1607440E-008  0.3829559E+03  0.7957747E-01  0.3438388E+00
         13   -1    0    0    0    0  0.00000000000E+00  0.00000000000E+00  0.14999999963E+04  0.15000000000E+04  0.10566000000E+00 0.  1.
        994   -1    0    0    0    0 -0.00000000000E+00 -0.00000000000E+00  0.11368683772E-12  0.17120000000E+03  0.17120000000E+03 0.  0.
         13    1    1    2    0    0  0.16774489235E+02 -0.18771639937E+02  0.13485926951E+03  0.13718889055E+03  0.10566000000E+00 0.  1.
        994    1    1    2    0    0 -0.64920798837E+01 -0.77011767865E+01  0.29843499197E+01  0.17152201482E+03  0.17120000000E+03 0.  0.
        998    1    1    2    0    0 -0.10282409352E+02  0.26472816723E+02  0.13621563769E+04  0.13624890946E+04  0.10000000000E+02 0.  1.
</event>
<event>
 5    1  0.1612313E-008  0.3864079E+03  0.7957747E-01  0.3423723E+00
         13   -1    0    0    0    0  0.00000000000E+00  0.00000000000E+00  0.14999999963E+04  0.15000000000E+04  0.10566000000E+00 0.  1.
        994   -1    0    0    0    0 -0.00000000000E+00 -0.00000000000E+00  0.11368683772E-12  0.17120000000E+03  0.17120000000E+03 0.  0.
         13    1    1    2    0    0 -0.98260436572E+01 -0.28597164666E+01  0.61303775832E+02  0.62152177818E+02  0.10566000000E+00 0.  1.
        994    1    1    2    0    0 -0.25298291175E+01  0.34658130587E+01  0.99303901928E+00  0.17125664373E+03  0.17120000000E+03 0.  0.
        998    1    1    2    0    0  0.12355872775E+02 -0.60609659209E+00  0.14377031814E+04  0.14377911785E+04  0.10000000000E+02 0.  1.
</event>
<event>
 5    1  0.1607440E-008  0.3787128E+03  0.7957747E-01  0.3456782E+00
         13   -1    0    0    0    0  0.00000000000E+00  0.00000000000E+00  0.14999999963E+04  0.15000000000E+04  0.10566000000E+00 0.  1.
        994   -1    0    0    0    0 -0.00000000000E+00 -0.00000000000E+00  0.11368683772E-12  0.17120000000E+03  0.17120000000E+03 0.  0.
         13    1    1    2    0    0  0.96374536275E+01  0.49577628426E+01  0.10100939433E+02  0.14815534627E+02  0.10566000000E+00 0.  1.
        994    1    1    2    0    0 -0.78630151007E+01 -0.55783059974E+01  0.50964109356E+01  0.17154695540E+03  0.17120000000E+03 0.  0.
        998    1    1    2    0    0 -0.17744385268E+01  0.62054315477E+00  0.14848026459E+04  0.14848375100E+04  0.10000000000E+02 0.  1.
</event>
<event>
 5    1  0.1607440E-008  0.3850783E+03  0.7957747E-01  0.3429340E+00
         13   -1    0    0    0    0  0.00000000000E+00  0.00000000000E+00  0.14999999963E+04  0.15000000000E+04  0.10566000000E+00 0. -1.
        994   -1    0    0    0    0 -0.00000000000E+00 -0.00000000000E+00  0.11368683772E-12  0.17120000000E+03  0.17120000000E+03 0.  0.
         13    1    1    2    0    0  0.19166675412E+01  0.10557777551E+02  0.34813336214E+02  0.36429655827E+02  0.10566000000E+00 0. -1.
        994    1    1    2    0    0 -0.15492179679E+02 -0.12125311910E+02  0.28648103103E+01  0.17235045100E+03  0.17120000000E+03 0.  0.
        998    1    1    2    0    0  0.13575512138E+02  0.15675343586E+01  0.14623218498E+04  0.14624198932E+04  0.10000000000E+02 0. -1.
</event>
<event>
 5    1  0.1607440E-008  0.3936657E+03  0.7957747E-01  0.3393731E+00
         13   -1    0    0    0    0  0.00000000000E+00  0.00000000000E+00  0.14999999963E+04  0.15000000000E+04  0.10566000000E+00 0. -1.
        994   -1    0    0    0    0 -0.00000000000E+00 -0.00000000000E+00  0.11368683772E-12  0.17120000000E+03  0.17120000000E+03 0.  0.
         13    1    1    2    0    0  0.20718154365E+02 -0.17957249629E+02  0.51708289147E+01  0.27900777234E+02  0.10566000000E+00 0. -1.
        994    1    1    2    0    0 -0.25884599181E+02  0.19203193604E+02  0.28020082255E+02  0.17644642283E+03  0.17120000000E+03 0.  0.
        998    1    1    2    0    0  0.51664448163E+01 -0.12459439744E+01  0.14668090851E+04  0.14668527999E+04  0.10000000000E+02 0. -1.
</event>
<event>
 5    1  0.2119106E-008  0.3859651E+03  0.7957747E-01  0.3425589E+00
         13   -1    0    0    0    0  0.00000000000E+00  0.00000000000E+00  0.14999999963E+04  0.15000000000E+04  0.10566000000E+00 0.  1.
        994   -1    0    0    0    0 -0.00000000000E+00 -0.00000000000E+00  0.11368683772E-12  0.17120000000E+03  0.17120000000E+03 0.  0.
         13    1    1    2    0    0  0.65865548550E+01 -0.10905877125E+02  0.66505783102E+02  0.67715221411E+02  0.10566000000E+00 0.  1.
        994    1    1    2    0    0 -0.10889378903E+02  0.14084106118E+02  0.21914690714E+01  0.17213710569E+03  0.17120000000E+03 0.  0.
        998    1    1    2    0    0  0.43028240478E+01 -0.31782289928E+01  0.14313027441E+04  0.14313476729E+04  0.10000000000E+02 0.  1.
</event>
<event>
 5    1  0.1607440E-008  0.3835173E+03  0.7957747E-01  0.3435985E+00
         13   -1    0    0    0    0  0.00000000000E+00  0.00000000000E+00  0.14999999963E+04  0.15000000000E+04  0.10566000000E+00 0. -1.
        994   -1    0    0    0    0 -0.00000000000E+00 -0.00000000000E+00  0.11368683772E-12  0.17120000000E+03  0.17120000000E+03 0.  0.
         13    1    1    2    0    0 -0.60510187654E+01 -0.24707126569E+02  0.13086094241E+03  0.13331036848E+03  0.10566000000E+00 0. -1.
        994    1    1    2    0    0  0.13354392870E+02  0.18007265211E+02  0.40307049782E+01  0.17270867955E+03  0.17120000000E+03 0.  0.
        998    1    1    2    0    0 -0.73033741044E+01  0.66998613578E+01  0.13651083489E+04  0.13651809520E+04  0.10000000000E+02 0. -1.
</event>
<event>
 5    1  0.1607440E-008  0.3806107E+03  0.7957747E-01  0.3448503E+00
         13   -1    0    0    0    0  0.00000000000E+00  0.00000000000E+00  0.14999999963E+04  0.15000000000E+04  0.10566000000E+00 0.  1.
        994   -1    0    0    0    0 -0.00000000000E+00 -0.00000000000E+00  0.11368683772E-12  0.17120000000E+03  0.17120000000E+03 0.  0.
         13    1    1    2    0    0 -0.70952880237E+01  0.21619734278E+02  0.67945041561E+02  0.71654000999E+02  0.10566000000E+00 0.  1.
        994    1    1    2    0    0  0.18885005190E+01 -0.88584399299E+01  0.40989058660E+01  0.17148842358E+03  0.17120000000E+03 0.  0.
        998    1    1    2    0    0  0.52067875047E+01 -0.12761294348E+02  0.14279560489E+04  0.14280575754E+04  0.10000000000E+02 0.  1.
</event>
<event>
 5    1  0.1607440E-008  0.3846676E+03  0.7957747E-01  0.3431083E+00
         13   -1    0    0    0    0  0.00000000000E+00  0.00000000000E+00  0.14999999963E+04  0.15000000000E+04  0.10566000000E+00 0.  1.
        994   -1    0    0    0    0 -0.00000000000E+00 -0.00000000000E+00  0.11368683772E-12  0.17120000000E+03  0.17120000000E+03 0.  0.
         13    1    1    2    0    0  0.13365540291E+02 -0.86233201235E+01  0.69205235308E+02  0.71009682968E+02  0.10566000000E+00 0.  1.
        994    1    1    2    0    0 -0.94165701641E+01  0.93198148859E+01  0.23733595982E+01  0.17172828416E+03  0.17120000000E+03 0.  0.
        998    1    1    2    0    0 -0.39489701264E+01 -0.69649476238E+00  0.14284214014E+04  0.14284620329E+04  0.10000000000E+02 0.  1.
</event>
<event>
 5    1  0.1607440E-008  0.3853850E+03  0.7957747E-01  0.3428041E+00
         13   -1    0    0    0    0  0.00000000000E+00  0.00000000000E+00  0.14999999963E+04  0.15000000000E+04  0.10566000000E+00 0.  1.
        994   -1    0    0    0    0 -0.00000000000E+00 -0.00000000000E+00  0.11368683772E-12  0.17120000000E+03  0.17120000000E+03 0.  0.
         13    1    1    2    0    0 -0.63108339937E+01  0.80467527647E+01  0.36237634796E+02  0.37653076838E+02  0.10566000000E+00 0.  1.
        994    1    1    2    0    0  0.58089361043E+01 -0.50129711910E+01  0.16325012884E+01  0.17137963321E+03  0.17120000000E+03 0.  0.
        998    1    1    2    0    0  0.50189788941E+00 -0.30337815738E+01  0.14621298602E+04  0.14621672900E+04  0.10000000000E+02 0.  1.
</event>
<event>
 5    1  0.1607440E-008  0.3800833E+03  0.7957747E-01  0.3450796E+00
         13   -1    0    0    0    0  0.00000000000E+00  0.00000000000E+00  0.14999999963E+04  0.15000000000E+04  0.10566000000E+00 0.  1.
        994   -1    0    0    0    0 -0.00000000000E+00 -0.00000000000E+00  0.11368683772E-12  0.17120000000E+03  0.17120000000E+03 0.  0.
         13    1    1    2    0    0 -0.28813657849E+03 -0.56331645373E+02  0.37761867056E+03  0.47832187244E+03  0.10566000000E+00 0.  1.
        994    1    1    2    0    0  0.32118431407E+03  0.42662987539E+02  0.10025407333E+04  0.10674159715E+04  0.17120000000E+03 0.  0.
        998    1    1    2    0    0 -0.33047735583E+02  0.13668657834E+02  0.11984059238E+03  0.12546215611E+03  0.10000000000E+02 0.  1.
</event>
<event>
 5    1  0.1607440E-008  0.3840321E+03  0.7957747E-01  0.3433788E+00
         13   -1    0    0    0    0  0.00000000000E+00  0.00000000000E+00  0.14999999963E+04  0.15000000000E+04  0.10566000000E+00 0.  1.
        994   -1    0    0    0    0 -0.00000000000E+00 -0.00000000000E+00  0.11368683772E-12  0.17120000000E+03  0.17120000000E+03 0.  0.
         13    1    1    2    0    0 -0.72605839211E+01  0.82389873738E+01  0.28019629075E+02  0.30094979139E+02  0.10566000000E+00 0.  1.
        994    1    1    2    0    0 -0.15076306418E+00 -0.94346964974E+01  0.24052519022E+01  0.17147670823E+03  0.17120000000E+03 0.  0.
        998    1    1    2    0    0  0.74113469853E+01  0.11957091236E+01  0.14695751153E+04  0.14696283126E+04  0.10000000000E+02 0.  1.
</event>
<event>
 5    1  0.1607440E-008  0.3823133E+03  0.7957747E-01  0.3441147E+00
         13   -1    0    0    0    0  0.00000000000E+00  0.00000000000E+00  0.14999999963E+04  0.15000000000E+04  0.10566000000E+00 0. -1.
        994   -1    0    0    0    0 -0.00000000000E+00 -0.00000000000E+00  0.11368683772E-12  0.17120000000E+03  0.17120000000E+03 0.  0.
         13    1    1    2    0    0 -0.95567941178E+01  0.72983718996E+01  0.23392416566E+02  0.26302373715E+02  0.10566000000E+00 0. -1.
        994    1    1    2    0    0  0.76612230001E+01  0.19242777420E+00  0.31648103589E+01  0.17140066333E+03  0.17120000000E+03 0.  0.
        998    1    1    2    0    0  0.18955711176E+01 -0.74907996738E+01  0.14734427694E+04  0.14734969630E+04  0.10000000000E+02 0. -1.
</event>
<event>
 5    1  0.1607440E-008  0.3711489E+03  0.7957747E-01  0.3490628E+00
         13   -1    0    0    0    0  0.00000000000E+00  0.00000000000E+00  0.14999999963E+04  0.15000000000E+04  0.10566000000E+00 0. -1.
        994   -1    0    0    0    0 -0.00000000000E+00 -0.00000000000E+00  0.11368683772E-12  0.17120000000E+03  0.17120000000E+03 0.  0.
         13    1    1    2    0    0  0.15335332341E+02  0.34221109501E+02  0.81245558764E+02  0.89482449321E+02  0.10566000000E+00 0. -1.
        994    1    1    2    0    0 -0.59952159624E+01 -0.10535015378E+02  0.91759820186E+01  0.17187369726E+03  0.17120000000E+03 0.  0.
        998    1    1    2    0    0 -0.93401163784E+01 -0.23686094123E+02  0.14095784555E+04  0.14098438534E+04  0.10000000000E+02 0. -1.
</event>
<event>
 5    1  0.1607440E-008  0.3695729E+03  0.7957747E-01  0.3497856E+00
         13   -1    0    0    0    0  0.00000000000E+00  0.00000000000E+00  0.14999999963E+04  0.15000000000E+04  0.10566000000E+00 0.  1.
        994   -1    0    0    0    0 -0.00000000000E+00 -0.00000000000E+00  0.11368683772E-12  0.17120000000E+03  0.17120000000E+03 0.  0.
         13    1    1    2    0    0  0.14955578823E+01  0.53329564008E+02  0.12720037197E+03  0.13793558237E+03  0.10566000000E+00 0.  1.
        994    1    1    2    0    0 -0.50772250766E+01 -0.66954234163E+02  0.25271156870E+02  0.18562521126E+03  0.17120000000E+03 0.  0.
        998    1    1    2    0    0  0.35816671943E+01  0.13624670155E+02  0.13475284674E+04  0.13476392064E+04  0.10000000000E+02 0.  1.
</event>
<event>
 5    1  0.1607440E-008  0.3825797E+03  0.7957747E-01  0.3440002E+00
         13   -1    0    0    0    0  0.00000000000E+00  0.00000000000E+00  0.14999999963E+04  0.15000000000E+04  0.10566000000E+00 0.  1.
        994   -1    0    0    0    0 -0.00000000000E+00 -0.00000000000E+00  0.11368683772E-12  0.17120000000E+03  0.17120000000E+03 0.  0.
         13    1    1    2    0    0  0.30803496001E+03  0.44469935532E+02  0.10345376268E+04  0.10803384766E+04  0.10566000000E+00 0.  1.
        994    1    1    2    0    0 -0.30183657778E+03 -0.43869210153E+02  0.43486228686E+03  0.55807210629E+03  0.17120000000E+03 0.  0.
        998    1    1    2    0    0 -0.61983822319E+01 -0.60072537908E+00  0.30600082665E+02  0.32789417079E+02  0.10000000000E+02 0.  0.
</event>
<event>
 5    1  0.1607440E-008  0.3766668E+03  0.7957747E-01  0.3465802E+00
         13   -1    0    0    0    0  0.00000000000E+00  0.00000000000E+00  0.14999999963E+04  0.15000000000E+04  0.10566000000E+00 0.  1.
        994   -1    0    0    0    0 -0.00000000000E+00 -0.00000000000E+00  0.11368683772E-12  0.17120000000E+03  0.17120000000E+03 0.  0.
         13    1    1    2    0    0 -0.12066419497E+02 -0.48437690736E+01  0.12024037575E+02  0.17710144605E+02  0.10566000000E+00 0.  1.
        994    1    1    2    0    0  0.49063055360E+01  0.31934843512E+01  0.59411089358E+01  0.17140305409E+03  0.17120000000E+03 0.  0.
        998    1    1    2    0    0  0.71601139606E+01  0.16502847224E+01  0.14820348498E+04  0.14820868013E+04  0.10000000000E+02 0.  1.
</event>
<event>
 5    1  0.1607440E-008  0.3757189E+03  0.7957747E-01  0.3470014E+00
         13   -1    0    0    0    0  0.00000000000E+00  0.00000000000E+00  0.14999999963E+04  0.15000000000E+04  0.10566000000E+00 0.  1.
        994   -1    0    0    0    0 -0.00000000000E+00 -0.00000000000E+00  0.11368683772E-12  0.17120000000E+03  0.17120000000E+03 0.  0.
         13    1    1    2    0    0 -0.55393313317E+01  0.14844161968E+02  0.16901539371E+02  0.23166927575E+02  0.10566000000E+00 0.  1.
        994    1    1    2    0    0  0.90993142180E+01 -0.15268666858E+02  0.73820719428E+01  0.17227845104E+03  0.17120000000E+03 0.  0.
        998    1    1    2    0    0 -0.35599828864E+01  0.42450488981E+00  0.14757163850E+04  0.14757546214E+04  0.10000000000E+02 0.  1.
</event>
<event>
 5    1  0.1607440E-008  0.3762835E+03  0.7957747E-01  0.3467502E+00
         13   -1    0    0    0    0  0.00000000000E+00  0.00000000000E+00  0.14999999963E+04  0.15000000000E+04  0.10566000000E+00 0.  1.
        994   -1    0    0    0    0 -0.00000000000E+00 -0.00000000000E+00  0.11368683772E-12  0.17120000000E+03  0.17120000000E+03 0.  0.
         13    1    1    2    0    0 -0.12930699506E+02  0.49305443440E+02  0.19375458486E+03  0.20034739844E+03  0.10566000000E+00 0.  1.
        994    1    1    2    0    0  0.86963084440E+01 -0.44959704849E+02  0.13151668361E+02  0.17770595719E+03  0.17120000000E+03 0.  0.
        998    1    1    2    0    0  0.42343910619E+01 -0.43457385916E+01  0.12930937431E+04  0.12931466444E+04  0.10000000000E+02 0.  1.
</event>
<event>
 5    1  0.1607440E-008  0.3838257E+03  0.7957747E-01  0.3434668E+00
         13   -1    0    0    0    0  0.00000000000E+00  0.00000000000E+00  0.14999999963E+04  0.15000000000E+04  0.10566000000E+00 0. -1.
        994   -1    0    0    0    0 -0.00000000000E+00 -0.00000000000E+00  0.11368683772E-12  0.17120000000E+03  0.17120000000E+03 0.  0.
         13    1    1    2    0    0 -0.14623320015E+02 -0.83888082307E+01  0.65451509500E+02  0.67587904626E+02  0.10566000000E+00 0. -1.
        994    1    1    2    0    0  0.47182818079E+01  0.38895741232E+01  0.23377364695E+01  0.17132511778E+03  0.17120000000E+03 0.  0.
        998    1    1    2    0    0  0.99050382074E+01  0.44992341075E+01  0.14322107503E+04  0.14322869776E+04  0.10000000000E+02 0. -1.
</event>
<event>
 5    1  0.1607440E-008  0.3838717E+03  0.7957747E-01  0.3434471E+00
         13   -1    0    0    0    0  0.00000000000E+00  0.00000000000E+00  0.14999999963E+04  0.15000000000E+04  0.10566000000E+00 0.  1.
        994   -1    0    0    0    0 -0.00000000000E+00 -0.00000000000E+00  0.11368683772E-12  0.17120000000E+03  0.17120000000E+03 0.  0.
         13    1    1    2    0    0 -0.28565508115E+01 -0.12665474531E+02  0.39002487643E+02  0.41106925621E+02  0.10566000000E+00 0.  1.
        994    1    1    2    0    0 -0.67624095043E+01  0.37653571952E+01  0.23891087046E+01  0.17139152820E+03  0.17120000000E+03 0.  0.
        998    1    1    2    0    0  0.96189603158E+01  0.89001173354E+01  0.14586083999E+04  0.14587015462E+04  0.10000000000E+02 0.  1.
</event>
<event>
 5    1  0.1607440E-008  0.3831564E+03  0.7957747E-01  0.3437529E+00
         13   -1    0    0    0    0  0.00000000000E+00  0.00000000000E+00  0.14999999963E+04  0.15000000000E+04  0.10566000000E+00 0.  1.
        994   -1    0    0    0    0 -0.00000000000E+00 -0.00000000000E+00  0.11368683772E-12  0.17120000000E+03  0.17120000000E+03 0.  0.
         13    1    1    2    0    0 -0.12003657055E+02 -0.90886626374E+01  0.42928481298E+02  0.45492386635E+02  0.10566000000E+00 0.  1.
        994    1    1    2    0    0  0.30216640065E+01  0.19834856781E+02  0.38811539744E+01  0.17241535707E+03  0.17120000000E+03 0.  0.
        998    1    1    2    0    0  0.89819930483E+01 -0.10746194144E+02  0.14531903610E+04  0.14532922563E+04  0.10000000000E+02 0.  1.
</event>
<event>
 5    1  0.1607440E-008  0.3705500E+03  0.7957747E-01  0.3493367E+00
         13   -1    0    0    0    0  0.00000000000E+00  0.00000000000E+00  0.14999999963E+04  0.15000000000E+04  0.10566000000E+00 0. -1.
        994   -1    0    0    0    0 -0.00000000000E+00 -0.00000000000E+00  0.11368683772E-12  0.17120000000E+03  0.17120000000E+03 0.  0.
         13    1    1    2    0    0 -0.31571142401E+02 -0.41179974368E+02  0.15782151974E+03  0.16613299064E+03  0.10566000000E+00 0. -1.
        994    1    1    2    0    0 -0.16486071654E+02 -0.34862874800E+02  0.16457245811E+02  0.17625972750E+03  0.17120000000E+03 0.  0.
        998    1    1    2    0    0  0.48057214055E+02  0.76042849167E+02  0.13257212307E+04  0.13288072819E+04  0.10000000000E+02 0. -1.
</event>
<event>
 5    1  0.1607440E-008  0.3793540E+03  0.7957747E-01  0.3453976E+00
         13   -1    0    0    0    0  0.00000000000E+00  0.00000000000E+00  0.14999999963E+04  0.15000000000E+04  0.10566000000E+00 0. -1.
        994   -1    0    0    0    0 -0.00000000000E+00 -0.00000000000E+00  0.11368683772E-12  0.17120000000E+03  0.17120000000E+03 0.  0.
         13    1    1    2    0    0  0.33769283549E+02 -0.46556692027E+02  0.29768052943E+03  0.30318574974E+03  0.10566000000E+00 0. -1.
        994    1    1    2    0    0 -0.36041750862E+02  0.44997101005E+02  0.15676017680E+02  0.18132546549E+03  0.17120000000E+03 0.  0.
        998    1    1    2    0    0  0.22724673128E+01  0.15595910211E+01  0.11866434492E+04  0.11866887848E+04  0.10000000000E+02 0.  0.
</event>
<event>
 5    1  0.1607440E-008  0.3731101E+03  0.7957747E-01  0.3481718E+00
         13   -1    0    0    0    0  0.00000000000E+00  0.00000000000E+00  0.14999999963E+04  0.15000000000E+04  0.10566000000E+00 0. -1.
        994   -1    0    0    0    0 -0.00000000000E+00 -0.00000000000E+00  0.11368683772E-12  0.17120000000E+03  0.17120000000E+03 0.  0.
         13    1    1    2    0    0  0.78390423533E+02  0.79219325218E+02  0.38476060528E+03  0.40057645279E+03  0.10566000000E+00 0. -1.
        994    1    1    2    0    0 -0.76730750549E+02 -0.66161056516E+02  0.49820753790E+02  0.20507667100E+03  0.17120000000E+03 0.  0.
        998    1    1    2    0    0 -0.16596729835E+01 -0.13058268703E+02  0.10654186372E+04  0.10655468762E+04  0.10000000000E+02 0. -1.
</event>
<event>
 5    1  0.1607440E-008  0.3772626E+03  0.7957747E-01  0.3463165E+00
         13   -1    0    0    0    0  0.00000000000E+00  0.00000000000E+00  0.14999999963E+04  0.15000000000E+04  0.10566000000E+00 0. -1.
        994   -1    0    0    0    0 -0.00000000000E+00 -0.00000000000E+00  0.11368683772E-12  0.17120000000E+03  0.17120000000E+03 0.  0.
         13    1    1    2    0    0 -0.15260076841E+02 -0.14300686472E+02  0.37392827626E+02  0.42844069609E+02  0.10566000000E+00 0. -1.
        994    1    1    2    0    0  0.17563878384E+02  0.18883523855E+01  0.65748064287E+01  0.17223450229E+03  0.17120000000E+03 0.  0.
        998    1    1    2    0    0 -0.23038015430E+01  0.12412334087E+02  0.14560323622E+04  0.14561214281E+04  0.10000000000E+02 0. -1.
</event>
<event>
 5    1  0.1607440E-008  0.3814629E+03  0.7957747E-01  0.3444813E+00
         13   -1    0    0    0    0  0.00000000000E+00  0.00000000000E+00  0.14999999963E+04  0.15000000000E+04  0.10566000000E+00 0.  1.
        994   -1    0    0    0    0 -0.00000000000E+00 -0.00000000000E+00  0.11368683772E-12  0.17120000000E+03  0.17120000000E+03 0.  0.
         13    1    1    2    0    0  0.22522971804E+02  0.17156536061E+02  0.12729036075E+03  0.13040121967E+03  0.10566000000E+00 0.  1.
        994    1    1    2    0    0  0.34807773557E+01 -0.10997586911E+02  0.38393201022E+01  0.17163112511E+03  0.17120000000E+03 0.  0.
        998    1    1    2    0    0 -0.26003749160E+02 -0.61589491506E+01  0.13688703154E+04  0.13691676552E+04  0.10000000000E+02 0.  1.
</event>
<event>
 5    1  0.1607440E-008  0.3818930E+03  0.7957747E-01  0.3442957E+00
         13   -1    0    0    0    0  0.00000000000E+00  0.00000000000E+00  0.14999999963E+04  0.15000000000E+04  0.10566000000E+00 0.  1.
        994   -1    0    0    0    0 -0.00000000000E+00 -0.00000000000E+00  0.11368683772E-12  0.17120000000E+03  0.17120000000E+03 0.  0.
         13    1    1    2    0    0  0.12507175067E+02 -0.13561396894E+02  0.54980656367E+02  0.57993315584E+02  0.10566000000E+00 0.  1.
        994    1    1    2    0    0  0.48440804568E+01  0.60276100047E+01  0.33792995618E+01  0.17140786698E+03  0.17120000000E+03 0.  0.
        998    1    1    2    0    0 -0.17351255524E+02  0.75337868890E+01  0.14416400403E+04  0.14417988174E+04  0.10000000000E+02 0.  1.
</event>
<event>
 5    1  0.1607440E-008  0.3711325E+03  0.7957747E-01  0.3490702E+00
         13   -1    0    0    0    0  0.00000000000E+00  0.00000000000E+00  0.14999999963E+04  0.15000000000E+04  0.10566000000E+00 0. -1.
        994   -1    0    0    0    0 -0.00000000000E+00 -0.00000000000E+00  0.11368683772E-12  0.17120000000E+03  0.17120000000E+03 0.  0.
         13    1    1    2    0    0  0.21142252749E+02  0.28267222356E+02  0.75702599015E+02  0.83527991552E+02  0.10566000000E+00 0. -1.
        994    1    1    2    0    0 -0.50853384082E+01  0.11693991323E+02  0.92385670775E+01  0.17192266058E+03  0.17120000000E+03 0.  0.
        998    1    1    2    0    0 -0.16056914341E+02 -0.39961213679E+02  0.14150588302E+04  0.14157493479E+04  0.10000000000E+02 0. -1.
</event>
<event>
 5    1  0.1607440E-008  0.3773705E+03  0.7957747E-01  0.3462689E+00
         13   -1    0    0    0    0  0.00000000000E+00  0.00000000000E+00  0.14999999963E+04  0.15000000000E+04  0.10566000000E+00 0.  1.
        994   -1    0    0    0    0 -0.00000000000E+00 -0.00000000000E+00  0.11368683772E-12  0.17120000000E+03  0.17120000000E+03 0.  0.
         13    1    1    2    0    0 -0.10498570096E+02  0.26184458131E+02  0.67126017906E+02  0.72813180576E+02  0.10566000000E+00 0.  1.
        994    1    1    2    0    0  0.13830915210E+02 -0.28578072451E+02  0.88731656604E+01  0.17434498418E+03  0.17120000000E+03 0.  0.
        998    1    1    2    0    0 -0.33323451145E+01  0.23936143199E+01  0.14240008127E+04  0.14240418352E+04  0.10000000000E+02 0.  1.
</event>
<event>
 5    1  0.1607440E-008  0.3853454E+03  0.7957747E-01  0.3428209E+00
         13   -1    0    0    0    0  0.00000000000E+00  0.00000000000E+00  0.14999999963E+04  0.15000000000E+04  0.10566000000E+00 0. -1.
        994   -1    0    0    0    0 -0.00000000000E+00 -0.00000000000E+00  0.11368683772E-12  0.17120000000E+03  0.17120000000E+03 0.  0.
         13    1    1    2    0    0 -0.12730768048E+02 -0.26301933542E+01  0.63627794485E+02  0.64942264876E+02  0.10566000000E+00 0. -1.
        994    1    1    2    0    0 -0.31713414130E+01 -0.83161858173E+01  0.17190195059E+01  0.17143981854E+03  0.17120000000E+03 0.  0.
        998    1    1    2    0    0  0.15902109461E+02  0.10946379172E+02  0.14346531823E+04  0.14348179166E+04  0.10000000000E+02 0. -1.
</event>
<event>
 5    1  0.1607440E-008  0.3837562E+03  0.7957747E-01  0.3434964E+00
         13   -1    0    0    0    0  0.00000000000E+00  0.00000000000E+00  0.14999999963E+04  0.15000000000E+04  0.10566000000E+00 0.  1.
        994   -1    0    0    0    0 -0.00000000000E+00 -0.00000000000E+00  0.11368683772E-12  0.17120000000E+03  0.17120000000E+03 0.  0.
         13    1    1    2    0    0  0.20235165539E+01 -0.15938076323E+02  0.57422908263E+02  0.59628168289E+02  0.10566000000E+00 0.  1.
        994    1    1    2    0    0 -0.98701936300E+00  0.85594786113E+01  0.24940767214E+01  0.17143482523E+03  0.17120000000E+03 0.  0.
        998    1    1    2    0    0 -0.10364971909E+01  0.73785977114E+01  0.14400830113E+04  0.14401370065E+04  0.10000000000E+02 0.  1.
</event>
<event>
 5    1  0.1607440E-008  0.3825081E+03  0.7957747E-01  0.3440310E+00
         13   -1    0    0    0    0  0.00000000000E+00  0.00000000000E+00  0.14999999963E+04  0.15000000000E+04  0.10566000000E+00 0. -1.
        994   -1    0    0    0    0 -0.00000000000E+00 -0.00000000000E+00  0.11368683772E-12  0.17120000000E+03  0.17120000000E+03 0.  0.
         13    1    1    2    0    0 -0.21229185652E+02  0.15186650170E+02  0.11300221027E+03  0.11597768474E+03  0.10566000000E+00 0. -1.
        994    1    1    2    0    0  0.15888554529E+02 -0.16099915937E+02  0.45705805598E+01  0.17274832464E+03  0.17120000000E+03 0.  0.
        998    1    1    2    0    0  0.53406311231E+01  0.91326576629E+00  0.13824272054E+04  0.13824739906E+04  0.10000000000E+02 0. -1.
</event>
<event>
 5    1  0.1607440E-008  0.3792488E+03  0.7957747E-01  0.3454436E+00
         13   -1    0    0    0    0  0.00000000000E+00  0.00000000000E+00  0.14999999963E+04  0.15000000000E+04  0.10566000000E+00 0.  1.
        994   -1    0    0    0    0 -0.00000000000E+00 -0.00000000000E+00  0.11368683772E-12  0.17120000000E+03  0.17120000000E+03 0.  0.
         13    1    1    2    0    0  0.24127478138E+02 -0.29644152721E+02  0.13805440652E+03  0.14324783180E+03  0.10566000000E+00 0.  1.
        994    1    1    2    0    0 -0.23753305792E+02  0.43522028684E+02  0.12795954573E+02  0.17869404850E+03  0.17120000000E+03 0.  0.
        998    1    1    2    0    0 -0.37417234595E+00 -0.13877875963E+02  0.13491496352E+04  0.13492581197E+04  0.10000000000E+02 0.  0.
</event>
<event>
 5    1  0.1607440E-008  0.3821927E+03  0.7957747E-01  0.3441666E+00
         13   -1    0    0    0    0  0.00000000000E+00  0.00000000000E+00  0.14999999963E+04  0.15000000000E+04  0.10566000000E+00 0.  1.
        994   -1    0    0    0    0 -0.00000000000E+00 -0.00000000000E+00  0.11368683772E-12  0.17120000000E+03  0.17120000000E+03 0.  0.
         13    1    1    2    0    0  0.64765423222E+01  0.82400536532E+01  0.17132369308E+02  0.20084156114E+02  0.10566000000E+00 0.  1.
        994    1    1    2    0    0 -0.55070994191E+01  0.90541772313E+00  0.31337597600E+01  0.17131960885E+03  0.17120000000E+03 0.  0.
        998    1    1    2    0    0 -0.96944290318E+00 -0.91454713764E+01  0.14797338672E+04  0.14797962350E+04  0.10000000000E+02 0.  1.
</event>
<event>
 5    1  0.1607440E-008  0.3722879E+03  0.7957747E-01  0.3485442E+00
         13   -1    0    0    0    0  0.00000000000E+00  0.00000000000E+00  0.14999999963E+04  0.15000000000E+04  0.10566000000E+00 0.  1.
        994   -1    0    0    0    0 -0.00000000000E+00 -0.00000000000E+00  0.11368683772E-12  0.17120000000E+03  0.17120000000E+03 0.  0.
         13    1    1    2    0    0 -0.39190832964E+02 -0.61888536838E+02  0.34745951383E+03  0.35509750393E+03  0.10566000000E+00 0.  1.
        994    1    1    2    0    0  0.25059574983E+01  0.40603597582E+02  0.13776854670E+02  0.17650544945E+03  0.17120000000E+03 0.  0.
        998    1    1    2    0    0  0.36684875466E+02  0.21284939256E+02  0.11387636278E+04  0.11395970466E+04  0.10000000000E+02 0.  1.
</event>
<event>
 5    1  0.1607440E-008  0.3719611E+03  0.7957747E-01  0.3486926E+00
         13   -1    0    0    0    0  0.00000000000E+00  0.00000000000E+00  0.14999999963E+04  0.15000000000E+04  0.10566000000E+00 0.  1.
        994   -1    0    0    0    0 -0.00000000000E+00 -0.00000000000E+00  0.11368683772E-12  0.17120000000E+03  0.17120000000E+03 0.  0.
         13    1    1    2    0    0  0.13591043938E+02 -0.40582521357E+02  0.74334687339E+02  0.85774788958E+02  0.10566000000E+00 0.  1.
        994    1    1    2    0    0 -0.36830465610E+02  0.69292657440E+01  0.16939823903E+02  0.17607071180E+03  0.17120000000E+03 0.  0.
        998    1    1    2    0    0  0.23239421671E+02  0.33653255613E+02  0.14087254850E+04  0.14093544992E+04  0.10000000000E+02 0.  1.
</event>
<event>
 5    1  0.1607440E-008  0.3840908E+03  0.7957747E-01  0.3433537E+00
         13   -1    0    0    0    0  0.00000000000E+00  0.00000000000E+00  0.14999999963E+04  0.15000000000E+04  0.10566000000E+00 0.  1.
        994   -1    0    0    0    0 -0.00000000000E+00 -0.00000000000E+00  0.11368683772E-12  0.17120000000E+03  0.17120000000E+03 0.  0.
         13    1    1    2    0    0  0.89182110336E+01  0.80568107316E+01  0.34076018050E+02  0.36133541999E+02  0.10566000000E+00 0.  1.
        994    1    1    2    0    0 -0.22803365492E+01 -0.10539274149E+02  0.24658217843E+01  0.17155697745E+03  0.17120000000E+03 0.  0.
        998    1    1    2    0    0 -0.66378744844E+01  0.24824634173E+01  0.14634581564E+04  0.14635094806E+04  0.10000000000E+02 0.  1.
</event>
<event>
 5    1  0.1607440E-008  0.3849345E+03  0.7957747E-01  0.3429950E+00
         13   -1    0    0    0    0  0.00000000000E+00  0.00000000000E+00  0.14999999963E+04  0.15000000000E+04  0.10566000000E+00 0.  1.
        994   -1    0    0    0    0 -0.00000000000E+00 -0.00000000000E+00  0.11368683772E-12  0.17120000000E+03  0.17120000000E+03 0.  0.
         13    1    1    2    0    0  0.96009226580E+00 -0.12531942788E+02  0.46119597373E+02  0.47801671447E+02  0.10566000000E+00 0.  1.
        994    1    1    2    0    0  0.73227300198E+01  0.14255907452E+02  0.25079863770E+01  0.17196680862E+03  0.17120000000E+03 0.  0.
        998    1    1    2    0    0 -0.82828222856E+01 -0.17239646645E+01  0.14513724125E+04  0.14514315199E+04  0.10000000000E+02 0.  1.
</event>
<event>
 5    1  0.1607440E-008  0.3746879E+03  0.7957747E-01  0.3474620E+00
         13   -1    0    0    0    0  0.00000000000E+00  0.00000000000E+00  0.14999999963E+04  0.15000000000E+04  0.10566000000E+00 0.  1.
        994   -1    0    0    0    0 -0.00000000000E+00 -0.00000000000E+00  0.11368683772E-12  0.17120000000E+03  0.17120000000E+03 0.  0.
         13    1    1    2    0    0 -0.63830030712E+01  0.15132605005E+02  0.16641952658E+02  0.23381706840E+02  0.10566000000E+00 0.  1.
        994    1    1    2    0    0 -0.43662496966E+01 -0.17376472054E+02  0.79321272884E+01  0.17231762696E+03  0.17120000000E+03 0.  0.
        998    1    1    2    0    0  0.10749252768E+02  0.22438670483E+01  0.14754259163E+04  0.14755006662E+04  0.10000000000E+02 0.  1.
</event>
<event>
 5    1  0.1607440E-008  0.3819257E+03  0.7957747E-01  0.3442816E+00
         13   -1    0    0    0    0  0.00000000000E+00  0.00000000000E+00  0.14999999963E+04  0.15000000000E+04  0.10566000000E+00 0. -1.
        994   -1    0    0    0    0 -0.00000000000E+00 -0.00000000000E+00  0.11368683772E-12  0.17120000000E+03  0.17120000000E+03 0.  0.
         13    1    1    2    0    0 -0.73539633543E+00 -0.12461019891E+02  0.22230835524E+02  0.25495863128E+02  0.10566000000E+00 0. -1.
        994    1    1    2    0    0 -0.11041518036E+02  0.26164663654E+02  0.58478533423E+01  0.17363796282E+03  0.17120000000E+03 0.  0.
        998    1    1    2    0    0  0.11776914371E+02 -0.13703643763E+02  0.14719213074E+04  0.14720661740E+04  0.10000000000E+02 0. -1.
</event>
<event>
 5    1  0.1607440E-008  0.3835789E+03  0.7957747E-01  0.3435722E+00
         13   -1    0    0    0    0  0.00000000000E+00  0.00000000000E+00  0.14999999963E+04  0.15000000000E+04  0.10566000000E+00 0. -1.
        994   -1    0    0    0    0 -0.00000000000E+00 -0.00000000000E+00  0.11368683772E-12  0.17120000000E+03  0.17120000000E+03 0.  0.
         13    1    1    2    0    0  0.70469160417E+01 -0.20165882619E+02  0.94248445935E+02  0.96639032345E+02  0.10566000000E+00 0. -1.
        994    1    1    2    0    0 -0.38692308896E+02  0.69953822489E+01  0.74620619589E+01  0.17581567765E+03  0.17120000000E+03 0.  0.
        998    1    1    2    0    0  0.31645392854E+02  0.13170500370E+02  0.13982894884E+04  0.13987452900E+04  0.10000000000E+02 0. -1.
</event>
<event>
 5    1  0.1607440E-008  0.4106144E+03  0.7957747E-01  0.3327809E+00
         13   -1    0    0    0    0  0.00000000000E+00  0.00000000000E+00  0.14999999963E+04  0.15000000000E+04  0.10566000000E+00 0. -1.
        994   -1    0    0    0    0 -0.00000000000E+00 -0.00000000000E+00  0.11368683772E-12  0.17120000000E+03  0.17120000000E+03 0.  0.
         13    1    1    2    0    0  0.11163644886E+03  0.14786416182E+01  0.16695805042E+03  0.20084791475E+03  0.10566000000E+00 0. -1.
        994    1    1    2    0    0 -0.86912237009E+02 -0.19913559752E+02  0.67641397938E+02  0.20453626945E+03  0.17120000000E+03 0.  0.
        998    1    1    2    0    0 -0.24724211853E+02  0.18434918134E+02  0.12654005479E+04  0.12658158158E+04  0.10000000000E+02 0. -1.
</event>
<event>
 5    1  0.1607440E-008  0.3860737E+03  0.7957747E-01  0.3425131E+00
         13   -1    0    0    0    0  0.00000000000E+00  0.00000000000E+00  0.14999999963E+04  0.15000000000E+04  0.10566000000E+00 0. -1.
        994   -1    0    0    0    0 -0.00000000000E+00 -0.00000000000E+00  0.11368683772E-12  0.17120000000E+03  0.17120000000E+03 0.  0.
         13    1    1    2    0    0 -0.24235243675E+01  0.12502034179E+02  0.75327908250E+02  0.76396853694E+02  0.10566000000E+00 0. -1.
        994    1    1    2    0    0  0.38130672604E+01 -0.69480372621E+01  0.13038990259E+01  0.17138831599E+03  0.17120000000E+03 0.  0.
        998    1    1    2    0    0 -0.13895428929E+01 -0.55539969168E+01  0.14233681890E+04  0.14234148303E+04  0.10000000000E+02 0. -1.
</event>
<event>
 5    1  0.1607440E-008  0.3755274E+03  0.7957747E-01  0.3470868E+00
         13   -1    0    0    0    0  0.00000000000E+00  0.00000000000E+00  0.14999999963E+04  0.15000000000E+04  0.10566000000E+00 0. -1.
        994   -1    0    0    0    0 -0.00000000000E+00 -0.00000000000E+00  0.11368683772E-12  0.17120000000E+03  0.17120000000E+03 0.  0.
         13    1    1    2    0    0  0.41182318815E+02 -0.29738714641E+02  0.24247838576E+03  0.24774211038E+03  0.10566000000E+00 0. -1.
        994    1    1    2    0    0 -0.28412764662E+01 -0.19634354171E+01  0.64486563031E+01  0.17135621698E+03  0.17120000000E+03 0.  0.
        998    1    1    2    0    0 -0.38341042349E+02  0.31702150058E+02  0.12510729542E+04  0.12521016726E+04  0.10000000000E+02 0. -1.
</event>
<event>
 5    1  0.1607440E-008  0.3779060E+03  0.7957747E-01  0.3460327E+00
         13   -1    0    0    0    0  0.00000000000E+00  0.00000000000E+00  0.14999999963E+04  0.15000000000E+04  0.10566000000E+00 0. -1.
        994   -1    0    0    0    0 -0.00000000000E+00 -0.00000000000E+00  0.11368683772E-12  0.17120000000E+03  0.17120000000E+03 0.  0.
         13    1    1    2    0    0 -0.32855667321E+02  0.19894732508E+02  0.15438295445E+03  0.15908929268E+03  0.10566000000E+00 0. -1.
        994    1    1    2    0    0  0.96411493659E+01  0.36711093526E+01  0.55522566479E+01  0.17160039732E+03  0.17120000000E+03 0.  0.
        998    1    1    2    0    0  0.23214517955E+02 -0.23565841861E+02  0.13400647852E+04  0.13405103100E+04  0.10000000000E+02 0. -1.
</event>
<event>
 5    1  0.1607440E-008  0.3853167E+03  0.7957747E-01  0.3428330E+00
         13   -1    0    0    0    0  0.00000000000E+00  0.00000000000E+00  0.14999999963E+04  0.15000000000E+04  0.10566000000E+00 0.  1.
        994   -1    0    0    0    0 -0.00000000000E+00 -0.00000000000E+00  0.11368683772E-12  0.17120000000E+03  0.17120000000E+03 0.  0.
         13    1    1    2    0    0 -0.12541401481E+02  0.22212707850E+01  0.56619967705E+02  0.58034926570E+02  0.10566000000E+00 0.  1.
        994    1    1    2    0    0  0.33717328893E+01 -0.68225345723E+01  0.16632713522E+01  0.17137713392E+03  0.17120000000E+03 0.  0.
        998    1    1    2    0    0  0.91696685915E+01  0.46012637874E+01  0.14417167572E+04  0.14417879395E+04  0.10000000000E+02 0.  1.
</event>
<event>
 5    1  0.1607440E-008  0.3700041E+03  0.7957747E-01  0.3495872E+00
         13   -1    0    0    0    0  0.00000000000E+00  0.00000000000E+00  0.14999999963E+04  0.15000000000E+04  0.10566000000E+00 0. -1.
        994   -1    0    0    0    0 -0.00000000000E+00 -0.00000000000E+00  0.11368683772E-12  0.17120000000E+03  0.17120000000E+03 0.  0.
         13    1    1    2    0    0  0.32219566549E+02  0.47533593066E+02  0.17124537977E+03  0.18061709276E+03  0.10566000000E+00 0. -1.
        994    1    1    2    0    0 -0.22731629427E+02  0.13048324498E+02  0.13346429938E+02  0.17370824085E+03  0.17120000000E+03 0.  0.
        998    1    1    2    0    0 -0.94879371219E+01 -0.60581917564E+02  0.13154081866E+04  0.13168746664E+04  0.10000000000E+02 0. -1.
</event>
<event>
 5    1  0.1607440E-008  0.3990154E+03  0.7957747E-01  0.3372322E+00
         13   -1    0    0    0    0  0.00000000000E+00  0.00000000000E+00  0.14999999963E+04  0.15000000000E+04  0.10566000000E+00 0. -1.
        994   -1    0    0    0    0 -0.00000000000E+00 -0.00000000000E+00  0.11368683772E-12  0.17120000000E+03  0.17120000000E+03 0.  0.
         13    1    1    2    0    0 -0.11057459995E+02  0.36558614099E+02  0.15810710583E+02  0.41337506209E+02  0.10566000000E+00 0. -1.
        994    1    1    2    0    0  0.88507782487E+01 -0.34797968551E+02  0.32233858609E+02  0.17786988652E+03  0.17120000000E+03 0.  0.
        998    1    1    2    0    0  0.22066817466E+01 -0.17606455480E+01  0.14519554271E+04  0.14519926073E+04  0.10000000000E+02 0. -1.
</event>
<event>
 5    1  0.1607440E-008  0.3708789E+03  0.7957747E-01  0.3491862E+00
         13   -1    0    0    0    0  0.00000000000E+00  0.00000000000E+00  0.14999999963E+04  0.15000000000E+04  0.10566000000E+00 0. -1.
        994   -1    0    0    0    0 -0.00000000000E+00 -0.00000000000E+00  0.11368683772E-12  0.17120000000E+03  0.17120000000E+03 0.  0.
         13    1    1    2    0    0  0.42261908109E+02  0.27404710160E+01  0.75152714017E+02  0.86264248948E+02  0.10566000000E+00 0. -1.
        994    1    1    2    0    0 -0.25537498385E+02  0.56524314800E+01  0.13807000404E+02  0.17373596941E+03  0.17120000000E+03 0.  0.
        998    1    1    2    0    0 -0.16724409724E+02 -0.83929024960E+01  0.14110402819E+04  0.14111997816E+04  0.10000000000E+02 0. -1.
</event>
<event>
 5    1  0.1607440E-008  0.3842665E+03  0.7957747E-01  0.3432789E+00
         13   -1    0    0    0    0  0.00000000000E+00  0.00000000000E+00  0.14999999963E+04  0.15000000000E+04  0.10566000000E+00 0.  1.
        994   -1    0    0    0    0 -0.00000000000E+00 -0.00000000000E+00  0.11368683772E-12  0.17120000000E+03  0.17120000000E+03 0.  0.
         13    1    1    2    0    0  0.27844002820E+01 -0.19189823869E+02  0.93985179184E+02  0.95964719014E+02  0.10566000000E+00 0.  1.
        994    1    1    2    0    0 -0.17752943178E+01  0.12083018574E+02  0.24865782158E+01  0.17165306312E+03  0.17120000000E+03 0.  0.
        998    1    1    2    0    0 -0.10091059642E+01  0.71068052955E+01  0.14035282389E+04  0.14035822179E+04  0.10000000000E+02 0.  1.
</event>
<event>
 5    1  0.1607440E-008  0.3846290E+03  0.7957747E-01  0.3431247E+00
         13   -1    0    0    0    0  0.00000000000E+00  0.00000000000E+00  0.14999999963E+04  0.15000000000E+04  0.10566000000E+00 0.  1.
        994   -1    0    0    0    0 -0.00000000000E+00 -0.00000000000E+00  0.11368683772E-12  0.17120000000E+03  0.17120000000E+03 0.  0.
         13    1    1    2    0    0  0.77860699884E+01  0.15970839788E+02  0.88858845334E+02  0.90617857885E+02  0.10566000000E+00 0.  1.
        994    1    1    2    0    0 -0.85489801300E+01 -0.49524240683E+01  0.21359262037E+01  0.17149814502E+03  0.17120000000E+03 0.  0.
        998    1    1    2    0    0  0.76291014159E+00 -0.11018415720E+02  0.14090052247E+04  0.14090839971E+04  0.10000000000E+02 0.  1.
</event>
<event>
 5    1  0.1607440E-008  0.3856712E+03  0.7957747E-01  0.3426831E+00
         13   -1    0    0    0    0  0.00000000000E+00  0.00000000000E+00  0.14999999963E+04  0.15000000000E+04  0.10566000000E+00 0. -1.
        994   -1    0    0    0    0 -0.00000000000E+00 -0.00000000000E+00  0.11368683772E-12  0.17120000000E+03  0.17120000000E+03 0.  0.
         13    1    1    2    0    0  0.11150830877E+02  0.52473258410E+01  0.67261876553E+02  0.68381625158E+02  0.10566000000E+00 0. -1.
        994    1    1    2    0    0  0.65526840551E+01  0.87252573751E+01  0.16880844526E+01  0.17155569770E+03  0.17120000000E+03 0.  0.
        998    1    1    2    0    0 -0.17703514932E+02 -0.13972583216E+02  0.14310500353E+04  0.14312626771E+04  0.10000000000E+02 0. -1.
</event>
<event>
 5    1  0.1607440E-008  0.3842387E+03  0.7957747E-01  0.3432908E+00
         13   -1    0    0    0    0  0.00000000000E+00  0.00000000000E+00  0.14999999963E+04  0.15000000000E+04  0.10566000000E+00 0.  1.
        994   -1    0    0    0    0 -0.00000000000E+00 -0.00000000000E+00  0.11368683772E-12  0.17120000000E+03  0.17120000000E+03 0.  0.
         13    1    1    2    0    0  0.14184346713E+02  0.45761016266E+00  0.48257897401E+02  0.50301500219E+02  0.10566000000E+00 0.  1.
        994    1    1    2    0    0 -0.15612708802E+02  0.94466190178E+00  0.28155721900E+01  0.17193608263E+03  0.17120000000E+03 0.  0.
        998    1    1    2    0    0  0.14283620897E+01 -0.14022720644E+01  0.14489265267E+04  0.14489624172E+04  0.10000000000E+02 0.  1.
</event>
<event>
 5    1  0.1607440E-008  0.3819632E+03  0.7957747E-01  0.3442655E+00
         13   -1    0    0    0    0  0.00000000000E+00  0.00000000000E+00  0.14999999963E+04  0.15000000000E+04  0.10566000000E+00 0.  1.
        994   -1    0    0    0    0 -0.00000000000E+00 -0.00000000000E+00  0.11368683772E-12  0.17120000000E+03  0.17120000000E+03 0.  0.
         13    1    1    2    0    0  0.11075974670E+03  0.12232761760E+03  0.85513740853E+03  0.87091432767E+03  0.10566000000E+00 0.  1.
        994    1    1    2    0    0 -0.14587465747E+03 -0.12746978336E+03  0.13985405752E+03  0.29393291542E+03  0.17120000000E+03 0.  0.
        998    1    1    2    0    0  0.35114910765E+02  0.51421657518E+01  0.50500853023E+03  0.50635275691E+03  0.10000000000E+02 0.  1.
</event>
<event>
 5    1  0.1607440E-008  0.3604241E+03  0.7957747E-01  0.3541092E+00
         13   -1    0    0    0    0  0.00000000000E+00  0.00000000000E+00  0.14999999963E+04  0.15000000000E+04  0.10566000000E+00 0. -1.
        994   -1    0    0    0    0 -0.00000000000E+00 -0.00000000000E+00  0.11368683772E-12  0.17120000000E+03  0.17120000000E+03 0.  0.
         13    1    1    2    0    0 -0.24059369112E+03  0.19673537983E+03  0.46896654792E+03  0.56260089594E+03  0.10566000000E+00 0. -1.
        994    1    1    2    0    0  0.24195657128E+03 -0.20014122360E+03  0.78834547268E+03  0.86567748964E+03  0.17120000000E+03 0.  0.
        998    1    1    2    0    0 -0.13628801556E+01  0.34058437725E+01  0.24268797568E+03  0.24292161442E+03  0.10000000000E+02 0.  1.
</event>
<event>
 5    1  0.1607440E-008  0.3821417E+03  0.7957747E-01  0.3441886E+00
         13   -1    0    0    0    0  0.00000000000E+00  0.00000000000E+00  0.14999999963E+04  0.15000000000E+04  0.10566000000E+00 0. -1.
        994   -1    0    0    0    0 -0.00000000000E+00 -0.00000000000E+00  0.11368683772E-12  0.17120000000E+03  0.17120000000E+03 0.  0.
         13    1    1    2    0    0 -0.12158096176E+03 -0.10351252959E+03  0.91977768655E+03  0.93353509729E+03  0.10566000000E+00 0. -1.
        994    1    1    2    0    0  0.12725606940E+03  0.11946035701E+03  0.11181243732E+03  0.26884260309E+03  0.17120000000E+03 0.  0.
        998    1    1    2    0    0 -0.56751076414E+01 -0.15947827424E+02  0.46840987241E+03  0.46882229962E+03  0.10000000000E+02 0. -1.
</event>
<event>
 5    1  0.1607440E-008  0.3783859E+03  0.7957747E-01  0.3458217E+00
         13   -1    0    0    0    0  0.00000000000E+00  0.00000000000E+00  0.14999999963E+04  0.15000000000E+04  0.10566000000E+00 0.  1.
        994   -1    0    0    0    0 -0.00000000000E+00 -0.00000000000E+00  0.11368683772E-12  0.17120000000E+03  0.17120000000E+03 0.  0.
         13    1    1    2    0    0  0.10878870209E+03 -0.40449870999E+02  0.48709475711E+03  0.50073195158E+03  0.10566000000E+00 0.  1.
        994    1    1    2    0    0 -0.16488035380E+03  0.37541636155E+02  0.10798625313E+03  0.26375249076E+03  0.17120000000E+03 0.  0.
        998    1    1    2    0    0  0.56091651713E+02  0.29082348446E+01  0.90491898604E+03  0.90671555766E+03  0.10000000000E+02 0.  1.
</event>
<event>
 5    1  0.1607440E-008  0.3766065E+03  0.7957747E-01  0.3466069E+00
         13   -1    0    0    0    0  0.00000000000E+00  0.00000000000E+00  0.14999999963E+04  0.15000000000E+04  0.10566000000E+00 0.  1.
        994   -1    0    0    0    0 -0.00000000000E+00 -0.00000000000E+00  0.11368683772E-12  0.17120000000E+03  0.17120000000E+03 0.  0.
         13    1    1    2    0    0 -0.22493373753E+02  0.31113941836E+02  0.12317712068E+03  0.12902187203E+03  0.10566000000E+00 0.  1.
        994    1    1    2    0    0  0.68770550582E+01 -0.24765118971E+02  0.80927182300E+01  0.17330763714E+03  0.17120000000E+03 0.  0.
        998    1    1    2    0    0  0.15616318695E+02 -0.63488228652E+01  0.13687301574E+04  0.13688704908E+04  0.10000000000E+02 0.  1.
</event>
<event>
 5    1  0.1607440E-008  0.3783110E+03  0.7957747E-01  0.3458546E+00
         13   -1    0    0    0    0  0.00000000000E+00  0.00000000000E+00  0.14999999963E+04  0.15000000000E+04  0.10566000000E+00 0. -1.
        994   -1    0    0    0    0 -0.00000000000E+00 -0.00000000000E+00  0.11368683772E-12  0.17120000000E+03  0.17120000000E+03 0.  0.
         13    1    1    2    0    0 -0.18785563725E+02  0.40271927016E+01  0.34302299601E+02  0.39316340210E+02  0.10566000000E+00 0. -1.
        994    1    1    2    0    0  0.18451782134E+02 -0.75801836145E+01  0.63270022490E+01  0.17247434129E+03  0.17120000000E+03 0.  0.
        998    1    1    2    0    0  0.33378159101E+00  0.35529909129E+01  0.14593706944E+04  0.14594093185E+04  0.10000000000E+02 0. -1.
</event>
<event>
 5    1  0.1607440E-008  0.3828147E+03  0.7957747E-01  0.3438994E+00
         13   -1    0    0    0    0  0.00000000000E+00  0.00000000000E+00  0.14999999963E+04  0.15000000000E+04  0.10566000000E+00 0.  1.
        994   -1    0    0    0    0 -0.00000000000E+00 -0.00000000000E+00  0.11368683772E-12  0.17120000000E+03  0.17120000000E+03 0.  0.
         13    1    1    2    0    0  0.13769714904E+02 -0.28433818364E+01  0.37077873205E+02  0.39654378249E+02  0.10566000000E+00 0.  1.
        994    1    1    2    0    0  0.25252597793E+01  0.24971565681E+01  0.27607898160E+01  0.17125908644E+03  0.17120000000E+03 0.  0.
        998    1    1    2    0    0 -0.16294974684E+02  0.34622526825E+00  0.14601613333E+04  0.14602865353E+04  0.10000000000E+02 0.  1.
</event>
<event>
 5    1  0.1607440E-008  0.3844275E+03  0.7957747E-01  0.3432104E+00
         13   -1    0    0    0    0  0.00000000000E+00  0.00000000000E+00  0.14999999963E+04  0.15000000000E+04  0.10566000000E+00 0.  1.
        994   -1    0    0    0    0 -0.00000000000E+00 -0.00000000000E+00  0.11368683772E-12  0.17120000000E+03  0.17120000000E+03 0.  0.
         13    1    1    2    0    0  0.81800888698E+01  0.10835503917E+02  0.47021467412E+02  0.48942328925E+02  0.10566000000E+00 0.  1.
        994    1    1    2    0    0 -0.92723408832E+01 -0.85367701222E+01  0.24381863857E+01  0.17168062646E+03  0.17120000000E+03 0.  0.
        998    1    1    2    0    0  0.10922520135E+01 -0.22987337944E+01  0.14505403425E+04  0.14505770446E+04  0.10000000000E+02 0.  1.
</event>
<event>
 5    1  0.1607440E-008  0.3784690E+03  0.7957747E-01  0.3457852E+00
         13   -1    0    0    0    0  0.00000000000E+00  0.00000000000E+00  0.14999999963E+04  0.15000000000E+04  0.10566000000E+00 0.  1.
        994   -1    0    0    0    0 -0.00000000000E+00 -0.00000000000E+00  0.11368683772E-12  0.17120000000E+03  0.17120000000E+03 0.  0.
         13    1    1    2    0    0 -0.14406081532E+02 -0.14810144854E+02  0.43038046745E+02  0.47740550975E+02  0.10566000000E+00 0.  1.
        994    1    1    2    0    0  0.24796135765E+01  0.21226497916E+01  0.49438070949E+01  0.17130246745E+03  0.17120000000E+03 0.  0.
        998    1    1    2    0    0  0.11926467955E+02  0.12687495063E+02  0.14520181424E+04  0.14521569816E+04  0.10000000000E+02 0.  1.
</event>
<event>
 5    1  0.1607440E-008  0.3806952E+03  0.7957747E-01  0.3448137E+00
         13   -1    0    0    0    0  0.00000000000E+00  0.00000000000E+00  0.14999999963E+04  0.15000000000E+04  0.10566000000E+00 0.  1.
        994   -1    0    0    0    0 -0.00000000000E+00 -0.00000000000E+00  0.11368683772E-12  0.17120000000E+03  0.17120000000E+03 0.  0.
         13    1    1    2    0    0  0.40425112106E+02  0.22794533522E+02  0.23298205988E+03  0.23755932278E+03  0.10566000000E+00 0.  1.
        994    1    1    2    0    0 -0.47688115678E+02 -0.18847383684E+02  0.12602504708E+02  0.17915815185E+03  0.17120000000E+03 0.  0.
        998    1    1    2    0    0  0.72630035724E+01 -0.39471498381E+01  0.12544154317E+04  0.12544825254E+04  0.10000000000E+02 0.  1.
</event>
<event>
 5    1  0.1607440E-008  0.3802493E+03  0.7957747E-01  0.3450074E+00
         13   -1    0    0    0    0  0.00000000000E+00  0.00000000000E+00  0.14999999963E+04  0.15000000000E+04  0.10566000000E+00 0. -1.
        994   -1    0    0    0    0 -0.00000000000E+00 -0.00000000000E+00  0.11368683772E-12  0.17120000000E+03  0.17120000000E+03 0.  0.
         13    1    1    2    0    0 -0.12100703702E+02 -0.15030673270E+01  0.16796448746E+02  0.20756158026E+02  0.10566000000E+00 0. -1.
        994    1    1    2    0    0  0.93603445798E+01  0.61274955804E+01  0.44255093535E+01  0.17162222288E+03  0.17120000000E+03 0.  0.
        998    1    1    2    0    0  0.27403591219E+01 -0.46244282534E+01  0.14787780382E+04  0.14788216191E+04  0.10000000000E+02 0. -1.
</event>
<event>
 5    1  0.1607440E-008  0.3787338E+03  0.7957747E-01  0.3456690E+00
         13   -1    0    0    0    0  0.00000000000E+00  0.00000000000E+00  0.14999999963E+04  0.15000000000E+04  0.10566000000E+00 0.  1.
        994   -1    0    0    0    0 -0.00000000000E+00 -0.00000000000E+00  0.11368683772E-12  0.17120000000E+03  0.17120000000E+03 0.  0.
         13    1    1    2    0    0 -0.70243175484E+01 -0.13500186002E+02  0.22097693896E+02  0.26831237368E+02  0.10566000000E+00 0.  1.
        994    1    1    2    0    0  0.66355357814E+01  0.11622117247E+02  0.53751346152E+01  0.17180639108E+03  0.17120000000E+03 0.  0.
        998    1    1    2    0    0  0.38878176697E+00  0.18780687550E+01  0.14725271678E+04  0.14725623716E+04  0.10000000000E+02 0.  1.
</event>
<event>
 5    1  0.1607440E-008  0.3786356E+03  0.7957747E-01  0.3457121E+00
         13   -1    0    0    0    0  0.00000000000E+00  0.00000000000E+00  0.14999999963E+04  0.15000000000E+04  0.10566000000E+00 0.  1.
        994   -1    0    0    0    0 -0.00000000000E+00 -0.00000000000E+00  0.11368683772E-12  0.17120000000E+03  0.17120000000E+03 0.  0.
         13    1    1    2    0    0 -0.47008310837E+02 -0.39485685812E+02  0.30557999679E+03  0.31168581340E+03  0.10566000000E+00 0.  1.
        994    1    1    2    0    0  0.49897094621E+02  0.39159253124E+02  0.18454440096E+02  0.18350251638E+03  0.17120000000E+03 0.  0.
        998    1    1    2    0    0 -0.28887837841E+01  0.32643268812E+00  0.11759655594E+04  0.11760116702E+04  0.10000000000E+02 0.  0.
</event>
<event>
 5    1  0.1607440E-008  0.3852108E+03  0.7957747E-01  0.3428779E+00
         13   -1    0    0    0    0  0.00000000000E+00  0.00000000000E+00  0.14999999963E+04  0.15000000000E+04  0.10566000000E+00 0.  1.
        994   -1    0    0    0    0 -0.00000000000E+00 -0.00000000000E+00  0.11368683772E-12  0.17120000000E+03  0.17120000000E+03 0.  0.
         13    1    1    2    0    0  0.20688268261E+02  0.47573966061E+01  0.12454364828E+03  0.12633989377E+03  0.10566000000E+00 0.  1.
        994    1    1    2    0    0 -0.30815927145E+02 -0.12539637488E+02  0.51716193310E+01  0.17447936703E+03  0.17120000000E+03 0.  0.
        998    1    1    2    0    0  0.10127658884E+02  0.77822408823E+01  0.13702847287E+04  0.13703807392E+04  0.10000000000E+02 0.  1.
</event>
<event>
 5    1  0.1607440E-008  0.3805732E+03  0.7957747E-01  0.3448667E+00
         13   -1    0    0    0    0  0.00000000000E+00  0.00000000000E+00  0.14999999963E+04  0.15000000000E+04  0.10566000000E+00 0.  1.
        994   -1    0    0    0    0 -0.00000000000E+00 -0.00000000000E+00  0.11368683772E-12  0.17120000000E+03  0.17120000000E+03 0.  0.
         13    1    1    2    0    0 -0.13610069043E+02  0.38810357757E+01  0.26311632456E+02  0.29876572504E+02  0.10566000000E+00 0.  1.
        994    1    1    2    0    0 -0.17144673361E+02 -0.92519298104E+01  0.51114883056E+01  0.17238069887E+03  0.17120000000E+03 0.  0.
        998    1    1    2    0    0  0.30754742404E+02  0.53708940347E+01  0.14685768755E+04  0.14689427286E+04  0.10000000000E+02 0.  1.
</event>
<event>
 5    1  0.1607440E-008  0.3861794E+03  0.7957747E-01  0.3424686E+00
         13   -1    0    0    0    0  0.00000000000E+00  0.00000000000E+00  0.14999999963E+04  0.15000000000E+04  0.10566000000E+00 0.  1.
        994   -1    0    0    0    0 -0.00000000000E+00 -0.00000000000E+00  0.11368683772E-12  0.17120000000E+03  0.17120000000E+03 0.  0.
         13    1    1    2    0    0 -0.74757423299E+01  0.95439439399E+01  0.69065125513E+02  0.70121154551E+02  0.10566000000E+00 0.  1.
        994    1    1    2    0    0  0.24260479751E+01 -0.13453986176E+02  0.16582533330E+01  0.17175297743E+03  0.17120000000E+03 0.  0.
        998    1    1    2    0    0  0.50496943549E+01  0.39100422364E+01  0.14292766174E+04  0.14293258680E+04  0.10000000000E+02 0.  1.
</event>
<event>
 5    1  0.1607440E-008  0.3795287E+03  0.7957747E-01  0.3453213E+00
         13   -1    0    0    0    0  0.00000000000E+00  0.00000000000E+00  0.14999999963E+04  0.15000000000E+04  0.10566000000E+00 0. -1.
        994   -1    0    0    0    0 -0.00000000000E+00 -0.00000000000E+00  0.11368683772E-12  0.17120000000E+03  0.17120000000E+03 0.  0.
         13    1    1    2    0    0  0.11684187247E+02  0.18412014124E+02  0.54411431672E+02  0.58618576888E+02  0.10566000000E+00 0. -1.
        994    1    1    2    0    0 -0.94403867589E+00 -0.65647626744E+01  0.45185486066E+01  0.17138799433E+03  0.17120000000E+03 0.  0.
        998    1    1    2    0    0 -0.10740148571E+02 -0.11847251450E+02  0.14410700160E+04  0.14411934288E+04  0.10000000000E+02 0. -1.
</event>
<event>
 5    1  0.1607440E-008  0.3741460E+03  0.7957747E-01  0.3477051E+00
         13   -1    0    0    0    0  0.00000000000E+00  0.00000000000E+00  0.14999999963E+04  0.15000000000E+04  0.10566000000E+00 0.  1.
        994   -1    0    0    0    0 -0.00000000000E+00 -0.00000000000E+00  0.11368683772E-12  0.17120000000E+03  0.17120000000E+03 0.  0.
         13    1    1    2    0    0  0.14859848447E+02 -0.37052975099E+01  0.13299493057E+02  0.20283786754E+02  0.10566000000E+00 0.  1.
        994    1    1    2    0    0 -0.10766050295E+02  0.69277580664E+01  0.76768441833E+01  0.17184957261E+03  0.17120000000E+03 0.  0.
        998    1    1    2    0    0 -0.40937981520E+01 -0.32224605565E+01  0.14790236590E+04  0.14790666406E+04  0.10000000000E+02 0.  1.
</event>
<event>
 5    1  0.1607440E-008  0.3831003E+03  0.7957747E-01  0.3437769E+00
         13   -1    0    0    0    0  0.00000000000E+00  0.00000000000E+00  0.14999999963E+04  0.15000000000E+04  0.10566000000E+00 0. -1.
        994   -1    0    0    0    0 -0.00000000000E+00 -0.00000000000E+00  0.11368683772E-12  0.17120000000E+03  0.17120000000E+03 0.  0.
         13    1    1    2    0    0 -0.20011072034E+02  0.15900280111E+02  0.11687321884E+03  0.11963537252E+03  0.10566000000E+00 0. -1.
        994    1    1    2    0    0  0.21986274893E+02 -0.15257372618E+02  0.49497085556E+01  0.17334971392E+03  0.17120000000E+03 0.  0.
        998    1    1    2    0    0 -0.19752028585E+01 -0.64290749255E+00  0.13781770689E+04  0.13782149136E+04  0.10000000000E+02 0. -1.
</event>
<event>
 5    1  0.1607440E-008  0.3820850E+03  0.7957747E-01  0.3442130E+00
         13   -1    0    0    0    0  0.00000000000E+00  0.00000000000E+00  0.14999999963E+04  0.15000000000E+04  0.10566000000E+00 0.  1.
        994   -1    0    0    0    0 -0.00000000000E+00 -0.00000000000E+00  0.11368683772E-12  0.17120000000E+03  0.17120000000E+03 0.  0.
         13    1    1    2    0    0  0.28001540299E+01  0.14510129499E+02  0.35147396579E+02  0.38127881806E+02  0.10566000000E+00 0.  1.
        994    1    1    2    0    0  0.58802404795E+01 -0.44537929699E+01  0.32650067618E+01  0.17138994652E+03  0.17120000000E+03 0.  0.
        998    1    1    2    0    0 -0.86803945094E+01 -0.10056336529E+02  0.14615875929E+04  0.14616821717E+04  0.10000000000E+02 0.  1.
</event>
<event>
 5    1  0.1607440E-008  0.3793076E+03  0.7957747E-01  0.3454179E+00
         13   -1    0    0    0    0  0.00000000000E+00  0.00000000000E+00  0.14999999963E+04  0.15000000000E+04  0.10566000000E+00 0. -1.
        994   -1    0    0    0    0 -0.00000000000E+00 -0.00000000000E+00  0.11368683772E-12  0.17120000000E+03  0.17120000000E+03 0.  0.
         13    1    1    2    0    0 -0.44586387116E+02  0.25934650624E+02  0.29224316477E+03  0.29676022399E+03  0.10566000000E+00 0. -1.
        994    1    1    2    0    0  0.39830746135E+02  0.55293925564E+01  0.99202945983E+01  0.17613890758E+03  0.17120000000E+03 0.  0.
        998    1    1    2    0    0  0.47556409810E+01 -0.31464043181E+02  0.11978365369E+04  0.11983008684E+04  0.10000000000E+02 0. -1.
</event>
<event>
 5    1  0.1607440E-008  0.3806874E+03  0.7957747E-01  0.3448171E+00
         13   -1    0    0    0    0  0.00000000000E+00  0.00000000000E+00  0.14999999963E+04  0.15000000000E+04  0.10566000000E+00 0.  1.
        994   -1    0    0    0    0 -0.00000000000E+00 -0.00000000000E+00  0.11368683772E-12  0.17120000000E+03  0.17120000000E+03 0.  0.
         13    1    1    2    0    0 -0.38513475231E+02  0.16936656267E+02  0.22590251205E+03  0.22978706277E+03  0.10566000000E+00 0.  1.
        994    1    1    2    0    0  0.22136180309E+02 -0.18602273910E+02  0.65801078585E+01  0.17374922415E+03  0.17120000000E+03 0.  0.
        998    1    1    2    0    0  0.16377294922E+02  0.16656176437E+01  0.12675173764E+04  0.12676637131E+04  0.10000000000E+02 0.  1.
</event>
<event>
 5    1  0.1607440E-008  0.3798981E+03  0.7957747E-01  0.3451602E+00
         13   -1    0    0    0    0  0.00000000000E+00  0.00000000000E+00  0.14999999963E+04  0.15000000000E+04  0.10566000000E+00 0.  1.
        994   -1    0    0    0    0 -0.00000000000E+00 -0.00000000000E+00  0.11368683772E-12  0.17120000000E+03  0.17120000000E+03 0.  0.
         13    1    1    2    0    0  0.38255587446E+02 -0.10901254448E+02  0.17118406851E+03  0.17574505340E+03  0.10566000000E+00 0.  1.
        994    1    1    2    0    0 -0.35345855512E+02  0.10705234210E+02  0.87591258247E+01  0.17535704670E+03  0.17120000000E+03 0.  0.
        998    1    1    2    0    0 -0.29097319348E+01  0.19602023775E+00  0.13200568019E+04  0.13200978999E+04  0.10000000000E+02 0.  1.
</event>
<event>
 5    1  0.1607440E-008  0.3819301E+03  0.7957747E-01  0.3442797E+00
         13   -1    0    0    0    0  0.00000000000E+00  0.00000000000E+00  0.14999999963E+04  0.15000000000E+04  0.10566000000E+00 0. -1.
        994   -1    0    0    0    0 -0.00000000000E+00 -0.00000000000E+00  0.11368683772E-12  0.17120000000E+03  0.17120000000E+03 0.  0.
         13    1    1    2    0    0 -0.24362720405E+02  0.60334724463E+01  0.94866305940E+02  0.98130383175E+02  0.10566000000E+00 0. -1.
        994    1    1    2    0    0  0.23671299076E+02  0.24776158259E+01  0.50459520822E+01  0.17292012784E+03  0.17120000000E+03 0.  0.
        998    1    1    2    0    0  0.69142132922E+00 -0.85110882722E+01  0.14000877383E+04  0.14001494890E+04  0.10000000000E+02 0. -1.
</event>
<event>
 5    1  0.1607440E-008  0.3857348E+03  0.7957747E-01  0.3426562E+00
         13   -1    0    0    0    0  0.00000000000E+00  0.00000000000E+00  0.14999999963E+04  0.15000000000E+04  0.10566000000E+00 0.  1.
        994   -1    0    0    0    0 -0.00000000000E+00 -0.00000000000E+00  0.11368683772E-12  0.17120000000E+03  0.17120000000E+03 0.  0.
         13    1    1    2    0    0  0.11168873837E+02  0.10756442549E+02  0.81317751575E+02  0.82783045875E+02  0.10566000000E+00 0.  1.
        994    1    1    2    0    0 -0.29042712807E+02 -0.14859285389E+02  0.47652791073E+01  0.17434570661E+03  0.17120000000E+03 0.  0.
        998    1    1    2    0    0  0.17873838969E+02  0.41028428404E+01  0.14139169656E+04  0.14140712475E+04  0.10000000000E+02 0.  1.
</event>
<event>
 5    1  0.1607440E-008  0.3763380E+03  0.7957747E-01  0.3467260E+00
         13   -1    0    0    0    0  0.00000000000E+00  0.00000000000E+00  0.14999999963E+04  0.15000000000E+04  0.10566000000E+00 0.  1.
        994   -1    0    0    0    0 -0.00000000000E+00 -0.00000000000E+00  0.11368683772E-12  0.17120000000E+03  0.17120000000E+03 0.  0.
         13    1    1    2    0    0  0.19946593940E+02  0.18781427999E+02  0.65958044173E+02  0.71421869218E+02  0.10566000000E+00 0.  1.
        994    1    1    2    0    0  0.54356819680E+01  0.38546682491E+01  0.61435402331E+01  0.17143975091E+03  0.17120000000E+03 0.  0.
        998    1    1    2    0    0 -0.25382275908E+02 -0.22636096248E+02  0.14278984119E+04  0.14283383799E+04  0.10000000000E+02 0.  1.
</event>
<event>
 5    1  0.1607440E-008  0.3842942E+03  0.7957747E-01  0.3432671E+00
         13   -1    0    0    0    0  0.00000000000E+00  0.00000000000E+00  0.14999999963E+04  0.15000000000E+04  0.10566000000E+00 0. -1.
        994   -1    0    0    0    0 -0.00000000000E+00 -0.00000000000E+00  0.11368683772E-12  0.17120000000E+03  0.17120000000E+03 0.  0.
         13    1    1    2    0    0 -0.15972221043E+02  0.16268368821E+02  0.12708995701E+03  0.12911870510E+03  0.10566000000E+00 0. -1.
        994    1    1    2    0    0  0.95418655463E+01 -0.15419242541E+02  0.30654931289E+01  0.17218489332E+03  0.17120000000E+03 0.  0.
        998    1    1    2    0    0  0.64303554971E+01 -0.84912628033E+00  0.13698445461E+04  0.13698964016E+04  0.10000000000E+02 0. -1.
</event>
<event>
 5    1  0.1607440E-008  0.3840080E+03  0.7957747E-01  0.3433890E+00
         13   -1    0    0    0    0  0.00000000000E+00  0.00000000000E+00  0.14999999963E+04  0.15000000000E+04  0.10566000000E+00 0.  1.
        994   -1    0    0    0    0 -0.00000000000E+00 -0.00000000000E+00  0.11368683772E-12  0.17120000000E+03  0.17120000000E+03 0.  0.
         13    1    1    2    0    0 -0.33894394094E+01  0.14745206855E+02  0.60087574437E+02  0.61963192223E+02  0.10566000000E+00 0.  1.
        994    1    1    2    0    0 -0.22410722196E+01  0.11086938909E+02  0.25456684092E+01  0.17159214156E+03  0.17120000000E+03 0.  0.
        998    1    1    2    0    0  0.56305116290E+01 -0.25832145764E+02  0.14373667534E+04  0.14376446662E+04  0.10000000000E+02 0.  1.
</event>
<event>
 5    1  0.1607440E-008  0.3861595E+03  0.7957747E-01  0.3424770E+00
         13   -1    0    0    0    0  0.00000000000E+00  0.00000000000E+00  0.14999999963E+04  0.15000000000E+04  0.10566000000E+00 0.  1.
        994   -1    0    0    0    0 -0.00000000000E+00 -0.00000000000E+00  0.11368683772E-12  0.17120000000E+03  0.17120000000E+03 0.  0.
         13    1    1    2    0    0 -0.96993361692E+01 -0.33928575971E+01  0.50803327045E+02  0.51832208208E+02  0.10566000000E+00 0.  1.
        994    1    1    2    0    0  0.59495528286E+01  0.34818868670E+01  0.12112781345E+01  0.17134301243E+03  0.17120000000E+03 0.  0.
        998    1    1    2    0    0  0.37497833406E+01 -0.89029269960E-01  0.14479853911E+04  0.14480247794E+04  0.10000000000E+02 0.  1.
</event>
<event>
 5    1  0.1607440E-008  0.3841134E+03  0.7957747E-01  0.3433441E+00
         13   -1    0    0    0    0  0.00000000000E+00  0.00000000000E+00  0.14999999963E+04  0.15000000000E+04  0.10566000000E+00 0.  1.
        994   -1    0    0    0    0 -0.00000000000E+00 -0.00000000000E+00  0.11368683772E-12  0.17120000000E+03  0.17120000000E+03 0.  0.
         13    1    1    2    0    0  0.13398422242E+02 -0.11161122907E+02  0.73210338706E+02  0.75258575861E+02  0.10566000000E+00 0.  1.
        994    1    1    2    0    0 -0.84075945660E+01  0.69039388552E+01  0.24614066559E+01  0.17156296378E+03  0.17120000000E+03 0.  0.
        998    1    1    2    0    0 -0.49908276761E+01  0.42571840514E+01  0.14243282509E+04  0.14243784604E+04  0.10000000000E+02 0.  1.
</event>
<event>
 5    1  0.1607440E-008  0.3703782E+03  0.7957747E-01  0.3494155E+00
         13   -1    0    0    0    0  0.00000000000E+00  0.00000000000E+00  0.14999999963E+04  0.15000000000E+04  0.10566000000E+00 0.  1.
        994   -1    0    0    0    0 -0.00000000000E+00 -0.00000000000E+00  0.11368683772E-12  0.17120000000E+03  0.17120000000E+03 0.  0.
         13    1    1    2    0    0  0.26116897223E+02  0.32941484957E+02  0.10099537875E+03  0.10939520760E+03  0.10566000000E+00 0.  1.
        994    1    1    2    0    0 -0.11892190586E+02 -0.74282081280E+00  0.95619513471E+01  0.17188032724E+03  0.17120000000E+03 0.  0.
        998    1    1    2    0    0 -0.14224706637E+02 -0.32198664144E+02  0.13894426662E+04  0.13899244652E+04  0.10000000000E+02 0.  1.
</event>
<event>
 5    1  0.1607440E-008  0.3755871E+03  0.7957747E-01  0.3470601E+00
         13   -1    0    0    0    0  0.00000000000E+00  0.00000000000E+00  0.14999999963E+04  0.15000000000E+04  0.10566000000E+00 0.  1.
        994   -1    0    0    0    0 -0.00000000000E+00 -0.00000000000E+00  0.11368683772E-12  0.17120000000E+03  0.17120000000E+03 0.  0.
         13    1    1    2    0    0 -0.12003254538E+02  0.86377983921E+01  0.14266726032E+02  0.20548486958E+02  0.10566000000E+00 0.  1.
        994    1    1    2    0    0  0.98198957899E+01 -0.84549059208E+01  0.69474047776E+01  0.17183021335E+03  0.17120000000E+03 0.  0.
        998    1    1    2    0    0  0.21833587477E+01 -0.18289247129E+00  0.14787858655E+04  0.14788212997E+04  0.10000000000E+02 0.  1.
</event>
<event>
 5    1  0.1607440E-008  0.3842790E+03  0.7957747E-01  0.3432736E+00
         13   -1    0    0    0    0  0.00000000000E+00  0.00000000000E+00  0.14999999963E+04  0.15000000000E+04  0.10566000000E+00 0. -1.
        994   -1    0    0    0    0 -0.00000000000E+00 -0.00000000000E+00  0.11368683772E-12  0.17120000000E+03  0.17120000000E+03 0.  0.
         13    1    1    2    0    0 -0.64916805020E+01  0.22811765823E+02  0.14285064306E+03  0.14480620139E+03  0.10566000000E+00 0. -1.
        994    1    1    2    0    0 -0.10433012837E+02 -0.16956317580E+02  0.32961634291E+01  0.17238523474E+03  0.17120000000E+03 0.  0.
        998    1    1    2    0    0  0.16924693339E+02 -0.58554482435E+01  0.13538531898E+04  0.13540085639E+04  0.10000000000E+02 0. -1.
</event>
<event>
 5    1  0.1607440E-008  0.3856192E+03  0.7957747E-01  0.3427050E+00
         13   -1    0    0    0    0  0.00000000000E+00  0.00000000000E+00  0.14999999963E+04  0.15000000000E+04  0.10566000000E+00 0. -1.
        994   -1    0    0    0    0 -0.00000000000E+00 -0.00000000000E+00  0.11368683772E-12  0.17120000000E+03  0.17120000000E+03 0.  0.
         13    1    1    2    0    0 -0.14072927730E+00 -0.15971774963E+02  0.92914405701E+02  0.94277332117E+02  0.10566000000E+00 0. -1.
        994    1    1    2    0    0 -0.11838568707E+01  0.15502954328E+02  0.21168211205E+01  0.17191760829E+03  0.17120000000E+03 0.  0.
        998    1    1    2    0    0  0.13245861480E+01  0.46882063452E+00  0.14049687695E+04  0.14050050596E+04  0.10000000000E+02 0. -1.
</event>
<event>
 5    1  0.1607440E-008  0.3849528E+03  0.7957747E-01  0.3429872E+00
         13   -1    0    0    0    0  0.00000000000E+00  0.00000000000E+00  0.14999999963E+04  0.15000000000E+04  0.10566000000E+00 0. -1.
        994   -1    0    0    0    0 -0.00000000000E+00 -0.00000000000E+00  0.11368683772E-12  0.17120000000E+03  0.17120000000E+03 0.  0.
         13    1    1    2    0    0  0.12250914475E+02 -0.37876330261E+01  0.48904766220E+02  0.50558069509E+02  0.10566000000E+00 0. -1.
        994    1    1    2    0    0 -0.97114143289E+01  0.68888697325E+01  0.21199870728E+01  0.17162663674E+03  0.17120000000E+03 0.  0.
        998    1    1    2    0    0 -0.25395001461E+01 -0.31012367064E+01  0.14489752430E+04  0.14490152937E+04  0.10000000000E+02 0. -1.
</event>
<event>
 5    1  0.1607440E-008  0.3766991E+03  0.7957747E-01  0.3465659E+00
         13   -1    0    0    0    0  0.00000000000E+00  0.00000000000E+00  0.14999999963E+04  0.15000000000E+04  0.10566000000E+00 0. -1.
        994   -1    0    0    0    0 -0.00000000000E+00 -0.00000000000E+00  0.11368683772E-12  0.17120000000E+03  0.17120000000E+03 0.  0.
         13    1    1    2    0    0  0.16453901011E+02  0.38797423112E+02  0.16462987519E+03  0.16993815895E+03  0.10566000000E+00 0. -1.
        994    1    1    2    0    0 -0.65653280056E+01 -0.77222198432E+01  0.61560923684E+01  0.17161023770E+03  0.17120000000E+03 0.  0.
        998    1    1    2    0    0 -0.98885730056E+01 -0.31075203269E+02  0.13292140287E+04  0.13296516033E+04  0.10000000000E+02 0. -1.
</event>
<event>
 5    1  0.1607440E-008  0.3836236E+03  0.7957747E-01  0.3435531E+00
         13   -1    0    0    0    0  0.00000000000E+00  0.00000000000E+00  0.14999999963E+04  0.15000000000E+04  0.10566000000E+00 0.  1.
        994   -1    0    0    0    0 -0.00000000000E+00 -0.00000000000E+00  0.11368683772E-12  0.17120000000E+03  0.17120000000E+03 0.  0.
         13    1    1    2    0    0  0.51643689370E+01  0.28197459856E+02  0.15967072565E+03  0.16222367042E+03  0.10566000000E+00 0.  1.
        994    1    1    2    0    0 -0.41886088065E+01 -0.29026821238E+02  0.51614889941E+01  0.17377048588E+03  0.17120000000E+03 0.  0.
        998    1    1    2    0    0 -0.97576013057E+00  0.82936138265E+00  0.13351677816E+04  0.13352058437E+04  0.10000000000E+02 0.  0.
</event>
<event>
 5    1  0.1607440E-008  0.3762084E+03  0.7957747E-01  0.3467836E+00
         13   -1    0    0    0    0  0.00000000000E+00  0.00000000000E+00  0.14999999963E+04  0.15000000000E+04  0.10566000000E+00 0. -1.
        994   -1    0    0    0    0 -0.00000000000E+00 -0.00000000000E+00  0.11368683772E-12  0.17120000000E+03  0.17120000000E+03 0.  0.
         13    1    1    2    0    0  0.21659380134E+02  0.12034496838E+02  0.52197220527E+02  0.57779917417E+02  0.10566000000E+00 0. -1.
        994    1    1    2    0    0  0.19974985746E+02 -0.21407609345E+02  0.89672283400E+01  0.17391704050E+03  0.17120000000E+03 0.  0.
        998    1    1    2    0    0 -0.41634365880E+02  0.93731125071E+01  0.14388355474E+04  0.14395030421E+04  0.10000000000E+02 0. -1.
</event>
<event>
 5    1  0.1607440E-008  0.3845390E+03  0.7957747E-01  0.3431630E+00
         13   -1    0    0    0    0  0.00000000000E+00  0.00000000000E+00  0.14999999963E+04  0.15000000000E+04  0.10566000000E+00 0.  1.
        994   -1    0    0    0    0 -0.00000000000E+00 -0.00000000000E+00  0.11368683772E-12  0.17120000000E+03  0.17120000000E+03 0.  0.
         13    1    1    2    0    0 -0.19308737705E+02 -0.36937526075E+01  0.11827048712E+03  0.11989324605E+03  0.10566000000E+00 0.  1.
        994    1    1    2    0    0 -0.30440181193E+01 -0.26448573184E+01  0.19127542150E+01  0.17125816753E+03  0.17120000000E+03 0.  0.
        998    1    1    2    0    0  0.22352755824E+02  0.63386099259E+01  0.13798167549E+04  0.13800485864E+04  0.10000000000E+02 0.  1.
</event>
<event>
 5    1  0.1607440E-008  0.3698613E+03  0.7957747E-01  0.3496529E+00
         13   -1    0    0    0    0  0.00000000000E+00  0.00000000000E+00  0.14999999963E+04  0.15000000000E+04  0.10566000000E+00 0.  1.
        994   -1    0    0    0    0 -0.00000000000E+00 -0.00000000000E+00  0.11368683772E-12  0.17120000000E+03  0.17120000000E+03 0.  0.
         13    1    1    2    0    0 -0.85978031366E+02  0.11710919703E+03  0.58198047080E+03  0.59984003323E+03  0.10566000000E+00 0.  1.
        994    1    1    2    0    0  0.78298926991E+02 -0.11668361050E+03  0.83432247064E+02  0.23667734741E+03  0.17120000000E+03 0.  0.
        998    1    1    2    0    0  0.76791043754E+01 -0.42558653159E+00  0.83458727841E+03  0.83468261935E+03  0.10000000000E+02 0. -1.
</event>
<event>
 5    1  0.1607440E-008  0.3849835E+03  0.7957747E-01  0.3429742E+00
         13   -1    0    0    0    0  0.00000000000E+00  0.00000000000E+00  0.14999999963E+04  0.15000000000E+04  0.10566000000E+00 0. -1.
        994   -1    0    0    0    0 -0.00000000000E+00 -0.00000000000E+00  0.11368683772E-12  0.17120000000E+03  0.17120000000E+03 0.  0.
         13    1    1    2    0    0  0.50912150291E+01  0.11595614678E+02  0.41468763335E+02  0.43359523139E+02  0.10566000000E+00 0. -1.
        994    1    1    2    0    0 -0.50897755697E+02 -0.23880608126E+02  0.12103823267E+02  0.18060123897E+03  0.17120000000E+03 0.  0.
        998    1    1    2    0    0  0.45806540668E+02  0.12284993448E+02  0.14464274097E+04  0.14472392379E+04  0.10000000000E+02 0. -1.
</event>
<event>
 5    1  0.2313293E-008  0.3847758E+03  0.7957747E-01  0.3430624E+00
         13   -1    0    0    0    0  0.00000000000E+00  0.00000000000E+00  0.14999999963E+04  0.15000000000E+04  0.10566000000E+00 0.  1.
        994   -1    0    0    0    0 -0.00000000000E+00 -0.00000000000E+00  0.11368683772E-12  0.17120000000E+03  0.17120000000E+03 0.  0.
         13    1    1    2    0    0  0.12034358768E+02 -0.42483592833E+01  0.45648620914E+02  0.47399178294E+02  0.10566000000E+00 0.  1.
        994    1    1    2    0    0 -0.11419123212E+02  0.50876257125E+01  0.22560026649E+01  0.17167064355E+03  0.17120000000E+03 0.  0.
        998    1    1    2    0    0 -0.61523555586E+00 -0.83926642928E+00  0.14520953727E+04  0.14521301782E+04  0.10000000000E+02 0.  1.
</event>
<event>
 5    1  0.1607440E-008  0.3830646E+03  0.7957747E-01  0.3437922E+00
         13   -1    0    0    0    0  0.00000000000E+00  0.00000000000E+00  0.14999999963E+04  0.15000000000E+04  0.10566000000E+00 0.  1.
        994   -1    0    0    0    0 -0.00000000000E+00 -0.00000000000E+00  0.11368683772E-12  0.17120000000E+03  0.17120000000E+03 0.  0.
         13    1    1    2    0    0 -0.93971255818E+01  0.11524330291E+02  0.42891861678E+02  0.45396465943E+02  0.10566000000E+00 0.  1.
        994    1    1    2    0    0  0.69069995107E+00 -0.45647811737E+01  0.26646520822E+01  0.17128296665E+03  0.17120000000E+03 0.  0.
        998    1    1    2    0    0  0.87064256308E+01 -0.69595491172E+01  0.14544434825E+04  0.14545205674E+04  0.10000000000E+02 0.  1.
</event>
<event>
 5    1  0.1607440E-008  0.3849481E+03  0.7957747E-01  0.3429893E+00
         13   -1    0    0    0    0  0.00000000000E+00  0.00000000000E+00  0.14999999963E+04  0.15000000000E+04  0.10566000000E+00 0.  1.
        994   -1    0    0    0    0 -0.00000000000E+00 -0.00000000000E+00  0.11368683772E-12  0.17120000000E+03  0.17120000000E+03 0.  0.
         13    1    1    2    0    0  0.62580518448E+01  0.12339805988E+02  0.55443908443E+02  0.57144310060E+02  0.10566000000E+00 0.  1.
        994    1    1    2    0    0 -0.60665638623E+01 -0.15162968760E+02  0.25337149860E+01  0.17199586777E+03  0.17120000000E+03 0.  0.
        998    1    1    2    0    0 -0.19148798253E+00  0.28231627719E+01  0.14420223728E+04  0.14420598222E+04  0.10000000000E+02 0.  1.
</event>
<event>
 5    1  0.1607440E-008  0.2903863E+03  0.7957747E-01  0.3967136E+00
         13   -1    0    0    0    0  0.00000000000E+00  0.00000000000E+00  0.14999999963E+04  0.15000000000E+04  0.10566000000E+00 0.  1.
        994   -1    0    0    0    0 -0.00000000000E+00 -0.00000000000E+00  0.11368683772E-12  0.17120000000E+03  0.17120000000E+03 0.  0.
         13    1    1    2    0    0  0.17564673435E+02  0.15636881960E+03  0.73471707879E+03  0.75137801573E+03  0.10566000000E+00 0.  1.
        994    1    1    2    0    0  0.34496306750E+01 -0.68326153794E+02  0.39754524465E+02  0.18860070376E+03  0.17120000000E+03 0.  0.
        998    1    1    2    0    0 -0.21014304110E+02 -0.88042665809E+02  0.72552839302E+03  0.73122128050E+03  0.10000000000E+02 0.  1.
</event>
<event>
 5    1  0.1607440E-008  0.3810038E+03  0.7957747E-01  0.3446799E+00
         13   -1    0    0    0    0  0.00000000000E+00  0.00000000000E+00  0.14999999963E+04  0.15000000000E+04  0.10566000000E+00 0.  1.
        994   -1    0    0    0    0 -0.00000000000E+00 -0.00000000000E+00  0.11368683772E-12  0.17120000000E+03  0.17120000000E+03 0.  0.
         13    1    1    2    0    0  0.61271990328E+01 -0.22938146401E+02  0.88013460915E+02  0.91159648938E+02  0.10566000000E+00 0.  1.
        994    1    1    2    0    0  0.32120040072E+02 -0.31971550723E+01  0.71065778330E+01  0.17436129795E+03  0.17120000000E+03 0.  0.
        998    1    1    2    0    0 -0.38247239104E+02  0.26135301473E+02  0.14048799575E+04  0.14056790531E+04  0.10000000000E+02 0.  1.
</event>
<event>
 5    1  0.1607440E-008  0.3815550E+03  0.7957747E-01  0.3444416E+00
         13   -1    0    0    0    0  0.00000000000E+00  0.00000000000E+00  0.14999999963E+04  0.15000000000E+04  0.10566000000E+00 0.  1.
        994   -1    0    0    0    0 -0.00000000000E+00 -0.00000000000E+00  0.11368683772E-12  0.17120000000E+03  0.17120000000E+03 0.  0.
         13    1    1    2    0    0  0.26522963910E+02 -0.23857789992E+02  0.17658322801E+03  0.18015079610E+03  0.10566000000E+00 0.  1.
        994    1    1    2    0    0 -0.25117644920E+02  0.16562448158E+02  0.63666582611E+01  0.17394017682E+03  0.17120000000E+03 0.  0.
        998    1    1    2    0    0 -0.14053189904E+01  0.72953418342E+01  0.13170501100E+04  0.13171090271E+04  0.10000000000E+02 0.  1.
</event>
<event>
 5    1  0.1607440E-008  0.3793319E+03  0.7957747E-01  0.3454073E+00
         13   -1    0    0    0    0  0.00000000000E+00  0.00000000000E+00  0.14999999963E+04  0.15000000000E+04  0.10566000000E+00 0.  1.
        994   -1    0    0    0    0 -0.00000000000E+00 -0.00000000000E+00  0.11368683772E-12  0.17120000000E+03  0.17120000000E+03 0.  0.
         13    1    1    2    0    0 -0.10428729541E+02 -0.65500379041E+01  0.15014015896E+02  0.19418888581E+02  0.10566000000E+00 0.  1.
        994    1    1    2    0    0  0.70826173047E+01  0.61216813570E+01  0.47644382761E+01  0.17152194706E+03  0.17120000000E+03 0.  0.
        998    1    1    2    0    0  0.33461122361E+01  0.42835654715E+00  0.14802215421E+04  0.14802591644E+04  0.10000000000E+02 0.  1.
</event>
<event>
 5    1  0.1607440E-008  0.3847413E+03  0.7957747E-01  0.3430770E+00
         13   -1    0    0    0    0  0.00000000000E+00  0.00000000000E+00  0.14999999963E+04  0.15000000000E+04  0.10566000000E+00 0. -1.
        994   -1    0    0    0    0 -0.00000000000E+00 -0.00000000000E+00  0.11368683772E-12  0.17120000000E+03  0.17120000000E+03 0.  0.
         13    1    1    2    0    0 -0.11061716029E+02 -0.10498844882E+02  0.73706052541E+02  0.75267394339E+02  0.10566000000E+00 0. -1.
        994    1    1    2    0    0 -0.39350126052E+01 -0.54709108547E+01  0.19081085512E+01  0.17134321133E+03  0.17120000000E+03 0.  0.
        998    1    1    2    0    0  0.14996728634E+02  0.15969755737E+02  0.14243858352E+04  0.14245893943E+04  0.10000000000E+02 0. -1.
</event>
<event>
 5    1  0.1607440E-008  0.3822740E+03  0.7957747E-01  0.3441316E+00
         13   -1    0    0    0    0  0.00000000000E+00  0.00000000000E+00  0.14999999963E+04  0.15000000000E+04  0.10566000000E+00 0. -1.
        994   -1    0    0    0    0 -0.00000000000E+00 -0.00000000000E+00  0.11368683772E-12  0.17120000000E+03  0.17120000000E+03 0.  0.
         13    1    1    2    0    0 -0.34424149792E+02  0.14383885129E+02  0.20611535381E+03  0.20946471894E+03  0.10566000000E+00 0. -1.
        994    1    1    2    0    0  0.35172096748E+02 -0.77385637281E+01  0.73048977250E+01  0.17509929551E+03  0.17120000000E+03 0.  0.
        998    1    1    2    0    0 -0.74794695673E+00 -0.66453214008E+01  0.12865797447E+04  0.12866359855E+04  0.10000000000E+02 0. -1.
</event>
<event>
 5    1  0.1607440E-008  0.3839759E+03  0.7957747E-01  0.3434027E+00
         13   -1    0    0    0    0  0.00000000000E+00  0.00000000000E+00  0.14999999963E+04  0.15000000000E+04  0.10566000000E+00 0.  1.
        994   -1    0    0    0    0 -0.00000000000E+00 -0.00000000000E+00  0.11368683772E-12  0.17120000000E+03  0.17120000000E+03 0.  0.
         13    1    1    2    0    0 -0.40489753346E+02  0.22261312232E+03  0.11970933454E+04  0.12182891739E+04  0.10566000000E+00 0.  1.
        994    1    1    2    0    0  0.32838535087E+02 -0.22422615655E+03  0.19559634177E+03  0.34485229821E+03  0.17120000000E+03 0.  0.
        998    1    1    2    0    0  0.76512182588E+01  0.16130342282E+01  0.10731030909E+03  0.10805852793E+03  0.10000000000E+02 0.  1.
</event>
<event>
 5    1  0.1607440E-008  0.3855859E+03  0.7957747E-01  0.3427191E+00
         13   -1    0    0    0    0  0.00000000000E+00  0.00000000000E+00  0.14999999963E+04  0.15000000000E+04  0.10566000000E+00 0. -1.
        994   -1    0    0    0    0 -0.00000000000E+00 -0.00000000000E+00  0.11368683772E-12  0.17120000000E+03  0.17120000000E+03 0.  0.
         13    1    1    2    0    0  0.92191551553E+01  0.10698433865E+02  0.76206310993E+02  0.77503950274E+02  0.10566000000E+00 0. -1.
        994    1    1    2    0    0 -0.11222411691E+01 -0.82948808323E+01  0.15695614367E+01  0.17141169154E+03  0.17120000000E+03 0.  0.
        998    1    1    2    0    0 -0.80969139861E+01 -0.24035530332E+01  0.14222241238E+04  0.14222843582E+04  0.10000000000E+02 0. -1.
</event>
<event>
 5    1  0.1607440E-008  0.3837122E+03  0.7957747E-01  0.3435152E+00
         13   -1    0    0    0    0  0.00000000000E+00  0.00000000000E+00  0.14999999963E+04  0.15000000000E+04  0.10566000000E+00 0.  1.
        994   -1    0    0    0    0 -0.00000000000E+00 -0.00000000000E+00  0.11368683772E-12  0.17120000000E+03  0.17120000000E+03 0.  0.
         13    1    1    2    0    0  0.50075004384E+00  0.16339674017E+02  0.60728794673E+02  0.62890646078E+02  0.10566000000E+00 0.  1.
        994    1    1    2    0    0 -0.30598590986E+01 -0.28979089197E+01  0.23294952687E+01  0.17126770613E+03  0.17120000000E+03 0.  0.
        998    1    1    2    0    0  0.25591090548E+01 -0.13441765097E+02  0.14369417063E+04  0.14370416478E+04  0.10000000000E+02 0.  1.
</event>
<event>
 5    1  0.1607440E-008  0.3741030E+03  0.7957747E-01  0.3477244E+00
         13   -1    0    0    0    0  0.00000000000E+00  0.00000000000E+00  0.14999999963E+04  0.15000000000E+04  0.10566000000E+00 0.  1.
        994   -1    0    0    0    0 -0.00000000000E+00 -0.00000000000E+00  0.11368683772E-12  0.17120000000E+03  0.17120000000E+03 0.  0.
         13    1    1    2    0    0  0.53162512963E+02  0.47856648406E+02  0.31291691129E+03  0.32098834265E+03  0.10566000000E+00 0.  1.
        994    1    1    2    0    0 -0.37472265145E+02 -0.45722002883E+02  0.19150216497E+02  0.18212864408E+03  0.17120000000E+03 0.  0.
        998    1    1    2    0    0 -0.15690247818E+02 -0.21346455226E+01  0.11679328685E+04  0.11680830133E+04  0.10000000000E+02 0.  1.
</event>
<event>
 5    1  0.1607440E-008  0.3844403E+03  0.7957747E-01  0.3432049E+00
         13   -1    0    0    0    0  0.00000000000E+00  0.00000000000E+00  0.14999999963E+04  0.15000000000E+04  0.10566000000E+00 0.  1.
        994   -1    0    0    0    0 -0.00000000000E+00 -0.00000000000E+00  0.11368683772E-12  0.17120000000E+03  0.17120000000E+03 0.  0.
         13    1    1    2    0    0 -0.10702943168E+02 -0.81250017140E+01  0.49283657263E+02  0.51082860947E+02  0.10566000000E+00 0.  1.
        994    1    1    2    0    0  0.80691960348E+01 -0.10666048631E+02  0.24978112634E+01  0.17173979032E+03  0.17120000000E+03 0.  0.
        998    1    1    2    0    0  0.26337471332E+01  0.18791050345E+02  0.14482185278E+04  0.14483773487E+04  0.10000000000E+02 0.  1.
</event>
<event>
 5    1  0.1607440E-008  0.3846432E+03  0.7957747E-01  0.3431187E+00
         13   -1    0    0    0    0  0.00000000000E+00  0.00000000000E+00  0.14999999963E+04  0.15000000000E+04  0.10566000000E+00 0. -1.
        994   -1    0    0    0    0 -0.00000000000E+00 -0.00000000000E+00  0.11368683772E-12  0.17120000000E+03  0.17120000000E+03 0.  0.
         13    1    1    2    0    0  0.92665419660E+01 -0.41315209326E+01  0.28097651173E+02  0.29873523909E+02  0.10566000000E+00 0. -1.
        994    1    1    2    0    0 -0.48888943381E+01  0.58352727670E+01  0.19982076517E+01  0.17138081728E+03  0.17120000000E+03 0.  0.
        998    1    1    2    0    0 -0.43776476279E+01 -0.17037518344E+01  0.14699041375E+04  0.14699456588E+04  0.10000000000E+02 0. -1.
</event>
<event>
 5    1  0.1607440E-008  0.3850332E+03  0.7957747E-01  0.3429531E+00
         13   -1    0    0    0    0  0.00000000000E+00  0.00000000000E+00  0.14999999963E+04  0.15000000000E+04  0.10566000000E+00 0.  1.
        994   -1    0    0    0    0 -0.00000000000E+00 -0.00000000000E+00  0.11368683772E-12  0.17120000000E+03  0.17120000000E+03 0.  0.
         13    1    1    2    0    0  0.13998911549E+02 -0.66858190086E+00  0.67038528975E+02  0.68487897160E+02  0.10566000000E+00 0.  1.
        994    1    1    2    0    0  0.54531908123E+01  0.12678038746E+01  0.17167237775E+01  0.17130012188E+03  0.17120000000E+03 0.  0.
        998    1    1    2    0    0 -0.19452102361E+02 -0.59922197372E+00  0.14312447435E+04  0.14314119810E+04  0.10000000000E+02 0.  1.
</event>
<event>
 5    1  0.1607440E-008  0.3718600E+03  0.7957747E-01  0.3487386E+00
         13   -1    0    0    0    0  0.00000000000E+00  0.00000000000E+00  0.14999999963E+04  0.15000000000E+04  0.10566000000E+00 0. -1.
        994   -1    0    0    0    0 -0.00000000000E+00 -0.00000000000E+00  0.11368683772E-12  0.17120000000E+03  0.17120000000E+03 0.  0.
         13    1    1    2    0    0  0.29097462196E+02  0.17790255142E+00  0.48021245204E+02  0.56149310864E+02  0.10566000000E+00 0. -1.
        994    1    1    2    0    0 -0.17609513474E+02 -0.17527515982E+01  0.93767489876E+01  0.17236742884E+03  0.17120000000E+03 0.  0.
        998    1    1    2    0    0 -0.11487948722E+02  0.15748490467E+01  0.14426020021E+04  0.14426832603E+04  0.10000000000E+02 0. -1.
</event>
<event>
 5    1  0.1607440E-008  0.3805668E+03  0.7957747E-01  0.3448694E+00
         13   -1    0    0    0    0  0.00000000000E+00  0.00000000000E+00  0.14999999963E+04  0.15000000000E+04  0.10566000000E+00 0. -1.
        994   -1    0    0    0    0 -0.00000000000E+00 -0.00000000000E+00  0.11368683772E-12  0.17120000000E+03  0.17120000000E+03 0.  0.
         13    1    1    2    0    0 -0.88295886660E+01 -0.80734834194E+01  0.17186715948E+02  0.20941278367E+02  0.10566000000E+00 0. -1.
        994    1    1    2    0    0  0.15690165620E+02 -0.11420550879E+02  0.51049047574E+01  0.17237201145E+03  0.17120000000E+03 0.  0.
        998    1    1    2    0    0 -0.68605769538E+01  0.19494034298E+02  0.14777083756E+04  0.14778867102E+04  0.10000000000E+02 0. -1.
</event>
<event>
 5    1  0.1607440E-008  0.3789971E+03  0.7957747E-01  0.3455537E+00
         13   -1    0    0    0    0  0.00000000000E+00  0.00000000000E+00  0.14999999963E+04  0.15000000000E+04  0.10566000000E+00 0. -1.
        994   -1    0    0    0    0 -0.00000000000E+00 -0.00000000000E+00  0.11368683772E-12  0.17120000000E+03  0.17120000000E+03 0.  0.
         13    1    1    2    0    0  0.10242700385E+02  0.46356067254E+02  0.21145868931E+03  0.21672237155E+03  0.10566000000E+00 0. -1.
        994    1    1    2    0    0 -0.17355637319E+02 -0.43227428487E+02  0.11952627995E+02  0.17782613429E+03  0.17120000000E+03 0.  0.
        998    1    1    2    0    0  0.71129369344E+01 -0.31286387678E+01  0.12765886790E+04  0.12766514942E+04  0.10000000000E+02 0. -1.
</event>
<event>
 5    1  0.1607440E-008  0.3701922E+03  0.7957747E-01  0.3495008E+00
         13   -1    0    0    0    0  0.00000000000E+00  0.00000000000E+00  0.14999999963E+04  0.15000000000E+04  0.10566000000E+00 0. -1.
        994   -1    0    0    0    0 -0.00000000000E+00 -0.00000000000E+00  0.11368683772E-12  0.17120000000E+03  0.17120000000E+03 0.  0.
         13    1    1    2    0    0  0.19440228322E+02  0.67081594320E+02  0.33027044002E+03  0.33757434364E+03  0.10566000000E+00 0. -1.
        994    1    1    2    0    0  0.23800197895E+02 -0.17176594465E+02  0.12151138896E+02  0.17412229896E+03  0.17120000000E+03 0.  0.
        998    1    1    2    0    0 -0.43240426217E+02 -0.49904999855E+02  0.11575784174E+04  0.11595033574E+04  0.10000000000E+02 0. -1.
</event>
<event>
 5    1  0.1607440E-008  0.3821263E+03  0.7957747E-01  0.3441952E+00
         13   -1    0    0    0    0  0.00000000000E+00  0.00000000000E+00  0.14999999963E+04  0.15000000000E+04  0.10566000000E+00 0.  1.
        994   -1    0    0    0    0 -0.00000000000E+00 -0.00000000000E+00  0.11368683772E-12  0.17120000000E+03  0.17120000000E+03 0.  0.
         13    1    1    2    0    0  0.20596197224E+01  0.14885020344E+02  0.35431930297E+02  0.38486864157E+02  0.10566000000E+00 0.  1.
        994    1    1    2    0    0 -0.24312367920E+01 -0.12478073447E+02  0.36002843044E+01  0.17170910074E+03  0.17120000000E+03 0.  0.
        998    1    1    2    0    0  0.37161706958E+00 -0.24069468974E+01  0.14609677817E+04  0.14610040351E+04  0.10000000000E+02 0.  1.
</event>
<event>
 5    1  0.1607440E-008  0.3801284E+03  0.7957747E-01  0.3450599E+00
         13   -1    0    0    0    0  0.00000000000E+00  0.00000000000E+00  0.14999999963E+04  0.15000000000E+04  0.10566000000E+00 0.  1.
        994   -1    0    0    0    0 -0.00000000000E+00 -0.00000000000E+00  0.11368683772E-12  0.17120000000E+03  0.17120000000E+03 0.  0.
         13    1    1    2    0    0 -0.20874783824E+02  0.27418445319E+02  0.11960671878E+03  0.12447210967E+03  0.10566000000E+00 0.  1.
        994    1    1    2    0    0  0.16335672225E+02 -0.56853704723E+02  0.15850788610E+02  0.18182377575E+03  0.17120000000E+03 0.  0.
        998    1    1    2    0    0  0.45391115985E+01  0.29435259404E+02  0.13645424889E+04  0.13649041146E+04  0.10000000000E+02 0.  1.
</event>
<event>
 5    1  0.1607440E-008  0.3753172E+03  0.7957747E-01  0.3471805E+00
         13   -1    0    0    0    0  0.00000000000E+00  0.00000000000E+00  0.14999999963E+04  0.15000000000E+04  0.10566000000E+00 0. -1.
        994   -1    0    0    0    0 -0.00000000000E+00 -0.00000000000E+00  0.11368683772E-12  0.17120000000E+03  0.17120000000E+03 0.  0.
         13    1    1    2    0    0  0.11218949430E+02  0.76032507476E+01  0.11180654489E+02  0.17569645617E+02  0.10566000000E+00 0. -1.
        994    1    1    2    0    0 -0.91717665687E+01 -0.43245107225E+01  0.68651554191E+01  0.17163738828E+03  0.17120000000E+03 0.  0.
        998    1    1    2    0    0 -0.20471828618E+01 -0.32787400251E+01  0.14819541864E+04  0.14819929661E+04  0.10000000000E+02 0. -1.
</event>
<event>
 5    1  0.1607440E-008  0.3864391E+03  0.7957747E-01  0.3423592E+00
         13   -1    0    0    0    0  0.00000000000E+00  0.00000000000E+00  0.14999999963E+04  0.15000000000E+04  0.10566000000E+00 0.  1.
        994   -1    0    0    0    0 -0.00000000000E+00 -0.00000000000E+00  0.11368683772E-12  0.17120000000E+03  0.17120000000E+03 0.  0.
         13    1    1    2    0    0  0.60983303422E+01  0.89308109306E+01  0.62146989211E+02  0.63080967406E+02  0.10566000000E+00 0.  1.
        994    1    1    2    0    0 -0.12542707919E+01 -0.14810774007E+02  0.16408610819E+01  0.17185186833E+03  0.17120000000E+03 0.  0.
        998    1    1    2    0    0 -0.48440595503E+01  0.58799630764E+01  0.14362121460E+04  0.14362671643E+04  0.10000000000E+02 0.  1.
</event>
<event>
 5    1  0.1607440E-008  0.3857900E+03  0.7957747E-01  0.3426329E+00
         13   -1    0    0    0    0  0.00000000000E+00  0.00000000000E+00  0.14999999963E+04  0.15000000000E+04  0.10566000000E+00 0.  1.
        994   -1    0    0    0    0 -0.00000000000E+00 -0.00000000000E+00  0.11368683772E-12  0.17120000000E+03  0.17120000000E+03 0.  0.
         13    1    1    2    0    0 -0.64579884564E+02  0.21216179599E+02  0.10840937901E+03  0.12795816656E+03  0.10566000000E+00 0.  1.
        994    1    1    2    0    0  0.56163067644E+02 -0.87562598684E+01  0.31606193653E+02  0.18313752682E+03  0.17120000000E+03 0.  0.
        998    1    1    2    0    0  0.84168169192E+01 -0.12459919731E+02  0.13599844236E+04  0.13601043066E+04  0.10000000000E+02 0.  1.
</event>
<event>
 5    1  0.1607440E-008  0.3843896E+03  0.7957747E-01  0.3432265E+00
         13   -1    0    0    0    0  0.00000000000E+00  0.00000000000E+00  0.14999999963E+04  0.15000000000E+04  0.10566000000E+00 0.  1.
        994   -1    0    0    0    0 -0.00000000000E+00 -0.00000000000E+00  0.11368683772E-12  0.17120000000E+03  0.17120000000E+03 0.  0.
         13    1    1    2    0    0  0.10036978613E+02  0.14678222685E+02  0.86511027236E+02  0.88319647634E+02  0.10566000000E+00 0.  1.
        994    1    1    2    0    0 -0.69303123267E+01  0.14386360601E+01  0.20985813061E+01  0.17135910523E+03  0.17120000000E+03 0.  0.
        998    1    1    2    0    0 -0.31066662860E+01 -0.16116858746E+02  0.14113903877E+04  0.14115212471E+04  0.10000000000E+02 0.  1.
</event>
<event>
 5    1  0.1607440E-008  0.3825474E+03  0.7957747E-01  0.3440141E+00
         13   -1    0    0    0    0  0.00000000000E+00  0.00000000000E+00  0.14999999963E+04  0.15000000000E+04  0.10566000000E+00 0. -1.
        994   -1    0    0    0    0 -0.00000000000E+00 -0.00000000000E+00  0.11368683772E-12  0.17120000000E+03  0.17120000000E+03 0.  0.
         13    1    1    2    0    0 -0.25302560993E+02 -0.14693646686E+02  0.13874696440E+03  0.14179863942E+03  0.10566000000E+00 0. -1.
        994    1    1    2    0    0  0.26225860264E+02  0.10003932184E+02  0.54689300240E+01  0.17357195511E+03  0.17120000000E+03 0.  0.
        998    1    1    2    0    0 -0.92329927059E+00  0.46897145014E+01  0.13557841019E+04  0.13558294055E+04  0.10000000000E+02 0. -1.
</event>
<event>
 5    1  0.1607440E-008  0.3812702E+03  0.7957747E-01  0.3445646E+00
         13   -1    0    0    0    0  0.00000000000E+00  0.00000000000E+00  0.14999999963E+04  0.15000000000E+04  0.10566000000E+00 0.  1.
        994   -1    0    0    0    0 -0.00000000000E+00 -0.00000000000E+00  0.11368683772E-12  0.17120000000E+03  0.17120000000E+03 0.  0.
         13    1    1    2    0    0  0.98689162766E+01  0.29519074639E+01  0.13528011212E+02  0.17003750102E+02  0.10566000000E+00 0.  1.
        994    1    1    2    0    0 -0.12464072167E+02 -0.19860096551E+01  0.40238084467E+01  0.17171175954E+03  0.17120000000E+03 0.  0.
        998    1    1    2    0    0  0.25951558902E+01 -0.96589780883E+00  0.14824481766E+04  0.14824844904E+04  0.10000000000E+02 0.  1.
</event>
<event>
 5    1  0.1607440E-008  0.3723567E+03  0.7957747E-01  0.3485130E+00
         13   -1    0    0    0    0  0.00000000000E+00  0.00000000000E+00  0.14999999963E+04  0.15000000000E+04  0.10566000000E+00 0. -1.
        994   -1    0    0    0    0 -0.00000000000E+00 -0.00000000000E+00  0.11368683772E-12  0.17120000000E+03  0.17120000000E+03 0.  0.
         13    1    1    2    0    0  0.39565247465E+02  0.59794878367E+02  0.30670212000E+03  0.31497148738E+03  0.10566000000E+00 0. -1.
        994    1    1    2    0    0  0.21275404830E+02  0.10299534458E+02  0.14162409416E+02  0.17340339415E+03  0.17120000000E+03 0.  0.
        998    1    1    2    0    0 -0.60840652295E+02 -0.70094412825E+02  0.11791354669E+04  0.11828251185E+04  0.10000000000E+02 0. -1.
</event>
<event>
 5    1  0.1607440E-008  0.3817415E+03  0.7957747E-01  0.3443611E+00
         13   -1    0    0    0    0  0.00000000000E+00  0.00000000000E+00  0.14999999963E+04  0.15000000000E+04  0.10566000000E+00 0.  1.
        994   -1    0    0    0    0 -0.00000000000E+00 -0.00000000000E+00  0.11368683772E-12  0.17120000000E+03  0.17120000000E+03 0.  0.
         13    1    1    2    0    0  0.42667393849E+01  0.11641556954E+02  0.22606201124E+02  0.25783374615E+02  0.10566000000E+00 0.  1.
        994    1    1    2    0    0  0.79221970231E+01 -0.76402106008E+01  0.36593712196E+01  0.17159243871E+03  0.17120000000E+03 0.  0.
        998    1    1    2    0    0 -0.12188936408E+02 -0.40013463528E+01  0.14737344239E+04  0.14738241867E+04  0.10000000000E+02 0.  1.
</event>
<event>
 5    1  0.1607440E-008  0.4059943E+03  0.7957747E-01  0.3345237E+00
         13   -1    0    0    0    0  0.00000000000E+00  0.00000000000E+00  0.14999999963E+04  0.15000000000E+04  0.10566000000E+00 0. -1.
        994   -1    0    0    0    0 -0.00000000000E+00 -0.00000000000E+00  0.11368683772E-12  0.17120000000E+03  0.17120000000E+03 0.  0.
         13    1    1    2    0    0 -0.31889500009E+02  0.21199490119E+02  0.10321693391E+02  0.39659892973E+02  0.10566000000E+00 0. -1.
        994    1    1    2    0    0  0.39412202009E+02 -0.21651621906E+02  0.39568075063E+02  0.18137581692E+03  0.17120000000E+03 0.  0.
        998    1    1    2    0    0 -0.75227020002E+01  0.45213178674E+00  0.14501102278E+04  0.14501642901E+04  0.10000000000E+02 0. -1.
</event>
<event>
 5    1  0.1607440E-008  0.3808718E+03  0.7957747E-01  0.3447371E+00
         13   -1    0    0    0    0  0.00000000000E+00  0.00000000000E+00  0.14999999963E+04  0.15000000000E+04  0.10566000000E+00 0. -1.
        994   -1    0    0    0    0 -0.00000000000E+00 -0.00000000000E+00  0.11368683772E-12  0.17120000000E+03  0.17120000000E+03 0.  0.
         13    1    1    2    0    0 -0.12080343830E+02  0.21234059040E+02  0.83746586371E+02  0.87237158730E+02  0.10566000000E+00 0. -1.
        994    1    1    2    0    0 -0.37591113202E+01 -0.77441050979E+01  0.39407820384E+01  0.17146157542E+03  0.17120000000E+03 0.  0.
        998    1    1    2    0    0  0.15839455150E+02 -0.13489953942E+02  0.14123126279E+04  0.14125012659E+04  0.10000000000E+02 0. -1.
</event>
<event>
 5    1  0.1607440E-008  0.3854809E+03  0.7957747E-01  0.3427635E+00
         13   -1    0    0    0    0  0.00000000000E+00  0.00000000000E+00  0.14999999963E+04  0.15000000000E+04  0.10566000000E+00 0.  1.
        994   -1    0    0    0    0 -0.00000000000E+00 -0.00000000000E+00  0.11368683772E-12  0.17120000000E+03  0.17120000000E+03 0.  0.
         13    1    1    2    0    0  0.41518066052E+01 -0.91985773258E+01  0.39602249739E+02  0.40868088668E+02  0.10566000000E+00 0.  1.
        994    1    1    2    0    0 -0.44553585127E+01 -0.99637172905E+01  0.17828332182E+01  0.17155682550E+03  0.17120000000E+03 0.  0.
        998    1    1    2    0    0  0.30355190751E+00  0.19162294616E+02  0.14586149133E+04  0.14587750858E+04  0.10000000000E+02 0.  1.
</event>
<event>
 5    1  0.1607440E-008  0.3799813E+03  0.7957747E-01  0.3451240E+00
         13   -1    0    0    0    0  0.00000000000E+00  0.00000000000E+00  0.14999999963E+04  0.15000000000E+04  0.10566000000E+00 0. -1.
        994   -1    0    0    0    0 -0.00000000000E+00 -0.00000000000E+00  0.11368683772E-12  0.17120000000E+03  0.17120000000E+03 0.  0.
         13    1    1    2    0    0  0.16223333554E+01  0.10341688010E+02  0.11504213023E+02  0.15554438522E+02  0.10566000000E+00 0. -1.
        994    1    1    2    0    0  0.12552281451E+02 -0.58872420877E+01  0.47854340668E+01  0.17182712175E+03  0.17120000000E+03 0.  0.
        998    1    1    2    0    0 -0.14174614807E+02 -0.44544459223E+01  0.14837103492E+04  0.14838184397E+04  0.10000000000E+02 0. -1.
</event>
<event>
 5    1  0.1607440E-008  0.3802104E+03  0.7957747E-01  0.3450243E+00
         13   -1    0    0    0    0  0.00000000000E+00  0.00000000000E+00  0.14999999963E+04  0.15000000000E+04  0.10566000000E+00 0. -1.
        994   -1    0    0    0    0 -0.00000000000E+00 -0.00000000000E+00  0.11368683772E-12  0.17120000000E+03  0.17120000000E+03 0.  0.
         13    1    1    2    0    0  0.16124777138E+02 -0.14244982791E+02  0.56793464086E+02  0.60732501179E+02  0.10566000000E+00 0. -1.
        994    1    1    2    0    0 -0.41617502562E+01  0.11019024821E+02  0.44906004057E+01  0.17166346311E+03  0.17120000000E+03 0.  0.
        998    1    1    2    0    0 -0.11963026881E+02  0.32259579694E+01  0.14387159318E+04  0.14388040357E+04  0.10000000000E+02 0. -1.
</event>
<event>
 5    1  0.1607440E-008  0.3762445E+03  0.7957747E-01  0.3467675E+00
         13   -1    0    0    0    0  0.00000000000E+00  0.00000000000E+00  0.14999999963E+04  0.15000000000E+04  0.10566000000E+00 0. -1.
        994   -1    0    0    0    0 -0.00000000000E+00 -0.00000000000E+00  0.11368683772E-12  0.17120000000E+03  0.17120000000E+03 0.  0.
         13    1    1    2    0    0  0.45038965005E+02  0.22203873370E+02  0.24857376518E+03  0.25359504779E+03  0.10566000000E+00 0. -1.
        994    1    1    2    0    0  0.12218349573E+00 -0.82594571440E+01  0.62720328323E+01  0.17151388269E+03  0.17120000000E+03 0.  0.
        998    1    1    2    0    0 -0.45161148501E+02 -0.13944416226E+02  0.12451541983E+04  0.12460910695E+04  0.10000000000E+02 0. -1.
</event>
<event>
 5    1  0.1607440E-008  0.3784094E+03  0.7957747E-01  0.3458114E+00
         13   -1    0    0    0    0  0.00000000000E+00  0.00000000000E+00  0.14999999963E+04  0.15000000000E+04  0.10566000000E+00 0. -1.
        994   -1    0    0    0    0 -0.00000000000E+00 -0.00000000000E+00  0.11368683772E-12  0.17120000000E+03  0.17120000000E+03 0.  0.
         13    1    1    2    0    0  0.96144788639E+01 -0.37463808150E+02  0.13604556285E+03  0.14143684619E+03  0.10566000000E+00 0. -1.
        994    1    1    2    0    0 -0.84094647951E+01  0.39491630163E+02  0.10436605108E+02  0.17620632984E+03  0.17120000000E+03 0.  0.
        998    1    1    2    0    0 -0.12050140689E+01 -0.20278220131E+01  0.13535178283E+04  0.13535568240E+04  0.10000000000E+02 0.  0.
</event>
<event>
 5    1  0.1607440E-008  0.3846089E+03  0.7957747E-01  0.3431333E+00
         13   -1    0    0    0    0  0.00000000000E+00  0.00000000000E+00  0.14999999963E+04  0.15000000000E+04  0.10566000000E+00 0. -1.
        994   -1    0    0    0    0 -0.00000000000E+00 -0.00000000000E+00  0.11368683772E-12  0.17120000000E+03  0.17120000000E+03 0.  0.
         13    1    1    2    0    0 -0.13353901658E+02 -0.14385666250E+02  0.10223155759E+03  0.10409887902E+03  0.10566000000E+00 0. -1.
        994    1    1    2    0    0  0.12939526954E+02  0.10519843029E+02  0.27406953083E+01  0.17203211870E+03  0.17120000000E+03 0.  0.
        998    1    1    2    0    0  0.41437470412E+00  0.38658232212E+01  0.13950277434E+04  0.13950690023E+04  0.10000000000E+02 0. -1.
</event>
<event>
 5    1  0.1607440E-008  0.3825978E+03  0.7957747E-01  0.3439924E+00
         13   -1    0    0    0    0  0.00000000000E+00  0.00000000000E+00  0.14999999963E+04  0.15000000000E+04  0.10566000000E+00 0.  1.
        994   -1    0    0    0    0 -0.00000000000E+00 -0.00000000000E+00  0.11368683772E-12  0.17120000000E+03  0.17120000000E+03 0.  0.
         13    1    1    2    0    0  0.79997860312E+00  0.10597245856E+02  0.18599031682E+02  0.21421408195E+02  0.10566000000E+00 0.  1.
        994    1    1    2    0    0 -0.64424277344E+01 -0.12066699219E+02  0.34479069616E+01  0.17178020307E+03  0.17120000000E+03 0.  0.
        998    1    1    2    0    0  0.56424491313E+01  0.14694533633E+01  0.14779530576E+04  0.14779983887E+04  0.10000000000E+02 0.  1.
</event>
<event>
 5    1  0.1607440E-008  0.3794646E+03  0.7957747E-01  0.3453493E+00
         13   -1    0    0    0    0  0.00000000000E+00  0.00000000000E+00  0.14999999963E+04  0.15000000000E+04  0.10566000000E+00 0. -1.
        994   -1    0    0    0    0 -0.00000000000E+00 -0.00000000000E+00  0.11368683772E-12  0.17120000000E+03  0.17120000000E+03 0.  0.
         13    1    1    2    0    0 -0.95343951861E+01 -0.12420313222E+02  0.26540041974E+02  0.30814831885E+02  0.10566000000E+00 0. -1.
        994    1    1    2    0    0 -0.11490887190E+02  0.14068340280E+02  0.55094322046E+01  0.17224910023E+03  0.17120000000E+03 0.  0.
        998    1    1    2    0    0  0.21025282376E+02 -0.16480270585E+01  0.14679505221E+04  0.14681360679E+04  0.10000000000E+02 0. -1.
</event>
<event>
 5    1  0.1607440E-008  0.3696325E+03  0.7957747E-01  0.3497582E+00
         13   -1    0    0    0    0  0.00000000000E+00  0.00000000000E+00  0.14999999963E+04  0.15000000000E+04  0.10566000000E+00 0.  1.
        994   -1    0    0    0    0 -0.00000000000E+00 -0.00000000000E+00  0.11368683772E-12  0.17120000000E+03  0.17120000000E+03 0.  0.
         13    1    1    2    0    0 -0.10012578908E+02  0.97007366795E+01  0.59406803022E+01  0.15154500157E+02  0.10566000000E+00 0.  1.
        994    1    1    2    0    0  0.85349718265E+01 -0.80862178322E+01  0.99400044945E+01  0.17189088502E+03  0.17120000000E+03 0.  0.
        998    1    1    2    0    0  0.14776070814E+01 -0.16145188473E+01  0.14841193115E+04  0.14841546148E+04  0.10000000000E+02 0.  1.
</event>
<event>
 5    1  0.2424303E-008  0.3807842E+03  0.7957747E-01  0.3447751E+00
         13   -1    0    0    0    0  0.00000000000E+00  0.00000000000E+00  0.14999999963E+04  0.15000000000E+04  0.10566000000E+00 0.  1.
        994   -1    0    0    0    0 -0.00000000000E+00 -0.00000000000E+00  0.11368683772E-12  0.17120000000E+03  0.17120000000E+03 0.  0.
         13    1    1    2    0    0  0.18342155293E+01 -0.11140850696E+02  0.15357481154E+02  0.19061644532E+02  0.10566000000E+00 0.  1.
        994    1    1    2    0    0 -0.30522309311E+00  0.11043920411E+02  0.41449060571E+01  0.17160618166E+03  0.17120000000E+03 0.  0.
        998    1    1    2    0    0 -0.15289924361E+01  0.96930284970E-01  0.14804976091E+04  0.14805321738E+04  0.10000000000E+02 0.  1.
</event>
<event>
 5    1  0.1607440E-008  0.3838056E+03  0.7957747E-01  0.3434754E+00
         13   -1    0    0    0    0  0.00000000000E+00  0.00000000000E+00  0.14999999963E+04  0.15000000000E+04  0.10566000000E+00 0.  1.
        994   -1    0    0    0    0 -0.00000000000E+00 -0.00000000000E+00  0.11368683772E-12  0.17120000000E+03  0.17120000000E+03 0.  0.
         13    1    1    2    0    0  0.12191061088E+02 -0.24292027040E+02  0.15677406040E+03  0.15911266991E+03  0.10566000000E+00 0.  1.
        994    1    1    2    0    0 -0.24132630654E+02  0.13723379837E+02  0.47729291191E+01  0.17350197656E+03  0.17120000000E+03 0.  0.
        998    1    1    2    0    0  0.11941569566E+02  0.10568647202E+02  0.13384530068E+04  0.13385853535E+04  0.10000000000E+02 0.  1.
</event>
<event>
 5    1  0.1607440E-008  0.3785254E+03  0.7957747E-01  0.3457605E+00
         13   -1    0    0    0    0  0.00000000000E+00  0.00000000000E+00  0.14999999963E+04  0.15000000000E+04  0.10566000000E+00 0.  1.
        994   -1    0    0    0    0 -0.00000000000E+00 -0.00000000000E+00  0.11368683772E-12  0.17120000000E+03  0.17120000000E+03 0.  0.
         13    1    1    2    0    0 -0.18637636304E+02 -0.17398991827E+01  0.33874280729E+02  0.38702284107E+02  0.10566000000E+00 0.  1.
        994    1    1    2    0    0  0.13201565720E+02  0.29297449660E+01  0.54939239793E+01  0.17182109284E+03  0.17120000000E+03 0.  0.
        998    1    1    2    0    0  0.54360705838E+01 -0.11898457832E+01  0.14606317916E+04  0.14606766231E+04  0.10000000000E+02 0.  1.
</event>
<event>
 5    1  0.1607440E-008  0.3843788E+03  0.7957747E-01  0.3432311E+00
         13   -1    0    0    0    0  0.00000000000E+00  0.00000000000E+00  0.14999999963E+04  0.15000000000E+04  0.10566000000E+00 0. -1.
        994   -1    0    0    0    0 -0.00000000000E+00 -0.00000000000E+00  0.11368683772E-12  0.17120000000E+03  0.17120000000E+03 0.  0.
         13    1    1    2    0    0 -0.12208304227E+02 -0.10183793408E+02  0.65827304539E+02  0.67719993555E+02  0.10566000000E+00 0. -1.
        994    1    1    2    0    0  0.60247753552E+01  0.52480364955E+01  0.21492788413E+01  0.17139982265E+03  0.17120000000E+03 0.  0.
        998    1    1    2    0    0  0.61835288715E+01  0.49357569126E+01  0.14320234129E+04  0.14320801838E+04  0.10000000000E+02 0. -1.
</event>
<event>
 5    1  0.1607440E-008  0.3726566E+03  0.7957747E-01  0.3483770E+00
         13   -1    0    0    0    0  0.00000000000E+00  0.00000000000E+00  0.14999999963E+04  0.15000000000E+04  0.10566000000E+00 0. -1.
        994   -1    0    0    0    0 -0.00000000000E+00 -0.00000000000E+00  0.11368683772E-12  0.17120000000E+03  0.17120000000E+03 0.  0.
         13    1    1    2    0    0 -0.69690443846E+01  0.27597891454E+02  0.27539811575E+02  0.39606357797E+02  0.10566000000E+00 0. -1.
        994    1    1    2    0    0  0.18002853048E+02 -0.19726335375E+02  0.14871390514E+02  0.17390753083E+03  0.17120000000E+03 0.  0.
        998    1    1    2    0    0 -0.11033808664E+02 -0.78715560790E+01  0.14575887942E+04  0.14576861114E+04  0.10000000000E+02 0. -1.
</event>
<event>
 5    1  0.1607440E-008  0.4135243E+03  0.7957747E-01  0.3317029E+00
         13   -1    0    0    0    0  0.00000000000E+00  0.00000000000E+00  0.14999999963E+04  0.15000000000E+04  0.10566000000E+00 0.  1.
        994   -1    0    0    0    0 -0.00000000000E+00 -0.00000000000E+00  0.11368683772E-12  0.17120000000E+03  0.17120000000E+03 0.  0.
         13    1    1    2    0    0  0.78021978610E+02  0.25572873754E+02  0.78816040095E+02  0.11381291824E+03  0.10566000000E+00 0.  1.
        994    1    1    2    0    0 -0.73050603539E+02 -0.29607901442E+02  0.62376577126E+02  0.19852782142E+03  0.17120000000E+03 0.  0.
        998    1    1    2    0    0 -0.49713750705E+01  0.40350276878E+01  0.13588073791E+04  0.13588592603E+04  0.10000000000E+02 0.  1.
</event>
<event>
 5    1  0.2699516E-008  0.3820581E+03  0.7957747E-01  0.3442246E+00
         13   -1    0    0    0    0  0.00000000000E+00  0.00000000000E+00  0.14999999963E+04  0.15000000000E+04  0.10566000000E+00 0.  1.
        994   -1    0    0    0    0 -0.00000000000E+00 -0.00000000000E+00  0.11368683772E-12  0.17120000000E+03  0.17120000000E+03 0.  0.
         13    1    1    2    0    0 -0.60670530280E+01 -0.82537314000E+01  0.15585152052E+02  0.18650505167E+02  0.10566000000E+00 0.  1.
        994    1    1    2    0    0  0.66772652448E+01  0.66656240576E+01  0.33934447792E+01  0.17149335813E+03  0.17120000000E+03 0.  0.
        998    1    1    2    0    0 -0.61021221679E+00  0.15881073425E+01  0.14810213994E+04  0.14810561367E+04  0.10000000000E+02 0.  1.
</event>
<event>
 5    1  0.1607440E-008  0.3712673E+03  0.7957747E-01  0.3490087E+00
         13   -1    0    0    0    0  0.00000000000E+00  0.00000000000E+00  0.14999999963E+04  0.15000000000E+04  0.10566000000E+00 0. -1.
        994   -1    0    0    0    0 -0.00000000000E+00 -0.00000000000E+00  0.11368683772E-12  0.17120000000E+03  0.17120000000E+03 0.  0.
         13    1    1    2    0    0  0.91594762968E+02 -0.57305461446E+02  0.42526325202E+03  0.43877370158E+03  0.10566000000E+00 0. -1.
        994    1    1    2    0    0 -0.97535751707E+02  0.70022153202E+02  0.60002265566E+02  0.21754548185E+03  0.17120000000E+03 0.  0.
        998    1    1    2    0    0  0.59409887387E+01 -0.12716691756E+02  0.10147344787E+04  0.10148808166E+04  0.10000000000E+02 0.  1.
</event>
<event>
 5    1  0.1614262E-008  0.3840620E+03  0.7957747E-01  0.3433660E+00
         13   -1    0    0    0    0  0.00000000000E+00  0.00000000000E+00  0.14999999963E+04  0.15000000000E+04  0.10566000000E+00 0.  1.
        994   -1    0    0    0    0 -0.00000000000E+00 -0.00000000000E+00  0.11368683772E-12  0.17120000000E+03  0.17120000000E+03 0.  0.
         13    1    1    2    0    0  0.86716426809E+01  0.63597788722E+01  0.26838348294E+02  0.28912839315E+02  0.10566000000E+00 0.  1.
        994    1    1    2    0    0 -0.63243081798E+01 -0.62304589635E+01  0.23565883788E+01  0.17144622773E+03  0.17120000000E+03 0.  0.
        998    1    1    2    0    0 -0.23473345011E+01 -0.12931990873E+00  0.14708050596E+04  0.14708409330E+04  0.10000000000E+02 0.  1.
</event>
<event>
 5    1  0.1607440E-008  0.3838790E+03  0.7957747E-01  0.3434441E+00
         13   -1    0    0    0    0  0.00000000000E+00  0.00000000000E+00  0.14999999963E+04  0.15000000000E+04  0.10566000000E+00 0.  1.
        994   -1    0    0    0    0 -0.00000000000E+00 -0.00000000000E+00  0.11368683772E-12  0.17120000000E+03  0.17120000000E+03 0.  0.
         13    1    1    2    0    0 -0.76216964409E+01 -0.12391506142E+02  0.51194499832E+02  0.53221496204E+02  0.10566000000E+00 0.  1.
        994    1    1    2    0    0  0.34347306803E+01 -0.66212103826E+01  0.23713916058E+01  0.17137882395E+03  0.17120000000E+03 0.  0.
        998    1    1    2    0    0  0.41869657606E+01  0.19012716524E+02  0.14464341048E+04  0.14465996798E+04  0.10000000000E+02 0.  1.
</event>
<event>
 5    1  0.1607440E-008  0.3810554E+03  0.7957747E-01  0.3446576E+00
         13   -1    0    0    0    0  0.00000000000E+00  0.00000000000E+00  0.14999999963E+04  0.15000000000E+04  0.10566000000E+00 0.  1.
        994   -1    0    0    0    0 -0.00000000000E+00 -0.00000000000E+00  0.11368683772E-12  0.17120000000E+03  0.17120000000E+03 0.  0.
         13    1    1    2    0    0  0.29842713679E+02  0.42123054573E+02  0.28720586153E+03  0.29180842576E+03  0.10566000000E+00 0.  1.
        994    1    1    2    0    0 -0.39062681291E+02 -0.41503663060E+02  0.14499596818E+02  0.18101968242E+03  0.17120000000E+03 0.  0.
        998    1    1    2    0    0  0.92199676119E+01 -0.61939151222E+00  0.11982945379E+04  0.11983718918E+04  0.10000000000E+02 0.  1.
</event>
<event>
 5    1  0.1607440E-008  0.3692452E+03  0.7957747E-01  0.3499367E+00
         13   -1    0    0    0    0  0.00000000000E+00  0.00000000000E+00  0.14999999963E+04  0.15000000000E+04  0.10566000000E+00 0.  1.
        994   -1    0    0    0    0 -0.00000000000E+00 -0.00000000000E+00  0.11368683772E-12  0.17120000000E+03  0.17120000000E+03 0.  0.
         13    1    1    2    0    0  0.65328072443E+02  0.12375457693E+03  0.75938650603E+03  0.77217279742E+03  0.10566000000E+00 0.  1.
        994    1    1    2    0    0 -0.95559121089E+02 -0.78626944254E+02  0.64795584018E+02  0.22095621669E+03  0.17120000000E+03 0.  0.
        998    1    1    2    0    0  0.30231048646E+02 -0.45127632675E+02  0.67581790623E+03  0.67807098589E+03  0.10000000000E+02 0. -1.
</event>
<event>
 5    1  0.1607440E-008  0.3833808E+03  0.7957747E-01  0.3436569E+00
         13   -1    0    0    0    0  0.00000000000E+00  0.00000000000E+00  0.14999999963E+04  0.15000000000E+04  0.10566000000E+00 0.  1.
        994   -1    0    0    0    0 -0.00000000000E+00 -0.00000000000E+00  0.11368683772E-12  0.17120000000E+03  0.17120000000E+03 0.  0.
         13    1    1    2    0    0 -0.17466950928E+01  0.19473605081E+02  0.89396854252E+02  0.91510004660E+02  0.10566000000E+00 0.  1.
        994    1    1    2    0    0 -0.13334981457E+02  0.82265266678E+01  0.32482119672E+01  0.17194617865E+03  0.17120000000E+03 0.  0.
        998    1    1    2    0    0  0.15081676550E+02 -0.27700131749E+02  0.14073549301E+04  0.14077438167E+04  0.10000000000E+02 0.  1.
</event>
<event>
 5    1  0.1607440E-008  0.3760738E+03  0.7957747E-01  0.3468434E+00
         13   -1    0    0    0    0  0.00000000000E+00  0.00000000000E+00  0.14999999963E+04  0.15000000000E+04  0.10566000000E+00 0.  1.
        994   -1    0    0    0    0 -0.00000000000E+00 -0.00000000000E+00  0.11368683772E-12  0.17120000000E+03  0.17120000000E+03 0.  0.
         13    1    1    2    0    0 -0.52257773140E+02  0.16145405028E+02  0.21271273480E+03  0.21963211893E+03  0.10566000000E+00 0.  1.
        994    1    1    2    0    0  0.51632388448E+02 -0.91060479919E+01  0.15495842686E+02  0.17971751386E+03  0.17120000000E+03 0.  0.
        998    1    1    2    0    0  0.62538469155E+00 -0.70393570363E+01  0.12717914188E+04  0.12718503672E+04  0.10000000000E+02 0.  1.
</event>
<event>
 5    1  0.1607440E-008  0.3789415E+03  0.7957747E-01  0.3455781E+00
         13   -1    0    0    0    0  0.00000000000E+00  0.00000000000E+00  0.14999999963E+04  0.15000000000E+04  0.10566000000E+00 0.  1.
        994   -1    0    0    0    0 -0.00000000000E+00 -0.00000000000E+00  0.11368683772E-12  0.17120000000E+03  0.17120000000E+03 0.  0.
         13    1    1    2    0    0 -0.22555329094E+02 -0.37379915524E+01  0.53763528873E+02  0.58422971957E+02  0.10566000000E+00 0.  1.
        994    1    1    2    0    0  0.17858440825E+02 -0.30010212826E+01  0.57692895077E+01  0.17225171912E+03  0.17120000000E+03 0.  0.
        998    1    1    2    0    0  0.46968882692E+01  0.67390128350E+01  0.14404671779E+04  0.14405253089E+04  0.10000000000E+02 0.  1.
</event>
<event>
 5    1  0.1607440E-008  0.3711721E+03  0.7957747E-01  0.3490521E+00
         13   -1    0    0    0    0  0.00000000000E+00  0.00000000000E+00  0.14999999963E+04  0.15000000000E+04  0.10566000000E+00 0.  1.
        994   -1    0    0    0    0 -0.00000000000E+00 -0.00000000000E+00  0.11368683772E-12  0.17120000000E+03  0.17120000000E+03 0.  0.
         13    1    1    2    0    0 -0.11512603884E+02 -0.71681763918E+01  0.65553072801E+01  0.15063399966E+02  0.10566000000E+00 0.  1.
        994    1    1    2    0    0  0.14562809707E+02  0.97125424977E+01  0.97135816640E+01  0.17236647753E+03  0.17120000000E+03 0.  0.
        998    1    1    2    0    0 -0.30502058228E+01 -0.25443661059E+01  0.14837311073E+04  0.14837701225E+04  0.10000000000E+02 0.  1.
</event>
<event>
 5    1  0.1607440E-008  0.3745163E+03  0.7957747E-01  0.3475389E+00
         13   -1    0    0    0    0  0.00000000000E+00  0.00000000000E+00  0.14999999963E+04  0.15000000000E+04  0.10566000000E+00 0. -1.
        994   -1    0    0    0    0 -0.00000000000E+00 -0.00000000000E+00  0.11368683772E-12  0.17120000000E+03  0.17120000000E+03 0.  0.
         13    1    1    2    0    0  0.34513251439E+02 -0.22439272765E+01  0.96827927257E+02  0.10281954287E+03  0.10566000000E+00 0. -1.
        994    1    1    2    0    0  0.12984043278E+02 -0.53360380461E+01  0.75985635232E+01  0.17194253938E+03  0.17120000000E+03 0.  0.
        998    1    1    2    0    0 -0.47497294717E+02  0.75799653226E+01  0.13955735055E+04  0.13964379177E+04  0.10000000000E+02 0. -1.
</event>
<event>
 5    1  0.1640171E-008  0.3864763E+03  0.7957747E-01  0.3423435E+00
         13   -1    0    0    0    0  0.00000000000E+00  0.00000000000E+00  0.14999999963E+04  0.15000000000E+04  0.10566000000E+00 0. -1.
        994   -1    0    0    0    0 -0.00000000000E+00 -0.00000000000E+00  0.11368683772E-12  0.17120000000E+03  0.17120000000E+03 0.  0.
         13    1    1    2    0    0 -0.11325690470E+02  0.43706943458E+01  0.72908009103E+02  0.73911860950E+02  0.10566000000E+00 0. -1.
        994    1    1    2    0    0  0.22243934528E+02 -0.84432834046E+01  0.27539257326E+01  0.17286730681E+03  0.17120000000E+03 0.  0.
        998    1    1    2    0    0 -0.10918244058E+02  0.40725890588E+01  0.14243380614E+04  0.14244208322E+04  0.10000000000E+02 0. -1.
</event>
<event>
 5    1  0.1607440E-008  0.3798913E+03  0.7957747E-01  0.3451632E+00
         13   -1    0    0    0    0  0.00000000000E+00  0.00000000000E+00  0.14999999963E+04  0.15000000000E+04  0.10566000000E+00 0.  1.
        994   -1    0    0    0    0 -0.00000000000E+00 -0.00000000000E+00  0.11368683772E-12  0.17120000000E+03  0.17120000000E+03 0.  0.
         13    1    1    2    0    0 -0.43298373598E+02 -0.37330525331E+02  0.26785321075E+03  0.27388623724E+03  0.10566000000E+00 0.  1.
        994    1    1    2    0    0  0.59024106579E+02  0.51188201910E+02  0.24878550078E+02  0.18982217844E+03  0.17120000000E+03 0.  0.
        998    1    1    2    0    0 -0.15725732981E+02 -0.13857676579E+02  0.12072682355E+04  0.12074915843E+04  0.10000000000E+02 0. -1.
</event>
<event>
 5    1  0.1607440E-008  0.3852397E+03  0.7957747E-01  0.3428656E+00
         13   -1    0    0    0    0  0.00000000000E+00  0.00000000000E+00  0.14999999963E+04  0.15000000000E+04  0.10566000000E+00 0. -1.
        994   -1    0    0    0    0 -0.00000000000E+00 -0.00000000000E+00  0.11368683772E-12  0.17120000000E+03  0.17120000000E+03 0.  0.
         13    1    1    2    0    0  0.13093875773E+02  0.29353525534E+01  0.57164420428E+02  0.58718378761E+02  0.10566000000E+00 0. -1.
        994    1    1    2    0    0 -0.15645215332E+02 -0.34793221850E+01  0.23557559670E+01  0.17196472903E+03  0.17120000000E+03 0.  0.
        998    1    1    2    0    0  0.25513395594E+01  0.54396963157E+00  0.14404798199E+04  0.14405168922E+04  0.10000000000E+02 0. -1.
</event>
<event>
 5    1  0.1607440E-008  0.3714276E+03  0.7957747E-01  0.3489356E+00
         13   -1    0    0    0    0  0.00000000000E+00  0.00000000000E+00  0.14999999963E+04  0.15000000000E+04  0.10566000000E+00 0.  1.
        994   -1    0    0    0    0 -0.00000000000E+00 -0.00000000000E+00  0.11368683772E-12  0.17120000000E+03  0.17120000000E+03 0.  0.
         13    1    1    2    0    0  0.37746995771E+00  0.55606895470E+02  0.10751586607E+03  0.12104520614E+03  0.10566000000E+00 0.  1.
        994    1    1    2    0    0 -0.16007097985E+02 -0.83465496558E+02  0.37525453147E+02  0.19478274034E+03  0.17120000000E+03 0.  0.
        998    1    1    2    0    0  0.15629628027E+02  0.27858601088E+02  0.13549586771E+04  0.13553720535E+04  0.10000000000E+02 0.  1.
</event>
<event>
 5    1  0.1607440E-008  0.3860737E+03  0.7957747E-01  0.3425131E+00
         13   -1    0    0    0    0  0.00000000000E+00  0.00000000000E+00  0.14999999963E+04  0.15000000000E+04  0.10566000000E+00 0. -1.
        994   -1    0    0    0    0 -0.00000000000E+00 -0.00000000000E+00  0.11368683772E-12  0.17120000000E+03  0.17120000000E+03 0.  0.
         13    1    1    2    0    0  0.12221058698E+02 -0.25816665791E+01  0.74273475053E+02  0.75316528986E+02  0.10566000000E+00 0. -1.
        994    1    1    2    0    0 -0.30983583294E+01  0.70448116484E+01  0.12921213636E+01  0.17137776627E+03  0.17120000000E+03 0.  0.
        998    1    1    2    0    0 -0.91227003685E+01 -0.44631450692E+01  0.14244343999E+04  0.14245057047E+04  0.10000000000E+02 0. -1.
</event>
<event>
 5    1  0.2581663E-008  0.3863066E+03  0.7957747E-01  0.3424150E+00
         13   -1    0    0    0    0  0.00000000000E+00  0.00000000000E+00  0.14999999963E+04  0.15000000000E+04  0.10566000000E+00 0.  1.
        994   -1    0    0    0    0 -0.00000000000E+00 -0.00000000000E+00  0.11368683772E-12  0.17120000000E+03  0.17120000000E+03 0.  0.
         13    1    1    2    0    0  0.41855917051E+01 -0.97189928779E+01  0.55017022447E+02  0.56025547061E+02  0.10566000000E+00 0.  1.
        994    1    1    2    0    0 -0.32888333833E+01  0.14060120240E+02  0.16659139879E+01  0.17181594418E+03  0.17120000000E+03 0.  0.
        998    1    1    2    0    0 -0.89675832176E+00 -0.43411273621E+01  0.14433170598E+04  0.14433585088E+04  0.10000000000E+02 0.  1.
</event>
<event>
 5    1  0.1607440E-008  0.3698173E+03  0.7957747E-01  0.3496731E+00
         13   -1    0    0    0    0  0.00000000000E+00  0.00000000000E+00  0.14999999963E+04  0.15000000000E+04  0.10566000000E+00 0. -1.
        994   -1    0    0    0    0 -0.00000000000E+00 -0.00000000000E+00  0.11368683772E-12  0.17120000000E+03  0.17120000000E+03 0.  0.
         13    1    1    2    0    0 -0.73325075498E+01 -0.42907640206E+02  0.10546943507E+03  0.11409927323E+03  0.10566000000E+00 0. -1.
        994    1    1    2    0    0  0.32551666391E+01  0.72435113112E+01  0.95828307505E+01  0.17165178476E+03  0.17120000000E+03 0.  0.
        998    1    1    2    0    0  0.40773409107E+01  0.35664128895E+02  0.13849477305E+04  0.13854489420E+04  0.10000000000E+02 0. -1.
</event>
<event>
 5    1  0.1607440E-008  0.3714905E+03  0.7957747E-01  0.3489069E+00
         13   -1    0    0    0    0  0.00000000000E+00  0.00000000000E+00  0.14999999963E+04  0.15000000000E+04  0.10566000000E+00 0. -1.
        994   -1    0    0    0    0 -0.00000000000E+00 -0.00000000000E+00  0.11368683772E-12  0.17120000000E+03  0.17120000000E+03 0.  0.
         13    1    1    2    0    0  0.42343384689E+02  0.47684510694E+02  0.14792575214E+03  0.16108635602E+03  0.10566000000E+00 0. -1.
        994    1    1    2    0    0 -0.60048100420E+02 -0.43215811039E+02  0.31221462224E+02  0.18909680164E+03  0.17120000000E+03 0.  0.
        998    1    1    2    0    0  0.17704715730E+02 -0.44686996558E+01  0.13208527819E+04  0.13210168423E+04  0.10000000000E+02 0. -1.
</event>
<event>
 5    1  0.1607440E-008  0.3772569E+03  0.7957747E-01  0.3463190E+00
         13   -1    0    0    0    0  0.00000000000E+00  0.00000000000E+00  0.14999999963E+04  0.15000000000E+04  0.10566000000E+00 0. -1.
        994   -1    0    0    0    0 -0.00000000000E+00 -0.00000000000E+00  0.11368683772E-12  0.17120000000E+03  0.17120000000E+03 0.  0.
         13    1    1    2    0    0  0.80056961094E+02 -0.42465687469E+02  0.49108899231E+03  0.49938047736E+03  0.10566000000E+00 0. -1.
        994    1    1    2    0    0 -0.79930895751E+02  0.43231240770E+02  0.33909975103E+02  0.19676690445E+03  0.17120000000E+03 0.  0.
        998    1    1    2    0    0 -0.12606534300E+00 -0.76555330041E+00  0.97500102886E+03  0.97505261820E+03  0.10000000000E+02 0.  0.
</event>
<event>
 5    1  0.1607440E-008  0.3841924E+03  0.7957747E-01  0.3433105E+00
         13   -1    0    0    0    0  0.00000000000E+00  0.00000000000E+00  0.14999999963E+04  0.15000000000E+04  0.10566000000E+00 0.  1.
        994   -1    0    0    0    0 -0.00000000000E+00 -0.00000000000E+00  0.11368683772E-12  0.17120000000E+03  0.17120000000E+03 0.  0.
         13    1    1    2    0    0  0.15593669507E+02  0.85261922953E+01  0.82070049228E+02  0.83972392059E+02  0.10566000000E+00 0.  1.
        994    1    1    2    0    0  0.50495164477E+01 -0.14785036881E+02  0.28368911822E+01  0.17193482161E+03  0.17120000000E+03 0.  0.
        998    1    1    2    0    0 -0.20643185955E+02  0.62588445857E+01  0.14150930559E+04  0.14152927863E+04  0.10000000000E+02 0.  1.
</event>
<event>
 5    1  0.1607440E-008  0.3791196E+03  0.7957747E-01  0.3455001E+00
         13   -1    0    0    0    0  0.00000000000E+00  0.00000000000E+00  0.14999999963E+04  0.15000000000E+04  0.10566000000E+00 0.  1.
        994   -1    0    0    0    0 -0.00000000000E+00 -0.00000000000E+00  0.11368683772E-12  0.17120000000E+03  0.17120000000E+03 0.  0.
         13    1    1    2    0    0  0.13685690463E+03  0.51200863477E+02  0.85281256769E+03  0.86524021378E+03  0.10566000000E+00 0.  1.
        994    1    1    2    0    0 -0.14561132793E+03 -0.38309406455E+02  0.84773486474E+02  0.24324114260E+03  0.17120000000E+03 0.  0.
        998    1    1    2    0    0  0.87544233022E+01 -0.12891457022E+02  0.56241394211E+03  0.56271864362E+03  0.10000000000E+02 0.  0.
</event>
<event>
 5    1  0.1607440E-008  0.3771119E+03  0.7957747E-01  0.3463831E+00
         13   -1    0    0    0    0  0.00000000000E+00  0.00000000000E+00  0.14999999963E+04  0.15000000000E+04  0.10566000000E+00 0.  1.
        994   -1    0    0    0    0 -0.00000000000E+00 -0.00000000000E+00  0.11368683772E-12  0.17120000000E+03  0.17120000000E+03 0.  0.
         13    1    1    2    0    0 -0.26879577261E+02  0.16390186878E+02  0.26955083282E+02  0.41445597817E+02  0.10566000000E+00 0.  1.
        994    1    1    2    0    0  0.26699371541E+02 -0.20309129335E+02  0.18795343064E+02  0.17546515921E+03  0.17120000000E+03 0.  0.
        998    1    1    2    0    0  0.18020571984E+00  0.39189424572E+01  0.14542495699E+04  0.14542892430E+04  0.10000000000E+02 0.  1.
</event>
<event>
 5    1  0.1607440E-008  0.3841176E+03  0.7957747E-01  0.3433423E+00
         13   -1    0    0    0    0  0.00000000000E+00  0.00000000000E+00  0.14999999963E+04  0.15000000000E+04  0.10566000000E+00 0. -1.
        994   -1    0    0    0    0 -0.00000000000E+00 -0.00000000000E+00  0.11368683772E-12  0.17120000000E+03  0.17120000000E+03 0.  0.
         13    1    1    2    0    0  0.62695534664E+01  0.80631624265E+01  0.24898898386E+02  0.26912602881E+02  0.10566000000E+00 0. -1.
        994    1    1    2    0    0 -0.34203631046E+01 -0.22230991195E+01  0.21237403809E+01  0.17126176259E+03  0.17120000000E+03 0.  0.
        998    1    1    2    0    0 -0.28491903619E+01 -0.58400633071E+01  0.14729773575E+04  0.14730256345E+04  0.10000000000E+02 0. -1.
</event>
<event>
 5    1  0.1607440E-008  0.3823185E+03  0.7957747E-01  0.3441125E+00
         13   -1    0    0    0    0  0.00000000000E+00  0.00000000000E+00  0.14999999963E+04  0.15000000000E+04  0.10566000000E+00 0.  1.
        994   -1    0    0    0    0 -0.00000000000E+00 -0.00000000000E+00  0.11368683772E-12  0.17120000000E+03  0.17120000000E+03 0.  0.
         13    1    1    2    0    0 -0.23006975437E+02  0.71975474926E+01  0.94538187298E+02  0.97563341632E+02  0.10566000000E+00 0.  1.
        994    1    1    2    0    0  0.18003574818E+02 -0.72540597391E+01  0.42182022048E+01  0.17234843579E+03  0.17120000000E+03 0.  0.
        998    1    1    2    0    0  0.50034006189E+01  0.56512246514E-01  0.14012436068E+04  0.14012882226E+04  0.10000000000E+02 0.  1.
</event>
<event>
 5    1  0.1607440E-008  0.3779642E+03  0.7957747E-01  0.3460071E+00
         13   -1    0    0    0    0  0.00000000000E+00  0.00000000000E+00  0.14999999963E+04  0.15000000000E+04  0.10566000000E+00 0.  1.
        994   -1    0    0    0    0 -0.00000000000E+00 -0.00000000000E+00  0.11368683772E-12  0.17120000000E+03  0.17120000000E+03 0.  0.
         13    1    1    2    0    0 -0.25277637750E+02  0.11437224291E+01  0.58908980759E+02  0.64113541856E+02  0.10566000000E+00 0.  1.
        994    1    1    2    0    0  0.21501616888E+02  0.15103754146E+01  0.67295792619E+01  0.17268273799E+03  0.17120000000E+03 0.  0.
        998    1    1    2    0    0  0.37760208615E+01 -0.26540978437E+01  0.14343614363E+04  0.14344037202E+04  0.10000000000E+02 0.  1.
</event>
<event>
 5    1  0.1607440E-008  0.3810250E+03  0.7957747E-01  0.3446707E+00
         13   -1    0    0    0    0  0.00000000000E+00  0.00000000000E+00  0.14999999963E+04  0.15000000000E+04  0.10566000000E+00 0. -1.
        994   -1    0    0    0    0 -0.00000000000E+00 -0.00000000000E+00  0.11368683772E-12  0.17120000000E+03  0.17120000000E+03 0.  0.
         13    1    1    2    0    0  0.13248522885E+02  0.26837279328E+02  0.11664125431E+03  0.12041991651E+03  0.10566000000E+00 0. -1.
        994    1    1    2    0    0 -0.82016993860E+01 -0.25563284640E+02  0.60215913658E+01  0.17339679627E+03  0.17120000000E+03 0.  0.
        998    1    1    2    0    0 -0.50468234989E+01 -0.12739946887E+01  0.13773371506E+04  0.13773832872E+04  0.10000000000E+02 0. -1.
</event>
<event>
 5    1  0.1607440E-008  0.3805133E+03  0.7957747E-01  0.3448927E+00
         13   -1    0    0    0    0  0.00000000000E+00  0.00000000000E+00  0.14999999963E+04  0.15000000000E+04  0.10566000000E+00 0.  1.
        994   -1    0    0    0    0 -0.00000000000E+00 -0.00000000000E+00  0.11368683772E-12  0.17120000000E+03  0.17120000000E+03 0.  0.
         13    1    1    2    0    0 -0.23799639491E+02 -0.13261556731E+01  0.72516052724E+02  0.76333286288E+02  0.10566000000E+00 0.  1.
        994    1    1    2    0    0  0.13490102107E+02 -0.24648490774E+01  0.45021169638E+01  0.17180735547E+03  0.17120000000E+03 0.  0.
        998    1    1    2    0    0  0.10309537384E+02  0.37910047504E+01  0.14229818266E+04  0.14230593582E+04  0.10000000000E+02 0.  1.
</event>
<event>
 5    1  0.1607440E-008  0.3817546E+03  0.7957747E-01  0.3443554E+00
         13   -1    0    0    0    0  0.00000000000E+00  0.00000000000E+00  0.14999999963E+04  0.15000000000E+04  0.10566000000E+00 0. -1.
        994   -1    0    0    0    0 -0.00000000000E+00 -0.00000000000E+00  0.11368683772E-12  0.17120000000E+03  0.17120000000E+03 0.  0.
         13    1    1    2    0    0 -0.15018417112E+02  0.83160203015E+01  0.42650667605E+02  0.45976077012E+02  0.10566000000E+00 0. -1.
        994    1    1    2    0    0  0.15314505463E+02 -0.14897352138E+02  0.47686391114E+01  0.17259387329E+03  0.17120000000E+03 0.  0.
        998    1    1    2    0    0 -0.29608835173E+00  0.65813318366E+01  0.14525806896E+04  0.14526300497E+04  0.10000000000E+02 0. -1.
</event>
<event>
 5    1  0.1607440E-008  0.3791187E+03  0.7957747E-01  0.3455005E+00
         13   -1    0    0    0    0  0.00000000000E+00  0.00000000000E+00  0.14999999963E+04  0.15000000000E+04  0.10566000000E+00 0. -1.
        994   -1    0    0    0    0 -0.00000000000E+00 -0.00000000000E+00  0.11368683772E-12  0.17120000000E+03  0.17120000000E+03 0.  0.
         13    1    1    2    0    0 -0.48011477823E+02  0.26107032987E+01  0.22619487229E+03  0.23124889013E+03  0.10566000000E+00 0. -1.
        994    1    1    2    0    0  0.42242778230E+02  0.92179019183E+01  0.10871920904E+02  0.17690975296E+03  0.17120000000E+03 0.  0.
        998    1    1    2    0    0  0.57686995927E+01 -0.11828605217E+02  0.12629332031E+04  0.12630413569E+04  0.10000000000E+02 0. -1.
</event>
<event>
 5    1  0.1607440E-008  0.3846684E+03  0.7957747E-01  0.3431080E+00
         13   -1    0    0    0    0  0.00000000000E+00  0.00000000000E+00  0.14999999963E+04  0.15000000000E+04  0.10566000000E+00 0. -1.
        994   -1    0    0    0    0 -0.00000000000E+00 -0.00000000000E+00  0.11368683772E-12  0.17120000000E+03  0.17120000000E+03 0.  0.
         13    1    1    2    0    0  0.50317619168E+00 -0.10353192002E+02  0.30149890184E+02  0.31882108040E+02  0.10566000000E+00 0. -1.
        994    1    1    2    0    0 -0.47473495016E+01  0.22516760248E+01  0.18857551353E+01  0.17129099055E+03  0.17120000000E+03 0.  0.
        998    1    1    2    0    0  0.42441733099E+01  0.81015159769E+01  0.14679643510E+04  0.14680269014E+04  0.10000000000E+02 0. -1.
</event>
<event>
 5    1  0.1607440E-008  0.3843733E+03  0.7957747E-01  0.3432334E+00
         13   -1    0    0    0    0  0.00000000000E+00  0.00000000000E+00  0.14999999963E+04  0.15000000000E+04  0.10566000000E+00 0. -1.
        994   -1    0    0    0    0 -0.00000000000E+00 -0.00000000000E+00  0.11368683772E-12  0.17120000000E+03  0.17120000000E+03 0.  0.
         13    1    1    2    0    0 -0.20107071251E+02 -0.68531400817E+01  0.10419526647E+03  0.10633872560E+03  0.10566000000E+00 0. -1.
        994    1    1    2    0    0  0.26041491205E+02  0.10423156261E+02  0.45386737528E+01  0.17354204393E+03  0.17120000000E+03 0.  0.
        998    1    1    2    0    0 -0.59344199536E+01 -0.35700161791E+01  0.13912660561E+04  0.13913192305E+04  0.10000000000E+02 0. -1.
</event>
<event>
 5    1  0.1607440E-008  0.3849483E+03  0.7957747E-01  0.3429891E+00
         13   -1    0    0    0    0  0.00000000000E+00  0.00000000000E+00  0.14999999963E+04  0.15000000000E+04  0.10566000000E+00 0. -1.
        994   -1    0    0    0    0 -0.00000000000E+00 -0.00000000000E+00  0.11368683772E-12  0.17120000000E+03  0.17120000000E+03 0.  0.
         13    1    1    2    0    0 -0.13327717592E+02  0.32454980587E+01  0.57166739662E+02  0.58789527992E+02  0.10566000000E+00 0. -1.
        994    1    1    2    0    0  0.64378855472E+01 -0.72707544559E+01  0.19660682932E+01  0.17148648829E+03  0.17120000000E+03 0.  0.
        998    1    1    2    0    0  0.68898320447E+01  0.40252563972E+01  0.14408671883E+04  0.14409239837E+04  0.10000000000E+02 0. -1.
</event>
<event>
 5    1  0.1607440E-008  0.3785859E+03  0.7957747E-01  0.3457339E+00
         13   -1    0    0    0    0  0.00000000000E+00  0.00000000000E+00  0.14999999963E+04  0.15000000000E+04  0.10566000000E+00 0.  1.
        994   -1    0    0    0    0 -0.00000000000E+00 -0.00000000000E+00  0.11368683772E-12  0.17120000000E+03  0.17120000000E+03 0.  0.
         13    1    1    2    0    0 -0.14843965787E+02  0.36791243515E+02  0.13498927974E+03  0.14069845674E+03  0.10566000000E+00 0.  1.
        994    1    1    2    0    0  0.12965921063E+02 -0.54353494202E+02  0.15408213147E+02  0.18074642589E+03  0.17120000000E+03 0.  0.
        998    1    1    2    0    0  0.18780447241E+01  0.17562250688E+02  0.13496025034E+04  0.13497551174E+04  0.10000000000E+02 0.  1.
</event>
<event>
 5    1  0.1607440E-008  0.3785784E+03  0.7957747E-01  0.3457372E+00
         13   -1    0    0    0    0  0.00000000000E+00  0.00000000000E+00  0.14999999963E+04  0.15000000000E+04  0.10566000000E+00 0. -1.
        994   -1    0    0    0    0 -0.00000000000E+00 -0.00000000000E+00  0.11368683772E-12  0.17120000000E+03  0.17120000000E+03 0.  0.
         13    1    1    2    0    0  0.14023721403E+02  0.10684792046E+02  0.30657054199E+02  0.35365176081E+02  0.10566000000E+00 0. -1.
        994    1    1    2    0    0 -0.15927016150E+02  0.12178604692E+02  0.62037855741E+01  0.17248163732E+03  0.17120000000E+03 0.  0.
        998    1    1    2    0    0  0.19032947466E+01 -0.22863396738E+02  0.14631391565E+04  0.14633531866E+04  0.10000000000E+02 0. -1.
</event>
<event>
 5    1  0.1607440E-008  0.3834667E+03  0.7957747E-01  0.3436201E+00
         13   -1    0    0    0    0  0.00000000000E+00  0.00000000000E+00  0.14999999963E+04  0.15000000000E+04  0.10566000000E+00 0.  1.
        994   -1    0    0    0    0 -0.00000000000E+00 -0.00000000000E+00  0.11368683772E-12  0.17120000000E+03  0.17120000000E+03 0.  0.
         13    1    1    2    0    0 -0.88658789905E+01 -0.30064624714E+02  0.18073674386E+03  0.18343464017E+03  0.10566000000E+00 0.  1.
        994    1    1    2    0    0  0.13795562843E+02  0.29932152838E+02  0.59917554722E+01  0.17444653181E+03  0.17120000000E+03 0.  0.
        998    1    1    2    0    0 -0.49296838529E+01  0.13247187629E+00  0.13132714970E+04  0.13133188280E+04  0.10000000000E+02 0.  1.
</event>
<event>
 5    1  0.1607440E-008  0.3830229E+03  0.7957747E-01  0.3438101E+00
         13   -1    0    0    0    0  0.00000000000E+00  0.00000000000E+00  0.14999999963E+04  0.15000000000E+04  0.10566000000E+00 0. -1.
        994   -1    0    0    0    0 -0.00000000000E+00 -0.00000000000E+00  0.11368683772E-12  0.17120000000E+03  0.17120000000E+03 0.  0.
         13    1    1    2    0    0 -0.11059280230E+02 -0.11782288516E+02  0.50967429230E+02  0.53467934393E+02  0.10566000000E+00 0. -1.
        994    1    1    2    0    0  0.37856043504E+01  0.18697979585E+00  0.26624834613E+01  0.17126264794E+03  0.17120000000E+03 0.  0.
        998    1    1    2    0    0  0.72736758800E+01  0.11595308721E+02  0.14463700836E+04  0.14464694177E+04  0.10000000000E+02 0. -1.
</event>
<event>
 5    1  0.1607440E-008  0.3853965E+03  0.7957747E-01  0.3427992E+00
         13   -1    0    0    0    0  0.00000000000E+00  0.00000000000E+00  0.14999999963E+04  0.15000000000E+04  0.10566000000E+00 0. -1.
        994   -1    0    0    0    0 -0.00000000000E+00 -0.00000000000E+00  0.11368683772E-12  0.17120000000E+03  0.17120000000E+03 0.  0.
         13    1    1    2    0    0 -0.21850682545E+01  0.13592948038E+02  0.69339562942E+02  0.70693202733E+02  0.10566000000E+00 0. -1.
        994    1    1    2    0    0 -0.23693552956E+01 -0.32963735530E+01  0.14875518063E+01  0.17125458456E+03  0.17120000000E+03 0.  0.
        998    1    1    2    0    0  0.45544235501E+01 -0.10296574485E+02  0.14291728815E+04  0.14292522127E+04  0.10000000000E+02 0. -1.
</event>
<event>
 5    1  0.1607440E-008  0.3776217E+03  0.7957747E-01  0.3461580E+00
         13   -1    0    0    0    0  0.00000000000E+00  0.00000000000E+00  0.14999999963E+04  0.15000000000E+04  0.10566000000E+00 0.  1.
        994   -1    0    0    0    0 -0.00000000000E+00 -0.00000000000E+00  0.11368683772E-12  0.17120000000E+03  0.17120000000E+03 0.  0.
         13    1    1    2    0    0  0.93335211533E+01 -0.17501759964E+02  0.34210400571E+02  0.39544770706E+02  0.10566000000E+00 0.  1.
        994    1    1    2    0    0 -0.45698182341E+01  0.18166036014E+02  0.65217364144E+01  0.17234518023E+03  0.17120000000E+03 0.  0.
        998    1    1    2    0    0 -0.47637029192E+01 -0.66427605031E+00  0.14592678593E+04  0.14593100491E+04  0.10000000000E+02 0.  1.
</event>
<event>
 5    1  0.1607440E-008  0.3280467E+03  0.7957747E-01  0.3714128E+00
         13   -1    0    0    0    0  0.00000000000E+00  0.00000000000E+00  0.14999999963E+04  0.15000000000E+04  0.10566000000E+00 0.  1.
        994   -1    0    0    0    0 -0.00000000000E+00 -0.00000000000E+00  0.11368683772E-12  0.17120000000E+03  0.17120000000E+03 0.  0.
         13    1    1    2    0    0 -0.56230193692E+01  0.15877309614E+03  0.95361735239E+03  0.96676087030E+03  0.10566000000E+00 0.  1.
        994    1    1    2    0    0  0.31930299141E+01 -0.11601783508E+03  0.59009219472E+02  0.21508570729E+03  0.17120000000E+03 0.  0.
        998    1    1    2    0    0  0.24299894551E+01 -0.42755261056E+02  0.48737342442E+03  0.48935342241E+03  0.10000000000E+02 0.  1.
</event>
<event>
 5    1  0.1607440E-008  0.3725317E+03  0.7957747E-01  0.3484336E+00
         13   -1    0    0    0    0  0.00000000000E+00  0.00000000000E+00  0.14999999963E+04  0.15000000000E+04  0.10566000000E+00 0.  1.
        994   -1    0    0    0    0 -0.00000000000E+00 -0.00000000000E+00  0.11368683772E-12  0.17120000000E+03  0.17120000000E+03 0.  0.
         13    1    1    2    0    0  0.89923935682E+01 -0.57737160603E+02  0.20639917785E+03  0.21451124595E+03  0.10566000000E+00 0.  1.
        994    1    1    2    0    0 -0.20594808256E+02  0.36347245669E+02  0.13957845688E+02  0.17677536551E+03  0.17120000000E+03 0.  0.
        998    1    1    2    0    0  0.11602414688E+02  0.21389914934E+02  0.12796429727E+04  0.12799133885E+04  0.10000000000E+02 0.  1.
</event>
<event>
 5    1  0.1607440E-008  0.3841223E+03  0.7957747E-01  0.3433403E+00
         13   -1    0    0    0    0  0.00000000000E+00  0.00000000000E+00  0.14999999963E+04  0.15000000000E+04  0.10566000000E+00 0. -1.
        994   -1    0    0    0    0 -0.00000000000E+00 -0.00000000000E+00  0.11368683772E-12  0.17120000000E+03  0.17120000000E+03 0.  0.
         13    1    1    2    0    0 -0.10877052235E+02  0.99983442182E+01  0.50467661895E+02  0.52585865150E+02  0.10566000000E+00 0. -1.
        994    1    1    2    0    0  0.19839240047E+02 -0.40604523677E+01  0.34201700118E+01  0.17242743483E+03  0.17120000000E+03 0.  0.
        998    1    1    2    0    0 -0.89621878126E+01 -0.59378918505E+01  0.14461121644E+04  0.14461867000E+04  0.10000000000E+02 0. -1.
</event>
<event>
 5    1  0.1607440E-008  0.3854640E+03  0.7957747E-01  0.3427707E+00
         13   -1    0    0    0    0  0.00000000000E+00  0.00000000000E+00  0.14999999963E+04  0.15000000000E+04  0.10566000000E+00 0.  1.
        994   -1    0    0    0    0 -0.00000000000E+00 -0.00000000000E+00  0.11368683772E-12  0.17120000000E+03  0.17120000000E+03 0.  0.
         13    1    1    2    0    0 -0.10494714901E+02  0.74970878623E+01  0.58266475985E+02  0.59676953298E+02  0.10566000000E+00 0.  1.
        994    1    1    2    0    0  0.63274218372E+01 -0.12430456505E+02  0.20390511466E+01  0.17177936502E+03  0.17120000000E+03 0.  0.
        998    1    1    2    0    0  0.41672930637E+01  0.49333686423E+01  0.14396944691E+04  0.14397436817E+04  0.10000000000E+02 0.  1.
</event>
<event>
 5    1  0.1607440E-008  0.3902982E+03  0.7957747E-01  0.3407508E+00
         13   -1    0    0    0    0  0.00000000000E+00  0.00000000000E+00  0.14999999963E+04  0.15000000000E+04  0.10566000000E+00 0. -1.
        994   -1    0    0    0    0 -0.00000000000E+00 -0.00000000000E+00  0.11368683772E-12  0.17120000000E+03  0.17120000000E+03 0.  0.
         13    1    1    2    0    0  0.18186914297E+02  0.21726096368E+02  0.85964595844E+01  0.29609076251E+02  0.10566000000E+00 0. -1.
        994    1    1    2    0    0 -0.20750642216E+02 -0.22743733641E+02  0.25681136229E+02  0.17583181547E+03  0.17120000000E+03 0.  0.
        998    1    1    2    0    0  0.25637279190E+01  0.10176372732E+01  0.14657224005E+04  0.14657591083E+04  0.10000000000E+02 0. -1.
</event>
<event>
 5    1  0.1607440E-008  0.4157140E+03  0.7957747E-01  0.3309016E+00
         13   -1    0    0    0    0  0.00000000000E+00  0.00000000000E+00  0.14999999963E+04  0.15000000000E+04  0.10566000000E+00 0.  1.
        994   -1    0    0    0    0 -0.00000000000E+00 -0.00000000000E+00  0.11368683772E-12  0.17120000000E+03  0.17120000000E+03 0.  0.
         13    1    1    2    0    0  0.43876507278E+02  0.32720692702E+02  0.26101142598E+02  0.60638868977E+02  0.10566000000E+00 0.  1.
        994    1    1    2    0    0 -0.46818406041E+02 -0.21692643519E+02  0.48752837348E+02  0.18533432784E+03  0.17120000000E+03 0.  0.
        998    1    1    2    0    0  0.29418987631E+01 -0.11028049183E+02  0.14251460163E+04  0.14252268032E+04  0.10000000000E+02 0.  1.
</event>
<event>
 5    1  0.1607440E-008  0.3838007E+03  0.7957747E-01  0.3434775E+00
         13   -1    0    0    0    0  0.00000000000E+00  0.00000000000E+00  0.14999999963E+04  0.15000000000E+04  0.10566000000E+00 0. -1.
        994   -1    0    0    0    0 -0.00000000000E+00 -0.00000000000E+00  0.11368683772E-12  0.17120000000E+03  0.17120000000E+03 0.  0.
         13    1    1    2    0    0  0.15819044031E+02 -0.11744401265E+02  0.98609267531E+02  0.10055830111E+03  0.10566000000E+00 0. -1.
        994    1    1    2    0    0 -0.25626401892E+01 -0.13585248502E+02  0.28580158196E+01  0.17178106518E+03  0.17120000000E+03 0.  0.
        998    1    1    2    0    0 -0.13256403841E+02  0.25329649766E+02  0.13985327129E+04  0.13988606337E+04  0.10000000000E+02 0. -1.
</event>
<event>
 5    1  0.1607440E-008  0.3742095E+03  0.7957747E-01  0.3476766E+00
         13   -1    0    0    0    0  0.00000000000E+00  0.00000000000E+00  0.14999999963E+04  0.15000000000E+04  0.10566000000E+00 0.  1.
        994   -1    0    0    0    0 -0.00000000000E+00 -0.00000000000E+00  0.11368683772E-12  0.17120000000E+03  0.17120000000E+03 0.  0.
         13    1    1    2    0    0 -0.61644106827E+02 -0.12182507926E+02  0.13472079788E+03  0.14865434387E+03  0.10566000000E+00 0.  1.
        994    1    1    2    0    0  0.58599199191E+02  0.10551087478E+02  0.25870727888E+02  0.18309540178E+03  0.17120000000E+03 0.  0.
        998    1    1    2    0    0  0.30449076362E+01  0.16314204479E+01  0.13394084705E+04  0.13394502543E+04  0.10000000000E+02 0.  1.
</event>
<event>
 5    1  0.1607440E-008  0.3837801E+03  0.7957747E-01  0.3434863E+00
         13   -1    0    0    0    0  0.00000000000E+00  0.00000000000E+00  0.14999999963E+04  0.15000000000E+04  0.10566000000E+00 0.  1.
        994   -1    0    0    0    0 -0.00000000000E+00 -0.00000000000E+00  0.11368683772E-12  0.17120000000E+03  0.17120000000E+03 0.  0.
         13    1    1    2    0    0 -0.11626978840E+01 -0.13439391255E+02  0.41015438477E+02  0.43176920468E+02  0.10566000000E+00 0.  1.
        994    1    1    2    0    0 -0.27306622367E+01  0.41364285467E+01  0.23181313190E+01  0.17128742012E+03  0.17120000000E+03 0.  0.
        998    1    1    2    0    0  0.38933601207E+01  0.93029627085E+01  0.14566664265E+04  0.14567356594E+04  0.10000000000E+02 0.  1.
</event>
<event>
 5    1  0.1607440E-008  0.3821126E+03  0.7957747E-01  0.3442011E+00
         13   -1    0    0    0    0  0.00000000000E+00  0.00000000000E+00  0.14999999963E+04  0.15000000000E+04  0.10566000000E+00 0. -1.
        994   -1    0    0    0    0 -0.00000000000E+00 -0.00000000000E+00  0.11368683772E-12  0.17120000000E+03  0.17120000000E+03 0.  0.
         13    1    1    2    0    0 -0.90704377556E+01  0.15263709618E+02  0.49976240750E+02  0.53036680476E+02  0.10566000000E+00 0. -1.
        994    1    1    2    0    0  0.53239014173E+01 -0.12184157964E+02  0.36576583320E+01  0.17175452278E+03  0.17120000000E+03 0.  0.
        998    1    1    2    0    0  0.37465363384E+01 -0.30795516534E+01  0.14463660972E+04  0.14464087967E+04  0.10000000000E+02 0. -1.
</event>
<event>
 5    1  0.1607440E-008  0.3782860E+03  0.7957747E-01  0.3458656E+00
         13   -1    0    0    0    0  0.00000000000E+00  0.00000000000E+00  0.14999999963E+04  0.15000000000E+04  0.10566000000E+00 0. -1.
        994   -1    0    0    0    0 -0.00000000000E+00 -0.00000000000E+00  0.11368683772E-12  0.17120000000E+03  0.17120000000E+03 0.  0.
         13    1    1    2    0    0  0.84373320800E+01 -0.14809426193E+02  0.27005918978E+02  0.31934910376E+02  0.10566000000E+00 0. -1.
        994    1    1    2    0    0 -0.88622176853E+01  0.81916892376E+01  0.54906798019E+01  0.17171263856E+03  0.17120000000E+03 0.  0.
        998    1    1    2    0    0  0.42488560532E+00  0.66177369555E+01  0.14675033975E+04  0.14675524511E+04  0.10000000000E+02 0. -1.
</event>
<event>
 5    1  0.1607440E-008  0.3751825E+03  0.7957747E-01  0.3472407E+00
         13   -1    0    0    0    0  0.00000000000E+00  0.00000000000E+00  0.14999999963E+04  0.15000000000E+04  0.10566000000E+00 0.  1.
        994   -1    0    0    0    0 -0.00000000000E+00 -0.00000000000E+00  0.11368683772E-12  0.17120000000E+03  0.17120000000E+03 0.  0.
         13    1    1    2    0    0 -0.16362370385E+02  0.13171143037E+02  0.30470246390E+02  0.37008826685E+02  0.10566000000E+00 0.  1.
        994    1    1    2    0    0  0.17410481660E+02 -0.75608817620E+01  0.78099281469E+01  0.17242600379E+03  0.17120000000E+03 0.  0.
        998    1    1    2    0    0 -0.10481112751E+01 -0.56102612754E+01  0.14617198217E+04  0.14617651695E+04  0.10000000000E+02 0.  1.
</event>
<event>
 5    1  0.1607440E-008  0.3819679E+03  0.7957747E-01  0.3442634E+00
         13   -1    0    0    0    0  0.00000000000E+00  0.00000000000E+00  0.14999999963E+04  0.15000000000E+04  0.10566000000E+00 0. -1.
        994   -1    0    0    0    0 -0.00000000000E+00 -0.00000000000E+00  0.11368683772E-12  0.17120000000E+03  0.17120000000E+03 0.  0.
         13    1    1    2    0    0 -0.12906194944E+02  0.94006215481E+01  0.39554881919E+02  0.42656082814E+02  0.10566000000E+00 0. -1.
        994    1    1    2    0    0  0.96964022898E+01 -0.35955171645E+01  0.34983535139E+01  0.17154773807E+03  0.17120000000E+03 0.  0.
        998    1    1    2    0    0  0.32097926543E+01 -0.58051043836E+01  0.14569467608E+04  0.14569961791E+04  0.10000000000E+02 0. -1.
</event>
<event>
 5    1  0.1607440E-008  0.3828738E+03  0.7957747E-01  0.3438740E+00
         13   -1    0    0    0    0  0.00000000000E+00  0.00000000000E+00  0.14999999963E+04  0.15000000000E+04  0.10566000000E+00 0. -1.
        994   -1    0    0    0    0 -0.00000000000E+00 -0.00000000000E+00  0.11368683772E-12  0.17120000000E+03  0.17120000000E+03 0.  0.
         13    1    1    2    0    0 -0.12498560536E+02 -0.77555053703E+01  0.38324289369E+02  0.41050264295E+02  0.10566000000E+00 0. -1.
        994    1    1    2    0    0  0.16167411959E+02  0.53716605946E+01  0.36511413744E+01  0.17208431300E+03  0.17120000000E+03 0.  0.
        998    1    1    2    0    0 -0.36688514235E+01  0.23838447757E+01  0.14580245655E+04  0.14580654227E+04  0.10000000000E+02 0. -1.
</event>
<event>
 5    1  0.1607440E-008  0.3847029E+03  0.7957747E-01  0.3430933E+00
         13   -1    0    0    0    0  0.00000000000E+00  0.00000000000E+00  0.14999999963E+04  0.15000000000E+04  0.10566000000E+00 0. -1.
        994   -1    0    0    0    0 -0.00000000000E+00 -0.00000000000E+00  0.11368683772E-12  0.17120000000E+03  0.17120000000E+03 0.  0.
         13    1    1    2    0    0  0.92005455788E+01  0.16043596679E+02  0.98432250903E+02  0.10015471140E+03  0.10566000000E+00 0. -1.
        994    1    1    2    0    0 -0.14275097870E+02 -0.19371320802E+01  0.24611709757E+01  0.17182266516E+03  0.17120000000E+03 0.  0.
        998    1    1    2    0    0  0.50745522916E+01 -0.14106464599E+02  0.13991065744E+04  0.13992226234E+04  0.10000000000E+02 0. -1.
</event>
<event>
 5    1  0.1607440E-008  0.3858196E+03  0.7957747E-01  0.3426204E+00
         13   -1    0    0    0    0  0.00000000000E+00  0.00000000000E+00  0.14999999963E+04  0.15000000000E+04  0.10566000000E+00 0.  1.
        994   -1    0    0    0    0 -0.00000000000E+00 -0.00000000000E+00  0.11368683772E-12  0.17120000000E+03  0.17120000000E+03 0.  0.
         13    1    1    2    0    0 -0.12323390956E+02  0.33760446625E+01  0.62107308280E+02  0.63408142600E+02  0.10566000000E+00 0.  1.
        994    1    1    2    0    0  0.27406179820E+02  0.20478073306E+02  0.50722185620E+01  0.17465857431E+03  0.17120000000E+03 0.  0.
        998    1    1    2    0    0 -0.15082788865E+02 -0.23854117968E+02  0.14328204694E+04  0.14331332831E+04  0.10000000000E+02 0.  1.
</event>
<event>
 5    1  0.1607440E-008  0.3704780E+03  0.7957747E-01  0.3493697E+00
         13   -1    0    0    0    0  0.00000000000E+00  0.00000000000E+00  0.14999999963E+04  0.15000000000E+04  0.10566000000E+00 0.  1.
        994   -1    0    0    0    0 -0.00000000000E+00 -0.00000000000E+00  0.11368683772E-12  0.17120000000E+03  0.17120000000E+03 0.  0.
         13    1    1    2    0    0 -0.26501024912E+02 -0.27021523512E+02  0.80230658813E+02  0.88709846307E+02  0.10566000000E+00 0.  1.
        994    1    1    2    0    0  0.53828788795E+01  0.72716117523E+01  0.93020198232E+01  0.17169105770E+03  0.17120000000E+03 0.  0.
        998    1    1    2    0    0  0.21118146033E+02  0.19749911759E+02  0.14104673176E+04  0.14107990960E+04  0.10000000000E+02 0.  1.
</event>
<event>
 5    1  0.1607440E-008  0.3989869E+03  0.7957747E-01  0.3372435E+00
         13   -1    0    0    0    0  0.00000000000E+00  0.00000000000E+00  0.14999999963E+04  0.15000000000E+04  0.10566000000E+00 0.  1.
        994   -1    0    0    0    0 -0.00000000000E+00 -0.00000000000E+00  0.11368683772E-12  0.17120000000E+03  0.17120000000E+03 0.  0.
         13    1    1    2    0    0  0.80283564393E+01 -0.55230510542E+02  0.48314348146E+02  0.73818366296E+02  0.10566000000E+00 0.  1.
        994    1    1    2    0    0 -0.52171503902E+01  0.38558808117E+02  0.33098820682E+02  0.17865881527E+03  0.17120000000E+03 0.  0.
        998    1    1    2    0    0 -0.28112060491E+01  0.16671702424E+02  0.14185868275E+04  0.14187228184E+04  0.10000000000E+02 0.  1.
</event>
<event>
 5    1  0.1607440E-008  0.3823273E+03  0.7957747E-01  0.3441087E+00
         13   -1    0    0    0    0  0.00000000000E+00  0.00000000000E+00  0.14999999963E+04  0.15000000000E+04  0.10566000000E+00 0. -1.
        994   -1    0    0    0    0 -0.00000000000E+00 -0.00000000000E+00  0.11368683772E-12  0.17120000000E+03  0.17120000000E+03 0.  0.
         13    1    1    2    0    0 -0.99371926355E+01 -0.58690142226E+01  0.19821289351E+02  0.22936603955E+02  0.10566000000E+00 0. -1.
        994    1    1    2    0    0  0.22239059643E+02  0.26496928602E+02  0.69429106451E+01  0.17479790333E+03  0.17120000000E+03 0.  0.
        998    1    1    2    0    0 -0.12301867007E+02 -0.20627914380E+02  0.14732357963E+04  0.14734654927E+04  0.10000000000E+02 0. -1.
</event>
<event>
 5    1  0.1607440E-008  0.3810470E+03  0.7957747E-01  0.3446612E+00
         13   -1    0    0    0    0  0.00000000000E+00  0.00000000000E+00  0.14999999963E+04  0.15000000000E+04  0.10566000000E+00 0.  1.
        994   -1    0    0    0    0 -0.00000000000E+00 -0.00000000000E+00  0.11368683772E-12  0.17120000000E+03  0.17120000000E+03 0.  0.
         13    1    1    2    0    0 -0.12006497816E+02 -0.89136352407E+01  0.28924169743E+02  0.32561136994E+02  0.10566000000E+00 0.  1.
        994    1    1    2    0    0  0.99718465108E+01  0.16098892671E+02  0.48011442030E+01  0.17231106480E+03  0.17120000000E+03 0.  0.
        998    1    1    2    0    0  0.20346513054E+01 -0.71852574298E+01  0.14662746823E+04  0.14663277982E+04  0.10000000000E+02 0.  1.
</event>
<event>
 5    1  0.1607440E-008  0.3809232E+03  0.7957747E-01  0.3447149E+00
         13   -1    0    0    0    0  0.00000000000E+00  0.00000000000E+00  0.14999999963E+04  0.15000000000E+04  0.10566000000E+00 0.  1.
        994   -1    0    0    0    0 -0.00000000000E+00 -0.00000000000E+00  0.11368683772E-12  0.17120000000E+03  0.17120000000E+03 0.  0.
         13    1    1    2    0    0  0.19174740769E+01 -0.30724019355E+02  0.16113729527E+03  0.16405145889E+03  0.10566000000E+00 0.  1.
        994    1    1    2    0    0  0.18389531153E+02 -0.12126728383E+02  0.52866935821E+01  0.17269227408E+03  0.17120000000E+03 0.  0.
        998    1    1    2    0    0 -0.20307005230E+02  0.42850747737E+02  0.13335760074E+04  0.13344562670E+04  0.10000000000E+02 0.  1.
</event>
<event>
 5    1  0.1607440E-008  0.3826389E+03  0.7957747E-01  0.3439748E+00
         13   -1    0    0    0    0  0.00000000000E+00  0.00000000000E+00  0.14999999963E+04  0.15000000000E+04  0.10566000000E+00 0. -1.
        994   -1    0    0    0    0 -0.00000000000E+00 -0.00000000000E+00  0.11368683772E-12  0.17120000000E+03  0.17120000000E+03 0.  0.
         13    1    1    2    0    0 -0.12971452266E+02 -0.59931551935E+01  0.37194408255E+02  0.39844844742E+02  0.10566000000E+00 0. -1.
        994    1    1    2    0    0 -0.72223318562E+01  0.85821528631E+01  0.32240160728E+01  0.17159734760E+03  0.17120000000E+03 0.  0.
        998    1    1    2    0    0  0.20193784122E+02 -0.25889976697E+01  0.14595815720E+04  0.14597578077E+04  0.10000000000E+02 0. -1.
</event>
<event>
 5    1  0.1607440E-008  0.3861282E+03  0.7957747E-01  0.3424901E+00
         13   -1    0    0    0    0  0.00000000000E+00  0.00000000000E+00  0.14999999963E+04  0.15000000000E+04  0.10566000000E+00 0. -1.
        994   -1    0    0    0    0 -0.00000000000E+00 -0.00000000000E+00  0.11368683772E-12  0.17120000000E+03  0.17120000000E+03 0.  0.
         13    1    1    2    0    0 -0.78795026328E+01 -0.83816580108E+01  0.61920025566E+02  0.62979675157E+02  0.10566000000E+00 0. -1.
        994    1    1    2    0    0  0.17059861517E+01  0.11148980525E+02  0.14879545314E+01  0.17157757477E+03  0.17120000000E+03 0.  0.
        998    1    1    2    0    0  0.61735164810E+01 -0.27673225145E+01  0.14365920162E+04  0.14366427501E+04  0.10000000000E+02 0. -1.
</event>
<event>
 5    1  0.1607440E-008  0.3856227E+03  0.7957747E-01  0.3427035E+00
         13   -1    0    0    0    0  0.00000000000E+00  0.00000000000E+00  0.14999999963E+04  0.15000000000E+04  0.10566000000E+00 0. -1.
        994   -1    0    0    0    0 -0.00000000000E+00 -0.00000000000E+00  0.11368683772E-12  0.17120000000E+03  0.17120000000E+03 0.  0.
         13    1    1    2    0    0 -0.11344408457E+02  0.90062924697E+01  0.78207594857E+02  0.79537714103E+02  0.10566000000E+00 0. -1.
        994    1    1    2    0    0  0.97363159215E+01 -0.75101892323E+01  0.18176670923E+01  0.17165064143E+03  0.17120000000E+03 0.  0.
        998    1    1    2    0    0  0.16080925360E+01 -0.14961032374E+01  0.14199747343E+04  0.14200116445E+04  0.10000000000E+02 0. -1.
</event>
<event>
 5    1  0.1607440E-008  0.3845558E+03  0.7957747E-01  0.3431558E+00
         13   -1    0    0    0    0  0.00000000000E+00  0.00000000000E+00  0.14999999963E+04  0.15000000000E+04  0.10566000000E+00 0. -1.
        994   -1    0    0    0    0 -0.00000000000E+00 -0.00000000000E+00  0.11368683772E-12  0.17120000000E+03  0.17120000000E+03 0.  0.
         13    1    1    2    0    0 -0.96046054335E+01  0.10228344752E+02  0.51429842823E+02  0.53309543036E+02  0.10566000000E+00 0. -1.
        994    1    1    2    0    0  0.14037528350E+01 -0.19111707715E+02  0.30612126993E+01  0.17229636942E+03  0.17120000000E+03 0.  0.
        998    1    1    2    0    0  0.82008525985E+01  0.88833629631E+01  0.14455089408E+04  0.14455940875E+04  0.10000000000E+02 0. -1.
</event>
<event>
 5    1  0.1607440E-008  0.3828123E+03  0.7957747E-01  0.3439004E+00
         13   -1    0    0    0    0  0.00000000000E+00  0.00000000000E+00  0.14999999963E+04  0.15000000000E+04  0.10566000000E+00 0.  1.
        994   -1    0    0    0    0 -0.00000000000E+00 -0.00000000000E+00  0.11368683772E-12  0.17120000000E+03  0.17120000000E+03 0.  0.
         13    1    1    2    0    0  0.16695204044E+01  0.22531814890E+02  0.98238790997E+02  0.10080347812E+03  0.10566000000E+00 0.  1.
        994    1    1    2    0    0  0.32569046446E+01 -0.55195264363E+01  0.28562580673E+01  0.17134372125E+03  0.17120000000E+03 0.  0.
        998    1    1    2    0    0 -0.49264250490E+01 -0.17012288454E+02  0.13989049472E+04  0.13990528006E+04  0.10000000000E+02 0.  1.
</event>
<event>
 5    1  0.1607440E-008  0.3854839E+03  0.7957747E-01  0.3427623E+00
         13   -1    0    0    0    0  0.00000000000E+00  0.00000000000E+00  0.14999999963E+04  0.15000000000E+04  0.10566000000E+00 0. -1.
        994   -1    0    0    0    0 -0.00000000000E+00 -0.00000000000E+00  0.11368683772E-12  0.17120000000E+03  0.17120000000E+03 0.  0.
         13    1    1    2    0    0  0.55993559824E+01 -0.11277650066E+02  0.59093883905E+02  0.60420496998E+02  0.10566000000E+00 0. -1.
        994    1    1    2    0    0  0.66055928682E+00  0.44365337931E+01  0.14561511920E+01  0.17126493963E+03  0.17120000000E+03 0.  0.
        998    1    1    2    0    0 -0.62599152692E+01  0.68411162731E+01  0.14394499612E+04  0.14395145634E+04  0.10000000000E+02 0. -1.
</event>
<event>
 5    1  0.1607440E-008  0.3813003E+03  0.7957747E-01  0.3445516E+00
         13   -1    0    0    0    0  0.00000000000E+00  0.00000000000E+00  0.14999999963E+04  0.15000000000E+04  0.10566000000E+00 0.  1.
        994   -1    0    0    0    0 -0.00000000000E+00 -0.00000000000E+00  0.11368683772E-12  0.17120000000E+03  0.17120000000E+03 0.  0.
         13    1    1    2    0    0 -0.25804297603E+02 -0.48469714201E+00  0.96310176960E+02  0.99708365026E+02  0.10566000000E+00 0.  1.
        994    1    1    2    0    0  0.12472615513E+02  0.62457191720E+01  0.41261382653E+01  0.17181687974E+03  0.17120000000E+03 0.  0.
        998    1    1    2    0    0  0.13331682090E+02 -0.57610220300E+01  0.13995636811E+04  0.13996747552E+04  0.10000000000E+02 0. -1.
</event>
<event>
 5    1  0.1607440E-008  0.3852542E+03  0.7957747E-01  0.3428595E+00
         13   -1    0    0    0    0  0.00000000000E+00  0.00000000000E+00  0.14999999963E+04  0.15000000000E+04  0.10566000000E+00 0. -1.
        994   -1    0    0    0    0 -0.00000000000E+00 -0.00000000000E+00  0.11368683772E-12  0.17120000000E+03  0.17120000000E+03 0.  0.
         13    1    1    2    0    0 -0.16325244270E+02 -0.39304865244E+01  0.99485060824E+02  0.10089227332E+03  0.10566000000E+00 0. -1.
        994    1    1    2    0    0  0.17800277187E+01  0.98498103778E+01  0.18332581691E+01  0.17150215188E+03  0.17120000000E+03 0.  0.
        998    1    1    2    0    0  0.14545216551E+02 -0.59193238534E+01  0.13986816773E+04  0.13988055748E+04  0.10000000000E+02 0.  1.
</event>
<event>
 5    1  0.1607440E-008  0.3794374E+03  0.7957747E-01  0.3453612E+00
         13   -1    0    0    0    0  0.00000000000E+00  0.00000000000E+00  0.14999999963E+04  0.15000000000E+04  0.10566000000E+00 0. -1.
        994   -1    0    0    0    0 -0.00000000000E+00 -0.00000000000E+00  0.11368683772E-12  0.17120000000E+03  0.17120000000E+03 0.  0.
         13    1    1    2    0    0 -0.12165458647E+02  0.82230326962E+01  0.23703757689E+02  0.27883614246E+02  0.10566000000E+00 0. -1.
        994    1    1    2    0    0  0.15315210222E+00  0.13461255173E+02  0.50246175827E+01  0.17180196631E+03  0.17120000000E+03 0.  0.
        998    1    1    2    0    0  0.12012306544E+02 -0.21684287869E+02  0.14712716210E+04  0.14715144194E+04  0.10000000000E+02 0. -1.
</event>
<event>
 5    1  0.2411345E-008  0.3805671E+03  0.7957747E-01  0.3448693E+00
         13   -1    0    0    0    0  0.00000000000E+00  0.00000000000E+00  0.14999999963E+04  0.15000000000E+04  0.10566000000E+00 0. -1.
        994   -1    0    0    0    0 -0.00000000000E+00 -0.00000000000E+00  0.11368683772E-12  0.17120000000E+03  0.17120000000E+03 0.  0.
         13    1    1    2    0    0  0.97191724794E+01  0.56717152073E+01  0.14640280960E+02  0.18465634506E+02  0.10566000000E+00 0. -1.
        994    1    1    2    0    0 -0.10556706739E+02 -0.72975365447E+01  0.43968719275E+01  0.17173663144E+03  0.17120000000E+03 0.  0.
        998    1    1    2    0    0  0.83753426013E+00  0.16258213374E+01  0.14809628434E+04  0.14809977341E+04  0.10000000000E+02 0. -1.
</event>
<event>
 5    1  0.1607440E-008  0.3721584E+03  0.7957747E-01  0.3486030E+00
         13   -1    0    0    0    0  0.00000000000E+00  0.00000000000E+00  0.14999999963E+04  0.15000000000E+04  0.10566000000E+00 0.  1.
        994   -1    0    0    0    0 -0.00000000000E+00 -0.00000000000E+00  0.11368683772E-12  0.17120000000E+03  0.17120000000E+03 0.  0.
         13    1    1    2    0    0  0.11722683137E+02  0.39867448460E+02  0.95429947323E+02  0.10408516108E+03  0.10566000000E+00 0.  1.
        994    1    1    2    0    0 -0.14713759258E+02 -0.43591295689E+02  0.15445161448E+02  0.17794574674E+03  0.17120000000E+03 0.  0.
        998    1    1    2    0    0  0.29910761210E+01  0.37238472298E+01  0.13891248875E+04  0.13891690922E+04  0.10000000000E+02 0.  0.
</event>
<event>
 5    1  0.1607440E-008  0.3793384E+03  0.7957747E-01  0.3454044E+00
         13   -1    0    0    0    0  0.00000000000E+00  0.00000000000E+00  0.14999999963E+04  0.15000000000E+04  0.10566000000E+00 0.  1.
        994   -1    0    0    0    0 -0.00000000000E+00 -0.00000000000E+00  0.11368683772E-12  0.17120000000E+03  0.17120000000E+03 0.  0.
         13    1    1    2    0    0 -0.17265300235E+02  0.54482885293E+02  0.31128894982E+03  0.31649217498E+03  0.10566000000E+00 0.  1.
        994    1    1    2    0    0  0.17980151250E+02 -0.46657763403E+02  0.12889840682E+02  0.17881784228E+03  0.17120000000E+03 0.  0.
        998    1    1    2    0    0 -0.71485101461E+00 -0.78251218892E+01  0.11758212058E+04  0.11758899827E+04  0.10000000000E+02 0.  1.
</event>
<event>
 5    1  0.1607440E-008  0.3791845E+03  0.7957747E-01  0.3454717E+00
         13   -1    0    0    0    0  0.00000000000E+00  0.00000000000E+00  0.14999999963E+04  0.15000000000E+04  0.10566000000E+00 0.  1.
        994   -1    0    0    0    0 -0.00000000000E+00 -0.00000000000E+00  0.11368683772E-12  0.17120000000E+03  0.17120000000E+03 0.  0.
         13    1    1    2    0    0  0.67453959561E+01  0.40417105453E+02  0.21756669016E+03  0.22139177629E+03  0.10566000000E+00 0.  1.
        994    1    1    2    0    0 -0.21209625836E+02  0.16948924337E+01  0.60643520442E+01  0.17262368683E+03  0.17120000000E+03 0.  0.
        998    1    1    2    0    0  0.14464229880E+02 -0.42111997887E+02  0.12763689541E+04  0.12771845369E+04  0.10000000000E+02 0.  1.
</event>
<event>
 5    1  0.1607440E-008  0.3703144E+03  0.7957747E-01  0.3494447E+00
         13   -1    0    0    0    0  0.00000000000E+00  0.00000000000E+00  0.14999999963E+04  0.15000000000E+04  0.10566000000E+00 0.  1.
        994   -1    0    0    0    0 -0.00000000000E+00 -0.00000000000E+00  0.11368683772E-12  0.17120000000E+03  0.17120000000E+03 0.  0.
         13    1    1    2    0    0 -0.64542511017E+02 -0.78741836196E+01  0.19601657961E+03  0.20651936747E+03  0.10566000000E+00 0.  1.
        994    1    1    2    0    0  0.28186197950E+02  0.80084000914E+01  0.14115956841E+02  0.17426214869E+03  0.17120000000E+03 0.  0.
        998    1    1    2    0    0  0.36356313067E+02 -0.13421647182E+00  0.12898674598E+04  0.12904184838E+04  0.10000000000E+02 0.  1.
</event>
<event>
 5    1  0.1607440E-008  0.3767164E+03  0.7957747E-01  0.3465582E+00
         13   -1    0    0    0    0  0.00000000000E+00  0.00000000000E+00  0.14999999963E+04  0.15000000000E+04  0.10566000000E+00 0. -1.
        994   -1    0    0    0    0 -0.00000000000E+00 -0.00000000000E+00  0.11368683772E-12  0.17120000000E+03  0.17120000000E+03 0.  0.
         13    1    1    2    0    0  0.45425741806E+02  0.65415518543E+02  0.41294360053E+03  0.42055334556E+03  0.10566000000E+00 0. -1.
        994    1    1    2    0    0 -0.45882327381E+02 -0.59333854223E+02  0.25055669454E+02  0.18858133734E+03  0.17120000000E+03 0.  0.
        998    1    1    2    0    0  0.45658557499E+00 -0.60816643197E+01  0.10620007263E+04  0.10620653171E+04  0.10000000000E+02 0. -1.
</event>
<event>
 5    1  0.1607440E-008  0.3834206E+03  0.7957747E-01  0.3436399E+00
         13   -1    0    0    0    0  0.00000000000E+00  0.00000000000E+00  0.14999999963E+04  0.15000000000E+04  0.10566000000E+00 0. -1.
        994   -1    0    0    0    0 -0.00000000000E+00 -0.00000000000E+00  0.11368683772E-12  0.17120000000E+03  0.17120000000E+03 0.  0.
         13    1    1    2    0    0  0.10880025154E+02  0.84471470520E+01  0.37786912178E+02  0.40219288117E+02  0.10566000000E+00 0. -1.
        994    1    1    2    0    0 -0.10041639543E+02 -0.10067009764E+02  0.30849376154E+01  0.17181715878E+03  0.17120000000E+03 0.  0.
        998    1    1    2    0    0 -0.83838561124E+00  0.16198627119E+01  0.14591281465E+04  0.14591635531E+04  0.10000000000E+02 0. -1.
</event>
<event>
 5    1  0.1607440E-008  0.3833464E+03  0.7957747E-01  0.3436716E+00
         13   -1    0    0    0    0  0.00000000000E+00  0.00000000000E+00  0.14999999963E+04  0.15000000000E+04  0.10566000000E+00 0. -1.
        994   -1    0    0    0    0 -0.00000000000E+00 -0.00000000000E+00  0.11368683772E-12  0.17120000000E+03  0.17120000000E+03 0.  0.
         13    1    1    2    0    0  0.15530051593E+02 -0.15489527808E+02  0.99958463684E+02  0.10233676563E+03  0.10566000000E+00 0. -1.
        994    1    1    2    0    0 -0.56118605371E+01  0.81143376287E+01  0.27752385159E+01  0.17150649376E+03  0.17120000000E+03 0.  0.
        998    1    1    2    0    0 -0.99181910555E+01  0.73751901789E+01  0.13972662941E+04  0.13973567406E+04  0.10000000000E+02 0. -1.
</event>
<event>
 5    1  0.1607440E-008  0.3857586E+03  0.7957747E-01  0.3426461E+00
         13   -1    0    0    0    0  0.00000000000E+00  0.00000000000E+00  0.14999999963E+04  0.15000000000E+04  0.10566000000E+00 0. -1.
        994   -1    0    0    0    0 -0.00000000000E+00 -0.00000000000E+00  0.11368683772E-12  0.17120000000E+03  0.17120000000E+03 0.  0.
         13    1    1    2    0    0 -0.13216598172E+02 -0.94428407878E+00  0.72242073413E+02  0.73447249606E+02  0.10566000000E+00 0. -1.
        994    1    1    2    0    0  0.56991455481E+01  0.10578076590E+00  0.13605507216E+01  0.17130027013E+03  0.17120000000E+03 0.  0.
        998    1    1    2    0    0  0.75174526236E+01  0.83850331288E+00  0.14263973721E+04  0.14264524803E+04  0.10000000000E+02 0. -1.
</event>
<event>
 5    1  0.1607440E-008  0.3854333E+03  0.7957747E-01  0.3427837E+00
         13   -1    0    0    0    0  0.00000000000E+00  0.00000000000E+00  0.14999999963E+04  0.15000000000E+04  0.10566000000E+00 0. -1.
        994   -1    0    0    0    0 -0.00000000000E+00 -0.00000000000E+00  0.11368683772E-12  0.17120000000E+03  0.17120000000E+03 0.  0.
         13    1    1    2    0    0 -0.12178286776E+02  0.18506566802E+01  0.53727766676E+02  0.55121862042E+02  0.10566000000E+00 0. -1.
        994    1    1    2    0    0  0.86667145143E+01  0.34468171445E+00  0.16622731585E+01  0.17142763458E+03  0.17120000000E+03 0.  0.
        998    1    1    2    0    0  0.35115722613E+01 -0.21953383946E+01  0.14446099564E+04  0.14446505034E+04  0.10000000000E+02 0. -1.
</event>
<event>
 5    1  0.1607440E-008  0.3747328E+03  0.7957747E-01  0.3474419E+00
         13   -1    0    0    0    0  0.00000000000E+00  0.00000000000E+00  0.14999999963E+04  0.15000000000E+04  0.10566000000E+00 0.  1.
        994   -1    0    0    0    0 -0.00000000000E+00 -0.00000000000E+00  0.11368683772E-12  0.17120000000E+03  0.17120000000E+03 0.  0.
         13    1    1    2    0    0 -0.69753308690E+01  0.63767730213E+02  0.15079111489E+03  0.16386869790E+03  0.10566000000E+00 0.  1.
        994    1    1    2    0    0  0.16950552195E+02 -0.34487710640E+02  0.18731573426E+02  0.17645689346E+03  0.17120000000E+03 0.  0.
        998    1    1    2    0    0 -0.99752213257E+01 -0.29280019572E+02  0.13304773080E+04  0.13308744086E+04  0.10000000000E+02 0.  1.
</event>
<event>
 5    1  0.1607440E-008  0.3808965E+03  0.7957747E-01  0.3447264E+00
         13   -1    0    0    0    0  0.00000000000E+00  0.00000000000E+00  0.14999999963E+04  0.15000000000E+04  0.10566000000E+00 0. -1.
        994   -1    0    0    0    0 -0.00000000000E+00 -0.00000000000E+00  0.11368683772E-12  0.17120000000E+03  0.17120000000E+03 0.  0.
         13    1    1    2    0    0 -0.17224539463E+02  0.33529881207E+02  0.36336665269E+02  0.52357445510E+02  0.10566000000E+00 0. -1.
        994    1    1    2    0    0  0.26408924608E+02 -0.92540031065E+01  0.19672476509E+02  0.17458383145E+03  0.17120000000E+03 0.  0.
        998    1    1    2    0    0 -0.91843851444E+01 -0.24275878100E+02  0.14439908545E+04  0.14442587230E+04  0.10000000000E+02 0. -1.
</event>
<event>
 5    1  0.1607440E-008  0.3710265E+03  0.7957747E-01  0.3491187E+00
         13   -1    0    0    0    0  0.00000000000E+00  0.00000000000E+00  0.14999999963E+04  0.15000000000E+04  0.10566000000E+00 0.  1.
        994   -1    0    0    0    0 -0.00000000000E+00 -0.00000000000E+00  0.11368683772E-12  0.17120000000E+03  0.17120000000E+03 0.  0.
         13    1    1    2    0    0  0.12420098458E+02 -0.15662310038E+02  0.12121393025E+02  0.23377470658E+02  0.10566000000E+00 0.  1.
        994    1    1    2    0    0 -0.14006442524E+02  0.18657608123E+02  0.13394607147E+02  0.17330072785E+03  0.17120000000E+03 0.  0.
        998    1    1    2    0    0  0.15863440660E+01 -0.29952980848E+01  0.14744839961E+04  0.14745218015E+04  0.10000000000E+02 0.  1.
</event>
<event>
 5    1  0.1607440E-008  0.3832683E+03  0.7957747E-01  0.3437050E+00
         13   -1    0    0    0    0  0.00000000000E+00  0.00000000000E+00  0.14999999963E+04  0.15000000000E+04  0.10566000000E+00 0. -1.
        994   -1    0    0    0    0 -0.00000000000E+00 -0.00000000000E+00  0.11368683772E-12  0.17120000000E+03  0.17120000000E+03 0.  0.
         13    1    1    2    0    0  0.18161077964E+02 -0.48130362698E+00  0.65181290619E+02  0.67665857098E+02  0.10566000000E+00 0. -1.
        994    1    1    2    0    0 -0.12699490095E+02  0.36857564869E+01  0.30708802503E+01  0.17173739300E+03  0.17120000000E+03 0.  0.
        998    1    1    2    0    0 -0.54615878694E+01 -0.32044528599E+01  0.14317478254E+04  0.14317967499E+04  0.10000000000E+02 0. -1.
</event>
<event>
 5    1  0.1607440E-008  0.3842980E+03  0.7957747E-01  0.3432655E+00
         13   -1    0    0    0    0  0.00000000000E+00  0.00000000000E+00  0.14999999963E+04  0.15000000000E+04  0.10566000000E+00 0. -1.
        994   -1    0    0    0    0 -0.00000000000E+00 -0.00000000000E+00  0.11368683772E-12  0.17120000000E+03  0.17120000000E+03 0.  0.
         13    1    1    2    0    0  0.14350599275E+02 -0.12045698127E+02  0.85642090519E+02  0.87667652959E+02  0.10566000000E+00 0. -1.
        994    1    1    2    0    0 -0.10485491382E+02  0.13583566725E+02  0.29502412245E+01  0.17208312741E+03  0.17120000000E+03 0.  0.
        998    1    1    2    0    0 -0.38651078926E+01 -0.15378685981E+01  0.14114076645E+04  0.14114492196E+04  0.10000000000E+02 0. -1.
</event>
<event>
 5    1  0.1607440E-008  0.3849900E+03  0.7957747E-01  0.3429715E+00
         13   -1    0    0    0    0  0.00000000000E+00  0.00000000000E+00  0.14999999963E+04  0.15000000000E+04  0.10566000000E+00 0.  1.
        994   -1    0    0    0    0 -0.00000000000E+00 -0.00000000000E+00  0.11368683772E-12  0.17120000000E+03  0.17120000000E+03 0.  0.
         13    1    1    2    0    0 -0.10187123214E+02  0.10480693017E+02  0.62682410238E+02  0.64363950490E+02  0.10566000000E+00 0.  1.
        994    1    1    2    0    0  0.10749291108E+02 -0.12358624370E+02  0.25179055162E+01  0.17200018228E+03  0.17120000000E+03 0.  0.
        998    1    1    2    0    0 -0.56216789410E+00  0.18779313533E+01  0.14347996805E+04  0.14348358672E+04  0.10000000000E+02 0.  0.
</event>
<event>
 5    1  0.1607440E-008  0.3810933E+03  0.7957747E-01  0.3446412E+00
         13   -1    0    0    0    0  0.00000000000E+00  0.00000000000E+00  0.14999999963E+04  0.15000000000E+04  0.10566000000E+00 0. -1.
        994   -1    0    0    0    0 -0.00000000000E+00 -0.00000000000E+00  0.11368683772E-12  0.17120000000E+03  0.17120000000E+03 0.  0.
         13    1    1    2    0    0 -0.12534442280E+02 -0.20163043547E+02  0.71714088014E+02  0.75541923142E+02  0.10566000000E+00 0. -1.
        994    1    1    2    0    0  0.23894609394E+02  0.22289372883E+02  0.71470712460E+01  0.17443706352E+03  0.17120000000E+03 0.  0.
        998    1    1    2    0    0 -0.11360167115E+02 -0.21263293355E+01  0.14211388370E+04  0.14212210133E+04  0.10000000000E+02 0. -1.
</event>
<event>
 5    1  0.1607440E-008  0.3841014E+03  0.7957747E-01  0.3433492E+00
         13   -1    0    0    0    0  0.00000000000E+00  0.00000000000E+00  0.14999999963E+04  0.15000000000E+04  0.10566000000E+00 0. -1.
        994   -1    0    0    0    0 -0.00000000000E+00 -0.00000000000E+00  0.11368683772E-12  0.17120000000E+03  0.17120000000E+03 0.  0.
         13    1    1    2    0    0 -0.28881893561E+01  0.11378482106E+02  0.32735472136E+02  0.34776914653E+02  0.10566000000E+00 0. -1.
        994    1    1    2    0    0 -0.39294531029E+01 -0.85366299248E+01  0.23682808031E+01  0.17147408961E+03  0.17120000000E+03 0.  0.
        998    1    1    2    0    0  0.68176424590E+01 -0.28418521811E+01  0.14648962433E+04  0.14649489957E+04  0.10000000000E+02 0. -1.
</event>
<event>
 5    1  0.1607440E-008  0.3840457E+03  0.7957747E-01  0.3433730E+00
         13   -1    0    0    0    0  0.00000000000E+00  0.00000000000E+00  0.14999999963E+04  0.15000000000E+04  0.10566000000E+00 0. -1.
        994   -1    0    0    0    0 -0.00000000000E+00 -0.00000000000E+00  0.11368683772E-12  0.17120000000E+03  0.17120000000E+03 0.  0.
         13    1    1    2    0    0 -0.16394857452E+02 -0.11728202102E+02  0.11880737226E+03  0.12050537308E+03  0.10566000000E+00 0. -1.
        994    1    1    2    0    0 -0.26326265173E+02  0.14822373630E+02  0.51215886520E+01  0.17392080286E+03  0.17120000000E+03 0.  0.
        998    1    1    2    0    0  0.42721122626E+02 -0.30941715281E+01  0.13760710354E+04  0.13767738241E+04  0.10000000000E+02 0. -1.
</event>
<event>
 5    1  0.1607440E-008  0.3850834E+03  0.7957747E-01  0.3429319E+00
         13   -1    0    0    0    0  0.00000000000E+00  0.00000000000E+00  0.14999999963E+04  0.15000000000E+04  0.10566000000E+00 0.  1.
        994   -1    0    0    0    0 -0.00000000000E+00 -0.00000000000E+00  0.11368683772E-12  0.17120000000E+03  0.17120000000E+03 0.  0.
         13    1    1    2    0    0  0.83647186786E+01  0.71367335034E+01  0.36813071970E+02  0.38420240962E+02  0.10566000000E+00 0.  1.
        994    1    1    2    0    0 -0.14156984910E+02 -0.44022788151E+01  0.23117224511E+01  0.17185628979E+03  0.17120000000E+03 0.  0.
        998    1    1    2    0    0  0.57922662316E+01 -0.27344546882E+01  0.14608752019E+04  0.14609234692E+04  0.10000000000E+02 0.  1.
</event>
<event>
 5    1  0.1607440E-008  0.3904146E+03  0.7957747E-01  0.3407028E+00
         13   -1    0    0    0    0  0.00000000000E+00  0.00000000000E+00  0.14999999963E+04  0.15000000000E+04  0.10566000000E+00 0.  1.
        994   -1    0    0    0    0 -0.00000000000E+00 -0.00000000000E+00  0.11368683772E-12  0.17120000000E+03  0.17120000000E+03 0.  0.
         13    1    1    2    0    0  0.10651398618E+02 -0.23096503443E+02  0.48970616527E+01  0.25901604982E+02  0.10566000000E+00 0.  1.
        994    1    1    2    0    0 -0.16871141275E+02  0.22782473773E+02  0.25203819070E+02  0.17535207160E+03  0.17120000000E+03 0.  0.
        998    1    1    2    0    0  0.62197426578E+01  0.31402967021E+00  0.14698991156E+04  0.14699463234E+04  0.10000000000E+02 0.  1.
</event>
<event>
 5    1  0.1607440E-008  0.3825980E+03  0.7957747E-01  0.3439924E+00
         13   -1    0    0    0    0  0.00000000000E+00  0.00000000000E+00  0.14999999963E+04  0.15000000000E+04  0.10566000000E+00 0.  1.
        994   -1    0    0    0    0 -0.00000000000E+00 -0.00000000000E+00  0.11368683772E-12  0.17120000000E+03  0.17120000000E+03 0.  0.
         13    1    1    2    0    0 -0.23412190320E+02 -0.15622637483E+01  0.84644597478E+02  0.87836725633E+02  0.10566000000E+00 0.  1.
        994    1    1    2    0    0  0.37606039114E+02  0.16165861350E+02  0.84009276671E+01  0.17622589150E+03  0.17120000000E+03 0.  0.
        998    1    1    2    0    0 -0.14193848794E+02 -0.14603597602E+02  0.14069544711E+04  0.14071373829E+04  0.10000000000E+02 0.  1.
</event>
<event>
 5    1  0.1607440E-008  0.3697090E+03  0.7957747E-01  0.3497229E+00
         13   -1    0    0    0    0  0.00000000000E+00  0.00000000000E+00  0.14999999963E+04  0.15000000000E+04  0.10566000000E+00 0. -1.
        994   -1    0    0    0    0 -0.00000000000E+00 -0.00000000000E+00  0.11368683772E-12  0.17120000000E+03  0.17120000000E+03 0.  0.
         13    1    1    2    0    0 -0.29723808938E+02 -0.19355707022E+02  0.53411369609E+02  0.64116564004E+02  0.10566000000E+00 0. -1.
        994    1    1    2    0    0  0.17063918072E+02  0.27350118296E+02  0.14423028097E+02  0.17480466244E+03  0.17120000000E+03 0.  0.
        998    1    1    2    0    0  0.12659890867E+02 -0.79944112744E+01  0.14321655986E+04  0.14322787736E+04  0.10000000000E+02 0. -1.
</event>
<event>
 5    1  0.1607440E-008  0.3850480E+03  0.7957747E-01  0.3429469E+00
         13   -1    0    0    0    0  0.00000000000E+00  0.00000000000E+00  0.14999999963E+04  0.15000000000E+04  0.10566000000E+00 0.  1.
        994   -1    0    0    0    0 -0.00000000000E+00 -0.00000000000E+00  0.11368683772E-12  0.17120000000E+03  0.17120000000E+03 0.  0.
         13    1    1    2    0    0  0.16024413921E+02 -0.75728637887E+01  0.87925530500E+02  0.89694147999E+02  0.10566000000E+00 0.  1.
        994    1    1    2    0    0 -0.16372133173E+02  0.27667408989E+02  0.50121029173E+01  0.17426443539E+03  0.17120000000E+03 0.  0.
        998    1    1    2    0    0  0.34771925135E+00 -0.20094545201E+02  0.14070623629E+04  0.14072414166E+04  0.10000000000E+02 0.  1.
</event>
<event>
 5    1  0.1607440E-008  0.3854919E+03  0.7957747E-01  0.3427589E+00
         13   -1    0    0    0    0  0.00000000000E+00  0.00000000000E+00  0.14999999963E+04  0.15000000000E+04  0.10566000000E+00 0.  1.
        994   -1    0    0    0    0 -0.00000000000E+00 -0.00000000000E+00  0.11368683772E-12  0.17120000000E+03  0.17120000000E+03 0.  0.
         13    1    1    2    0    0  0.67516654454E+01 -0.12633791510E+02  0.67925929688E+02  0.69420031419E+02  0.10566000000E+00 0.  1.
        994    1    1    2    0    0 -0.11720056954E+02  0.19432144639E+02  0.30787827504E+01  0.17272488785E+03  0.17120000000E+03 0.  0.
        998    1    1    2    0    0  0.49683915083E+01 -0.67983531290E+01  0.14289952838E+04  0.14290550807E+04  0.10000000000E+02 0.  1.
</event>
<event>
 5    1  0.1607440E-008  0.3849658E+03  0.7957747E-01  0.3429817E+00
         13   -1    0    0    0    0  0.00000000000E+00  0.00000000000E+00  0.14999999963E+04  0.15000000000E+04  0.10566000000E+00 0.  1.
        994   -1    0    0    0    0 -0.00000000000E+00 -0.00000000000E+00  0.11368683772E-12  0.17120000000E+03  0.17120000000E+03 0.  0.
         13    1    1    2    0    0 -0.16801513577E+01  0.11999018332E+02  0.44705843523E+02  0.46318710675E+02  0.10566000000E+00 0.  1.
        994    1    1    2    0    0  0.28194605754E+01 -0.67449624842E+01  0.18229169437E+01  0.17136571099E+03  0.17120000000E+03 0.  0.
        998    1    1    2    0    0 -0.11393092177E+01 -0.52540558480E+01  0.14534712358E+04  0.14535155783E+04  0.10000000000E+02 0.  1.
</event>
<event>
 5    1  0.1607440E-008  0.3859734E+03  0.7957747E-01  0.3425554E+00
         13   -1    0    0    0    0  0.00000000000E+00  0.00000000000E+00  0.14999999963E+04  0.15000000000E+04  0.10566000000E+00 0.  1.
        994   -1    0    0    0    0 -0.00000000000E+00 -0.00000000000E+00  0.11368683772E-12  0.17120000000E+03  0.17120000000E+03 0.  0.
         13    1    1    2    0    0 -0.10347058058E+02  0.50053846251E+01  0.62591593719E+02  0.63638308070E+02  0.10566000000E+00 0.  1.
        994    1    1    2    0    0  0.66925654474E+00  0.59226804748E+01  0.12640960835E+01  0.17130838855E+03  0.17120000000E+03 0.  0.
        998    1    1    2    0    0  0.96778015130E+01 -0.10928065100E+02  0.14361443065E+04  0.14362533034E+04  0.10000000000E+02 0.  1.
</event>
<event>
 5    1  0.1607440E-008  0.3833110E+03  0.7957747E-01  0.3436867E+00
         13   -1    0    0    0    0  0.00000000000E+00  0.00000000000E+00  0.14999999963E+04  0.15000000000E+04  0.10566000000E+00 0. -1.
        994   -1    0    0    0    0 -0.00000000000E+00 -0.00000000000E+00  0.11368683772E-12  0.17120000000E+03  0.17120000000E+03 0.  0.
         13    1    1    2    0    0  0.26375627055E+02  0.40429961296E+01  0.15969438299E+03  0.16190838966E+03  0.10566000000E+00 0. -1.
        994    1    1    2    0    0 -0.48017520080E+01  0.88653955664E+01  0.28072405536E+01  0.17151959847E+03  0.17120000000E+03 0.  0.
        998    1    1    2    0    0 -0.21573875047E+02 -0.12908391696E+02  0.13374983727E+04  0.13377720119E+04  0.10000000000E+02 0. -1.
</event>
<event>
 5    1  0.1607440E-008  0.3843294E+03  0.7957747E-01  0.3432521E+00
         13   -1    0    0    0    0  0.00000000000E+00  0.00000000000E+00  0.14999999963E+04  0.15000000000E+04  0.10566000000E+00 0. -1.
        994   -1    0    0    0    0 -0.00000000000E+00 -0.00000000000E+00  0.11368683772E-12  0.17120000000E+03  0.17120000000E+03 0.  0.
         13    1    1    2    0    0 -0.11588358626E+02  0.65507877587E+01  0.51009466633E+02  0.52717926042E+02  0.10566000000E+00 0. -1.
        994    1    1    2    0    0 -0.84011220436E+00  0.29569555401E+02  0.48528177593E+01  0.17380464388E+03  0.17120000000E+03 0.  0.
        998    1    1    2    0    0  0.12428470830E+02 -0.36120343160E+02  0.14441377119E+04  0.14446774301E+04  0.10000000000E+02 0. -1.
</event>
<event>
 5    1  0.1607440E-008  0.3854682E+03  0.7957747E-01  0.3427689E+00
         13   -1    0    0    0    0  0.00000000000E+00  0.00000000000E+00  0.14999999963E+04  0.15000000000E+04  0.10566000000E+00 0.  1.
        994   -1    0    0    0    0 -0.00000000000E+00 -0.00000000000E+00  0.11368683772E-12  0.17120000000E+03  0.17120000000E+03 0.  0.
         13    1    1    2    0    0 -0.80823456241E+01  0.93572103891E+01  0.51651027332E+02  0.53110464935E+02  0.10566000000E+00 0.  1.
        994    1    1    2    0    0  0.16673093417E+02 -0.10045200136E+02  0.26430170298E+01  0.17232331133E+03  0.17120000000E+03 0.  0.
        998    1    1    2    0    0 -0.85907477926E+01  0.68798974709E+00  0.14457059519E+04  0.14457662237E+04  0.10000000000E+02 0.  1.
</event>
<event>
 5    1  0.1607440E-008  0.3738107E+03  0.7957747E-01  0.3478559E+00
         13   -1    0    0    0    0  0.00000000000E+00  0.00000000000E+00  0.14999999963E+04  0.15000000000E+04  0.10566000000E+00 0.  1.
        994   -1    0    0    0    0 -0.00000000000E+00 -0.00000000000E+00  0.11368683772E-12  0.17120000000E+03  0.17120000000E+03 0.  0.
         13    1    1    2    0    0 -0.38296778781E+02 -0.50515276930E+01  0.98579967082E+02  0.10587814822E+03  0.10566000000E+00 0.  1.
        994    1    1    2    0    0  0.27455238778E+02 -0.38312458146E+01  0.99178840782E+01  0.17371319180E+03  0.17120000000E+03 0.  0.
        998    1    1    2    0    0  0.10841540003E+02  0.88827735076E+01  0.13915021451E+04  0.13916086600E+04  0.10000000000E+02 0.  1.
</event>
<event>
 5    1  0.1607440E-008  0.3829746E+03  0.7957747E-01  0.3438308E+00
         13   -1    0    0    0    0  0.00000000000E+00  0.00000000000E+00  0.14999999963E+04  0.15000000000E+04  0.10566000000E+00 0.  1.
        994   -1    0    0    0    0 -0.00000000000E+00 -0.00000000000E+00  0.11368683772E-12  0.17120000000E+03  0.17120000000E+03 0.  0.
         13    1    1    2    0    0 -0.12379473473E+02 -0.15627392596E+02  0.73068232530E+02  0.75739319589E+02  0.10566000000E+00 0.  1.
        994    1    1    2    0    0  0.27177761324E+00  0.20944630576E+02  0.40928671092E+01  0.17252519519E+03  0.17120000000E+03 0.  0.
        998    1    1    2    0    0  0.12107695859E+02 -0.53172379802E+01  0.14228388966E+04  0.14229354852E+04  0.10000000000E+02 0.  1.
</event>
<event>
 5    1  0.1607440E-008  0.3729072E+03  0.7957747E-01  0.3482636E+00
         13   -1    0    0    0    0  0.00000000000E+00  0.00000000000E+00  0.14999999963E+04  0.15000000000E+04  0.10566000000E+00 0. -1.
        994   -1    0    0    0    0 -0.00000000000E+00 -0.00000000000E+00  0.11368683772E-12  0.17120000000E+03  0.17120000000E+03 0.  0.
         13    1    1    2    0    0  0.11724174662E+03  0.53579381529E+02  0.66238823545E+03  0.67481446554E+03  0.10566000000E+00 0. -1.
        994    1    1    2    0    0 -0.10367131440E+03 -0.55921108428E+02  0.56858228064E+02  0.21544653605E+03  0.17120000000E+03 0.  0.
        998    1    1    2    0    0 -0.13570432227E+02  0.23417268986E+01  0.78075353277E+03  0.78093899841E+03  0.10000000000E+02 0. -1.
</event>
<event>
 5    1  0.1607440E-008  0.3695723E+03  0.7957747E-01  0.3497859E+00
         13   -1    0    0    0    0  0.00000000000E+00  0.00000000000E+00  0.14999999963E+04  0.15000000000E+04  0.10566000000E+00 0.  1.
        994   -1    0    0    0    0 -0.00000000000E+00 -0.00000000000E+00  0.11368683772E-12  0.17120000000E+03  0.17120000000E+03 0.  0.
         13    1    1    2    0    0  0.35150360197E+01  0.37247640740E+02  0.58193670019E+02  0.69182776854E+02  0.10566000000E+00 0.  1.
        994    1    1    2    0    0 -0.42259788626E+01 -0.42535652839E+02  0.17118177688E+02  0.17728398875E+03  0.17120000000E+03 0.  0.
        998    1    1    2    0    0  0.71094284297E+00  0.52880120992E+01  0.14246881486E+04  0.14247332344E+04  0.10000000000E+02 0.  1.
</event>
<event>
 5    1  0.1607440E-008  0.3846232E+03  0.7957747E-01  0.3431272E+00
         13   -1    0    0    0    0  0.00000000000E+00  0.00000000000E+00  0.14999999963E+04  0.15000000000E+04  0.10566000000E+00 0. -1.
        994   -1    0    0    0    0 -0.00000000000E+00 -0.00000000000E+00  0.11368683772E-12  0.17120000000E+03  0.17120000000E+03 0.  0.
         13    1    1    2    0    0 -0.12533858853E+02 -0.28946975997E+01  0.46527182822E+02  0.48272837055E+02  0.10566000000E+00 0. -1.
        994    1    1    2    0    0  0.20999159513E+01  0.57788504028E+01  0.19418419159E+01  0.17132138077E+03  0.17120000000E+03 0.  0.
        998    1    1    2    0    0  0.10433942901E+02 -0.28841528031E+01  0.14515309715E+04  0.14516057822E+04  0.10000000000E+02 0. -1.
</event>
<event>
 5    1  0.1607440E-008  0.3894721E+03  0.7957747E-01  0.3410924E+00
         13   -1    0    0    0    0  0.00000000000E+00  0.00000000000E+00  0.14999999963E+04  0.15000000000E+04  0.10566000000E+00 0. -1.
        994   -1    0    0    0    0 -0.00000000000E+00 -0.00000000000E+00  0.11368683772E-12  0.17120000000E+03  0.17120000000E+03 0.  0.
         13    1    1    2    0    0 -0.11779462632E+02  0.70294033212E+02  0.10455583791E+03  0.12653829954E+03  0.10566000000E+00 0. -1.
        994    1    1    2    0    0  0.97068772247E+01 -0.66461044913E+02  0.38773406149E+02  0.18794709623E+03  0.17120000000E+03 0.  0.
        998    1    1    2    0    0  0.20725854077E+01 -0.38329882998E+01  0.13566707522E+04  0.13567146042E+04  0.10000000000E+02 0. -1.
</event>
<event>
 5    1  0.1607440E-008  0.3845137E+03  0.7957747E-01  0.3431737E+00
         13   -1    0    0    0    0  0.00000000000E+00  0.00000000000E+00  0.14999999963E+04  0.15000000000E+04  0.10566000000E+00 0. -1.
        994   -1    0    0    0    0 -0.00000000000E+00 -0.00000000000E+00  0.11368683772E-12  0.17120000000E+03  0.17120000000E+03 0.  0.
         13    1    1    2    0    0 -0.15251399197E+02 -0.24152551726E+01  0.69360914305E+02  0.71059033432E+02  0.10566000000E+00 0. -1.
        994    1    1    2    0    0  0.74154271247E+00 -0.26100415145E+02  0.41206696041E+01  0.17322875476E+03  0.17120000000E+03 0.  0.
        998    1    1    2    0    0  0.14509856485E+02  0.28515670317E+02  0.14265184124E+04  0.14269122118E+04  0.10000000000E+02 0. -1.
</event>
<event>
 5    1  0.1607440E-008  0.3778816E+03  0.7957747E-01  0.3460435E+00
         13   -1    0    0    0    0  0.00000000000E+00  0.00000000000E+00  0.14999999963E+04  0.15000000000E+04  0.10566000000E+00 0.  1.
        994   -1    0    0    0    0 -0.00000000000E+00 -0.00000000000E+00  0.11368683772E-12  0.17120000000E+03  0.17120000000E+03 0.  0.
         13    1    1    2    0    0  0.26126987320E+02  0.30593919627E+01  0.64489397333E+02  0.69648208003E+02  0.10566000000E+00 0.  1.
        994    1    1    2    0    0 -0.17411070517E+02  0.37802656022E+01  0.62756926857E+01  0.17223896221E+03  0.17120000000E+03 0.  0.
        998    1    1    2    0    0 -0.87159168037E+01 -0.68396575650E+01  0.14292349063E+04  0.14293128298E+04  0.10000000000E+02 0.  1.
</event>
<event>
 5    1  0.1607440E-008  0.3838735E+03  0.7957747E-01  0.3434464E+00
         13   -1    0    0    0    0  0.00000000000E+00  0.00000000000E+00  0.14999999963E+04  0.15000000000E+04  0.10566000000E+00 0. -1.
        994   -1    0    0    0    0 -0.00000000000E+00 -0.00000000000E+00  0.11368683772E-12  0.17120000000E+03  0.17120000000E+03 0.  0.
         13    1    1    2    0    0  0.72557903830E+01  0.16654170150E+02  0.73120948730E+02  0.75343826453E+02  0.10566000000E+00 0. -1.
        994    1    1    2    0    0 -0.74901853354E+01 -0.13890786812E+02  0.30129351391E+01  0.17195224515E+03  0.17120000000E+03 0.  0.
        998    1    1    2    0    0  0.23439495245E+00 -0.27633833385E+01  0.14238661124E+04  0.14239039284E+04  0.10000000000E+02 0. -1.
</event>
<event>
 5    1  0.1607440E-008  0.3760189E+03  0.7957747E-01  0.3468678E+00
         13   -1    0    0    0    0  0.00000000000E+00  0.00000000000E+00  0.14999999963E+04  0.15000000000E+04  0.10566000000E+00 0.  1.
        994   -1    0    0    0    0 -0.00000000000E+00 -0.00000000000E+00  0.11368683772E-12  0.17120000000E+03  0.17120000000E+03 0.  0.
         13    1    1    2    0    0 -0.13151656792E+02 -0.22156031279E+01  0.11626753300E+02  0.17693714419E+02  0.10566000000E+00 0.  1.
        994    1    1    2    0    0  0.12242388298E+02  0.31586540281E+01  0.66981331101E+01  0.17179685141E+03  0.17120000000E+03 0.  0.
        998    1    1    2    0    0  0.90926849477E+00 -0.94305090013E+00  0.14816751099E+04  0.14817094342E+04  0.10000000000E+02 0.  1.
</event>
<event>
 5    1  0.1607440E-008  0.3858326E+03  0.7957747E-01  0.3426149E+00
         13   -1    0    0    0    0  0.00000000000E+00  0.00000000000E+00  0.14999999963E+04  0.15000000000E+04  0.10566000000E+00 0. -1.
        994   -1    0    0    0    0 -0.00000000000E+00 -0.00000000000E+00  0.11368683772E-12  0.17120000000E+03  0.17120000000E+03 0.  0.
         13    1    1    2    0    0  0.16299803667E+02  0.22011936459E+01  0.98472370950E+02  0.99836605800E+02  0.10566000000E+00 0. -1.
        994    1    1    2    0    0 -0.32191199401E+02  0.31286200373E+02  0.78545306920E+01  0.17716160223E+03  0.17120000000E+03 0.  0.
        998    1    1    2    0    0  0.15891395734E+02 -0.33487394019E+02  0.13936730946E+04  0.13942017920E+04  0.10000000000E+02 0. -1.
</event>
<event>
 5    1  0.1607440E-008  0.3851075E+03  0.7957747E-01  0.3429217E+00
         13   -1    0    0    0    0  0.00000000000E+00  0.00000000000E+00  0.14999999963E+04  0.15000000000E+04  0.10566000000E+00 0. -1.
        994   -1    0    0    0    0 -0.00000000000E+00 -0.00000000000E+00  0.11368683772E-12  0.17120000000E+03  0.17120000000E+03 0.  0.
         13    1    1    2    0    0  0.13855345342E+02  0.13344559120E+01  0.66037689867E+02  0.67488806584E+02  0.10566000000E+00 0. -1.
        994    1    1    2    0    0  0.24480735705E+01 -0.97181186377E+01  0.19070425358E+01  0.17150367840E+03  0.17120000000E+03 0.  0.
        998    1    1    2    0    0 -0.16303418913E+02  0.83836627257E+01  0.14320552639E+04  0.14322075150E+04  0.10000000000E+02 0. -1.
</event>
<event>
 5    1  0.1607440E-008  0.3745925E+03  0.7957747E-01  0.3475047E+00
         13   -1    0    0    0    0  0.00000000000E+00  0.00000000000E+00  0.14999999963E+04  0.15000000000E+04  0.10566000000E+00 0.  1.
        994   -1    0    0    0    0 -0.00000000000E+00 -0.00000000000E+00  0.11368683772E-12  0.17120000000E+03  0.17120000000E+03 0.  0.
         13    1    1    2    0    0 -0.30780976303E+02 -0.46146829016E+01  0.68815212906E+02  0.75526872646E+02  0.10566000000E+00 0.  1.
        994    1    1    2    0    0  0.14413120589E+02  0.81473675777E+01  0.78217436543E+01  0.17217647144E+03  0.17120000000E+03 0.  0.
        998    1    1    2    0    0  0.16367855714E+02 -0.35326846761E+01  0.14233630397E+04  0.14234966559E+04  0.10000000000E+02 0.  1.
</event>
<event>
 5    1  0.1607440E-008  0.3805100E+03  0.7957747E-01  0.3448941E+00
         13   -1    0    0    0    0  0.00000000000E+00  0.00000000000E+00  0.14999999963E+04  0.15000000000E+04  0.10566000000E+00 0.  1.
        994   -1    0    0    0    0 -0.00000000000E+00 -0.00000000000E+00  0.11368683772E-12  0.17120000000E+03  0.17120000000E+03 0.  0.
         13    1    1    2    0    0  0.53667830905E+01 -0.11647498162E+02  0.19682242370E+02  0.23491879510E+02  0.10566000000E+00 0.  1.
        994    1    1    2    0    0  0.10278136464E+02  0.13136703773E+02  0.48049247094E+01  0.17207771610E+03  0.17120000000E+03 0.  0.
        998    1    1    2    0    0 -0.15644919555E+02 -0.14892056109E+01  0.14755128292E+04  0.14756304044E+04  0.10000000000E+02 0.  1.
</event>
<event>
 5    1  0.1607440E-008  0.3813414E+03  0.7957747E-01  0.3445339E+00
         13   -1    0    0    0    0  0.00000000000E+00  0.00000000000E+00  0.14999999963E+04  0.15000000000E+04  0.10566000000E+00 0.  1.
        994   -1    0    0    0    0 -0.00000000000E+00 -0.00000000000E+00  0.11368683772E-12  0.17120000000E+03  0.17120000000E+03 0.  0.
         13    1    1    2    0    0 -0.21941688601E+01  0.22287082276E+02  0.91651546687E+02  0.94348002562E+02  0.10566000000E+00 0.  1.
        994    1    1    2    0    0 -0.30971128438E+02  0.27455009374E+02  0.91797395932E+01  0.17637090450E+03  0.17120000000E+03 0.  0.
        998    1    1    2    0    0  0.33165297298E+02 -0.49742091650E+02  0.13991687100E+04  0.14004810929E+04  0.10000000000E+02 0.  1.
</event>
<event>
 5    1  0.1607440E-008  0.3760390E+03  0.7957747E-01  0.3468589E+00
         13   -1    0    0    0    0  0.00000000000E+00  0.00000000000E+00  0.14999999963E+04  0.15000000000E+04  0.10566000000E+00 0.  1.
        994   -1    0    0    0    0 -0.00000000000E+00 -0.00000000000E+00  0.11368683772E-12  0.17120000000E+03  0.17120000000E+03 0.  0.
         13    1    1    2    0    0 -0.42563741478E+02 -0.43822647110E+02  0.26371320523E+03  0.27069680875E+03  0.10566000000E+00 0.  1.
        994    1    1    2    0    0  0.34132038823E+02  0.41876152391E+02  0.16097233552E+02  0.18024197386E+03  0.17120000000E+03 0.  0.
        998    1    1    2    0    0  0.84317026548E+01  0.19464947194E+01  0.12201895575E+04  0.12202612174E+04  0.10000000000E+02 0.  1.
</event>
<event>
 5    1  0.1607440E-008  0.3860277E+03  0.7957747E-01  0.3425325E+00
         13   -1    0    0    0    0  0.00000000000E+00  0.00000000000E+00  0.14999999963E+04  0.15000000000E+04  0.10566000000E+00 0. -1.
        994   -1    0    0    0    0 -0.00000000000E+00 -0.00000000000E+00  0.11368683772E-12  0.17120000000E+03  0.17120000000E+03 0.  0.
         13    1    1    2    0    0 -0.36605369764E+01  0.12792243511E+02  0.79896075694E+02  0.80996512890E+02  0.10566000000E+00 0. -1.
        994    1    1    2    0    0  0.32240632275E+01 -0.81998667501E+01  0.13752721566E+01  0.17143209668E+03  0.17120000000E+03 0.  0.
        998    1    1    2    0    0  0.43647374890E+00 -0.45923767608E+01  0.14187286484E+04  0.14187713904E+04  0.10000000000E+02 0. -1.
</event>
<event>
 5    1  0.1607440E-008  0.3797880E+03  0.7957747E-01  0.3452082E+00
         13   -1    0    0    0    0  0.00000000000E+00  0.00000000000E+00  0.14999999963E+04  0.15000000000E+04  0.10566000000E+00 0.  1.
        994   -1    0    0    0    0 -0.00000000000E+00 -0.00000000000E+00  0.11368683772E-12  0.17120000000E+03  0.17120000000E+03 0.  0.
         13    1    1    2    0    0  0.14257610574E+01  0.40173666012E+02  0.20209625021E+03  0.20605548221E+03  0.10566000000E+00 0.  1.
        994    1    1    2    0    0 -0.35351014546E+02 -0.14850385767E+02  0.91742082144E+01  0.17568105841E+03  0.17120000000E+03 0.  0.
        998    1    1    2    0    0  0.33925253489E+02 -0.25323280245E+02  0.12887295379E+04  0.12894634594E+04  0.10000000000E+02 0.  1.
</event>
<event>
 5    1  0.1607440E-008  0.3766457E+03  0.7957747E-01  0.3465895E+00
         13   -1    0    0    0    0  0.00000000000E+00  0.00000000000E+00  0.14999999963E+04  0.15000000000E+04  0.10566000000E+00 0. -1.
        994   -1    0    0    0    0 -0.00000000000E+00 -0.00000000000E+00  0.11368683772E-12  0.17120000000E+03  0.17120000000E+03 0.  0.
         13    1    1    2    0    0  0.12801377761E+03 -0.10075184681E+02  0.65109087029E+03  0.66363270650E+03  0.10566000000E+00 0. -1.
        994    1    1    2    0    0 -0.13743916198E+03  0.18977430487E+02  0.73954980488E+02  0.23244019716E+03  0.17120000000E+03 0.  0.
        998    1    1    2    0    0  0.94253843753E+01 -0.89022458067E+01  0.77495414550E+03  0.77512709634E+03  0.10000000000E+02 0.  1.
</event>
<event>
 5    1  0.1607440E-008  0.3857074E+03  0.7957747E-01  0.3426677E+00
         13   -1    0    0    0    0  0.00000000000E+00  0.00000000000E+00  0.14999999963E+04  0.15000000000E+04  0.10566000000E+00 0.  1.
        994   -1    0    0    0    0 -0.00000000000E+00 -0.00000000000E+00  0.11368683772E-12  0.17120000000E+03  0.17120000000E+03 0.  0.
         13    1    1    2    0    0 -0.15345755675E+02  0.33407932433E+01  0.94358541213E+02  0.95656670340E+02  0.10566000000E+00 0.  1.
        994    1    1    2    0    0  0.13409582350E+02 -0.17249648306E+01  0.18793178385E+01  0.17174330915E+03  0.17120000000E+03 0.  0.
        998    1    1    2    0    0  0.19361733244E+01 -0.16158284126E+01  0.14037621372E+04  0.14038000205E+04  0.10000000000E+02 0.  0.
</event>
<event>
 5    1  0.1607440E-008  0.3802521E+03  0.7957747E-01  0.3450061E+00
         13   -1    0    0    0    0  0.00000000000E+00  0.00000000000E+00  0.14999999963E+04  0.15000000000E+04  0.10566000000E+00 0. -1.
        994   -1    0    0    0    0 -0.00000000000E+00 -0.00000000000E+00  0.11368683772E-12  0.17120000000E+03  0.17120000000E+03 0.  0.
         13    1    1    2    0    0 -0.19913235708E+02 -0.11624819700E+02  0.61845397624E+02  0.66004073819E+02  0.10566000000E+00 0. -1.
        994    1    1    2    0    0  0.25302346588E+02  0.89905125600E+01  0.64180077870E+01  0.17341184759E+03  0.17120000000E+03 0.  0.
        998    1    1    2    0    0 -0.53891108796E+01  0.26343071402E+01  0.14317365909E+04  0.14317840786E+04  0.10000000000E+02 0. -1.
</event>
<event>
 5    1  0.1607440E-008  0.3847173E+03  0.7957747E-01  0.3430872E+00
         13   -1    0    0    0    0  0.00000000000E+00  0.00000000000E+00  0.14999999963E+04  0.15000000000E+04  0.10566000000E+00 0. -1.
        994   -1    0    0    0    0 -0.00000000000E+00 -0.00000000000E+00  0.11368683772E-12  0.17120000000E+03  0.17120000000E+03 0.  0.
         13    1    1    2    0    0 -0.55171498293E+01 -0.17025744034E+02  0.94261667990E+02  0.95945756126E+02  0.10566000000E+00 0. -1.
        994    1    1    2    0    0  0.12692939010E-01  0.60202602800E+01  0.18898717278E+01  0.17131624357E+03  0.17120000000E+03 0.  0.
        998    1    1    2    0    0  0.55044568903E+01  0.11005483754E+02  0.14038484566E+04  0.14039380003E+04  0.10000000000E+02 0. -1.
</event>
<event>
 5    1  0.1607440E-008  0.3784277E+03  0.7957747E-01  0.3458033E+00
         13   -1    0    0    0    0  0.00000000000E+00  0.00000000000E+00  0.14999999963E+04  0.15000000000E+04  0.10566000000E+00 0. -1.
        994   -1    0    0    0    0 -0.00000000000E+00 -0.00000000000E+00  0.11368683772E-12  0.17120000000E+03  0.17120000000E+03 0.  0.
         13    1    1    2    0    0  0.20255498383E+02  0.11988888369E+02  0.52250902484E+02  0.57307823493E+02  0.10566000000E+00 0. -1.
        994    1    1    2    0    0 -0.15970670372E+02 -0.24424807258E+02  0.77960452473E+01  0.17384433221E+03  0.17120000000E+03 0.  0.
        998    1    1    2    0    0 -0.42848280115E+01  0.12435918889E+02  0.14399530485E+04  0.14400478443E+04  0.10000000000E+02 0. -1.
</event>
<event>
 5    1  0.1607440E-008  0.3821605E+03  0.7957747E-01  0.3441805E+00
         13   -1    0    0    0    0  0.00000000000E+00  0.00000000000E+00  0.14999999963E+04  0.15000000000E+04  0.10566000000E+00 0. -1.
        994   -1    0    0    0    0 -0.00000000000E+00 -0.00000000000E+00  0.11368683772E-12  0.17120000000E+03  0.17120000000E+03 0.  0.
         13    1    1    2    0    0  0.15900396458E+03 -0.14000828291E+03  0.87331679559E+03  0.89864721479E+03  0.10566000000E+00 0. -1.
        994    1    1    2    0    0 -0.16519160085E+03  0.19311845404E+03  0.26001305656E+03  0.40186967025E+03  0.17120000000E+03 0.  0.
        998    1    1    2    0    0  0.61876362726E+01 -0.53110171133E+02  0.36667014413E+03  0.37068311496E+03  0.10000000000E+02 0. -1.
</event>
<event>
 5    1  0.1607440E-008  0.3828013E+03  0.7957747E-01  0.3439051E+00
         13   -1    0    0    0    0  0.00000000000E+00  0.00000000000E+00  0.14999999963E+04  0.15000000000E+04  0.10566000000E+00 0.  1.
        994   -1    0    0    0    0 -0.00000000000E+00 -0.00000000000E+00  0.11368683772E-12  0.17120000000E+03  0.17120000000E+03 0.  0.
         13    1    1    2    0    0 -0.11817457814E+02 -0.19538709778E+02  0.87130063727E+02  0.90072596599E+02  0.10566000000E+00 0.  1.
        994    1    1    2    0    0  0.18549094481E+02  0.22818338495E+02  0.55952532001E+01  0.17379727367E+03  0.17120000000E+03 0.  0.
        998    1    1    2    0    0 -0.67316366679E+01 -0.32796287176E+01  0.14072746794E+04  0.14073301297E+04  0.10000000000E+02 0.  1.
</event>
<event>
 5    1  0.1607440E-008  0.3769503E+03  0.7957747E-01  0.3464546E+00
         13   -1    0    0    0    0  0.00000000000E+00  0.00000000000E+00  0.14999999963E+04  0.15000000000E+04  0.10566000000E+00 0. -1.
        994   -1    0    0    0    0 -0.00000000000E+00 -0.00000000000E+00  0.11368683772E-12  0.17120000000E+03  0.17120000000E+03 0.  0.
         13    1    1    2    0    0  0.41415745485E+02 -0.22674572022E+02  0.19492128911E+03  0.20055852089E+03  0.10566000000E+00 0. -1.
        994    1    1    2    0    0 -0.22910038696E+02  0.14037701508E+02  0.81223977977E+01  0.17348585038E+03  0.17120000000E+03 0.  0.
        998    1    1    2    0    0 -0.18505706789E+02  0.86368705139E+01  0.12969563094E+04  0.12971556287E+04  0.10000000000E+02 0. -1.
</event>
<event>
 5    1  0.1607440E-008  0.4139206E+03  0.7957747E-01  0.3315573E+00
         13   -1    0    0    0    0  0.00000000000E+00  0.00000000000E+00  0.14999999963E+04  0.15000000000E+04  0.10566000000E+00 0. -1.
        994   -1    0    0    0    0 -0.00000000000E+00 -0.00000000000E+00  0.11368683772E-12  0.17120000000E+03  0.17120000000E+03 0.  0.
         13    1    1    2    0    0  0.43977712364E+02  0.13622429108E+03  0.23083359053E+03  0.27161600532E+03  0.10566000000E+00 0. -1.
        994    1    1    2    0    0 -0.45055344180E+02 -0.12748165089E+03  0.11739387159E+03  0.24773436669E+03  0.17120000000E+03 0.  0.
        998    1    1    2    0    0  0.10776318160E+01 -0.87426401852E+01  0.11517725342E+04  0.11518496280E+04  0.10000000000E+02 0. -1.
</event>
<event>
 5    1  0.1607440E-008  0.3843094E+03  0.7957747E-01  0.3432606E+00
         13   -1    0    0    0    0  0.00000000000E+00  0.00000000000E+00  0.14999999963E+04  0.15000000000E+04  0.10566000000E+00 0.  1.
        994   -1    0    0    0    0 -0.00000000000E+00 -0.00000000000E+00  0.11368683772E-12  0.17120000000E+03  0.17120000000E+03 0.  0.
         13    1    1    2    0    0 -0.39492474824E+01  0.21361807014E+02  0.12021269082E+03  0.12215983609E+03  0.10566000000E+00 0.  1.
        994    1    1    2    0    0  0.10285632806E+02 -0.10891525698E+02  0.27134307961E+01  0.17187560118E+03  0.17120000000E+03 0.  0.
        998    1    1    2    0    0 -0.63363853238E+01 -0.10470281316E+02  0.13770738747E+04  0.13771645627E+04  0.10000000000E+02 0.  1.
</event>
<event>
 5    1  0.1607440E-008  0.3803620E+03  0.7957747E-01  0.3449584E+00
         13   -1    0    0    0    0  0.00000000000E+00  0.00000000000E+00  0.14999999963E+04  0.15000000000E+04  0.10566000000E+00 0. -1.
        994   -1    0    0    0    0 -0.00000000000E+00 -0.00000000000E+00  0.11368683772E-12  0.17120000000E+03  0.17120000000E+03 0.  0.
         13    1    1    2    0    0  0.73536279493E+01  0.20845453048E+02  0.58837463929E+02  0.62852741249E+02  0.10566000000E+00 0. -1.
        994    1    1    2    0    0 -0.19557763462E+02 -0.15061265701E+02  0.59877455468E+01  0.17307409088E+03  0.17120000000E+03 0.  0.
        998    1    1    2    0    0  0.12204135513E+02 -0.57841873469E+01  0.14351747868E+04  0.14352731679E+04  0.10000000000E+02 0. -1.
</event>
<event>
 5    1  0.1607440E-008  0.3740985E+03  0.7957747E-01  0.3477264E+00
         13   -1    0    0    0    0  0.00000000000E+00  0.00000000000E+00  0.14999999963E+04  0.15000000000E+04  0.10566000000E+00 0. -1.
        994   -1    0    0    0    0 -0.00000000000E+00 -0.00000000000E+00  0.11368683772E-12  0.17120000000E+03  0.17120000000E+03 0.  0.
         13    1    1    2    0    0 -0.20648145945E+02 -0.35671631780E+02  0.12231500453E+03  0.12907278080E+03  0.10566000000E+00 0. -1.
        994    1    1    2    0    0  0.31485418584E+02 -0.14526724116E+01  0.10537068326E+02  0.17439584757E+03  0.17120000000E+03 0.  0.
        998    1    1    2    0    0 -0.10837272639E+02  0.37124304191E+02  0.13671479234E+04  0.13677313716E+04  0.10000000000E+02 0. -1.
</event>
<event>
 5    1  0.1607440E-008  0.3774280E+03  0.7957747E-01  0.3462435E+00
         13   -1    0    0    0    0  0.00000000000E+00  0.00000000000E+00  0.14999999963E+04  0.15000000000E+04  0.10566000000E+00 0. -1.
        994   -1    0    0    0    0 -0.00000000000E+00 -0.00000000000E+00  0.11368683772E-12  0.17120000000E+03  0.17120000000E+03 0.  0.
         13    1    1    2    0    0 -0.57866673706E+01 -0.55958663347E+02  0.28450947893E+03  0.29001812407E+03  0.10566000000E+00 0. -1.
        994    1    1    2    0    0  0.15900534489E+02  0.32891999779E+02  0.99504623497E+01  0.17533728168E+03  0.17120000000E+03 0.  0.
        998    1    1    2    0    0 -0.10113867118E+02  0.23066663568E+02  0.12055400550E+04  0.12058445942E+04  0.10000000000E+02 0. -1.
</event>
<event>
 5    1  0.1607440E-008  0.3832569E+03  0.7957747E-01  0.3437099E+00
         13   -1    0    0    0    0  0.00000000000E+00  0.00000000000E+00  0.14999999963E+04  0.15000000000E+04  0.10566000000E+00 0. -1.
        994   -1    0    0    0    0 -0.00000000000E+00 -0.00000000000E+00  0.11368683772E-12  0.17120000000E+03  0.17120000000E+03 0.  0.
         13    1    1    2    0    0  0.25711707305E+02 -0.30137901589E+02  0.23024326419E+03  0.23362653290E+03  0.10566000000E+00 0. -1.
        994    1    1    2    0    0 -0.37293600920E+02  0.40789363289E+02  0.12666947038E+02  0.18034543624E+03  0.17120000000E+03 0.  0.
        998    1    1    2    0    0  0.11581893615E+02 -0.10651461700E+02  0.12570897851E+04  0.12572280309E+04  0.10000000000E+02 0. -1.
</event>
<event>
 5    1  0.1607440E-008  0.3849148E+03  0.7957747E-01  0.3430033E+00
         13   -1    0    0    0    0  0.00000000000E+00  0.00000000000E+00  0.14999999963E+04  0.15000000000E+04  0.10566000000E+00 0.  1.
        994   -1    0    0    0    0 -0.00000000000E+00 -0.00000000000E+00  0.11368683772E-12  0.17120000000E+03  0.17120000000E+03 0.  0.
         13    1    1    2    0    0 -0.94675679219E+01 -0.10137090125E+02  0.58042504918E+02  0.59676955182E+02  0.10566000000E+00 0.  1.
        994    1    1    2    0    0  0.32998773444E+01  0.71949486807E+01  0.18785689369E+01  0.17139318977E+03  0.17120000000E+03 0.  0.
        998    1    1    2    0    0  0.61676905774E+01  0.29421414439E+01  0.14400789224E+04  0.14401298551E+04  0.10000000000E+02 0.  1.
</event>
<event>
 5    1  0.1607440E-008  0.3834462E+03  0.7957747E-01  0.3436289E+00
         13   -1    0    0    0    0  0.00000000000E+00  0.00000000000E+00  0.14999999963E+04  0.15000000000E+04  0.10566000000E+00 0.  1.
        994   -1    0    0    0    0 -0.00000000000E+00 -0.00000000000E+00  0.11368683772E-12  0.17120000000E+03  0.17120000000E+03 0.  0.
         13    1    1    2    0    0 -0.19944928648E+02 -0.67474355098E+01  0.99569916056E+02  0.10177183998E+03  0.10566000000E+00 0.  1.
        994    1    1    2    0    0 -0.85425271093E+00  0.45931944748E+01  0.24756899728E+01  0.17128162839E+03  0.17120000000E+03 0.  0.
        998    1    1    2    0    0  0.20799181359E+02  0.21542410350E+01  0.13979543902E+04  0.13981465316E+04  0.10000000000E+02 0.  1.
</event>
<event>
 5    1  0.1607440E-008  0.3812509E+03  0.7957747E-01  0.3445730E+00
         13   -1    0    0    0    0  0.00000000000E+00  0.00000000000E+00  0.14999999963E+04  0.15000000000E+04  0.10566000000E+00 0.  1.
        994   -1    0    0    0    0 -0.00000000000E+00 -0.00000000000E+00  0.11368683772E-12  0.17120000000E+03  0.17120000000E+03 0.  0.
         13    1    1    2    0    0  0.18254622596E+02 -0.21599122880E+02  0.12962510006E+03  0.13267415379E+03  0.10566000000E+00 0.  1.
        994    1    1    2    0    0  0.10126744462E+01 -0.47421287623E+01  0.35812937963E+01  0.17130609726E+03  0.17120000000E+03 0.  0.
        998    1    1    2    0    0 -0.19267297042E+02  0.26341251643E+02  0.13667936024E+04  0.13672197489E+04  0.10000000000E+02 0.  1.
</event>
<event>
 5    1  0.1607440E-008  0.3835600E+03  0.7957747E-01  0.3435803E+00
         13   -1    0    0    0    0  0.00000000000E+00  0.00000000000E+00  0.14999999963E+04  0.15000000000E+04  0.10566000000E+00 0. -1.
        994   -1    0    0    0    0 -0.00000000000E+00 -0.00000000000E+00  0.11368683772E-12  0.17120000000E+03  0.17120000000E+03 0.  0.
         13    1    1    2    0    0 -0.14891589329E+02  0.10439961011E+02  0.66121489944E+02  0.68577072081E+02  0.10566000000E+00 0. -1.
        994    1    1    2    0    0  0.19610698605E+02 -0.10496447507E+02  0.39831933799E+01  0.17268485961E+03  0.17120000000E+03 0.  0.
        998    1    1    2    0    0 -0.47191092757E+01  0.56486496203E-01  0.14298953130E+04  0.14299380683E+04  0.10000000000E+02 0. -1.
</event>
<event>
 5    1  0.1607440E-008  0.3684781E+03  0.7957747E-01  0.3502914E+00
         13   -1    0    0    0    0  0.00000000000E+00  0.00000000000E+00  0.14999999963E+04  0.15000000000E+04  0.10566000000E+00 0. -1.
        994   -1    0    0    0    0 -0.00000000000E+00 -0.00000000000E+00  0.11368683772E-12  0.17120000000E+03  0.17120000000E+03 0.  0.
         13    1    1    2    0    0 -0.91376682431E+00  0.26878625298E+02  0.31743161210E+02  0.41604505950E+02  0.10566000000E+00 0. -1.
        994    1    1    2    0    0 -0.13496944977E+02 -0.16782707344E+02  0.11750927457E+02  0.17294898405E+03  0.17120000000E+03 0.  0.
        998    1    1    2    0    0  0.14410711801E+02 -0.10095917954E+02  0.14565059076E+04  0.14566465100E+04  0.10000000000E+02 0. -1.
</event>
<event>
 5    1  0.1607440E-008  0.3815358E+03  0.7957747E-01  0.3444499E+00
         13   -1    0    0    0    0  0.00000000000E+00  0.00000000000E+00  0.14999999963E+04  0.15000000000E+04  0.10566000000E+00 0. -1.
        994   -1    0    0    0    0 -0.00000000000E+00 -0.00000000000E+00  0.11368683772E-12  0.17120000000E+03  0.17120000000E+03 0.  0.
         13    1    1    2    0    0 -0.62616626052E+01  0.13832155518E+02  0.33277917180E+02  0.36578243270E+02  0.10566000000E+00 0. -1.
        994    1    1    2    0    0  0.19622609572E+02 -0.29012983022E+00  0.46419112248E+01  0.17238363705E+03  0.17120000000E+03 0.  0.
        998    1    1    2    0    0 -0.13360946967E+02 -0.13542025688E+02  0.14620801679E+04  0.14622381197E+04  0.10000000000E+02 0. -1.
</event>
<event>
 5    1  0.1607440E-008  0.3844976E+03  0.7957747E-01  0.3431806E+00
         13   -1    0    0    0    0  0.00000000000E+00  0.00000000000E+00  0.14999999963E+04  0.15000000000E+04  0.10566000000E+00 0. -1.
        994   -1    0    0    0    0 -0.00000000000E+00 -0.00000000000E+00  0.11368683772E-12  0.17120000000E+03  0.17120000000E+03 0.  0.
         13    1    1    2    0    0  0.72239701847E+01 -0.96066954959E+01  0.40356423165E+02  0.42108507433E+02  0.10566000000E+00 0. -1.
        994    1    1    2    0    0 -0.19604314047E+02 -0.19167136266E+02  0.43598270699E+01  0.17343631781E+03  0.17120000000E+03 0.  0.
        998    1    1    2    0    0  0.12380343862E+02  0.28773831762E+02  0.14552837460E+04  0.14556551748E+04  0.10000000000E+02 0. -1.
</event>
<event>
 5    1  0.1607440E-008  0.4208791E+03  0.7957747E-01  0.3290438E+00
         13   -1    0    0    0    0  0.00000000000E+00  0.00000000000E+00  0.14999999963E+04  0.15000000000E+04  0.10566000000E+00 0.  1.
        994   -1    0    0    0    0 -0.00000000000E+00 -0.00000000000E+00  0.11368683772E-12  0.17120000000E+03  0.17120000000E+03 0.  0.
         13    1    1    2    0    0 -0.63656491298E+02  0.38854659920E+01  0.35262857772E+02  0.72874728353E+02  0.10566000000E+00 0.  1.
        994    1    1    2    0    0  0.59273843175E+02 -0.32838784623E+01  0.56157412639E+02  0.18970310313E+03  0.17120000000E+03 0.  0.
        998    1    1    2    0    0  0.43826481232E+01 -0.60158752973E+00  0.14085797259E+04  0.14086221685E+04  0.10000000000E+02 0.  1.
</event>
<event>
 5    1  0.1607440E-008  0.3731225E+03  0.7957747E-01  0.3481663E+00
         13   -1    0    0    0    0  0.00000000000E+00  0.00000000000E+00  0.14999999963E+04  0.15000000000E+04  0.10566000000E+00 0.  1.
        994   -1    0    0    0    0 -0.00000000000E+00 -0.00000000000E+00  0.11368683772E-12  0.17120000000E+03  0.17120000000E+03 0.  0.
         13    1    1    2    0    0  0.85432446579E+02  0.71729725851E+02  0.51036679908E+03  0.52241567479E+03  0.10566000000E+00 0.  1.
        994    1    1    2    0    0 -0.89132499761E+02 -0.69906410553E+02  0.52900509465E+02  0.21198918051E+03  0.17120000000E+03 0.  0.
        998    1    1    2    0    0  0.37000531818E+01 -0.18233152977E+01  0.93673268773E+03  0.93679514470E+03  0.10000000000E+02 0.  0.
</event>
<event>
 5    1  0.1607440E-008  0.3776063E+03  0.7957747E-01  0.3461648E+00
         13   -1    0    0    0    0  0.00000000000E+00  0.00000000000E+00  0.14999999963E+04  0.15000000000E+04  0.10566000000E+00 0.  1.
        994   -1    0    0    0    0 -0.00000000000E+00 -0.00000000000E+00  0.11368683772E-12  0.17120000000E+03  0.17120000000E+03 0.  0.
         13    1    1    2    0    0 -0.24159138131E+02  0.11324190110E+01  0.50879600354E+02  0.56335523644E+02  0.10566000000E+00 0.  1.
        994    1    1    2    0    0  0.24435609207E+02 -0.28487934353E+02  0.10107693933E+02  0.17555701888E+03  0.17120000000E+03 0.  0.
        998    1    1    2    0    0 -0.27647107640E+00  0.27355515342E+02  0.14390127020E+04  0.14393074575E+04  0.10000000000E+02 0.  1.
</event>
<event>
 5    1  0.1607440E-008  0.3831804E+03  0.7957747E-01  0.3437426E+00
         13   -1    0    0    0    0  0.00000000000E+00  0.00000000000E+00  0.14999999963E+04  0.15000000000E+04  0.10566000000E+00 0. -1.
        994   -1    0    0    0    0 -0.00000000000E+00 -0.00000000000E+00  0.11368683772E-12  0.17120000000E+03  0.17120000000E+03 0.  0.
         13    1    1    2    0    0 -0.26240657006E+01 -0.16970027915E+02  0.58480022444E+02  0.60949091522E+02  0.10566000000E+00 0. -1.
        994    1    1    2    0    0 -0.74960146801E-01  0.75840299045E+01  0.27265682680E+01  0.17138960675E+03  0.17120000000E+03 0.  0.
        998    1    1    2    0    0  0.26990258474E+01  0.93859980101E+01  0.14387934056E+04  0.14388613017E+04  0.10000000000E+02 0.  0.
</event>
<event>
 5    1  0.1607440E-008  0.3823955E+03  0.7957747E-01  0.3440794E+00
         13   -1    0    0    0    0  0.00000000000E+00  0.00000000000E+00  0.14999999963E+04  0.15000000000E+04  0.10566000000E+00 0. -1.
        994   -1    0    0    0    0 -0.00000000000E+00 -0.00000000000E+00  0.11368683772E-12  0.17120000000E+03  0.17120000000E+03 0.  0.
         13    1    1    2    0    0 -0.16569684554E+02 -0.30803011632E+02  0.20315077074E+03  0.20613982339E+03  0.10566000000E+00 0. -1.
        994    1    1    2    0    0  0.99615450979E+01  0.20742184027E+02  0.46868040660E+01  0.17280299972E+03  0.17120000000E+03 0.  0.
        998    1    1    2    0    0  0.66081394564E+01  0.10060827605E+02  0.12921624215E+04  0.12922571769E+04  0.10000000000E+02 0. -1.
</event>
<event>
 5    1  0.1607440E-008  0.3703653E+03  0.7957747E-01  0.3494214E+00
         13   -1    0    0    0    0  0.00000000000E+00  0.00000000000E+00  0.14999999963E+04  0.15000000000E+04  0.10566000000E+00 0. -1.
        994   -1    0    0    0    0 -0.00000000000E+00 -0.00000000000E+00  0.11368683772E-12  0.17120000000E+03  0.17120000000E+03 0.  0.
         13    1    1    2    0    0 -0.31500309674E+02 -0.63387382739E+02  0.30248493120E+03  0.31065636090E+03  0.10566000000E+00 0. -1.
        994    1    1    2    0    0  0.30419454136E+02  0.14150518084E+02  0.12975148813E+02  0.17493820291E+03  0.17120000000E+03 0.  0.
        998    1    1    2    0    0  0.10808555378E+01  0.49236864655E+02  0.11845399163E+04  0.11856054362E+04  0.10000000000E+02 0. -1.
</event>
<event>
 5    1  0.1607440E-008  0.3752227E+03  0.7957747E-01  0.3472227E+00
         13   -1    0    0    0    0  0.00000000000E+00  0.00000000000E+00  0.14999999963E+04  0.15000000000E+04  0.10566000000E+00 0.  1.
        994   -1    0    0    0    0 -0.00000000000E+00 -0.00000000000E+00  0.11368683772E-12  0.17120000000E+03  0.17120000000E+03 0.  0.
         13    1    1    2    0    0  0.59224073583E+02  0.86805117333E+02  0.38617438527E+03  0.40021654924E+03  0.10566000000E+00 0.  1.
        994    1    1    2    0    0  0.42008850051E+02 -0.12345472328E+03  0.77053153798E+02  0.22858792770E+03  0.17120000000E+03 0.  0.
        998    1    1    2    0    0 -0.10123292363E+03  0.36649605945E+02  0.10367724572E+04  0.10423955231E+04  0.10000000000E+02 0.  1.
</event>
<event>
 5    1  0.1607440E-008  0.3715515E+03  0.7957747E-01  0.3488791E+00
         13   -1    0    0    0    0  0.00000000000E+00  0.00000000000E+00  0.14999999963E+04  0.15000000000E+04  0.10566000000E+00 0.  1.
        994   -1    0    0    0    0 -0.00000000000E+00 -0.00000000000E+00  0.11368683772E-12  0.17120000000E+03  0.17120000000E+03 0.  0.
         13    1    1    2    0    0  0.12628520024E+02  0.40362729673E+02  0.10109144853E+03  0.10958157507E+03  0.10566000000E+00 0.  1.
        994    1    1    2    0    0 -0.45101809111E+02 -0.18058359877E+02  0.16622019393E+02  0.17873446527E+03  0.17120000000E+03 0.  0.
        998    1    1    2    0    0  0.32473289087E+02 -0.22304369796E+02  0.13822865284E+04  0.13828839597E+04  0.10000000000E+02 0.  1.
</event>
<event>
 5    1  0.1607440E-008  0.3696829E+03  0.7957747E-01  0.3497350E+00
         13   -1    0    0    0    0  0.00000000000E+00  0.00000000000E+00  0.14999999963E+04  0.15000000000E+04  0.10566000000E+00 0.  1.
        994   -1    0    0    0    0 -0.00000000000E+00 -0.00000000000E+00  0.11368683772E-12  0.17120000000E+03  0.17120000000E+03 0.  0.
         13    1    1    2    0    0  0.12134575616E+03 -0.46585008225E+02  0.49368416225E+03  0.51050858832E+03  0.10566000000E+00 0.  1.
        994    1    1    2    0    0 -0.13158700414E+03  0.25849249410E+02  0.76496659956E+02  0.23053091406E+03  0.17120000000E+03 0.  0.
        998    1    1    2    0    0  0.10241247979E+02  0.20735758814E+02  0.92981917408E+03  0.93016049762E+03  0.10000000000E+02 0.  1.
</event>
<event>
 5    1  0.1607440E-008  0.3848636E+03  0.7957747E-01  0.3430251E+00
         13   -1    0    0    0    0  0.00000000000E+00  0.00000000000E+00  0.14999999963E+04  0.15000000000E+04  0.10566000000E+00 0. -1.
        994   -1    0    0    0    0 -0.00000000000E+00 -0.00000000000E+00  0.11368683772E-12  0.17120000000E+03  0.17120000000E+03 0.  0.
         13    1    1    2    0    0  0.13262003482E+02 -0.30541383957E+01  0.58587835831E+02  0.60147769444E+02  0.10566000000E+00 0. -1.
        994    1    1    2    0    0  0.25928651510E+01 -0.30310105126E+01  0.17502219681E+01  0.17125540357E+03  0.17120000000E+03 0.  0.
        998    1    1    2    0    0 -0.15854868633E+02  0.60851489083E+01  0.14396619385E+04  0.14397968270E+04  0.10000000000E+02 0.  0.
</event>
<event>
 5    1  0.1607440E-008  0.3851480E+03  0.7957747E-01  0.3429045E+00
         13   -1    0    0    0    0  0.00000000000E+00  0.00000000000E+00  0.14999999963E+04  0.15000000000E+04  0.10566000000E+00 0. -1.
        994   -1    0    0    0    0 -0.00000000000E+00 -0.00000000000E+00  0.11368683772E-12  0.17120000000E+03  0.17120000000E+03 0.  0.
         13    1    1    2    0    0 -0.10275330019E+02 -0.16887475165E+01  0.36863691101E+02  0.38306359274E+02  0.10566000000E+00 0. -1.
        994    1    1    2    0    0 -0.42282973523E+01 -0.49199448735E+01  0.16950338060E+01  0.17133125079E+03  0.17120000000E+03 0.  0.
        998    1    1    2    0    0  0.14503627371E+02  0.66086923900E+01  0.14614412714E+04  0.14615623899E+04  0.10000000000E+02 0. -1.
</event>
<event>
 5    1  0.1607440E-008  0.3697691E+03  0.7957747E-01  0.3496953E+00
         13   -1    0    0    0    0  0.00000000000E+00  0.00000000000E+00  0.14999999963E+04  0.15000000000E+04  0.10566000000E+00 0. -1.
        994   -1    0    0    0    0 -0.00000000000E+00 -0.00000000000E+00  0.11368683772E-12  0.17120000000E+03  0.17120000000E+03 0.  0.
         13    1    1    2    0    0  0.17708457219E+02  0.47147080363E+02  0.12145671939E+03  0.13148453328E+03  0.10566000000E+00 0. -1.
        994    1    1    2    0    0 -0.18754034604E+02 -0.47570814013E+02  0.18492762701E+02  0.17962772178E+03  0.17120000000E+03 0.  0.
        998    1    1    2    0    0  0.10455773858E+01  0.42373364965E+00  0.13600505142E+04  0.13600877449E+04  0.10000000000E+02 0. -1.
</event>
<event>
 5    1  0.1607440E-008  0.3731529E+03  0.7957747E-01  0.3481525E+00
         13   -1    0    0    0    0  0.00000000000E+00  0.00000000000E+00  0.14999999963E+04  0.15000000000E+04  0.10566000000E+00 0. -1.
        994   -1    0    0    0    0 -0.00000000000E+00 -0.00000000000E+00  0.11368683772E-12  0.17120000000E+03  0.17120000000E+03 0.  0.
         13    1    1    2    0    0 -0.59980680387E+02  0.12672946491E+02  0.13291713818E+03  0.14637370795E+03  0.10566000000E+00 0. -1.
        994    1    1    2    0    0  0.62313080747E+02  0.16133268608E+01  0.26481270967E+02  0.18410926258E+03  0.17120000000E+03 0.  0.
        998    1    1    2    0    0 -0.23324003597E+01 -0.14286273352E+02  0.13406015871E+04  0.13407170295E+04  0.10000000000E+02 0. -1.
</event>
<event>
 5    1  0.1607440E-008  0.3835446E+03  0.7957747E-01  0.3435868E+00
         13   -1    0    0    0    0  0.00000000000E+00  0.00000000000E+00  0.14999999963E+04  0.15000000000E+04  0.10566000000E+00 0. -1.
        994   -1    0    0    0    0 -0.00000000000E+00 -0.00000000000E+00  0.11368683772E-12  0.17120000000E+03  0.17120000000E+03 0.  0.
         13    1    1    2    0    0  0.12688950537E+02 -0.71316635437E+01  0.41408284809E+02  0.43892223748E+02  0.10566000000E+00 0. -1.
        994    1    1    2    0    0 -0.99416930757E+01  0.35174051065E+02  0.67816113766E+01  0.17518984383E+03  0.17120000000E+03 0.  0.
        998    1    1    2    0    0 -0.27472574609E+01 -0.28042387521E+02  0.14518101001E+04  0.14521179324E+04  0.10000000000E+02 0. -1.
</event>
<event>
 5    1  0.1607440E-008  0.3796629E+03  0.7957747E-01  0.3452627E+00
         13   -1    0    0    0    0  0.00000000000E+00  0.00000000000E+00  0.14999999963E+04  0.15000000000E+04  0.10566000000E+00 0.  1.
        994   -1    0    0    0    0 -0.00000000000E+00 -0.00000000000E+00  0.11368683772E-12  0.17120000000E+03  0.17120000000E+03 0.  0.
         13    1    1    2    0    0 -0.75720033605E+02 -0.19832009792E+02  0.18982841546E+03  0.20533307230E+03  0.10566000000E+00 0.  1.
        994    1    1    2    0    0  0.38822663650E+02  0.18566901492E+02  0.22874497180E+02  0.17800171815E+03  0.17120000000E+03 0.  0.
        998    1    1    2    0    0  0.36897369955E+02  0.12651083001E+01  0.12872970836E+04  0.12878652095E+04  0.10000000000E+02 0.  1.
</event>
<event>
 5    1  0.1607440E-008  0.3851274E+03  0.7957747E-01  0.3429132E+00
         13   -1    0    0    0    0  0.00000000000E+00  0.00000000000E+00  0.14999999963E+04  0.15000000000E+04  0.10566000000E+00 0. -1.
        994   -1    0    0    0    0 -0.00000000000E+00 -0.00000000000E+00  0.11368683772E-12  0.17120000000E+03  0.17120000000E+03 0.  0.
         13    1    1    2    0    0 -0.64170576610E+01  0.19537445919E+02  0.12399244297E+03  0.12568622637E+03  0.10566000000E+00 0. -1.
        994    1    1    2    0    0 -0.85251979603E+01 -0.27136578497E+02  0.42310802680E+01  0.17359843010E+03  0.17120000000E+03 0.  0.
        998    1    1    2    0    0  0.14942255621E+02  0.75991325779E+01  0.13717764730E+04  0.13719153435E+04  0.10000000000E+02 0. -1.
</event>
<event>
 5    1  0.1607440E-008  0.3813727E+03  0.7957747E-01  0.3445203E+00
         13   -1    0    0    0    0  0.00000000000E+00  0.00000000000E+00  0.14999999963E+04  0.15000000000E+04  0.10566000000E+00 0.  1.
        994   -1    0    0    0    0 -0.00000000000E+00 -0.00000000000E+00  0.11368683772E-12  0.17120000000E+03  0.17120000000E+03 0.  0.
         13    1    1    2    0    0 -0.96537732413E+01 -0.13753074542E+02  0.40709123537E+02  0.44040734557E+02  0.10566000000E+00 0.  1.
        994    1    1    2    0    0 -0.62904475404E+00  0.63506889494E+01  0.35773401403E+01  0.17135624970E+03  0.17120000000E+03 0.  0.
        998    1    1    2    0    0  0.10282817995E+02  0.74023855926E+01  0.14557135326E+04  0.14558030157E+04  0.10000000000E+02 0.  1.
</event>
<event>
 5    1  0.3104624E-008  0.3807472E+03  0.7957747E-01  0.3447911E+00
         13   -1    0    0    0    0  0.00000000000E+00  0.00000000000E+00  0.14999999963E+04  0.15000000000E+04  0.10566000000E+00 0.  1.
        994   -1    0    0    0    0 -0.00000000000E+00 -0.00000000000E+00  0.11368683772E-12  0.17120000000E+03  0.17120000000E+03 0.  0.
         13    1    1    2    0    0  0.10904783762E+02  0.37247811647E+01  0.15897204791E+02  0.19634678195E+02  0.10566000000E+00 0.  1.
        994    1    1    2    0    0 -0.12068795840E+02 -0.45013797504E+01  0.43098985193E+01  0.17173797914E+03  0.17120000000E+03 0.  0.
        998    1    1    2    0    0  0.11640120786E+01  0.77659858564E+00  0.14797928930E+04  0.14798273427E+04  0.10000000000E+02 0.  1.
</event>
<event>
 5    1  0.1607440E-008  0.3745445E+03  0.7957747E-01  0.3475262E+00
         13   -1    0    0    0    0  0.00000000000E+00  0.00000000000E+00  0.14999999963E+04  0.15000000000E+04  0.10566000000E+00 0. -1.
        994   -1    0    0    0    0 -0.00000000000E+00 -0.00000000000E+00  0.11368683772E-12  0.17120000000E+03  0.17120000000E+03 0.  0.
         13    1    1    2    0    0  0.11431476097E+02  0.29101468872E+02  0.63201149675E+02  0.70512201926E+02  0.10566000000E+00 0. -1.
        994    1    1    2    0    0 -0.35445903843E+02 -0.30983502665E+02  0.14496070940E+02  0.17814591101E+03  0.17120000000E+03 0.  0.
        998    1    1    2    0    0  0.24014427746E+02  0.18820337930E+01  0.14223027757E+04  0.14225418871E+04  0.10000000000E+02 0. -1.
</event>
<event>
 5    1  0.1607440E-008  0.3823011E+03  0.7957747E-01  0.3441200E+00
         13   -1    0    0    0    0  0.00000000000E+00  0.00000000000E+00  0.14999999963E+04  0.15000000000E+04  0.10566000000E+00 0.  1.
        994   -1    0    0    0    0 -0.00000000000E+00 -0.00000000000E+00  0.11368683772E-12  0.17120000000E+03  0.17120000000E+03 0.  0.
         13    1    1    2    0    0  0.29979126338E+02  0.69175207821E+01  0.14618323883E+03  0.14938591161E+03  0.10566000000E+00 0.  1.
        994    1    1    2    0    0 -0.31976268457E+02  0.73655405346E+01  0.65565308786E+01  0.17443956268E+03  0.17120000000E+03 0.  0.
        998    1    1    2    0    0  0.19971421192E+01 -0.14283061317E+02  0.13472602266E+04  0.13473745257E+04  0.10000000000E+02 0.  1.
</event>
<event>
 5    1  0.1607440E-008  0.3796415E+03  0.7957747E-01  0.3452721E+00
         13   -1    0    0    0    0  0.00000000000E+00  0.00000000000E+00  0.14999999963E+04  0.15000000000E+04  0.10566000000E+00 0.  1.
        994   -1    0    0    0    0 -0.00000000000E+00 -0.00000000000E+00  0.11368683772E-12  0.17120000000E+03  0.17120000000E+03 0.  0.
         13    1    1    2    0    0  0.30842026604E+02  0.34529275145E+01  0.10240801884E+03  0.10700732125E+03  0.10566000000E+00 0.  1.
        994    1    1    2    0    0 -0.32340430999E+02 -0.89886886902E+01  0.80943577998E+01  0.17464724054E+03  0.17120000000E+03 0.  0.
        998    1    1    2    0    0  0.14984043951E+01  0.55357611757E+01  0.13894976196E+04  0.13895454382E+04  0.10000000000E+02 0.  1.
</event>
<event>
 5    1  0.1607440E-008  0.3773620E+03  0.7957747E-01  0.3462726E+00
         13   -1    0    0    0    0  0.00000000000E+00  0.00000000000E+00  0.14999999963E+04  0.15000000000E+04  0.10566000000E+00 0.  1.
        994   -1    0    0    0    0 -0.00000000000E+00 -0.00000000000E+00  0.11368683772E-12  0.17120000000E+03  0.17120000000E+03 0.  0.
         13    1    1    2    0    0  0.95766512245E+01 -0.27800901240E+02  0.22656799716E+02  0.37120669388E+02  0.10566000000E+00 0.  1.
        994    1    1    2    0    0 -0.10235717019E+02  0.24621080477E+02  0.17441348671E+02  0.17413962257E+03  0.17120000000E+03 0.  0.
        998    1    1    2    0    0  0.65906579416E+00  0.31798207629E+01  0.14599018479E+04  0.14599397080E+04  0.10000000000E+02 0.  1.
</event>
<event>
 5    1  0.1607440E-008  0.3550388E+03  0.7957747E-01  0.3567608E+00
         13   -1    0    0    0    0  0.00000000000E+00  0.00000000000E+00  0.14999999963E+04  0.15000000000E+04  0.10566000000E+00 0.  1.
        994   -1    0    0    0    0 -0.00000000000E+00 -0.00000000000E+00  0.11368683772E-12  0.17120000000E+03  0.17120000000E+03 0.  0.
         13    1    1    2    0    0 -0.21725779686E+03 -0.20419782710E+03  0.88611257180E+03  0.93492951817E+03  0.10566000000E+00 0.  1.
        994    1    1    2    0    0  0.18315788981E+03  0.18840854252E+03  0.35171417044E+03  0.47122912599E+03  0.17120000000E+03 0.  0.
        998    1    1    2    0    0  0.34099907054E+02  0.15789284583E+02  0.26217325404E+03  0.26504135584E+03  0.10000000000E+02 0.  1.
</event>
<event>
 5    1  0.1607440E-008  0.3937643E+03  0.7957747E-01  0.3393332E+00
         13   -1    0    0    0    0  0.00000000000E+00  0.00000000000E+00  0.14999999963E+04  0.15000000000E+04  0.10566000000E+00 0. -1.
        994   -1    0    0    0    0 -0.00000000000E+00 -0.00000000000E+00  0.11368683772E-12  0.17120000000E+03  0.17120000000E+03 0.  0.
         13    1    1    2    0    0  0.39685823767E+02 -0.10996386753E+03  0.51791342934E+03  0.53094382775E+03  0.10566000000E+00 0. -1.
        994    1    1    2    0    0  0.32183477940E+02 -0.64033162548E+01  0.28224744819E+02  0.17658667824E+03  0.17120000000E+03 0.  0.
        998    1    1    2    0    0 -0.71869301707E+02  0.11636718379E+03  0.95386182212E+03  0.96366949401E+03  0.10000000000E+02 0. -1.
</event>
<event>
 5    1  0.1607440E-008  0.3851397E+03  0.7957747E-01  0.3429080E+00
         13   -1    0    0    0    0  0.00000000000E+00  0.00000000000E+00  0.14999999963E+04  0.15000000000E+04  0.10566000000E+00 0. -1.
        994   -1    0    0    0    0 -0.00000000000E+00 -0.00000000000E+00  0.11368683772E-12  0.17120000000E+03  0.17120000000E+03 0.  0.
         13    1    1    2    0    0 -0.26202266282E+01  0.10059436482E+02  0.35058174285E+02  0.36566987819E+02  0.10566000000E+00 0. -1.
        994    1    1    2    0    0 -0.22978812014E+01 -0.44313631705E+01  0.16427005852E+01  0.17128063435E+03  0.17120000000E+03 0.  0.
        998    1    1    2    0    0  0.49181078295E+01 -0.56280733116E+01  0.14632991214E+04  0.14633523778E+04  0.10000000000E+02 0. -1.
</event>
<event>
 5    1  0.1607440E-008  0.3770695E+03  0.7957747E-01  0.3464019E+00
         13   -1    0    0    0    0  0.00000000000E+00  0.00000000000E+00  0.14999999963E+04  0.15000000000E+04  0.10566000000E+00 0. -1.
        994   -1    0    0    0    0 -0.00000000000E+00 -0.00000000000E+00  0.11368683772E-12  0.17120000000E+03  0.17120000000E+03 0.  0.
         13    1    1    2    0    0  0.13606894965E+02  0.53459885136E+02  0.24131968615E+03  0.24754455962E+03  0.10566000000E+00 0. -1.
        994    1    1    2    0    0  0.32295948857E+01 -0.49552772362E+02  0.13989549140E+02  0.17880451621E+03  0.17120000000E+03 0.  0.
        998    1    1    2    0    0 -0.16836489851E+02 -0.39071127745E+01  0.12446907610E+04  0.12448509242E+04  0.10000000000E+02 0. -1.
</event>
<event>
 5    1  0.1607440E-008  0.3750639E+03  0.7957747E-01  0.3472937E+00
         13   -1    0    0    0    0  0.00000000000E+00  0.00000000000E+00  0.14999999963E+04  0.15000000000E+04  0.10566000000E+00 0.  1.
        994   -1    0    0    0    0 -0.00000000000E+00 -0.00000000000E+00  0.11368683772E-12  0.17120000000E+03  0.17120000000E+03 0.  0.
         13    1    1    2    0    0 -0.74964748818E+02 -0.60653041134E+02  0.47112331427E+03  0.48089052119E+03  0.10566000000E+00 0.  1.
        994    1    1    2    0    0  0.77002049027E+02  0.58014284548E+02  0.38921301314E+02  0.20029797918E+03  0.17120000000E+03 0.  0.
        998    1    1    2    0    0 -0.20373002093E+01  0.26387565866E+01  0.98995538070E+03  0.99001149963E+03  0.10000000000E+02 0.  0.
</event>
<event>
 5    1  0.1607440E-008  0.3845734E+03  0.7957747E-01  0.3431484E+00
         13   -1    0    0    0    0  0.00000000000E+00  0.00000000000E+00  0.14999999963E+04  0.15000000000E+04  0.10566000000E+00 0.  1.
        994   -1    0    0    0    0 -0.00000000000E+00 -0.00000000000E+00  0.11368683772E-12  0.17120000000E+03  0.17120000000E+03 0.  0.
         13    1    1    2    0    0  0.13805741177E+02 -0.18272964942E+01  0.50509706416E+02  0.52394456846E+02  0.10566000000E+00 0.  1.
        994    1    1    2    0    0 -0.15636669552E+02  0.56703885473E+01  0.27537117015E+01  0.17202814208E+03  0.17120000000E+03 0.  0.
        998    1    1    2    0    0  0.18309283745E+01 -0.38430920531E+01  0.14467365782E+04  0.14467774011E+04  0.10000000000E+02 0.  1.
</event>
<event>
 5    1  0.1607440E-008  0.3760472E+03  0.7957747E-01  0.3468552E+00
         13   -1    0    0    0    0  0.00000000000E+00  0.00000000000E+00  0.14999999963E+04  0.15000000000E+04  0.10566000000E+00 0.  1.
        994   -1    0    0    0    0 -0.00000000000E+00 -0.00000000000E+00  0.11368683772E-12  0.17120000000E+03  0.17120000000E+03 0.  0.
         13    1    1    2    0    0 -0.34658775490E+01  0.48922888665E+02  0.17733336021E+03  0.18399074202E+03  0.10566000000E+00 0.  1.
        994    1    1    2    0    0  0.69126048771E+01 -0.43598344576E+02  0.12770990015E+02  0.17726008559E+03  0.17120000000E+03 0.  0.
        998    1    1    2    0    0 -0.34467273281E+01 -0.53245440892E+01  0.13098956461E+04  0.13099491724E+04  0.10000000000E+02 0.  1.
</event>
<event>
 5    1  0.1607440E-008  0.3728648E+03  0.7957747E-01  0.3482827E+00
         13   -1    0    0    0    0  0.00000000000E+00  0.00000000000E+00  0.14999999963E+04  0.15000000000E+04  0.10566000000E+00 0.  1.
        994   -1    0    0    0    0 -0.00000000000E+00 -0.00000000000E+00  0.11368683772E-12  0.17120000000E+03  0.17120000000E+03 0.  0.
         13    1    1    2    0    0  0.10868196758E+01  0.40506538056E+02  0.61367217397E+02  0.73538475218E+02  0.10566000000E+00 0.  1.
        994    1    1    2    0    0  0.16847572342E+01 -0.26969871093E+02  0.15044676520E+02  0.17397124660E+03  0.17120000000E+03 0.  0.
        998    1    1    2    0    0 -0.27715769100E+01 -0.13536666963E+02  0.14235881024E+04  0.14236902782E+04  0.10000000000E+02 0.  1.
</event>
<event>
 5    1  0.1607440E-008  0.3861388E+03  0.7957747E-01  0.3424857E+00
         13   -1    0    0    0    0  0.00000000000E+00  0.00000000000E+00  0.14999999963E+04  0.15000000000E+04  0.10566000000E+00 0.  1.
        994   -1    0    0    0    0 -0.00000000000E+00 -0.00000000000E+00  0.11368683772E-12  0.17120000000E+03  0.17120000000E+03 0.  0.
         13    1    1    2    0    0  0.12026171445E+02  0.18661897390E+01  0.68959422028E+02  0.70025170576E+02  0.10566000000E+00 0.  1.
        994    1    1    2    0    0 -0.12448270800E+02  0.87421721038E+01  0.18242865098E+01  0.17188412678E+03  0.17120000000E+03 0.  0.
        998    1    1    2    0    0  0.42209935551E+00 -0.10608361843E+02  0.14292162877E+04  0.14292907026E+04  0.10000000000E+02 0.  1.
</event>
<event>
 5    1  0.1607440E-008  0.4009047E+03  0.7957747E-01  0.3364898E+00
         13   -1    0    0    0    0  0.00000000000E+00  0.00000000000E+00  0.14999999963E+04  0.15000000000E+04  0.10566000000E+00 0. -1.
        994   -1    0    0    0    0 -0.00000000000E+00 -0.00000000000E+00  0.11368683772E-12  0.17120000000E+03  0.17120000000E+03 0.  0.
         13    1    1    2    0    0  0.15416451933E+03 -0.25047706612E+02  0.33277936974E+03  0.36760876855E+03  0.10566000000E+00 0. -1.
        994    1    1    2    0    0 -0.14027267555E+03  0.35616144189E+02  0.11642810330E+03  0.25260616871E+03  0.17120000000E+03 0.  0.
        998    1    1    2    0    0 -0.13891843777E+02 -0.10568437577E+02  0.10507925232E+04  0.10509850627E+04  0.10000000000E+02 0. -1.
</event>
<event>
 5    1  0.1607440E-008  0.3848655E+03  0.7957747E-01  0.3430243E+00
         13   -1    0    0    0    0  0.00000000000E+00  0.00000000000E+00  0.14999999963E+04  0.15000000000E+04  0.10566000000E+00 0. -1.
        994   -1    0    0    0    0 -0.00000000000E+00 -0.00000000000E+00  0.11368683772E-12  0.17120000000E+03  0.17120000000E+03 0.  0.
         13    1    1    2    0    0 -0.79782507922E+01  0.93361477592E+01  0.46605702900E+02  0.48196668428E+02  0.10566000000E+00 0. -1.
        994    1    1    2    0    0  0.53053133161E+01  0.61965680586E+01  0.19159189987E+01  0.17140494319E+03  0.17120000000E+03 0.  0.
        998    1    1    2    0    0  0.26729374761E+01 -0.15532715818E+02  0.14514783744E+04  0.14515983884E+04  0.10000000000E+02 0. -1.
</event>
<event>
 5    1  0.1607440E-008  0.3847661E+03  0.7957747E-01  0.3430665E+00
         13   -1    0    0    0    0  0.00000000000E+00  0.00000000000E+00  0.14999999963E+04  0.15000000000E+04  0.10566000000E+00 0. -1.
        994   -1    0    0    0    0 -0.00000000000E+00 -0.00000000000E+00  0.11368683772E-12  0.17120000000E+03  0.17120000000E+03 0.  0.
         13    1    1    2    0    0  0.17456215507E+02 -0.62869834014E+01  0.97625876315E+02  0.99373379285E+02  0.10566000000E+00 0. -1.
        994    1    1    2    0    0 -0.17426869271E+02 -0.91047662459E+01  0.30196970830E+01  0.17235182364E+03  0.17120000000E+03 0.  0.
        998    1    1    2    0    0 -0.29346235916E-01  0.15391749647E+02  0.13993544229E+04  0.13994747971E+04  0.10000000000E+02 0. -1.
</event>
<event>
 5    1  0.1607440E-008  0.3814583E+03  0.7957747E-01  0.3444833E+00
         13   -1    0    0    0    0  0.00000000000E+00  0.00000000000E+00  0.14999999963E+04  0.15000000000E+04  0.10566000000E+00 0. -1.
        994   -1    0    0    0    0 -0.00000000000E+00 -0.00000000000E+00  0.11368683772E-12  0.17120000000E+03  0.17120000000E+03 0.  0.
         13    1    1    2    0    0  0.83292664622E+01 -0.12093845697E+02  0.30396278922E+02  0.33757706081E+02  0.10566000000E+00 0. -1.
        994    1    1    2    0    0 -0.81747147203E+01  0.69792317845E+01  0.37832769005E+01  0.17157881227E+03  0.17120000000E+03 0.  0.
        998    1    1    2    0    0 -0.15455174193E+00  0.51146139123E+01  0.14658204405E+04  0.14658634816E+04  0.10000000000E+02 0. -1.
</event>
<event>
 5    1  0.1607440E-008  0.3774040E+03  0.7957747E-01  0.3462541E+00
         13   -1    0    0    0    0  0.00000000000E+00  0.00000000000E+00  0.14999999963E+04  0.15000000000E+04  0.10566000000E+00 0. -1.
        994   -1    0    0    0    0 -0.00000000000E+00 -0.00000000000E+00  0.11368683772E-12  0.17120000000E+03  0.17120000000E+03 0.  0.
         13    1    1    2    0    0  0.76231806634E+02  0.82331291096E+02  0.42412426591E+03  0.43871532220E+03  0.10566000000E+00 0. -1.
        994    1    1    2    0    0 -0.26133149989E+02 -0.63423099300E+02  0.31997764201E+02  0.18718634557E+03  0.17120000000E+03 0.  0.
        998    1    1    2    0    0 -0.50098656645E+02 -0.18908191796E+02  0.10438779662E+04  0.10452983322E+04  0.10000000000E+02 0. -1.
</event>
<event>
 5    1  0.1607440E-008  0.3780282E+03  0.7957747E-01  0.3459789E+00
         13   -1    0    0    0    0  0.00000000000E+00  0.00000000000E+00  0.14999999963E+04  0.15000000000E+04  0.10566000000E+00 0. -1.
        994   -1    0    0    0    0 -0.00000000000E+00 -0.00000000000E+00  0.11368683772E-12  0.17120000000E+03  0.17120000000E+03 0.  0.
         13    1    1    2    0    0  0.19904565910E+02  0.52817582866E+02  0.89927366709E+02  0.10617359018E+03  0.10566000000E+00 0. -1.
        994    1    1    2    0    0  0.33867377194E+00 -0.73451655327E+02  0.34923555029E+02  0.18953721288E+03  0.17120000000E+03 0.  0.
        998    1    1    2    0    0 -0.20243239682E+02  0.20634072462E+02  0.13751490745E+04  0.13754891969E+04  0.10000000000E+02 0. -1.
</event>
<event>
 5    1  0.1607440E-008  0.3183339E+03  0.7957747E-01  0.3773244E+00
         13   -1    0    0    0    0  0.00000000000E+00  0.00000000000E+00  0.14999999963E+04  0.15000000000E+04  0.10566000000E+00 0. -1.
        994   -1    0    0    0    0 -0.00000000000E+00 -0.00000000000E+00  0.11368683772E-12  0.17120000000E+03  0.17120000000E+03 0.  0.
         13    1    1    2    0    0  0.18596909896E+03 -0.14742962489E+03  0.62541429820E+03  0.66892679392E+03  0.10566000000E+00 0. -1.
        994    1    1    2    0    0 -0.17371394149E+03  0.18523572073E+03  0.30850467449E+03  0.43471068527E+03  0.17120000000E+03 0.  0.
        998    1    1    2    0    0 -0.12255157473E+02 -0.37806095840E+02  0.56608102359E+03  0.56756252082E+03  0.10000000000E+02 0. -1.
</event>
<event>
 5    1  0.1607440E-008  0.3686341E+03  0.7957747E-01  0.3502192E+00
         13   -1    0    0    0    0  0.00000000000E+00  0.00000000000E+00  0.14999999963E+04  0.15000000000E+04  0.10566000000E+00 0.  1.
        994   -1    0    0    0    0 -0.00000000000E+00 -0.00000000000E+00  0.11368683772E-12  0.17120000000E+03  0.17120000000E+03 0.  0.
         13    1    1    2    0    0 -0.18345020349E+02  0.11282831906E+00  0.12219324058E+02  0.22042584838E+02  0.10566000000E+00 0.  1.
        994    1    1    2    0    0  0.21575256111E+02 -0.55491805517E+01  0.11710748111E+02  0.17304007253E+03  0.17120000000E+03 0.  0.
        998    1    1    2    0    0 -0.32302357619E+01  0.54363522327E+01  0.14760699241E+04  0.14761173426E+04  0.10000000000E+02 0.  1.
</event>
<event>
 5    1  0.1607440E-008  0.3849573E+03  0.7957747E-01  0.3429854E+00
         13   -1    0    0    0    0  0.00000000000E+00  0.00000000000E+00  0.14999999963E+04  0.15000000000E+04  0.10566000000E+00 0. -1.
        994   -1    0    0    0    0 -0.00000000000E+00 -0.00000000000E+00  0.11368683772E-12  0.17120000000E+03  0.17120000000E+03 0.  0.
         13    1    1    2    0    0  0.88255673396E+01  0.95441264534E+01  0.49447676182E+02  0.51127926150E+02  0.10566000000E+00 0. -1.
        994    1    1    2    0    0 -0.12638187467E+02 -0.82784180845E+01  0.24024781876E+01  0.17188213371E+03  0.17120000000E+03 0.  0.
        998    1    1    2    0    0  0.38126201278E+01 -0.12657083688E+01  0.14481498419E+04  0.14481899401E+04  0.10000000000E+02 0. -1.
</event>
<event>
 5    1  0.1607440E-008  0.3708857E+03  0.7957747E-01  0.3491830E+00
         13   -1    0    0    0    0  0.00000000000E+00  0.00000000000E+00  0.14999999963E+04  0.15000000000E+04  0.10566000000E+00 0. -1.
        994   -1    0    0    0    0 -0.00000000000E+00 -0.00000000000E+00  0.11368683772E-12  0.17120000000E+03  0.17120000000E+03 0.  0.
         13    1    1    2    0    0 -0.40967245127E+02 -0.14058551916E+02  0.11311288646E+03  0.12112181597E+03  0.10566000000E+00 0. -1.
        994    1    1    2    0    0 -0.93630661076E+01  0.43685056416E+02  0.15719033283E+02  0.17763045676E+03  0.17120000000E+03 0.  0.
        998    1    1    2    0    0  0.50330311234E+02 -0.29626504500E+02  0.13711680765E+04  0.13724477273E+04  0.10000000000E+02 0. -1.
</event>
<event>
 5    1  0.1607440E-008  0.3758510E+03  0.7957747E-01  0.3469426E+00
         13   -1    0    0    0    0  0.00000000000E+00  0.00000000000E+00  0.14999999963E+04  0.15000000000E+04  0.10566000000E+00 0.  1.
        994   -1    0    0    0    0 -0.00000000000E+00 -0.00000000000E+00  0.11368683772E-12  0.17120000000E+03  0.17120000000E+03 0.  0.
         13    1    1    2    0    0  0.79446973836E+01  0.13407932331E+02  0.18072569133E+02  0.23864613657E+02  0.10566000000E+00 0.  1.
        994    1    1    2    0    0  0.36332221529E+01  0.22549918692E+02  0.80126578953E+01  0.17290269467E+03  0.17120000000E+03 0.  0.
        998    1    1    2    0    0 -0.11577919536E+02 -0.35957851023E+02  0.14739147693E+04  0.14744326917E+04  0.10000000000E+02 0.  1.
</event>
<event>
 5    1  0.1607440E-008  0.3713432E+03  0.7957747E-01  0.3489740E+00
         13   -1    0    0    0    0  0.00000000000E+00  0.00000000000E+00  0.14999999963E+04  0.15000000000E+04  0.10566000000E+00 0.  1.
        994   -1    0    0    0    0 -0.00000000000E+00 -0.00000000000E+00  0.11368683772E-12  0.17120000000E+03  0.17120000000E+03 0.  0.
         13    1    1    2    0    0  0.32408715066E+02  0.13568878600E+02  0.72079704208E+02  0.80186870505E+02  0.10566000000E+00 0.  1.
        994    1    1    2    0    0 -0.11179152824E+02  0.33857503542E+01  0.90383665693E+01  0.17183587761E+03  0.17120000000E+03 0.  0.
        998    1    1    2    0    0 -0.21229562242E+02 -0.16954628954E+02  0.14188819255E+04  0.14191772519E+04  0.10000000000E+02 0.  1.
</event>
<event>
 5    1  0.1607440E-008  0.3922477E+03  0.7957747E-01  0.3399504E+00
         13   -1    0    0    0    0  0.00000000000E+00  0.00000000000E+00  0.14999999963E+04  0.15000000000E+04  0.10566000000E+00 0. -1.
        994   -1    0    0    0    0 -0.00000000000E+00 -0.00000000000E+00  0.11368683772E-12  0.17120000000E+03  0.17120000000E+03 0.  0.
         13    1    1    2    0    0  0.93492292646E+01 -0.19622217692E+02 -0.18385812521E+00  0.21736708188E+02  0.10566000000E+00 0. -1.
        994    1    1    2    0    0 -0.10123970375E+02  0.26505067568E+02  0.26285355535E+02  0.17551459569E+03  0.17120000000E+03 0.  0.
        998    1    1    2    0    0  0.77474111010E+00 -0.68828498760E+01  0.14738984989E+04  0.14739486961E+04  0.10000000000E+02 0. -1.
</event>
<event>
 5    1  0.1607440E-008  0.3786305E+03  0.7957747E-01  0.3457143E+00
         13   -1    0    0    0    0  0.00000000000E+00  0.00000000000E+00  0.14999999963E+04  0.15000000000E+04  0.10566000000E+00 0.  1.
        994   -1    0    0    0    0 -0.00000000000E+00 -0.00000000000E+00  0.11368683772E-12  0.17120000000E+03  0.17120000000E+03 0.  0.
         13    1    1    2    0    0 -0.19151973690E+02  0.19622982178E+01  0.36352788042E+02  0.41136177180E+02  0.10566000000E+00 0.  1.
        994    1    1    2    0    0  0.12303996882E+02 -0.18206979522E+02  0.64493006361E+01  0.17272497191E+03  0.17120000000E+03 0.  0.
        998    1    1    2    0    0  0.68479768077E+01  0.16244681304E+02  0.14571979076E+04  0.14573388509E+04  0.10000000000E+02 0.  1.
</event>
<event>
 5    1  0.1607440E-008  0.3826912E+03  0.7957747E-01  0.3439524E+00
         13   -1    0    0    0    0  0.00000000000E+00  0.00000000000E+00  0.14999999963E+04  0.15000000000E+04  0.10566000000E+00 0. -1.
        994   -1    0    0    0    0 -0.00000000000E+00 -0.00000000000E+00  0.11368683772E-12  0.17120000000E+03  0.17120000000E+03 0.  0.
         13    1    1    2    0    0 -0.29766246642E+02 -0.15045261324E+02  0.18684888882E+03  0.18980228593E+03  0.10566000000E+00 0. -1.
        994    1    1    2    0    0  0.26730921284E+02  0.71921500603E+01  0.53239199824E+01  0.17350519675E+03  0.17120000000E+03 0.  0.
        998    1    1    2    0    0  0.30353253580E+01  0.78531112640E+01  0.13078271875E+04  0.13078925173E+04  0.10000000000E+02 0. -1.
</event>
<event>
 5    1  0.1607440E-008  0.3790362E+03  0.7957747E-01  0.3455366E+00
         13   -1    0    0    0    0  0.00000000000E+00  0.00000000000E+00  0.14999999963E+04  0.15000000000E+04  0.10566000000E+00 0.  1.
        994   -1    0    0    0    0 -0.00000000000E+00 -0.00000000000E+00  0.11368683772E-12  0.17120000000E+03  0.17120000000E+03 0.  0.
         13    1    1    2    0    0 -0.12002216770E+02  0.18408100092E+02  0.51246864459E+02  0.55759874796E+02  0.10566000000E+00 0.  1.
        994    1    1    2    0    0  0.96115050616E+01 -0.60562565629E+01  0.50533684297E+01  0.17165091263E+03  0.17120000000E+03 0.  0.
        998    1    1    2    0    0  0.23907117083E+01 -0.12351843529E+02  0.14436997634E+04  0.14437892126E+04  0.10000000000E+02 0.  1.
</event>
<event>
 5    1  0.1607440E-008  0.3849947E+03  0.7957747E-01  0.3429695E+00
         13   -1    0    0    0    0  0.00000000000E+00  0.00000000000E+00  0.14999999963E+04  0.15000000000E+04  0.10566000000E+00 0. -1.
        994   -1    0    0    0    0 -0.00000000000E+00 -0.00000000000E+00  0.11368683772E-12  0.17120000000E+03  0.17120000000E+03 0.  0.
         13    1    1    2    0    0 -0.25249998936E+00  0.17973383786E+02  0.92598673367E+02  0.94327258808E+02  0.10566000000E+00 0. -1.
        994    1    1    2    0    0  0.12175120478E+02 -0.20531395344E+02  0.35088037048E+01  0.17289165236E+03  0.17120000000E+03 0.  0.
        998    1    1    2    0    0 -0.11922620489E+02  0.25580115582E+01  0.14038925192E+04  0.14039810888E+04  0.10000000000E+02 0. -1.
</event>
<event>
 5    1  0.1607440E-008  0.3740663E+03  0.7957747E-01  0.3477409E+00
         13   -1    0    0    0    0  0.00000000000E+00  0.00000000000E+00  0.14999999963E+04  0.15000000000E+04  0.10566000000E+00 0.  1.
        994   -1    0    0    0    0 -0.00000000000E+00 -0.00000000000E+00  0.11368683772E-12  0.17120000000E+03  0.17120000000E+03 0.  0.
         13    1    1    2    0    0 -0.32059545390E+02  0.50307904825E+02  0.22243161326E+03  0.23029227837E+03  0.10566000000E+00 0.  1.
        994    1    1    2    0    0 -0.36833209307E+02 -0.92049732616E+02  0.41456200545E+02  0.20213335981E+03  0.17120000000E+03 0.  0.
        998    1    1    2    0    0  0.68892754697E+02  0.41741827791E+02  0.12361121825E+04  0.12387743618E+04  0.10000000000E+02 0. -1.
</event>
<event>
 5    1  0.1607440E-008  0.3833705E+03  0.7957747E-01  0.3436613E+00
         13   -1    0    0    0    0  0.00000000000E+00  0.00000000000E+00  0.14999999963E+04  0.15000000000E+04  0.10566000000E+00 0.  1.
        994   -1    0    0    0    0 -0.00000000000E+00 -0.00000000000E+00  0.11368683772E-12  0.17120000000E+03  0.17120000000E+03 0.  0.
         13    1    1    2    0    0 -0.63619866514E+01  0.11920665378E+02  0.35703805885E+02  0.38175254497E+02  0.10566000000E+00 0.  1.
        994    1    1    2    0    0  0.11975128002E+02 -0.11399179960E+02  0.33455471659E+01  0.17202900244E+03  0.17120000000E+03 0.  0.
        998    1    1    2    0    0 -0.56131413502E+01 -0.52148541719E+00  0.14609506432E+04  0.14609957431E+04  0.10000000000E+02 0.  1.
</event>
<event>
 5    1  0.1607440E-008  0.3763264E+03  0.7957747E-01  0.3467312E+00
         13   -1    0    0    0    0  0.00000000000E+00  0.00000000000E+00  0.14999999963E+04  0.15000000000E+04  0.10566000000E+00 0.  1.
        994   -1    0    0    0    0 -0.00000000000E+00 -0.00000000000E+00  0.11368683772E-12  0.17120000000E+03  0.17120000000E+03 0.  0.
         13    1    1    2    0    0  0.95146875062E+00 -0.27877954012E+02  0.60972418340E+02  0.67050224272E+02  0.10566000000E+00 0.  1.
        994    1    1    2    0    0  0.47792274992E+01  0.25418390752E+02  0.82661942911E+01  0.17333985569E+03  0.17120000000E+03 0.  0.
        998    1    1    2    0    0 -0.57306962498E+01  0.24595632592E+01  0.14307613836E+04  0.14308099200E+04  0.10000000000E+02 0.  1.
</event>
<event>
 5    1  0.1607440E-008  0.3832993E+03  0.7957747E-01  0.3436917E+00
         13   -1    0    0    0    0  0.00000000000E+00  0.00000000000E+00  0.14999999963E+04  0.15000000000E+04  0.10566000000E+00 0. -1.
        994   -1    0    0    0    0 -0.00000000000E+00 -0.00000000000E+00  0.11368683772E-12  0.17120000000E+03  0.17120000000E+03 0.  0.
         13    1    1    2    0    0  0.74470057379E+01 -0.27893533755E+02  0.17384918967E+03  0.17623013089E+03  0.10566000000E+00 0. -1.
        994    1    1    2    0    0  0.13520584645E+02  0.17552969545E+02  0.41019627419E+01  0.17267651562E+03  0.17120000000E+03 0.  0.
        998    1    1    2    0    0 -0.20967590383E+02  0.10340564210E+02  0.13220488439E+04  0.13222933535E+04  0.10000000000E+02 0. -1.
</event>
<event>
 5    1  0.1607440E-008  0.3747158E+03  0.7957747E-01  0.3474495E+00
         13   -1    0    0    0    0  0.00000000000E+00  0.00000000000E+00  0.14999999963E+04  0.15000000000E+04  0.10566000000E+00 0.  1.
        994   -1    0    0    0    0 -0.00000000000E+00 -0.00000000000E+00  0.11368683772E-12  0.17120000000E+03  0.17120000000E+03 0.  0.
         13    1    1    2    0    0  0.14884225596E+02  0.21593914674E+02  0.49157853878E+02  0.55716632027E+02  0.10566000000E+00 0.  1.
        994    1    1    2    0    0 -0.87879432886E+01 -0.34782124641E+01  0.71287408346E+01  0.17160881345E+03  0.17120000000E+03 0.  0.
        998    1    1    2    0    0 -0.60962823077E+01 -0.18115702210E+02  0.14437134016E+04  0.14438745545E+04  0.10000000000E+02 0.  1.
</event>
<event>
 5    1  0.1607440E-008  0.3853448E+03  0.7957747E-01  0.3428211E+00
         13   -1    0    0    0    0  0.00000000000E+00  0.00000000000E+00  0.14999999963E+04  0.15000000000E+04  0.10566000000E+00 0. -1.
        994   -1    0    0    0    0 -0.00000000000E+00 -0.00000000000E+00  0.11368683772E-12  0.17120000000E+03  0.17120000000E+03 0.  0.
         13    1    1    2    0    0 -0.86654307842E+01  0.10509925827E+02  0.68096262518E+02  0.69445376841E+02  0.10566000000E+00 0. -1.
        994    1    1    2    0    0  0.67903726473E+01  0.59846349772E+01  0.17282230008E+01  0.17144781063E+03  0.17120000000E+03 0.  0.
        998    1    1    2    0    0  0.18750581369E+01 -0.16494560804E+02  0.14301755108E+04  0.14303068125E+04  0.10000000000E+02 0. -1.
</event>
<event>
 5    1  0.1607440E-008  0.3816731E+03  0.7957747E-01  0.3443906E+00
         13   -1    0    0    0    0  0.00000000000E+00  0.00000000000E+00  0.14999999963E+04  0.15000000000E+04  0.10566000000E+00 0. -1.
        994   -1    0    0    0    0 -0.00000000000E+00 -0.00000000000E+00  0.11368683772E-12  0.17120000000E+03  0.17120000000E+03 0.  0.
         13    1    1    2    0    0 -0.62454252976E+00  0.17359352984E+02  0.43416778778E+02  0.46762859546E+02  0.10566000000E+00 0. -1.
        994    1    1    2    0    0  0.13323746489E+02 -0.18498420969E+02  0.50206624501E+01  0.17278414525E+03  0.17120000000E+03 0.  0.
        998    1    1    2    0    0 -0.12699203959E+02  0.11390679854E+01  0.14515625551E+04  0.14516529952E+04  0.10000000000E+02 0. -1.
</event>
<event>
 5    1  0.1607440E-008  0.3859094E+03  0.7957747E-01  0.3425825E+00
         13   -1    0    0    0    0  0.00000000000E+00  0.00000000000E+00  0.14999999963E+04  0.15000000000E+04  0.10566000000E+00 0.  1.
        994   -1    0    0    0    0 -0.00000000000E+00 -0.00000000000E+00  0.11368683772E-12  0.17120000000E+03  0.17120000000E+03 0.  0.
         13    1    1    2    0    0  0.56320569033E+01 -0.10311891696E+02  0.63909302059E+02  0.64980498836E+02  0.10566000000E+00 0.  1.
        994    1    1    2    0    0  0.47856662243E+01 -0.28447834543E+00  0.12546901271E+01  0.17127170746E+03  0.17120000000E+03 0.  0.
        998    1    1    2    0    0 -0.10417723128E+02  0.10596370041E+02  0.14348360041E+04  0.14349477937E+04  0.10000000000E+02 0.  1.
</event>
<event>
 5    1  0.1607440E-008  0.3848817E+03  0.7957747E-01  0.3430174E+00
         13   -1    0    0    0    0  0.00000000000E+00  0.00000000000E+00  0.14999999963E+04  0.15000000000E+04  0.10566000000E+00 0.  1.
        994   -1    0    0    0    0 -0.00000000000E+00 -0.00000000000E+00  0.11368683772E-12  0.17120000000E+03  0.17120000000E+03 0.  0.
         13    1    1    2    0    0 -0.15480267598E+02  0.11088689557E+02  0.11195427936E+03  0.11356218363E+03  0.10566000000E+00 0.  1.
        994    1    1    2    0    0  0.75834473891E+01 -0.13643202786E+01  0.18842360723E+01  0.17138366430E+03  0.17120000000E+03 0.  0.
        998    1    1    2    0    0  0.78968202094E+01 -0.97243692784E+01  0.13861614809E+04  0.13862541521E+04  0.10000000000E+02 0.  1.
</event>
<event>
 5    1  0.1607440E-008  0.3723890E+03  0.7957747E-01  0.3484983E+00
         13   -1    0    0    0    0  0.00000000000E+00  0.00000000000E+00  0.14999999963E+04  0.15000000000E+04  0.10566000000E+00 0.  1.
        994   -1    0    0    0    0 -0.00000000000E+00 -0.00000000000E+00  0.11368683772E-12  0.17120000000E+03  0.17120000000E+03 0.  0.
         13    1    1    2    0    0 -0.78768630482E+01 -0.21041212165E+02  0.27272350042E+02  0.35335107495E+02  0.10566000000E+00 0.  1.
        994    1    1    2    0    0  0.23137362286E+02  0.20676266466E+02  0.11334835925E+02  0.17435814875E+03  0.17120000000E+03 0.  0.
        998    1    1    2    0    0 -0.15260499238E+02  0.36494569877E+00  0.14613928103E+04  0.14615067438E+04  0.10000000000E+02 0.  1.
</event>
<event>
 5    1  0.5008200E-008  0.3864326E+03  0.7957747E-01  0.3423619E+00
         13   -1    0    0    0    0  0.00000000000E+00  0.00000000000E+00  0.14999999963E+04  0.15000000000E+04  0.10566000000E+00 0.  1.
        994   -1    0    0    0    0 -0.00000000000E+00 -0.00000000000E+00  0.11368683772E-12  0.17120000000E+03  0.17120000000E+03 0.  0.
         13    1    1    2    0    0 -0.57962521632E+01 -0.86824405826E+01  0.57070956305E+02  0.58017984550E+02  0.10566000000E+00 0.  1.
        994    1    1    2    0    0  0.78410528813E+01  0.12000431492E+02  0.15934782839E+01  0.17180649475E+03  0.17120000000E+03 0.  0.
        998    1    1    2    0    0 -0.20448007181E+01 -0.33179909094E+01  0.14413355617E+04  0.14413755207E+04  0.10000000000E+02 0.  1.
</event>
<event>
 5    1  0.1607440E-008  0.3854474E+03  0.7957747E-01  0.3427777E+00
         13   -1    0    0    0    0  0.00000000000E+00  0.00000000000E+00  0.14999999963E+04  0.15000000000E+04  0.10566000000E+00 0.  1.
        994   -1    0    0    0    0 -0.00000000000E+00 -0.00000000000E+00  0.11368683772E-12  0.17120000000E+03  0.17120000000E+03 0.  0.
         13    1    1    2    0    0 -0.33300067487E+01  0.15808309721E+02  0.86591798589E+02  0.88085994052E+02  0.10566000000E+00 0.  1.
        994    1    1    2    0    0  0.41402190805E+01 -0.19358170670E+02  0.26961309990E+01  0.17236179770E+03  0.17120000000E+03 0.  0.
        998    1    1    2    0    0 -0.81021233183E+00  0.35498609492E+01  0.14107120667E+04  0.14107522082E+04  0.10000000000E+02 0.  1.
</event>
<event>
 5    1  0.1607440E-008  0.3857007E+03  0.7957747E-01  0.3426706E+00
         13   -1    0    0    0    0  0.00000000000E+00  0.00000000000E+00  0.14999999963E+04  0.15000000000E+04  0.10566000000E+00 0.  1.
        994   -1    0    0    0    0 -0.00000000000E+00 -0.00000000000E+00  0.11368683772E-12  0.17120000000E+03  0.17120000000E+03 0.  0.
         13    1    1    2    0    0 -0.12445835359E+02 -0.51519145723E+01  0.71894916323E+02  0.73145958184E+02  0.10566000000E+00 0.  1.
        994    1    1    2    0    0  0.49814778039E+01  0.82196611082E+01  0.15858310646E+01  0.17147691626E+03  0.17120000000E+03 0.  0.
        998    1    1    2    0    0  0.74643575556E+01 -0.30677465359E+01  0.14265192489E+04  0.14265771256E+04  0.10000000000E+02 0.  1.
</event>
<event>
 5    1  0.1607440E-008  0.3859600E+03  0.7957747E-01  0.3425611E+00
         13   -1    0    0    0    0  0.00000000000E+00  0.00000000000E+00  0.14999999963E+04  0.15000000000E+04  0.10566000000E+00 0. -1.
        994   -1    0    0    0    0 -0.00000000000E+00 -0.00000000000E+00  0.11368683772E-12  0.17120000000E+03  0.17120000000E+03 0.  0.
         13    1    1    2    0    0 -0.18714108391E+00 -0.11549830612E+02  0.59501676253E+02  0.60612657506E+02  0.10566000000E+00 0. -1.
        994    1    1    2    0    0 -0.43785607647E+01  0.53338579630E+01  0.13104211516E+01  0.17134403707E+03  0.17120000000E+03 0.  0.
        998    1    1    2    0    0  0.45657018487E+01  0.62159726487E+01  0.14391878989E+04  0.14392433054E+04  0.10000000000E+02 0. -1.
</event>
<event>
 5    1  0.1607440E-008  0.3812381E+03  0.7957747E-01  0.3445785E+00
         13   -1    0    0    0    0  0.00000000000E+00  0.00000000000E+00  0.14999999963E+04  0.15000000000E+04  0.10566000000E+00 0. -1.
        994   -1    0    0    0    0 -0.00000000000E+00 -0.00000000000E+00  0.11368683772E-12  0.17120000000E+03  0.17120000000E+03 0.  0.
         13    1    1    2    0    0 -0.19531994878E+02 -0.34862298282E+02  0.22981134114E+03  0.23325981725E+03  0.10566000000E+00 0. -1.
        994    1    1    2    0    0  0.27022679904E+02  0.99089388909E+01  0.62723622337E+01  0.17371584507E+03  0.17120000000E+03 0.  0.
        998    1    1    2    0    0 -0.74906850258E+01  0.24953359391E+02  0.12639162929E+04  0.12642243377E+04  0.10000000000E+02 0. -1.
</event>
<event>
 5    1  0.1607440E-008  0.3829663E+03  0.7957747E-01  0.3438343E+00
         13   -1    0    0    0    0  0.00000000000E+00  0.00000000000E+00  0.14999999963E+04  0.15000000000E+04  0.10566000000E+00 0. -1.
        994   -1    0    0    0    0 -0.00000000000E+00 -0.00000000000E+00  0.11368683772E-12  0.17120000000E+03  0.17120000000E+03 0.  0.
         13    1    1    2    0    0  0.52618739525E+01 -0.25032509820E+02  0.10523510817E+03  0.10829936760E+03  0.10566000000E+00 0. -1.
        994    1    1    2    0    0 -0.98759749729E+01  0.39286351067E+02  0.80946018707E+01  0.17611335793E+03  0.17120000000E+03 0.  0.
        998    1    1    2    0    0  0.46141010204E+01 -0.14253841247E+02  0.13866702862E+04  0.13867872745E+04  0.10000000000E+02 0. -1.
</event>
<event>
 5    1  0.1607440E-008  0.3809878E+03  0.7957747E-01  0.3446869E+00
         13   -1    0    0    0    0  0.00000000000E+00  0.00000000000E+00  0.14999999963E+04  0.15000000000E+04  0.10566000000E+00 0.  1.
        994   -1    0    0    0    0 -0.00000000000E+00 -0.00000000000E+00  0.11368683772E-12  0.17120000000E+03  0.17120000000E+03 0.  0.
         13    1    1    2    0    0  0.28040019567E+02  0.14383950537E+02  0.12239021440E+03  0.12638242155E+03  0.10566000000E+00 0.  1.
        994    1    1    2    0    0 -0.29983941716E+02 -0.20020464614E+02  0.79786457472E+01  0.17513695941E+03  0.17120000000E+03 0.  0.
        998    1    1    2    0    0  0.19439221489E+01  0.56365140775E+01  0.13696311361E+04  0.13696806190E+04  0.10000000000E+02 0.  1.
</event>
<event>
 5    1  0.1607440E-008  0.3858232E+03  0.7957747E-01  0.3426189E+00
         13   -1    0    0    0    0  0.00000000000E+00  0.00000000000E+00  0.14999999963E+04  0.15000000000E+04  0.10566000000E+00 0.  1.
        994   -1    0    0    0    0 -0.00000000000E+00 -0.00000000000E+00  0.11368683772E-12  0.17120000000E+03  0.17120000000E+03 0.  0.
         13    1    1    2    0    0  0.82345747105E+01  0.70966032698E+01  0.52019415953E+02  0.53143210279E+02  0.10566000000E+00 0.  1.
        994    1    1    2    0    0 -0.47312710485E+01  0.90443908982E+01  0.15637974508E+01  0.17151114073E+03  0.17120000000E+03 0.  0.
        998    1    1    2    0    0 -0.35033036619E+01 -0.16140994168E+02  0.14464167829E+04  0.14465456490E+04  0.10000000000E+02 0.  1.
</event>
<event>
 5    1  0.1607440E-008  0.3830693E+03  0.7957747E-01  0.3437902E+00
         13   -1    0    0    0    0  0.00000000000E+00  0.00000000000E+00  0.14999999963E+04  0.15000000000E+04  0.10566000000E+00 0.  1.
        994   -1    0    0    0    0 -0.00000000000E+00 -0.00000000000E+00  0.11368683772E-12  0.17120000000E+03  0.17120000000E+03 0.  0.
         13    1    1    2    0    0 -0.16329845081E+02 -0.38467404324E+01  0.52413935790E+02  0.55033563226E+02  0.10566000000E+00 0.  1.
        994    1    1    2    0    0  0.14176948590E+02  0.79267981728E+01  0.34653016127E+01  0.17200368693E+03  0.17120000000E+03 0.  0.
        998    1    1    2    0    0  0.21528964911E+01 -0.40800577404E+01  0.14441207589E+04  0.14441627498E+04  0.10000000000E+02 0.  1.
</event>
<event>
 5    1  0.1607440E-008  0.3800500E+03  0.7957747E-01  0.3450941E+00
         13   -1    0    0    0    0  0.00000000000E+00  0.00000000000E+00  0.14999999963E+04  0.15000000000E+04  0.10566000000E+00 0.  1.
        994   -1    0    0    0    0 -0.00000000000E+00 -0.00000000000E+00  0.11368683772E-12  0.17120000000E+03  0.17120000000E+03 0.  0.
         13    1    1    2    0    0  0.42219030434E+01 -0.61637416940E+02  0.32088798472E+03  0.32678143389E+03  0.10566000000E+00 0.  1.
        994    1    1    2    0    0 -0.54046548465E+01  0.74892997328E+02  0.23188813189E+02  0.18837550902E+03  0.17120000000E+03 0.  0.
        998    1    1    2    0    0  0.11827518031E+01 -0.13255580388E+02  0.11559231984E+04  0.11560430571E+04  0.10000000000E+02 0.  1.
</event>
<event>
 5    1  0.1607440E-008  0.3831915E+03  0.7957747E-01  0.3437378E+00
         13   -1    0    0    0    0  0.00000000000E+00  0.00000000000E+00  0.14999999963E+04  0.15000000000E+04  0.10566000000E+00 0. -1.
        994   -1    0    0    0    0 -0.00000000000E+00 -0.00000000000E+00  0.11368683772E-12  0.17120000000E+03  0.17120000000E+03 0.  0.
         13    1    1    2    0    0  0.54477415043E+02  0.11704145174E+03  0.35363618535E+03  0.37646387998E+03  0.10566000000E+00 0. -1.
        994    1    1    2    0    0 -0.51000293052E+02 -0.11015739184E+03  0.74353181519E+02  0.22265110930E+03  0.17120000000E+03 0.  0.
        998    1    1    2    0    0 -0.34771219912E+01 -0.68840598923E+01  0.10720106294E+04  0.10720850107E+04  0.10000000000E+02 0.  1.
</event>
<event>
 5    1  0.1607440E-008  0.3793479E+03  0.7957747E-01  0.3454003E+00
         13   -1    0    0    0    0  0.00000000000E+00  0.00000000000E+00  0.14999999963E+04  0.15000000000E+04  0.10566000000E+00 0. -1.
        994   -1    0    0    0    0 -0.00000000000E+00 -0.00000000000E+00  0.11368683772E-12  0.17120000000E+03  0.17120000000E+03 0.  0.
         13    1    1    2    0    0  0.20536777310E+02 -0.98709605897E+01  0.55331724905E+02  0.59839836482E+02  0.10566000000E+00 0. -1.
        994    1    1    2    0    0 -0.20759686822E+02  0.35279241458E+01  0.59495841190E+01  0.17259272406E+03  0.17120000000E+03 0.  0.
        998    1    1    2    0    0  0.22290951208E+00  0.63430364439E+01  0.14387186873E+04  0.14387674395E+04  0.10000000000E+02 0. -1.
</event>
<event>
 5    1  0.1607440E-008  0.3362354E+03  0.7957747E-01  0.3667083E+00
         13   -1    0    0    0    0  0.00000000000E+00  0.00000000000E+00  0.14999999963E+04  0.15000000000E+04  0.10566000000E+00 0. -1.
        994   -1    0    0    0    0 -0.00000000000E+00 -0.00000000000E+00  0.11368683772E-12  0.17120000000E+03  0.17120000000E+03 0.  0.
         13    1    1    2    0    0  0.41822891682E+02 -0.16833030771E+03  0.99885994934E+03  0.10138074059E+04  0.10566000000E+00 0. -1.
        994    1    1    2    0    0 -0.72140215764E+02  0.12792408137E+03  0.89701319064E+02  0.24274379079E+03  0.17120000000E+03 0.  0.
        998    1    1    2    0    0  0.30317324081E+02  0.40406226345E+02  0.41143872788E+03  0.41464880328E+03  0.10000000000E+02 0. -1.
</event>
<event>
 5    1  0.1607440E-008  0.3828555E+03  0.7957747E-01  0.3438818E+00
         13   -1    0    0    0    0  0.00000000000E+00  0.00000000000E+00  0.14999999963E+04  0.15000000000E+04  0.10566000000E+00 0.  1.
        994   -1    0    0    0    0 -0.00000000000E+00 -0.00000000000E+00  0.11368683772E-12  0.17120000000E+03  0.17120000000E+03 0.  0.
         13    1    1    2    0    0 -0.21589827734E+02  0.19000048570E+02  0.16329010689E+03  0.16580347608E+03  0.10566000000E+00 0.  1.
        994    1    1    2    0    0  0.38982087790E+01 -0.86841926496E+01  0.29987265478E+01  0.17149065162E+03  0.17120000000E+03 0.  0.
        998    1    1    2    0    0  0.17691618955E+02 -0.10315855920E+02  0.13337111628E+04  0.13339058723E+04  0.10000000000E+02 0.  1.
</event>
<event>
 5    1  0.1607440E-008  0.3850227E+03  0.7957747E-01  0.3429576E+00
         13   -1    0    0    0    0  0.00000000000E+00  0.00000000000E+00  0.14999999963E+04  0.15000000000E+04  0.10566000000E+00 0.  1.
        994   -1    0    0    0    0 -0.00000000000E+00 -0.00000000000E+00  0.11368683772E-12  0.17120000000E+03  0.17120000000E+03 0.  0.
         13    1    1    2    0    0 -0.77388116642E+01  0.70103906215E+01  0.34382812647E+02  0.35933601993E+02  0.10566000000E+00 0.  1.
        994    1    1    2    0    0  0.37002346803E+01  0.17775213188E+01  0.16742782011E+01  0.17125739262E+03  0.17120000000E+03 0.  0.
        998    1    1    2    0    0  0.40385769840E+01 -0.87879119403E+01  0.14639429054E+04  0.14640090054E+04  0.10000000000E+02 0.  1.
</event>
<event>
 5    1  0.1607440E-008  0.2988689E+03  0.7957747E-01  0.3904127E+00
         13   -1    0    0    0    0  0.00000000000E+00  0.00000000000E+00  0.14999999963E+04  0.15000000000E+04  0.10566000000E+00 0.  1.
        994   -1    0    0    0    0 -0.00000000000E+00 -0.00000000000E+00  0.11368683772E-12  0.17120000000E+03  0.17120000000E+03 0.  0.
         13    1    1    2    0    0  0.15121854951E+03  0.14636755695E+02  0.73244659160E+03  0.74803696770E+03  0.10566000000E+00 0.  1.
        994    1    1    2    0    0 -0.11876682253E+03 -0.92469887123E+02  0.97809660279E+02  0.24805726718E+03  0.17120000000E+03 0.  0.
        998    1    1    2    0    0 -0.32451726980E+02  0.77833131428E+02  0.66974374440E+03  0.67510576512E+03  0.10000000000E+02 0.  1.
</event>
<event>
 5    1  0.1607440E-008  0.3839615E+03  0.7957747E-01  0.3434089E+00
         13   -1    0    0    0    0  0.00000000000E+00  0.00000000000E+00  0.14999999963E+04  0.15000000000E+04  0.10566000000E+00 0. -1.
        994   -1    0    0    0    0 -0.00000000000E+00 -0.00000000000E+00  0.11368683772E-12  0.17120000000E+03  0.17120000000E+03 0.  0.
         13    1    1    2    0    0 -0.14440314471E+02  0.37344428667E+01  0.50895762945E+02  0.53036389351E+02  0.10566000000E+00 0. -1.
        994    1    1    2    0    0  0.13681855599E+02  0.61869706581E+01  0.28909815240E+01  0.17188155676E+03  0.17120000000E+03 0.  0.
        998    1    1    2    0    0  0.75845887205E+00 -0.99214135249E+01  0.14462132518E+04  0.14462820539E+04  0.10000000000E+02 0. -1.
</event>
<event>
 5    1  0.1607440E-008  0.3734628E+03  0.7957747E-01  0.3480126E+00
         13   -1    0    0    0    0  0.00000000000E+00  0.00000000000E+00  0.14999999963E+04  0.15000000000E+04  0.10566000000E+00 0.  1.
        994   -1    0    0    0    0 -0.00000000000E+00 -0.00000000000E+00  0.11368683772E-12  0.17120000000E+03  0.17120000000E+03 0.  0.
         13    1    1    2    0    0 -0.72632167339E+02  0.56163674123E+02  0.52687162771E+03  0.53481166149E+03  0.10566000000E+00 0.  1.
        994    1    1    2    0    0  0.25922896387E+01  0.21924477068E+01  0.12822520512E+02  0.17171308577E+03  0.17120000000E+03 0.  0.
        998    1    1    2    0    0  0.70039877700E+02 -0.58356121829E+02  0.96030584806E+03  0.96467525274E+03  0.10000000000E+02 0.  1.
</event>
<event>
 5    1  0.1607440E-008  0.3843336E+03  0.7957747E-01  0.3432504E+00
         13   -1    0    0    0    0  0.00000000000E+00  0.00000000000E+00  0.14999999963E+04  0.15000000000E+04  0.10566000000E+00 0.  1.
        994   -1    0    0    0    0 -0.00000000000E+00 -0.00000000000E+00  0.11368683772E-12  0.17120000000E+03  0.17120000000E+03 0.  0.
         13    1    1    2    0    0  0.47327931681E+00 -0.19357036103E+02  0.95461100677E+02  0.97405090968E+02  0.10566000000E+00 0.  1.
        994    1    1    2    0    0 -0.24228794686E+02  0.12238585848E+02  0.43935272963E+01  0.17339423450E+03  0.17120000000E+03 0.  0.
        998    1    1    2    0    0  0.23755515369E+02  0.71184502545E+01  0.14001453683E+04  0.14004006745E+04  0.10000000000E+02 0.  1.
</event>
<event>
 5    1  0.1607440E-008  0.3188654E+03  0.7957747E-01  0.3769910E+00
         13   -1    0    0    0    0  0.00000000000E+00  0.00000000000E+00  0.14999999963E+04  0.15000000000E+04  0.10566000000E+00 0. -1.
        994   -1    0    0    0    0 -0.00000000000E+00 -0.00000000000E+00  0.11368683772E-12  0.17120000000E+03  0.17120000000E+03 0.  0.
         13    1    1    2    0    0  0.17422161361E+03 -0.12273984163E+03  0.10708848416E+04  0.10918848815E+04  0.10566000000E+00 0. -1.
        994    1    1    2    0    0 -0.41362447969E+02  0.13587981886E+03  0.14583570430E+03  0.26599186064E+03  0.17120000000E+03 0.  0.
        998    1    1    2    0    0 -0.13285916564E+03 -0.13139977232E+02  0.28327945041E+03  0.31332325787E+03  0.10000000000E+02 0. -1.
</event>
<event>
 5    1  0.1607440E-008  0.3851154E+03  0.7957747E-01  0.3429183E+00
         13   -1    0    0    0    0  0.00000000000E+00  0.00000000000E+00  0.14999999963E+04  0.15000000000E+04  0.10566000000E+00 0.  1.
        994   -1    0    0    0    0 -0.00000000000E+00 -0.00000000000E+00  0.11368683772E-12  0.17120000000E+03  0.17120000000E+03 0.  0.
         13    1    1    2    0    0 -0.33071176043E+02  0.37954879134E+02  0.71936815371E+02  0.87802005129E+02  0.10566000000E+00 0.  1.
        994    1    1    2    0    0 -0.26027368718E+02  0.26449213591E+02  0.24267878004E+02  0.17684839475E+03  0.17120000000E+03 0.  0.
        998    1    1    2    0    0  0.59098544761E+02 -0.64404092726E+02  0.14037953029E+04  0.14065496001E+04  0.10000000000E+02 0.  1.
</event>
<event>
 5    1  0.1607440E-008  0.3832003E+03  0.7957747E-01  0.3437341E+00
         13   -1    0    0    0    0  0.00000000000E+00  0.00000000000E+00  0.14999999963E+04  0.15000000000E+04  0.10566000000E+00 0. -1.
        994   -1    0    0    0    0 -0.00000000000E+00 -0.00000000000E+00  0.11368683772E-12  0.17120000000E+03  0.17120000000E+03 0.  0.
         13    1    1    2    0    0  0.46477632218E+01 -0.24373506774E+02  0.14233673393E+03  0.14448330882E+03  0.10566000000E+00 0. -1.
        994    1    1    2    0    0  0.19205824258E+02 -0.11002370505E+01  0.37514608086E+01  0.17231827432E+03  0.17120000000E+03 0.  0.
        998    1    1    2    0    0 -0.23853587480E+02  0.25473743825E+02  0.13539118015E+04  0.13543984169E+04  0.10000000000E+02 0. -1.
</event>
<event>
 5    1  0.1607440E-008  0.3805737E+03  0.7957747E-01  0.3448664E+00
         13   -1    0    0    0    0  0.00000000000E+00  0.00000000000E+00  0.14999999963E+04  0.15000000000E+04  0.10566000000E+00 0.  1.
        994   -1    0    0    0    0 -0.00000000000E+00 -0.00000000000E+00  0.11368683772E-12  0.17120000000E+03  0.17120000000E+03 0.  0.
         13    1    1    2    0    0  0.47006029520E+01 -0.96660583137E+01  0.13682666008E+02  0.17399852429E+02  0.10566000000E+00 0.  1.
        994    1    1    2    0    0  0.15485381745E+02  0.56875910605E+01  0.47524035816E+01  0.17205862687E+03  0.17120000000E+03 0.  0.
        998    1    1    2    0    0 -0.20185984697E+02  0.39784672532E+01  0.14815649267E+04  0.14817415207E+04  0.10000000000E+02 0.  1.
</event>
<event>
 5    1  0.1607440E-008  0.3823310E+03  0.7957747E-01  0.3441071E+00
         13   -1    0    0    0    0  0.00000000000E+00  0.00000000000E+00  0.14999999963E+04  0.15000000000E+04  0.10566000000E+00 0. -1.
        994   -1    0    0    0    0 -0.00000000000E+00 -0.00000000000E+00  0.11368683772E-12  0.17120000000E+03  0.17120000000E+03 0.  0.
         13    1    1    2    0    0 -0.91419643919E+01  0.40813662938E+02  0.24034018772E+03  0.24395234697E+03  0.10566000000E+00 0. -1.
        994    1    1    2    0    0  0.14730479375E+02 -0.43934270438E+02  0.10117100220E+02  0.17764853745E+03  0.17120000000E+03 0.  0.
        998    1    1    2    0    0 -0.55885149830E+01  0.31206074998E+01  0.12495427083E+04  0.12495991156E+04  0.10000000000E+02 0. -1.
</event>
<event>
 5    1  0.1607440E-008  0.3811102E+03  0.7957747E-01  0.3446338E+00
         13   -1    0    0    0    0  0.00000000000E+00  0.00000000000E+00  0.14999999963E+04  0.15000000000E+04  0.10566000000E+00 0. -1.
        994   -1    0    0    0    0 -0.00000000000E+00 -0.00000000000E+00  0.11368683772E-12  0.17120000000E+03  0.17120000000E+03 0.  0.
         13    1    1    2    0    0  0.14159348250E+02 -0.21540238848E+02  0.99630449327E+02  0.10291115892E+03  0.10566000000E+00 0. -1.
        994    1    1    2    0    0 -0.50450375622E+01 -0.21238937474E+01  0.36735634216E+01  0.17132687587E+03  0.17120000000E+03 0.  0.
        998    1    1    2    0    0 -0.91143106875E+01  0.23664132596E+02  0.13966959835E+04  0.13969619652E+04  0.10000000000E+02 0. -1.
</event>
<event>
 5    1  0.1607440E-008  0.3836582E+03  0.7957747E-01  0.3435383E+00
         13   -1    0    0    0    0  0.00000000000E+00  0.00000000000E+00  0.14999999963E+04  0.15000000000E+04  0.10566000000E+00 0.  1.
        994   -1    0    0    0    0 -0.00000000000E+00 -0.00000000000E+00  0.11368683772E-12  0.17120000000E+03  0.17120000000E+03 0.  0.
         13    1    1    2    0    0  0.18032851650E+02  0.52097371757E+01  0.87109339829E+02  0.89108772573E+02  0.10566000000E+00 0.  1.
        994    1    1    2    0    0  0.77366294623E+01  0.59940387841E+01  0.26142302743E+01  0.17149944063E+03  0.17120000000E+03 0.  0.
        998    1    1    2    0    0 -0.25769481112E+02 -0.11203775960E+02  0.14102764262E+04  0.14105917868E+04  0.10000000000E+02 0.  1.
</event>
<event>
 5    1  0.1607440E-008  0.3818970E+03  0.7957747E-01  0.3442940E+00
         13   -1    0    0    0    0  0.00000000000E+00  0.00000000000E+00  0.14999999963E+04  0.15000000000E+04  0.10566000000E+00 0. -1.
        994   -1    0    0    0    0 -0.00000000000E+00 -0.00000000000E+00  0.11368683772E-12  0.17120000000E+03  0.17120000000E+03 0.  0.
         13    1    1    2    0    0  0.24598230809E+01  0.11879568602E+02  0.21709789005E+02  0.24869679983E+02  0.10566000000E+00 0. -1.
        994    1    1    2    0    0  0.30329082491E+01 -0.12341772220E+02  0.37153719213E+01  0.17171127471E+03  0.17120000000E+03 0.  0.
        998    1    1    2    0    0 -0.54927313300E+01  0.46220361800E+00  0.14745748354E+04  0.14746190453E+04  0.10000000000E+02 0. -1.
</event>
<event>
 5    1  0.1607440E-008  0.3825609E+03  0.7957747E-01  0.3440083E+00
         13   -1    0    0    0    0  0.00000000000E+00  0.00000000000E+00  0.14999999963E+04  0.15000000000E+04  0.10566000000E+00 0. -1.
        994   -1    0    0    0    0 -0.00000000000E+00 -0.00000000000E+00  0.11368683772E-12  0.17120000000E+03  0.17120000000E+03 0.  0.
         13    1    1    2    0    0  0.23917381137E+02  0.75370390363E+01  0.11016435172E+03  0.11298249259E+03  0.10566000000E+00 0. -1.
        994    1    1    2    0    0 -0.15429354719E+02  0.45840455161E+00  0.36361932802E+01  0.17193294339E+03  0.17120000000E+03 0.  0.
        998    1    1    2    0    0 -0.84880264180E+01 -0.79954435879E+01  0.13861994513E+04  0.13862845640E+04  0.10000000000E+02 0. -1.
</event>
<event>
 5    1  0.1607440E-008  0.3829193E+03  0.7957747E-01  0.3438545E+00
         13   -1    0    0    0    0  0.00000000000E+00  0.00000000000E+00  0.14999999963E+04  0.15000000000E+04  0.10566000000E+00 0.  1.
        994   -1    0    0    0    0 -0.00000000000E+00 -0.00000000000E+00  0.11368683772E-12  0.17120000000E+03  0.17120000000E+03 0.  0.
         13    1    1    2    0    0 -0.16381055828E+01 -0.15807495912E+02  0.45090584314E+02  0.47809332506E+02  0.10566000000E+00 0.  1.
        994    1    1    2    0    0  0.47032803496E+01  0.17501440850E+02  0.37548709185E+01  0.17219744578E+03  0.17120000000E+03 0.  0.
        998    1    1    2    0    0 -0.30651747668E+01 -0.16939449382E+01  0.14511545410E+04  0.14511932217E+04  0.10000000000E+02 0.  1.
</event>
<event>
 5    1  0.1607440E-008  0.3858971E+03  0.7957747E-01  0.3425876E+00
         13   -1    0    0    0    0  0.00000000000E+00  0.00000000000E+00  0.14999999963E+04  0.15000000000E+04  0.10566000000E+00 0.  1.
        994   -1    0    0    0    0 -0.00000000000E+00 -0.00000000000E+00  0.11368683772E-12  0.17120000000E+03  0.17120000000E+03 0.  0.
         13    1    1    2    0    0 -0.12087324306E+02 -0.48135256548E+01  0.78078359287E+02  0.79155004839E+02  0.10566000000E+00 0.  1.
        994    1    1    2    0    0 -0.27764414604E+01  0.41744678011E+01  0.12678174418E+01  0.17127808432E+03  0.17120000000E+03 0.  0.
        998    1    1    2    0    0  0.14863765766E+02  0.63905785370E+00  0.14206538195E+04  0.14207669108E+04  0.10000000000E+02 0.  1.
</event>
<event>
 5    1  0.1607440E-008  0.3837324E+03  0.7957747E-01  0.3435066E+00
         13   -1    0    0    0    0  0.00000000000E+00  0.00000000000E+00  0.14999999963E+04  0.15000000000E+04  0.10566000000E+00 0. -1.
        994   -1    0    0    0    0 -0.00000000000E+00 -0.00000000000E+00  0.11368683772E-12  0.17120000000E+03  0.17120000000E+03 0.  0.
         13    1    1    2    0    0  0.31135563372E+02 -0.99298188666E+01  0.20552514283E+02  0.38606238053E+02  0.10566000000E+00 0. -1.
        994    1    1    2    0    0 -0.27110553204E+02  0.51171308958E+02  0.30818415998E+02  0.18333766585E+03  0.17120000000E+03 0.  0.
        998    1    1    2    0    0 -0.40250101688E+01 -0.41241490092E+02  0.14486290660E+04  0.14492560961E+04  0.10000000000E+02 0. -1.
</event>
<event>
 5    1  0.1607440E-008  0.3852114E+03  0.7957747E-01  0.3428776E+00
         13   -1    0    0    0    0  0.00000000000E+00  0.00000000000E+00  0.14999999963E+04  0.15000000000E+04  0.10566000000E+00 0.  1.
        994   -1    0    0    0    0 -0.00000000000E+00 -0.00000000000E+00  0.11368683772E-12  0.17120000000E+03  0.17120000000E+03 0.  0.
         13    1    1    2    0    0  0.10355252347E+02 -0.58576986284E+01  0.47053965870E+02  0.48534840604E+02  0.10566000000E+00 0.  1.
        994    1    1    2    0    0 -0.36243057596E+01  0.49825149506E+01  0.16499719706E+01  0.17131877730E+03  0.17120000000E+03 0.  0.
        998    1    1    2    0    0 -0.67309465871E+01  0.87518367774E+00  0.14512960584E+04  0.14513463821E+04  0.10000000000E+02 0.  1.
</event>
<event>
 5    1  0.1607440E-008  0.3851695E+03  0.7957747E-01  0.3428954E+00
         13   -1    0    0    0    0  0.00000000000E+00  0.00000000000E+00  0.14999999963E+04  0.15000000000E+04  0.10566000000E+00 0. -1.
        994   -1    0    0    0    0 -0.00000000000E+00 -0.00000000000E+00  0.11368683772E-12  0.17120000000E+03  0.17120000000E+03 0.  0.
         13    1    1    2    0    0 -0.79709657704E+02 -0.27405202026E+03  0.11068884506E+04  0.11430923815E+04  0.10566000000E+00 0. -1.
        994    1    1    2    0    0  0.76784887292E+02  0.27898849119E+03  0.35788040393E+03  0.49103800326E+03  0.17120000000E+03 0.  0.
        998    1    1    2    0    0  0.29247704122E+01 -0.49364709242E+01  0.35231141699E+02  0.37069615220E+02  0.10000000000E+02 0.  1.
</event>
<event>
 5    1  0.1607440E-008  0.3803956E+03  0.7957747E-01  0.3449438E+00
         13   -1    0    0    0    0  0.00000000000E+00  0.00000000000E+00  0.14999999963E+04  0.15000000000E+04  0.10566000000E+00 0.  1.
        994   -1    0    0    0    0 -0.00000000000E+00 -0.00000000000E+00  0.11368683772E-12  0.17120000000E+03  0.17120000000E+03 0.  0.
         13    1    1    2    0    0  0.49886264946E+00 -0.45642739716E+02  0.22657954532E+03  0.23113158606E+03  0.10566000000E+00 0.  1.
        994    1    1    2    0    0 -0.10275578090E+01  0.45238625788E+02  0.10800011840E+02  0.17740819991E+03  0.17120000000E+03 0.  0.
        998    1    1    2    0    0  0.52869515957E+00  0.40411392874E+00  0.12626204391E+04  0.12626602140E+04  0.10000000000E+02 0.  1.
</event>
<event>
 5    1  0.1607440E-008  0.3748726E+03  0.7957747E-01  0.3473793E+00
         13   -1    0    0    0    0  0.00000000000E+00  0.00000000000E+00  0.14999999963E+04  0.15000000000E+04  0.10566000000E+00 0. -1.
        994   -1    0    0    0    0 -0.00000000000E+00 -0.00000000000E+00  0.11368683772E-12  0.17120000000E+03  0.17120000000E+03 0.  0.
         13    1    1    2    0    0  0.41722553510E+02  0.52216185739E+02  0.33676046258E+03  0.34332917418E+03  0.10566000000E+00 0. -1.
        994    1    1    2    0    0 -0.37099545187E+02 -0.16209609740E+02  0.12338738896E+02  0.17635422359E+03  0.17120000000E+03 0.  0.
        998    1    1    2    0    0 -0.46230083227E+01 -0.36006575999E+02  0.11509007948E+04  0.11515166022E+04  0.10000000000E+02 0. -1.
</event>
<event>
 5    1  0.1607440E-008  0.3850975E+03  0.7957747E-01  0.3429259E+00
         13   -1    0    0    0    0  0.00000000000E+00  0.00000000000E+00  0.14999999963E+04  0.15000000000E+04  0.10566000000E+00 0.  1.
        994   -1    0    0    0    0 -0.00000000000E+00 -0.00000000000E+00  0.11368683772E-12  0.17120000000E+03  0.17120000000E+03 0.  0.
         13    1    1    2    0    0  0.14723909387E+02  0.93835500604E+01  0.80282841066E+02  0.82159541461E+02  0.10566000000E+00 0.  1.
        994    1    1    2    0    0 -0.30198043134E+02 -0.23195958725E+02  0.63632823904E+01  0.17549901901E+03  0.17120000000E+03 0.  0.
        998    1    1    2    0    0  0.15474133746E+02  0.13812408664E+02  0.14133538728E+04  0.14135414395E+04  0.10000000000E+02 0.  1.
</event>
<event>
 5    1  0.1934717E-008  0.3860877E+03  0.7957747E-01  0.3425072E+00
         13   -1    0    0    0    0  0.00000000000E+00  0.00000000000E+00  0.14999999963E+04  0.15000000000E+04  0.10566000000E+00 0.  1.
        994   -1    0    0    0    0 -0.00000000000E+00 -0.00000000000E+00  0.11368683772E-12  0.17120000000E+03  0.17120000000E+03 0.  0.
         13    1    1    2    0    0  0.89806292885E+01 -0.10101824372E+02  0.78874279624E+02  0.80024132037E+02  0.10566000000E+00 0.  1.
        994    1    1    2    0    0 -0.81626717279E+01  0.16244668202E+02  0.21749482499E+01  0.17217633070E+03  0.17120000000E+03 0.  0.
        998    1    1    2    0    0 -0.81795756066E+00 -0.61428438292E+01  0.14189507684E+04  0.14189995373E+04  0.10000000000E+02 0.  1.
</event>
<event>
 5    1  0.1607440E-008  0.2821891E+03  0.7957747E-01  0.4031994E+00
         13   -1    0    0    0    0  0.00000000000E+00  0.00000000000E+00  0.14999999963E+04  0.15000000000E+04  0.10566000000E+00 0. -1.
        994   -1    0    0    0    0 -0.00000000000E+00 -0.00000000000E+00  0.11368683772E-12  0.17120000000E+03  0.17120000000E+03 0.  0.
         13    1    1    2    0    0  0.13716938860E+03  0.15661815451E+03  0.45580264214E+03  0.50109953825E+03  0.10566000000E+00 0. -1.
        994    1    1    2    0    0 -0.14441672081E+03 -0.13625702850E+03  0.21091248592E+03  0.33647538362E+03  0.17120000000E+03 0.  0.
        998    1    1    2    0    0  0.72473322131E+01 -0.20361126008E+02  0.83328486822E+03  0.83362507813E+03  0.10000000000E+02 0. -1.
</event>
<event>
 5    1  0.1607440E-008  0.3954468E+03  0.7957747E-01  0.3386539E+00
         13   -1    0    0    0    0  0.00000000000E+00  0.00000000000E+00  0.14999999963E+04  0.15000000000E+04  0.10566000000E+00 0. -1.
        994   -1    0    0    0    0 -0.00000000000E+00 -0.00000000000E+00  0.11368683772E-12  0.17120000000E+03  0.17120000000E+03 0.  0.
         13    1    1    2    0    0  0.88387228989E+01  0.62738517055E+02  0.75400905071E+02  0.98486304602E+02  0.10566000000E+00 0. -1.
        994    1    1    2    0    0  0.32648863098E+01 -0.28722613044E+02  0.28303101936E+02  0.17591518855E+03  0.17120000000E+03 0.  0.
        998    1    1    2    0    0 -0.12103609209E+02 -0.34015904010E+02  0.13962959893E+04  0.13967985068E+04  0.10000000000E+02 0. -1.
</event>
<event>
 5    1  0.1607440E-008  0.3690669E+03  0.7957747E-01  0.3500190E+00
         13   -1    0    0    0    0  0.00000000000E+00  0.00000000000E+00  0.14999999963E+04  0.15000000000E+04  0.10566000000E+00 0. -1.
        994   -1    0    0    0    0 -0.00000000000E+00 -0.00000000000E+00  0.11368683772E-12  0.17120000000E+03  0.17120000000E+03 0.  0.
         13    1    1    2    0    0 -0.18595887105E+02 -0.53155069674E+02  0.17510609117E+03  0.18393863862E+03  0.10566000000E+00 0. -1.
        994    1    1    2    0    0 -0.22456627346E+02  0.23295375070E+02  0.13398006869E+02  0.17474530380E+03  0.17120000000E+03 0.  0.
        998    1    1    2    0    0  0.41052514451E+02  0.29859694604E+02  0.13114958982E+04  0.13125160576E+04  0.10000000000E+02 0. -1.
</event>
<event>
 5    1  0.1607440E-008  0.3800535E+03  0.7957747E-01  0.3450926E+00
         13   -1    0    0    0    0  0.00000000000E+00  0.00000000000E+00  0.14999999963E+04  0.15000000000E+04  0.10566000000E+00 0. -1.
        994   -1    0    0    0    0 -0.00000000000E+00 -0.00000000000E+00  0.11368683772E-12  0.17120000000E+03  0.17120000000E+03 0.  0.
         13    1    1    2    0    0  0.13687421156E+02 -0.15803463467E+02  0.51734531931E+02  0.55799354061E+02  0.10566000000E+00 0. -1.
        994    1    1    2    0    0 -0.44385515107E+01  0.13945923412E+02  0.48223552498E+01  0.17189207262E+03  0.17120000000E+03 0.  0.
        998    1    1    2    0    0 -0.92488696455E+01  0.18575400549E+01  0.14434431091E+04  0.14435085733E+04  0.10000000000E+02 0. -1.
</event>
<event>
 5    1  0.1607440E-008  0.3861309E+03  0.7957747E-01  0.3424890E+00
         13   -1    0    0    0    0  0.00000000000E+00  0.00000000000E+00  0.14999999963E+04  0.15000000000E+04  0.10566000000E+00 0. -1.
        994   -1    0    0    0    0 -0.00000000000E+00 -0.00000000000E+00  0.11368683772E-12  0.17120000000E+03  0.17120000000E+03 0.  0.
         13    1    1    2    0    0  0.41886433676E+01 -0.10564317386E+02  0.61930661288E+02  0.62964811655E+02  0.10566000000E+00 0. -1.
        994    1    1    2    0    0  0.36136991751E+01  0.80256720043E+01  0.13235916201E+01  0.17143121690E+03  0.17120000000E+03 0.  0.
        998    1    1    2    0    0 -0.78023425427E+01  0.25386453816E+01  0.14367457434E+04  0.14368039714E+04  0.10000000000E+02 0. -1.
</event>
<event>
 5    1  0.1607440E-008  0.3764593E+03  0.7957747E-01  0.3466722E+00
         13   -1    0    0    0    0  0.00000000000E+00  0.00000000000E+00  0.14999999963E+04  0.15000000000E+04  0.10566000000E+00 0.  1.
        994   -1    0    0    0    0 -0.00000000000E+00 -0.00000000000E+00  0.11368683772E-12  0.17120000000E+03  0.17120000000E+03 0.  0.
         13    1    1    2    0    0  0.50185303710E+00 -0.19626834358E+02  0.32366857203E+02  0.37856163205E+02  0.10566000000E+00 0.  1.
        994    1    1    2    0    0 -0.37594207315E+02 -0.14311023262E+02  0.11424274383E+02  0.17623303849E+03  0.17120000000E+03 0.  0.
        998    1    1    2    0    0  0.37092354278E+02  0.33937857620E+02  0.14562088647E+04  0.14571107983E+04  0.10000000000E+02 0.  1.
</event>
<event>
 5    1  0.1607440E-008  0.3760695E+03  0.7957747E-01  0.3468453E+00
         13   -1    0    0    0    0  0.00000000000E+00  0.00000000000E+00  0.14999999963E+04  0.15000000000E+04  0.10566000000E+00 0.  1.
        994   -1    0    0    0    0 -0.00000000000E+00 -0.00000000000E+00  0.11368683772E-12  0.17120000000E+03  0.17120000000E+03 0.  0.
         13    1    1    2    0    0 -0.16753934609E+02  0.54099769916E+01  0.22183494330E+02  0.28321030360E+02  0.10566000000E+00 0.  1.
        994    1    1    2    0    0  0.20768783211E+02 -0.44074559181E+01  0.76587619993E+01  0.17268139639E+03  0.17120000000E+03 0.  0.
        998    1    1    2    0    0 -0.40148486026E+01 -0.10025210734E+01  0.14701577399E+04  0.14701975733E+04  0.10000000000E+02 0.  1.
</event>
<event>
 5    1  0.1607440E-008  0.3834691E+03  0.7957747E-01  0.3436191E+00
         13   -1    0    0    0    0  0.00000000000E+00  0.00000000000E+00  0.14999999963E+04  0.15000000000E+04  0.10566000000E+00 0. -1.
        994   -1    0    0    0    0 -0.00000000000E+00 -0.00000000000E+00  0.11368683772E-12  0.17120000000E+03  0.17120000000E+03 0.  0.
         13    1    1    2    0    0 -0.67625813915E+01 -0.18486734275E+02  0.74769603713E+02  0.77317505487E+02  0.10566000000E+00 0. -1.
        994    1    1    2    0    0  0.69364968217E+01  0.24547058588E+02  0.45456039410E+01  0.17314957577E+03  0.17120000000E+03 0.  0.
        998    1    1    2    0    0 -0.17391543020E+00 -0.60603243132E+01  0.14206847886E+04  0.14207329187E+04  0.10000000000E+02 0. -1.
</event>
<event>
 5    1  0.1607440E-008  0.3830843E+03  0.7957747E-01  0.3437838E+00
         13   -1    0    0    0    0  0.00000000000E+00  0.00000000000E+00  0.14999999963E+04  0.15000000000E+04  0.10566000000E+00 0.  1.
        994   -1    0    0    0    0 -0.00000000000E+00 -0.00000000000E+00  0.11368683772E-12  0.17120000000E+03  0.17120000000E+03 0.  0.
         13    1    1    2    0    0 -0.24348789246E+02 -0.65944563713E+01  0.12103681246E+03  0.12363766225E+03  0.10566000000E+00 0.  1.
        994    1    1    2    0    0  0.20918470261E+02 -0.11045206128E+02  0.44382166418E+01  0.17288353520E+03  0.17120000000E+03 0.  0.
        998    1    1    2    0    0  0.34303189857E+01  0.17639662499E+02  0.13745249672E+04  0.13746788025E+04  0.10000000000E+02 0.  1.
</event>
<event>
 5    1  0.1607440E-008  0.3720179E+03  0.7957747E-01  0.3486668E+00
         13   -1    0    0    0    0  0.00000000000E+00  0.00000000000E+00  0.14999999963E+04  0.15000000000E+04  0.10566000000E+00 0.  1.
        994   -1    0    0    0    0 -0.00000000000E+00 -0.00000000000E+00  0.11368683772E-12  0.17120000000E+03  0.17120000000E+03 0.  0.
         13    1    1    2    0    0  0.35961135077E+01 -0.12571137387E+02  0.66896719829E+01  0.14687695627E+02  0.10566000000E+00 0.  1.
        994    1    1    2    0    0 -0.41940181884E+01  0.67481007474E+01  0.84349399597E+01  0.17159170978E+03  0.17120000000E+03 0.  0.
        998    1    1    2    0    0  0.59790468074E+00  0.58230366397E+01  0.14848753843E+04  0.14849205946E+04  0.10000000000E+02 0.  1.
</event>
<event>
 5    1  0.1607440E-008  0.3856478E+03  0.7957747E-01  0.3426930E+00
         13   -1    0    0    0    0  0.00000000000E+00  0.00000000000E+00  0.14999999963E+04  0.15000000000E+04  0.10566000000E+00 0. -1.
        994   -1    0    0    0    0 -0.00000000000E+00 -0.00000000000E+00  0.11368683772E-12  0.17120000000E+03  0.17120000000E+03 0.  0.
         13    1    1    2    0    0  0.37681045355E+01 -0.11384497150E+02  0.64239842970E+02  0.65349628736E+02  0.10566000000E+00 0. -1.
        994    1    1    2    0    0  0.17492485968E+02 -0.73797576804E+01  0.24926774057E+01  0.17226752837E+03  0.17120000000E+03 0.  0.
        998    1    1    2    0    0 -0.21260590504E+02  0.18764254831E+02  0.14332674759E+04  0.14335828429E+04  0.10000000000E+02 0. -1.
</event>
<event>
 5    1  0.1607440E-008  0.3692748E+03  0.7957747E-01  0.3499230E+00
         13   -1    0    0    0    0  0.00000000000E+00  0.00000000000E+00  0.14999999963E+04  0.15000000000E+04  0.10566000000E+00 0. -1.
        994   -1    0    0    0    0 -0.00000000000E+00 -0.00000000000E+00  0.11368683772E-12  0.17120000000E+03  0.17120000000E+03 0.  0.
         13    1    1    2    0    0  0.93822575317E+02 -0.10626775266E+03  0.58165545303E+03  0.59868070630E+03  0.10566000000E+00 0. -1.
        994    1    1    2    0    0 -0.99768159017E+02  0.10353862163E+03  0.85145344727E+02  0.23923440692E+03  0.17120000000E+03 0.  0.
        998    1    1    2    0    0  0.59455837001E+01  0.27291310292E+01  0.83319919852E+03  0.83328488678E+03  0.10000000000E+02 0. -1.
</event>
<event>
 5    1  0.1607440E-008  0.3826438E+03  0.7957747E-01  0.3439727E+00
         13   -1    0    0    0    0  0.00000000000E+00  0.00000000000E+00  0.14999999963E+04  0.15000000000E+04  0.10566000000E+00 0.  1.
        994   -1    0    0    0    0 -0.00000000000E+00 -0.00000000000E+00  0.11368683772E-12  0.17120000000E+03  0.17120000000E+03 0.  0.
         13    1    1    2    0    0 -0.23564489312E+02  0.22504867294E+01  0.10242788742E+03  0.10512769917E+03  0.10566000000E+00 0.  1.
        994    1    1    2    0    0  0.75813600547E+01 -0.58890723914E+02  0.14577371245E+02  0.18178980757E+03  0.17120000000E+03 0.  0.
        998    1    1    2    0    0  0.15983129257E+02  0.56640237184E+02  0.13829947376E+04  0.13842824933E+04  0.10000000000E+02 0.  1.
</event>
<event>
 5    1  0.1607440E-008  0.3805356E+03  0.7957747E-01  0.3448830E+00
         13   -1    0    0    0    0  0.00000000000E+00  0.00000000000E+00  0.14999999963E+04  0.15000000000E+04  0.10566000000E+00 0.  1.
        994   -1    0    0    0    0 -0.00000000000E+00 -0.00000000000E+00  0.11368683772E-12  0.17120000000E+03  0.17120000000E+03 0.  0.
         13    1    1    2    0    0 -0.34390377028E+02 -0.85963183263E+01  0.14424939050E+03  0.14854121497E+03  0.10566000000E+00 0.  1.
        994    1    1    2    0    0  0.38470164060E+02  0.57122406873E+01  0.89270491309E+01  0.17578883759E+03  0.17120000000E+03 0.  0.
        998    1    1    2    0    0 -0.40797870323E+01  0.28840776390E+01  0.13468235567E+04  0.13468699474E+04  0.10000000000E+02 0.  1.
</event>
<event>
 5    1  0.1607440E-008  0.3689564E+03  0.7957747E-01  0.3500701E+00
         13   -1    0    0    0    0  0.00000000000E+00  0.00000000000E+00  0.14999999963E+04  0.15000000000E+04  0.10566000000E+00 0.  1.
        994   -1    0    0    0    0 -0.00000000000E+00 -0.00000000000E+00  0.11368683772E-12  0.17120000000E+03  0.17120000000E+03 0.  0.
         13    1    1    2    0    0  0.34460750403E+02  0.39258505415E+02  0.15555962942E+03  0.16409626149E+03  0.10566000000E+00 0.  1.
        994    1    1    2    0    0 -0.87104023361E+02  0.65432141915E+02  0.52209599769E+02  0.20953223711E+03  0.17120000000E+03 0.  0.
        998    1    1    2    0    0  0.52643272958E+02 -0.10469064733E+03  0.12922307671E+04  0.12975715014E+04  0.10000000000E+02 0.  1.
</event>
<event>
 5    1  0.1607440E-008  0.3782793E+03  0.7957747E-01  0.3458685E+00
         13   -1    0    0    0    0  0.00000000000E+00  0.00000000000E+00  0.14999999963E+04  0.15000000000E+04  0.10566000000E+00 0. -1.
        994   -1    0    0    0    0 -0.00000000000E+00 -0.00000000000E+00  0.11368683772E-12  0.17120000000E+03  0.17120000000E+03 0.  0.
         13    1    1    2    0    0 -0.10363267769E+02  0.90317769684E+01  0.16866130156E+02  0.21758856232E+02  0.10566000000E+00 0. -1.
        994    1    1    2    0    0  0.59599449883E+01 -0.28268484858E+01  0.51505706891E+01  0.17140443517E+03  0.17120000000E+03 0.  0.
        998    1    1    2    0    0  0.44033227811E+01 -0.62049284826E+01  0.14779832954E+04  0.14780367086E+04  0.10000000000E+02 0. -1.
</event>
<event>
 5    1  0.1607440E-008  0.3779510E+03  0.7957747E-01  0.3460129E+00
         13   -1    0    0    0    0  0.00000000000E+00  0.00000000000E+00  0.14999999963E+04  0.15000000000E+04  0.10566000000E+00 0.  1.
        994   -1    0    0    0    0 -0.00000000000E+00 -0.00000000000E+00  0.11368683772E-12  0.17120000000E+03  0.17120000000E+03 0.  0.
         13    1    1    2    0    0  0.24161627755E+02  0.22611571687E+02  0.92389313738E+02  0.98136964936E+02  0.10566000000E+00 0.  1.
        994    1    1    2    0    0 -0.28662848679E+02 -0.37843936973E+02  0.12794266270E+02  0.17812034053E+03  0.17120000000E+03 0.  0.
        998    1    1    2    0    0  0.45012209241E+01  0.15232365286E+02  0.13948164163E+04  0.13949426945E+04  0.10000000000E+02 0.  1.
</event>
<event>
 5    1  0.1607440E-008  0.3813130E+03  0.7957747E-01  0.3445461E+00
         13   -1    0    0    0    0  0.00000000000E+00  0.00000000000E+00  0.14999999963E+04  0.15000000000E+04  0.10566000000E+00 0. -1.
        994   -1    0    0    0    0 -0.00000000000E+00 -0.00000000000E+00  0.11368683772E-12  0.17120000000E+03  0.17120000000E+03 0.  0.
         13    1    1    2    0    0  0.43598493811E+01 -0.15508717914E+02  0.35647744121E+02  0.39119067511E+02  0.10566000000E+00 0. -1.
        994    1    1    2    0    0 -0.58031732384E+01  0.13252307248E+02  0.41687732994E+01  0.17186075508E+03  0.17120000000E+03 0.  0.
        998    1    1    2    0    0  0.14433238573E+01  0.22564106656E+01  0.14601834789E+04  0.14602201774E+04  0.10000000000E+02 0. -1.
</event>
<event>
 5    1  0.1607440E-008  0.3703690E+03  0.7957747E-01  0.3494197E+00
         13   -1    0    0    0    0  0.00000000000E+00  0.00000000000E+00  0.14999999963E+04  0.15000000000E+04  0.10566000000E+00 0. -1.
        994   -1    0    0    0    0 -0.00000000000E+00 -0.00000000000E+00  0.11368683772E-12  0.17120000000E+03  0.17120000000E+03 0.  0.
         13    1    1    2    0    0 -0.19985954875E+00  0.24555433885E+02  0.30887954936E+02  0.39459931592E+02  0.10566000000E+00 0. -1.
        994    1    1    2    0    0 -0.81461842196E+01  0.13576691920E+01  0.93118894433E+01  0.17165184202E+03  0.17120000000E+03 0.  0.
        998    1    1    2    0    0  0.83460437683E+01 -0.25913103077E+02  0.14598001519E+04  0.14600882264E+04  0.10000000000E+02 0. -1.
</event>
<event>
 5    1  0.1607440E-008  0.3859953E+03  0.7957747E-01  0.3425462E+00
         13   -1    0    0    0    0  0.00000000000E+00  0.00000000000E+00  0.14999999963E+04  0.15000000000E+04  0.10566000000E+00 0.  1.
        994   -1    0    0    0    0 -0.00000000000E+00 -0.00000000000E+00  0.11368683772E-12  0.17120000000E+03  0.17120000000E+03 0.  0.
         13    1    1    2    0    0 -0.90539425982E+00  0.10050809671E+02  0.60371486256E+02  0.61209198905E+02  0.10566000000E+00 0.  1.
        994    1    1    2    0    0  0.20697579626E+02  0.31562103123E+02  0.58205751602E+01  0.17540774000E+03  0.17120000000E+03 0.  0.
        998    1    1    2    0    0 -0.19792185366E+02 -0.41612912794E+02  0.14338079349E+04  0.14345830611E+04  0.10000000000E+02 0.  1.
</event>
<event>
 5    1  0.1607440E-008  0.3751207E+03  0.7957747E-01  0.3472683E+00
         13   -1    0    0    0    0  0.00000000000E+00  0.00000000000E+00  0.14999999963E+04  0.15000000000E+04  0.10566000000E+00 0.  1.
        994   -1    0    0    0    0 -0.00000000000E+00 -0.00000000000E+00  0.11368683772E-12  0.17120000000E+03  0.17120000000E+03 0.  0.
         13    1    1    2    0    0  0.81378388833E+01 -0.74242874737E+02  0.36338946918E+03  0.37098537215E+03  0.10566000000E+00 0.  1.
        994    1    1    2    0    0  0.73871777356E+00  0.60256981971E+02  0.19057437167E+02  0.18249404235E+03  0.17120000000E+03 0.  0.
        998    1    1    2    0    0 -0.88765566568E+01  0.13985892766E+02  0.11175530899E+04  0.11177205855E+04  0.10000000000E+02 0.  1.
</event>
<event>
 5    1  0.1607440E-008  0.3747049E+03  0.7957747E-01  0.3474544E+00
         13   -1    0    0    0    0  0.00000000000E+00  0.00000000000E+00  0.14999999963E+04  0.15000000000E+04  0.10566000000E+00 0. -1.
        994   -1    0    0    0    0 -0.00000000000E+00 -0.00000000000E+00  0.11368683772E-12  0.17120000000E+03  0.17120000000E+03 0.  0.
         13    1    1    2    0    0  0.43877810872E+02 -0.75734065630E+02  0.27911474563E+03  0.29251660359E+03  0.10566000000E+00 0. -1.
        994    1    1    2    0    0 -0.66783399132E+02  0.24178453808E+02  0.31604900336E+02  0.18802374784E+03  0.17120000000E+03 0.  0.
        998    1    1    2    0    0  0.22905588260E+02  0.51555611822E+02  0.11892803503E+04  0.11906596486E+04  0.10000000000E+02 0. -1.
</event>
<event>
 5    1  0.1607440E-008  0.3788211E+03  0.7957747E-01  0.3456308E+00
         13   -1    0    0    0    0  0.00000000000E+00  0.00000000000E+00  0.14999999963E+04  0.15000000000E+04  0.10566000000E+00 0. -1.
        994   -1    0    0    0    0 -0.00000000000E+00 -0.00000000000E+00  0.11368683772E-12  0.17120000000E+03  0.17120000000E+03 0.  0.
         13    1    1    2    0    0  0.32549721542E+02 -0.29850746100E+02  0.19900965725E+03  0.20385143183E+03  0.10566000000E+00 0. -1.
        994    1    1    2    0    0 -0.28884780344E+02  0.12347287245E+02  0.80481843876E+01  0.17424407970E+03  0.17120000000E+03 0.  0.
        998    1    1    2    0    0 -0.36649411979E+01  0.17503458856E+02  0.12929421546E+04  0.12931044885E+04  0.10000000000E+02 0. -1.
</event>
<event>
 5    1  0.1607440E-008  0.3848095E+03  0.7957747E-01  0.3430481E+00
         13   -1    0    0    0    0  0.00000000000E+00  0.00000000000E+00  0.14999999963E+04  0.15000000000E+04  0.10566000000E+00 0.  1.
        994   -1    0    0    0    0 -0.00000000000E+00 -0.00000000000E+00  0.11368683772E-12  0.17120000000E+03  0.17120000000E+03 0.  0.
         13    1    1    2    0    0 -0.38826332835E+01  0.14586053825E+02  0.67448403504E+02  0.69116757061E+02  0.10566000000E+00 0.  1.
        994    1    1    2    0    0  0.30731760645E+01 -0.57920847885E+01  0.18662333360E+01  0.17133568071E+03  0.17120000000E+03 0.  0.
        998    1    1    2    0    0  0.80945721897E+00 -0.87939690366E+01  0.14306853594E+04  0.14307475622E+04  0.10000000000E+02 0.  1.
</event>
<event>
 5    1  0.1607440E-008  0.3851065E+03  0.7957747E-01  0.3429221E+00
         13   -1    0    0    0    0  0.00000000000E+00  0.00000000000E+00  0.14999999963E+04  0.15000000000E+04  0.10566000000E+00 0.  1.
        994   -1    0    0    0    0 -0.00000000000E+00 -0.00000000000E+00  0.11368683772E-12  0.17120000000E+03  0.17120000000E+03 0.  0.
         13    1    1    2    0    0  0.66804162127E+01 -0.12028506533E+02  0.66436365771E+02  0.67846258490E+02  0.10566000000E+00 0.  1.
        994    1    1    2    0    0 -0.35789745471E+01 -0.88847968757E+01  0.18789474403E+01  0.17147804267E+03  0.17120000000E+03 0.  0.
        998    1    1    2    0    0 -0.31014416656E+01  0.20913303409E+02  0.14316846831E+04  0.14318756988E+04  0.10000000000E+02 0.  1.
</event>
<event>
 5    1  0.1607440E-008  0.3837009E+03  0.7957747E-01  0.3435201E+00
         13   -1    0    0    0    0  0.00000000000E+00  0.00000000000E+00  0.14999999963E+04  0.15000000000E+04  0.10566000000E+00 0. -1.
        994   -1    0    0    0    0 -0.00000000000E+00 -0.00000000000E+00  0.11368683772E-12  0.17120000000E+03  0.17120000000E+03 0.  0.
         13    1    1    2    0    0  0.18606865428E+02 -0.68175609111E+01  0.98387352961E+02  0.10036322516E+03  0.10566000000E+00 0. -1.
        994    1    1    2    0    0  0.10964920214E+02  0.82076797169E+01  0.28962970251E+01  0.17177142957E+03  0.17120000000E+03 0.  0.
        998    1    1    2    0    0 -0.29571785642E+02 -0.13901188058E+01  0.13987163463E+04  0.13990653453E+04  0.10000000000E+02 0. -1.
</event>
<event>
 5    1  0.1607440E-008  0.3858464E+03  0.7957747E-01  0.3426091E+00
         13   -1    0    0    0    0  0.00000000000E+00  0.00000000000E+00  0.14999999963E+04  0.15000000000E+04  0.10566000000E+00 0. -1.
        994   -1    0    0    0    0 -0.00000000000E+00 -0.00000000000E+00  0.11368683772E-12  0.17120000000E+03  0.17120000000E+03 0.  0.
         13    1    1    2    0    0  0.10441541109E+02 -0.51362148917E+01  0.55097869760E+02  0.56313345668E+02  0.10566000000E+00 0. -1.
        994    1    1    2    0    0 -0.86354454903E+01  0.83784940674E+01  0.16854535629E+01  0.17163056498E+03  0.17120000000E+03 0.  0.
        998    1    1    2    0    0 -0.18060956183E+01 -0.32422791758E+01  0.14432166730E+04  0.14432560894E+04  0.10000000000E+02 0. -1.
</event>
<event>
 5    1  0.1607440E-008  0.3789334E+03  0.7957747E-01  0.3455816E+00
         13   -1    0    0    0    0  0.00000000000E+00  0.00000000000E+00  0.14999999963E+04  0.15000000000E+04  0.10566000000E+00 0.  1.
        994   -1    0    0    0    0 -0.00000000000E+00 -0.00000000000E+00  0.11368683772E-12  0.17120000000E+03  0.17120000000E+03 0.  0.
         13    1    1    2    0    0 -0.30653094878E+02 -0.58583378593E+02  0.38057220263E+03  0.38627300845E+03  0.10566000000E+00 0.  1.
        994    1    1    2    0    0  0.24690752396E+02  0.52615938856E+02  0.16089771331E+02  0.18151140740E+03  0.17120000000E+03 0.  0.
        998    1    1    2    0    0  0.59623424815E+01  0.59674397368E+01  0.11033380223E+04  0.11034155842E+04  0.10000000000E+02 0.  0.
</event>
<event>
 5    1  0.1607440E-008  0.3840816E+03  0.7957747E-01  0.3433576E+00
         13   -1    0    0    0    0  0.00000000000E+00  0.00000000000E+00  0.14999999963E+04  0.15000000000E+04  0.10566000000E+00 0. -1.
        994   -1    0    0    0    0 -0.00000000000E+00 -0.00000000000E+00  0.11368683772E-12  0.17120000000E+03  0.17120000000E+03 0.  0.
         13    1    1    2    0    0 -0.11009565401E+02 -0.60217858512E+01  0.37118762196E+02  0.39182727141E+02  0.10566000000E+00 0. -1.
        994    1    1    2    0    0  0.42983973684E+01  0.11223480414E+02  0.25633622951E+01  0.17164047762E+03  0.17120000000E+03 0.  0.
        998    1    1    2    0    0  0.67111680322E+01 -0.52016945632E+01  0.14603178718E+04  0.14603767952E+04  0.10000000000E+02 0. -1.
</event>
<event>
 5    1  0.1607440E-008  0.3761266E+03  0.7957747E-01  0.3468199E+00
         13   -1    0    0    0    0  0.00000000000E+00  0.00000000000E+00  0.14999999963E+04  0.15000000000E+04  0.10566000000E+00 0. -1.
        994   -1    0    0    0    0 -0.00000000000E+00 -0.00000000000E+00  0.11368683772E-12  0.17120000000E+03  0.17120000000E+03 0.  0.
         13    1    1    2    0    0  0.31933124608E+01 -0.11688588605E+02  0.92423818367E+01  0.15239853480E+02  0.10566000000E+00 0. -1.
        994    1    1    2    0    0 -0.64457706792E+01  0.92463172132E+01  0.65316456115E+01  0.17169491762E+03  0.17120000000E+03 0.  0.
        998    1    1    2    0    0  0.32524582184E+01  0.24422713919E+01  0.14842259688E+04  0.14842652289E+04  0.10000000000E+02 0. -1.
</event>
<event>
 5    1  0.1607440E-008  0.3790171E+03  0.7957747E-01  0.3455449E+00
         13   -1    0    0    0    0  0.00000000000E+00  0.00000000000E+00  0.14999999963E+04  0.15000000000E+04  0.10566000000E+00 0. -1.
        994   -1    0    0    0    0 -0.00000000000E+00 -0.00000000000E+00  0.11368683772E-12  0.17120000000E+03  0.17120000000E+03 0.  0.
         13    1    1    2    0    0 -0.16924391270E+02 -0.11431722796E+02  0.44984052757E+02  0.49403395354E+02  0.10566000000E+00 0. -1.
        994    1    1    2    0    0 -0.35176314479E+01  0.90404832351E+01  0.49457953461E+01  0.17154592668E+03  0.17120000000E+03 0.  0.
        998    1    1    2    0    0  0.20442022718E+02  0.23912395614E+01  0.14500701482E+04  0.14502506780E+04  0.10000000000E+02 0. -1.
</event>
<event>
 5    1  0.1607440E-008  0.3847737E+03  0.7957747E-01  0.3430632E+00
         13   -1    0    0    0    0  0.00000000000E+00  0.00000000000E+00  0.14999999963E+04  0.15000000000E+04  0.10566000000E+00 0. -1.
        994   -1    0    0    0    0 -0.00000000000E+00 -0.00000000000E+00  0.11368683772E-12  0.17120000000E+03  0.17120000000E+03 0.  0.
         13    1    1    2    0    0  0.18508131215E+00 -0.16351470443E+02  0.81577091051E+02  0.83199986713E+02  0.10566000000E+00 0. -1.
        994    1    1    2    0    0 -0.95594119926E+01  0.16607945135E+01  0.20523999813E+01  0.17148700517E+03  0.17120000000E+03 0.  0.
        998    1    1    2    0    0  0.93743306805E+01  0.14690675930E+02  0.14163705052E+04  0.14165130081E+04  0.10000000000E+02 0. -1.
</event>
<event>
 5    1  0.1607440E-008  0.3717802E+03  0.7957747E-01  0.3487749E+00
         13   -1    0    0    0    0  0.00000000000E+00  0.00000000000E+00  0.14999999963E+04  0.15000000000E+04  0.10566000000E+00 0. -1.
        994   -1    0    0    0    0 -0.00000000000E+00 -0.00000000000E+00  0.11368683772E-12  0.17120000000E+03  0.17120000000E+03 0.  0.
         13    1    1    2    0    0  0.38996291669E+02  0.35781971959E+02  0.16927098167E+03  0.17735201346E+03  0.10566000000E+00 0. -1.
        994    1    1    2    0    0 -0.23796878018E+02 -0.13200753185E+02  0.10890662986E+02  0.17369109887E+03  0.17120000000E+03 0.  0.
        998    1    1    2    0    0 -0.15199413651E+02 -0.22581218774E+02  0.13198383516E+04  0.13201568877E+04  0.10000000000E+02 0.  1.
</event>
<event>
 5    1  0.1607440E-008  0.3838197E+03  0.7957747E-01  0.3434693E+00
         13   -1    0    0    0    0  0.00000000000E+00  0.00000000000E+00  0.14999999963E+04  0.15000000000E+04  0.10566000000E+00 0. -1.
        994   -1    0    0    0    0 -0.00000000000E+00 -0.00000000000E+00  0.11368683772E-12  0.17120000000E+03  0.17120000000E+03 0.  0.
         13    1    1    2    0    0 -0.49247066902E+01 -0.10708433723E+02  0.30982441329E+02  0.33148847998E+02  0.10566000000E+00 0. -1.
        994    1    1    2    0    0  0.25170032336E+01  0.50105631176E+01  0.23210620095E+01  0.17130752575E+03  0.17120000000E+03 0.  0.
        998    1    1    2    0    0  0.24077034566E+01  0.56978706057E+01  0.14666964929E+04  0.14667436263E+04  0.10000000000E+02 0. -1.
</event>
<event>
 5    1  0.1607440E-008  0.3710915E+03  0.7957747E-01  0.3490889E+00
         13   -1    0    0    0    0  0.00000000000E+00  0.00000000000E+00  0.14999999963E+04  0.15000000000E+04  0.10566000000E+00 0. -1.
        994   -1    0    0    0    0 -0.00000000000E+00 -0.00000000000E+00  0.11368683772E-12  0.17120000000E+03  0.17120000000E+03 0.  0.
         13    1    1    2    0    0 -0.80173133484E+01 -0.79850003241E+01  0.32440775964E+01  0.11771692614E+02  0.10566000000E+00 0. -1.
        994    1    1    2    0    0  0.16932754484E+02  0.53818258605E+01  0.97878154134E+01  0.17239757410E+03  0.17120000000E+03 0.  0.
        998    1    1    2    0    0 -0.89154411352E+01  0.26031744636E+01  0.14869681033E+04  0.14870307333E+04  0.10000000000E+02 0. -1.
</event>
<event>
 5    1  0.1607440E-008  0.3853074E+03  0.7957747E-01  0.3428369E+00
         13   -1    0    0    0    0  0.00000000000E+00  0.00000000000E+00  0.14999999963E+04  0.15000000000E+04  0.10566000000E+00 0.  1.
        994   -1    0    0    0    0 -0.00000000000E+00 -0.00000000000E+00  0.11368683772E-12  0.17120000000E+03  0.17120000000E+03 0.  0.
         13    1    1    2    0    0 -0.14158841379E+02  0.46013841351E+01  0.81187069218E+02  0.82540880159E+02  0.10566000000E+00 0.  1.
        994    1    1    2    0    0  0.44596000723E+01  0.13860497951E+02  0.21743980841E+01  0.17183180568E+03  0.17120000000E+03 0.  0.
        998    1    1    2    0    0  0.96992413069E+01 -0.18461882086E+02  0.14166385290E+04  0.14168273142E+04  0.10000000000E+02 0.  1.
</event>
<event>
 5    1  0.1607440E-008  0.3833792E+03  0.7957747E-01  0.3436576E+00
         13   -1    0    0    0    0  0.00000000000E+00  0.00000000000E+00  0.14999999963E+04  0.15000000000E+04  0.10566000000E+00 0.  1.
        994   -1    0    0    0    0 -0.00000000000E+00 -0.00000000000E+00  0.11368683772E-12  0.17120000000E+03  0.17120000000E+03 0.  0.
         13    1    1    2    0    0  0.70969170811E+01 -0.70580490935E+01  0.19557382934E+02  0.21970086033E+02  0.10566000000E+00 0.  1.
        994    1    1    2    0    0 -0.39482513075E+01  0.87492560117E+01  0.27416586783E+01  0.17149080110E+03  0.17120000000E+03 0.  0.
        998    1    1    2    0    0 -0.31486657736E+01 -0.16912069182E+01  0.14777009547E+04  0.14777391129E+04  0.10000000000E+02 0.  1.
</event>
<event>
 5    1  0.1607440E-008  0.3787891E+03  0.7957747E-01  0.3456448E+00
         13   -1    0    0    0    0  0.00000000000E+00  0.00000000000E+00  0.14999999963E+04  0.15000000000E+04  0.10566000000E+00 0.  1.
        994   -1    0    0    0    0 -0.00000000000E+00 -0.00000000000E+00  0.11368683772E-12  0.17120000000E+03  0.17120000000E+03 0.  0.
         13    1    1    2    0    0 -0.19402545743E+02 -0.19770046597E+02  0.17719094270E+02  0.32882989364E+02  0.10566000000E+00 0.  1.
        994    1    1    2    0    0  0.17719087025E+02  0.19039880327E+02  0.18107823568E+02  0.17410863380E+03  0.17120000000E+03 0.  0.
        998    1    1    2    0    0  0.16834587180E+01  0.73016626940E+00  0.14641730784E+04  0.14642083768E+04  0.10000000000E+02 0.  1.
</event>
<event>
 5    1  0.1607440E-008  0.3823009E+03  0.7957747E-01  0.3441201E+00
         13   -1    0    0    0    0  0.00000000000E+00  0.00000000000E+00  0.14999999963E+04  0.15000000000E+04  0.10566000000E+00 0.  1.
        994   -1    0    0    0    0 -0.00000000000E+00 -0.00000000000E+00  0.11368683772E-12  0.17120000000E+03  0.17120000000E+03 0.  0.
         13    1    1    2    0    0  0.20145754448E+02  0.10727586529E+02  0.82469616290E+02  0.85569745296E+02  0.10566000000E+00 0.  1.
        994    1    1    2    0    0 -0.26228946544E+02 -0.64820118947E+00  0.52633329591E+01  0.17327873636E+03  0.17120000000E+03 0.  0.
        998    1    1    2    0    0  0.60831920965E+01 -0.10079385340E+02  0.14122670470E+04  0.14123515183E+04  0.10000000000E+02 0.  1.
</event>
<event>
 5    1  0.1607440E-008  0.3810490E+03  0.7957747E-01  0.3446604E+00
         13   -1    0    0    0    0  0.00000000000E+00  0.00000000000E+00  0.14999999963E+04  0.15000000000E+04  0.10566000000E+00 0.  1.
        994   -1    0    0    0    0 -0.00000000000E+00 -0.00000000000E+00  0.11368683772E-12  0.17120000000E+03  0.17120000000E+03 0.  0.
         13    1    1    2    0    0  0.34025288453E+01 -0.12429803507E+02  0.21466170591E+02  0.25037668854E+02  0.10566000000E+00 0.  1.
        994    1    1    2    0    0 -0.48523514091E+01  0.99178194463E+01  0.40108053816E+01  0.17160254956E+03  0.17120000000E+03 0.  0.
        998    1    1    2    0    0  0.14498225637E+01  0.25119840605E+01  0.14745230203E+04  0.14745597816E+04  0.10000000000E+02 0.  1.
</event>
<event>
 5    1  0.1607440E-008  0.3826639E+03  0.7957747E-01  0.3439641E+00
         13   -1    0    0    0    0  0.00000000000E+00  0.00000000000E+00  0.14999999963E+04  0.15000000000E+04  0.10566000000E+00 0.  1.
        994   -1    0    0    0    0 -0.00000000000E+00 -0.00000000000E+00  0.11368683772E-12  0.17120000000E+03  0.17120000000E+03 0.  0.
         13    1    1    2    0    0  0.27774123037E+02  0.82692562372E+01  0.13489419332E+03  0.13797187056E+03  0.10566000000E+00 0.  1.
        994    1    1    2    0    0 -0.30991435343E+02 -0.76709472417E+01  0.61795302173E+01  0.17426112329E+03  0.17120000000E+03 0.  0.
        998    1    1    2    0    0  0.32173123058E+01 -0.59830899548E+00  0.13589262727E+04  0.13589670062E+04  0.10000000000E+02 0.  1.
</event>
<event>
 5    1  0.1607440E-008  0.3853627E+03  0.7957747E-01  0.3428135E+00
         13   -1    0    0    0    0  0.00000000000E+00  0.00000000000E+00  0.14999999963E+04  0.15000000000E+04  0.10566000000E+00 0. -1.
        994   -1    0    0    0    0 -0.00000000000E+00 -0.00000000000E+00  0.11368683772E-12  0.17120000000E+03  0.17120000000E+03 0.  0.
         13    1    1    2    0    0  0.14482692473E+02  0.21537025571E+01  0.80489774007E+02  0.81810767627E+02  0.10566000000E+00 0. -1.
        994    1    1    2    0    0 -0.13574816712E+00  0.82186468885E+01  0.16721443246E+01  0.17140536938E+03  0.17120000000E+03 0.  0.
        998    1    1    2    0    0 -0.14346944306E+02 -0.10372349446E+02  0.14178380779E+04  0.14179838630E+04  0.10000000000E+02 0. -1.
</event>
<event>
 5    1  0.1607440E-008  0.3834699E+03  0.7957747E-01  0.3436188E+00
         13   -1    0    0    0    0  0.00000000000E+00  0.00000000000E+00  0.14999999963E+04  0.15000000000E+04  0.10566000000E+00 0. -1.
        994   -1    0    0    0    0 -0.00000000000E+00 -0.00000000000E+00  0.11368683772E-12  0.17120000000E+03  0.17120000000E+03 0.  0.
         13    1    1    2    0    0 -0.13528675311E+02  0.42469496267E+01  0.44026434848E+02  0.46253645978E+02  0.10566000000E+00 0. -1.
        994    1    1    2    0    0 -0.36058285826E+01  0.36122885221E+01  0.24778294500E+01  0.17129398783E+03  0.17120000000E+03 0.  0.
        998    1    1    2    0    0  0.17134503893E+02 -0.78592381488E+01  0.14534957320E+04  0.14536523662E+04  0.10000000000E+02 0. -1.
</event>
<event>
 5    1  0.1607440E-008  0.3808761E+03  0.7957747E-01  0.3447352E+00
         13   -1    0    0    0    0  0.00000000000E+00  0.00000000000E+00  0.14999999963E+04  0.15000000000E+04  0.10566000000E+00 0. -1.
        994   -1    0    0    0    0 -0.00000000000E+00 -0.00000000000E+00  0.11368683772E-12  0.17120000000E+03  0.17120000000E+03 0.  0.
         13    1    1    2    0    0 -0.11789906378E+02 -0.67503927685E+01  0.22842069793E+02  0.26577076803E+02  0.10566000000E+00 0. -1.
        994    1    1    2    0    0  0.17014899532E+02  0.93454703369E+01  0.49486589633E+01  0.17236813466E+03  0.17120000000E+03 0.  0.
        998    1    1    2    0    0 -0.52249931545E+01 -0.25950775684E+01  0.14722092675E+04  0.14722547885E+04  0.10000000000E+02 0. -1.
</event>
<event>
 5    1  0.1607440E-008  0.3851944E+03  0.7957747E-01  0.3428848E+00
         13   -1    0    0    0    0  0.00000000000E+00  0.00000000000E+00  0.14999999963E+04  0.15000000000E+04  0.10566000000E+00 0. -1.
        994   -1    0    0    0    0 -0.00000000000E+00 -0.00000000000E+00  0.11368683772E-12  0.17120000000E+03  0.17120000000E+03 0.  0.
         13    1    1    2    0    0  0.10255059310E+02 -0.12519886175E+02  0.82151768569E+02  0.83730747246E+02  0.10566000000E+00 0. -1.
        994    1    1    2    0    0 -0.11036901322E+02  0.11796665784E+02  0.23918357419E+01  0.17197713625E+03  0.17120000000E+03 0.  0.
        998    1    1    2    0    0  0.78184201159E+00  0.72322039133E+00  0.14154563920E+04  0.14154921165E+04  0.10000000000E+02 0. -1.
</event>
<event>
 5    1  0.1607440E-008  0.3812794E+03  0.7957747E-01  0.3445607E+00
         13   -1    0    0    0    0  0.00000000000E+00  0.00000000000E+00  0.14999999963E+04  0.15000000000E+04  0.10566000000E+00 0.  1.
        994   -1    0    0    0    0 -0.00000000000E+00 -0.00000000000E+00  0.11368683772E-12  0.17120000000E+03  0.17120000000E+03 0.  0.
         13    1    1    2    0    0  0.21978481809E+03 -0.26164245445E+02  0.99297598395E+03  0.10173451970E+04  0.10566000000E+00 0.  1.
        994    1    1    2    0    0 -0.23117212827E+03  0.46372743758E+02  0.21843499894E+03  0.36416242669E+03  0.17120000000E+03 0.  0.
        998    1    1    2    0    0  0.11387310178E+02 -0.20208498314E+02  0.28858901339E+03  0.28969237630E+03  0.10000000000E+02 0.  1.
</event>
<event>
 5    1  0.1607440E-008  0.3229489E+03  0.7957747E-01  0.3744685E+00
         13   -1    0    0    0    0  0.00000000000E+00  0.00000000000E+00  0.14999999963E+04  0.15000000000E+04  0.10566000000E+00 0. -1.
        994   -1    0    0    0    0 -0.00000000000E+00 -0.00000000000E+00  0.11368683772E-12  0.17120000000E+03  0.17120000000E+03 0.  0.
         13    1    1    2    0    0 -0.68233392257E+02 -0.15997725693E+03  0.87902453358E+03  0.89606509827E+03  0.10566000000E+00 0. -1.
        994    1    1    2    0    0  0.46374904704E+02  0.13531053713E+03  0.86062936852E+02  0.23911470541E+03  0.17120000000E+03 0.  0.
        998    1    1    2    0    0  0.21858487553E+02  0.24666719804E+02  0.53491252585E+03  0.53602019631E+03  0.10000000000E+02 0. -1.
</event>
<event>
 5    1  0.1607440E-008  0.3839866E+03  0.7957747E-01  0.3433981E+00
         13   -1    0    0    0    0  0.00000000000E+00  0.00000000000E+00  0.14999999963E+04  0.15000000000E+04  0.10566000000E+00 0.  1.
        994   -1    0    0    0    0 -0.00000000000E+00 -0.00000000000E+00  0.11368683772E-12  0.17120000000E+03  0.17120000000E+03 0.  0.
         13    1    1    2    0    0  0.28009112740E+02 -0.23031489055E+02  0.21703946507E+03  0.22004795033E+03  0.10566000000E+00 0.  1.
        994    1    1    2    0    0 -0.29431186662E+02  0.55371724775E+02  0.15218111770E+02  0.18295697193E+03  0.17120000000E+03 0.  0.
        998    1    1    2    0    0  0.14220739218E+01 -0.32340235720E+02  0.12677424194E+04  0.12681950777E+04  0.10000000000E+02 0.  1.
</event>
<event>
 5    1  0.1607440E-008  0.3822514E+03  0.7957747E-01  0.3441413E+00
         13   -1    0    0    0    0  0.00000000000E+00  0.00000000000E+00  0.14999999963E+04  0.15000000000E+04  0.10566000000E+00 0.  1.
        994   -1    0    0    0    0 -0.00000000000E+00 -0.00000000000E+00  0.11368683772E-12  0.17120000000E+03  0.17120000000E+03 0.  0.
         13    1    1    2    0    0 -0.70233446423E+01  0.86227285998E+01  0.19404326455E+02  0.22365550914E+02  0.10566000000E+00 0.  1.
        994    1    1    2    0    0  0.89197715492E+01 -0.33826571276E+01  0.33029650025E+01  0.17149738853E+03  0.17120000000E+03 0.  0.
        998    1    1    2    0    0 -0.18964269069E+01 -0.52400714722E+01  0.14772927048E+04  0.14773370606E+04  0.10000000000E+02 0.  1.
</event>
<event>
 5    1  0.1607440E-008  0.3831495E+03  0.7957747E-01  0.3437558E+00
         13   -1    0    0    0    0  0.00000000000E+00  0.00000000000E+00  0.14999999963E+04  0.15000000000E+04  0.10566000000E+00 0. -1.
        994   -1    0    0    0    0 -0.00000000000E+00 -0.00000000000E+00  0.11368683772E-12  0.17120000000E+03  0.17120000000E+03 0.  0.
         13    1    1    2    0    0 -0.88943610814E+01 -0.72563744707E+01  0.25009154689E+02  0.27517878039E+02  0.10566000000E+00 0. -1.
        994    1    1    2    0    0  0.10474683738E+02 -0.17091659198E+01  0.29244193690E+01  0.17155358485E+03  0.17120000000E+03 0.  0.
        998    1    1    2    0    0 -0.15803226564E+01  0.89655403905E+01  0.14720664222E+04  0.14721285371E+04  0.10000000000E+02 0. -1.
</event>
<event>
 5    1  0.1607440E-008  0.3852167E+03  0.7957747E-01  0.3428754E+00
         13   -1    0    0    0    0  0.00000000000E+00  0.00000000000E+00  0.14999999963E+04  0.15000000000E+04  0.10566000000E+00 0.  1.
        994   -1    0    0    0    0 -0.00000000000E+00 -0.00000000000E+00  0.11368683772E-12  0.17120000000E+03  0.17120000000E+03 0.  0.
         13    1    1    2    0    0  0.97299315155E+00  0.11622760788E+02  0.43944782369E+02  0.45466364991E+02  0.10566000000E+00 0.  1.
        994    1    1    2    0    0  0.10829292541E+02 -0.12015687623E+02  0.23829135871E+01  0.17197897721E+03  0.17120000000E+03 0.  0.
        998    1    1    2    0    0 -0.11802285693E+02  0.39292683495E+00  0.14536723003E+04  0.14537546578E+04  0.10000000000E+02 0.  1.
</event>
<event>
 5    1  0.1607440E-008  0.3690256E+03  0.7957747E-01  0.3500381E+00
         13   -1    0    0    0    0  0.00000000000E+00  0.00000000000E+00  0.14999999963E+04  0.15000000000E+04  0.10566000000E+00 0. -1.
        994   -1    0    0    0    0 -0.00000000000E+00 -0.00000000000E+00  0.11368683772E-12  0.17120000000E+03  0.17120000000E+03 0.  0.
         13    1    1    2    0    0  0.11694663722E+02  0.37878284262E+02  0.79595460445E+02  0.88921190195E+02  0.10566000000E+00 0. -1.
        994    1    1    2    0    0 -0.10403786335E+02  0.10258170871E+02  0.11168572582E+02  0.17218491761E+03  0.17120000000E+03 0.  0.
        998    1    1    2    0    0 -0.12908773872E+01 -0.48136455133E+02  0.14092359633E+04  0.14100938922E+04  0.10000000000E+02 0. -1.
</event>
<event>
 5    1  0.1607440E-008  0.3790191E+03  0.7957747E-01  0.3455441E+00
         13   -1    0    0    0    0  0.00000000000E+00  0.00000000000E+00  0.14999999963E+04  0.15000000000E+04  0.10566000000E+00 0.  1.
        994   -1    0    0    0    0 -0.00000000000E+00 -0.00000000000E+00  0.11368683772E-12  0.17120000000E+03  0.17120000000E+03 0.  0.
         13    1    1    2    0    0  0.43161826866E+02  0.55570902774E+02  0.38494879697E+03  0.39132678925E+03  0.10566000000E+00 0.  1.
        994    1    1    2    0    0 -0.42470792980E+02 -0.59671383966E+02  0.22835954219E+02  0.18760427268E+03  0.17120000000E+03 0.  0.
        998    1    1    2    0    0 -0.69103388535E+00  0.41004811927E+01  0.10922152451E+04  0.10922689381E+04  0.10000000000E+02 0.  1.
</event>
<event>
 5    1  0.1607440E-008  0.3846224E+03  0.7957747E-01  0.3431275E+00
         13   -1    0    0    0    0  0.00000000000E+00  0.00000000000E+00  0.14999999963E+04  0.15000000000E+04  0.10566000000E+00 0.  1.
        994   -1    0    0    0    0 -0.00000000000E+00 -0.00000000000E+00  0.11368683772E-12  0.17120000000E+03  0.17120000000E+03 0.  0.
         13    1    1    2    0    0 -0.10836259872E+02  0.13815729319E+02  0.80327574912E+02  0.82224262599E+02  0.10566000000E+00 0.  1.
        994    1    1    2    0    0  0.15086810872E+02 -0.12640363608E+02  0.30943066367E+01  0.17235546231E+03  0.17120000000E+03 0.  0.
        998    1    1    2    0    0 -0.42505509995E+01 -0.11753657114E+01  0.14165781147E+04  0.14166202751E+04  0.10000000000E+02 0.  1.
</event>
<event>
 5    1  0.1607440E-008  0.3840543E+03  0.7957747E-01  0.3433693E+00
         13   -1    0    0    0    0  0.00000000000E+00  0.00000000000E+00  0.14999999963E+04  0.15000000000E+04  0.10566000000E+00 0. -1.
        994   -1    0    0    0    0 -0.00000000000E+00 -0.00000000000E+00  0.11368683772E-12  0.17120000000E+03  0.17120000000E+03 0.  0.
         13    1    1    2    0    0 -0.15454874324E+01 -0.15469245572E+02  0.60935464766E+02  0.62887424182E+02  0.10566000000E+00 0. -1.
        994    1    1    2    0    0  0.95801376260E+01 -0.24108356701E+01  0.24223744838E+01  0.17150189230E+03  0.17120000000E+03 0.  0.
        998    1    1    2    0    0 -0.80346501936E+01  0.17880081242E+02  0.14366421570E+04  0.14368106835E+04  0.10000000000E+02 0. -1.
</event>
<event>
 5    1  0.1607440E-008  0.3818938E+03  0.7957747E-01  0.3442954E+00
         13   -1    0    0    0    0  0.00000000000E+00  0.00000000000E+00  0.14999999963E+04  0.15000000000E+04  0.10566000000E+00 0. -1.
        994   -1    0    0    0    0 -0.00000000000E+00 -0.00000000000E+00  0.11368683772E-12  0.17120000000E+03  0.17120000000E+03 0.  0.
         13    1    1    2    0    0  0.15904330354E+02  0.30186403751E+02  0.20423022272E+03  0.20706076821E+03  0.10566000000E+00 0. -1.
        994    1    1    2    0    0  0.38567105125E+01 -0.94732295080E+01  0.35278287179E+01  0.17154154561E+03  0.17120000000E+03 0.  0.
        998    1    1    2    0    0 -0.19761040866E+02 -0.20713174243E+02  0.12922419448E+04  0.12925976862E+04  0.10000000000E+02 0. -1.
</event>
<event>
 5    1  0.1607440E-008  0.3784231E+03  0.7957747E-01  0.3458054E+00
         13   -1    0    0    0    0  0.00000000000E+00  0.00000000000E+00  0.14999999963E+04  0.15000000000E+04  0.10566000000E+00 0.  1.
        994   -1    0    0    0    0 -0.00000000000E+00 -0.00000000000E+00  0.11368683772E-12  0.17120000000E+03  0.17120000000E+03 0.  0.
         13    1    1    2    0    0 -0.13290573550E+03  0.28951727593E+02  0.39999431502E+03  0.42248976351E+03  0.10566000000E+00 0.  1.
        994    1    1    2    0    0  0.13427296806E+03 -0.49305406546E+02  0.93409084647E+02  0.24185729297E+03  0.17120000000E+03 0.  0.
        998    1    1    2    0    0 -0.13672325612E+01  0.20353678954E+02  0.10065965966E+04  0.10068529435E+04  0.10000000000E+02 0.  0.
</event>
<event>
 5    1  0.1607440E-008  0.3857512E+03  0.7957747E-01  0.3426493E+00
         13   -1    0    0    0    0  0.00000000000E+00  0.00000000000E+00  0.14999999963E+04  0.15000000000E+04  0.10566000000E+00 0. -1.
        994   -1    0    0    0    0 -0.00000000000E+00 -0.00000000000E+00  0.11368683772E-12  0.17120000000E+03  0.17120000000E+03 0.  0.
         13    1    1    2    0    0  0.44844583013E+01  0.12219135927E+02  0.72131557241E+02  0.73296591757E+02  0.10566000000E+00 0. -1.
        994    1    1    2    0    0  0.12901608797E+02 -0.58273544841E+01  0.19153918367E+01  0.17179498915E+03  0.17120000000E+03 0.  0.
        998    1    1    2    0    0 -0.17386067098E+02 -0.63917814428E+01  0.14259530472E+04  0.14261084191E+04  0.10000000000E+02 0. -1.
</event>
<event>
 5    1  0.1607440E-008  0.3856630E+03  0.7957747E-01  0.3426865E+00
         13   -1    0    0    0    0  0.00000000000E+00  0.00000000000E+00  0.14999999963E+04  0.15000000000E+04  0.10566000000E+00 0.  1.
        994   -1    0    0    0    0 -0.00000000000E+00 -0.00000000000E+00  0.11368683772E-12  0.17120000000E+03  0.17120000000E+03 0.  0.
         13    1    1    2    0    0 -0.92162997110E+01 -0.68839149902E+01  0.52337412650E+02  0.53586793083E+02  0.10566000000E+00 0.  1.
        994    1    1    2    0    0  0.20962953701E+01  0.42387707510E+01  0.13747047148E+01  0.17127081317E+03  0.17120000000E+03 0.  0.
        998    1    1    2    0    0  0.71200043408E+01  0.26451442392E+01  0.14462878789E+04  0.14463423937E+04  0.10000000000E+02 0.  1.
</event>
<event>
 5    1  0.1607440E-008  0.3859153E+03  0.7957747E-01  0.3425800E+00
         13   -1    0    0    0    0  0.00000000000E+00  0.00000000000E+00  0.14999999963E+04  0.15000000000E+04  0.10566000000E+00 0. -1.
        994   -1    0    0    0    0 -0.00000000000E+00 -0.00000000000E+00  0.11368683772E-12  0.17120000000E+03  0.17120000000E+03 0.  0.
         13    1    1    2    0    0  0.39162644435E+01  0.11783239767E+02  0.72962870119E+02  0.74011981778E+02  0.10566000000E+00 0. -1.
        994    1    1    2    0    0 -0.69035846017E+01  0.62650299437E+01  0.14614184339E+01  0.17145986651E+03  0.17120000000E+03 0.  0.
        998    1    1    2    0    0  0.29873201582E+01 -0.18048269711E+02  0.14255757077E+04  0.14257281517E+04  0.10000000000E+02 0. -1.
</event>
<event>
 5    1  0.1607440E-008  0.3832540E+03  0.7957747E-01  0.3437111E+00
         13   -1    0    0    0    0  0.00000000000E+00  0.00000000000E+00  0.14999999963E+04  0.15000000000E+04  0.10566000000E+00 0. -1.
        994   -1    0    0    0    0 -0.00000000000E+00 -0.00000000000E+00  0.11368683772E-12  0.17120000000E+03  0.17120000000E+03 0.  0.
         13    1    1    2    0    0  0.86333694767E+01  0.22314653448E+02  0.13021178529E+03  0.13239183894E+03  0.10566000000E+00 0. -1.
        994    1    1    2    0    0 -0.71391392425E+01  0.60035683760E+01  0.27873022398E+01  0.17147658498E+03  0.17120000000E+03 0.  0.
        998    1    1    2    0    0 -0.14942302341E+01 -0.28318221824E+02  0.13670009088E+04  0.13673315761E+04  0.10000000000E+02 0. -1.
</event>
<event>
 5    1  0.1607440E-008  0.3828026E+03  0.7957747E-01  0.3439046E+00
         13   -1    0    0    0    0  0.00000000000E+00  0.00000000000E+00  0.14999999963E+04  0.15000000000E+04  0.10566000000E+00 0.  1.
        994   -1    0    0    0    0 -0.00000000000E+00 -0.00000000000E+00  0.11368683772E-12  0.17120000000E+03  0.17120000000E+03 0.  0.
         13    1    1    2    0    0 -0.11622345339E+02 -0.10837807847E+02  0.49036819121E+02  0.51547626363E+02  0.10566000000E+00 0.  1.
        994    1    1    2    0    0 -0.11531658344E+02  0.30153944967E+01  0.31957826078E+01  0.17164418072E+03  0.17120000000E+03 0.  0.
        998    1    1    2    0    0  0.23154003683E+02  0.78224133502E+01  0.14477673945E+04  0.14480081929E+04  0.10000000000E+02 0.  1.
</event>
<event>
 5    1  0.1607440E-008  0.3709173E+03  0.7957747E-01  0.3491686E+00
         13   -1    0    0    0    0  0.00000000000E+00  0.00000000000E+00  0.14999999963E+04  0.15000000000E+04  0.10566000000E+00 0.  1.
        994   -1    0    0    0    0 -0.00000000000E+00 -0.00000000000E+00  0.11368683772E-12  0.17120000000E+03  0.17120000000E+03 0.  0.
         13    1    1    2    0    0  0.33565392373E+02  0.10966597816E+02  0.74888787290E+02  0.82796397619E+02  0.10566000000E+00 0.  1.
        994    1    1    2    0    0  0.69564357502E+01  0.21945805742E+01  0.89738068551E+01  0.17159014363E+03  0.17120000000E+03 0.  0.
        998    1    1    2    0    0 -0.40521828123E+02 -0.13161178390E+02  0.14161374021E+04  0.14168134587E+04  0.10000000000E+02 0.  1.
</event>
<event>
 5    1  0.1626948E-008  0.3836458E+03  0.7957747E-01  0.3435436E+00
         13   -1    0    0    0    0  0.00000000000E+00  0.00000000000E+00  0.14999999963E+04  0.15000000000E+04  0.10566000000E+00 0.  1.
        994   -1    0    0    0    0 -0.00000000000E+00 -0.00000000000E+00  0.11368683772E-12  0.17120000000E+03  0.17120000000E+03 0.  0.
         13    1    1    2    0    0  0.96361100909E+01 -0.29903690854E+01  0.21179244284E+02  0.23459933449E+02  0.10566000000E+00 0.  1.
        994    1    1    2    0    0 -0.78092440532E+01  0.47438667150E+01  0.25797952514E+01  0.17146306864E+03  0.17120000000E+03 0.  0.
        998    1    1    2    0    0 -0.18268660377E+01 -0.17534976296E+01  0.14762409567E+04  0.14762769979E+04  0.10000000000E+02 0.  1.
</event>
<event>
 5    1  0.1607440E-008  0.3848814E+03  0.7957747E-01  0.3430175E+00
         13   -1    0    0    0    0  0.00000000000E+00  0.00000000000E+00  0.14999999963E+04  0.15000000000E+04  0.10566000000E+00 0. -1.
        994   -1    0    0    0    0 -0.00000000000E+00 -0.00000000000E+00  0.11368683772E-12  0.17120000000E+03  0.17120000000E+03 0.  0.
         13    1    1    2    0    0  0.56125664119E+01  0.15693700311E+02  0.78106626922E+02  0.79865195576E+02  0.10566000000E+00 0. -1.
        994    1    1    2    0    0 -0.14556993714E+01 -0.19054336986E+02  0.28913807006E+01  0.17228751232E+03  0.17120000000E+03 0.  0.
        998    1    1    2    0    0 -0.41568670405E+01  0.33606366756E+01  0.14190019887E+04  0.14190472921E+04  0.10000000000E+02 0. -1.
</event>
<event>
 5    1  0.1607440E-008  0.3833772E+03  0.7957747E-01  0.3436584E+00
         13   -1    0    0    0    0  0.00000000000E+00  0.00000000000E+00  0.14999999963E+04  0.15000000000E+04  0.10566000000E+00 0.  1.
        994   -1    0    0    0    0 -0.00000000000E+00 -0.00000000000E+00  0.11368683772E-12  0.17120000000E+03  0.17120000000E+03 0.  0.
         13    1    1    2    0    0 -0.82251770449E+01 -0.16946969317E+02  0.78919394529E+02  0.81136522623E+02  0.10566000000E+00 0.  1.
        994    1    1    2    0    0 -0.15188908466E+00 -0.35262591363E+01  0.24791484818E+01  0.17125432477E+03  0.17120000000E+03 0.  0.
        998    1    1    2    0    0  0.83770661296E+01  0.20473228454E+02  0.14186014533E+04  0.14188091526E+04  0.10000000000E+02 0.  1.
</event>
<event>
 5    1  0.1607440E-008  0.3859217E+03  0.7957747E-01  0.3425773E+00
         13   -1    0    0    0    0  0.00000000000E+00  0.00000000000E+00  0.14999999963E+04  0.15000000000E+04  0.10566000000E+00 0. -1.
        994   -1    0    0    0    0 -0.00000000000E+00 -0.00000000000E+00  0.11368683772E-12  0.17120000000E+03  0.17120000000E+03 0.  0.
         13    1    1    2    0    0  0.94600417181E+01  0.61692690166E+01  0.52371086225E+02  0.53575125814E+02  0.10566000000E+00 0. -1.
        994    1    1    2    0    0 -0.16305710512E+02 -0.22234055877E+01  0.20617014606E+01  0.17200148354E+03  0.17120000000E+03 0.  0.
        998    1    1    2    0    0  0.68456687939E+01 -0.39458634289E+01  0.14455672086E+04  0.14456233906E+04  0.10000000000E+02 0. -1.
</event>
<event>
 5    1  0.1607440E-008  0.3840355E+03  0.7957747E-01  0.3433773E+00
         13   -1    0    0    0    0  0.00000000000E+00  0.00000000000E+00  0.14999999963E+04  0.15000000000E+04  0.10566000000E+00 0. -1.
        994   -1    0    0    0    0 -0.00000000000E+00 -0.00000000000E+00  0.11368683772E-12  0.17120000000E+03  0.17120000000E+03 0.  0.
         13    1    1    2    0    0 -0.10655463101E+02 -0.15114563408E+02  0.74242484936E+02  0.76511088441E+02  0.10566000000E+00 0. -1.
        994    1    1    2    0    0  0.10939834831E+02  0.23935400802E+02  0.43979206469E+01  0.17326674552E+03  0.17120000000E+03 0.  0.
        998    1    1    2    0    0 -0.28437173022E+00 -0.88208373945E+01  0.14213595907E+04  0.14214221660E+04  0.10000000000E+02 0. -1.
</event>
<event>
 5    1  0.1607440E-008  0.3862418E+03  0.7957747E-01  0.3424423E+00
         13   -1    0    0    0    0  0.00000000000E+00  0.00000000000E+00  0.14999999963E+04  0.15000000000E+04  0.10566000000E+00 0.  1.
        994   -1    0    0    0    0 -0.00000000000E+00 -0.00000000000E+00  0.11368683772E-12  0.17120000000E+03  0.17120000000E+03 0.  0.
         13    1    1    2    0    0 -0.72911431050E+01  0.88262322162E+01  0.68270500185E+02  0.69223807338E+02  0.10566000000E+00 0.  1.
        994    1    1    2    0    0 -0.77570512912E+00 -0.42798961286E+01  0.10768489229E+01  0.17125863141E+03  0.17120000000E+03 0.  0.
        998    1    1    2    0    0  0.80668482341E+01 -0.45463360877E+01  0.14306526472E+04  0.14307175613E+04  0.10000000000E+02 0.  1.
</event>
<event>
 5    1  0.1607440E-008  0.3753537E+03  0.7957747E-01  0.3471643E+00
         13   -1    0    0    0    0  0.00000000000E+00  0.00000000000E+00  0.14999999963E+04  0.15000000000E+04  0.10566000000E+00 0. -1.
        994   -1    0    0    0    0 -0.00000000000E+00 -0.00000000000E+00  0.11368683772E-12  0.17120000000E+03  0.17120000000E+03 0.  0.
         13    1    1    2    0    0 -0.43467843892E+01  0.11639129600E+02  0.91127189597E+01  0.15408331618E+02  0.10566000000E+00 0. -1.
        994    1    1    2    0    0 -0.14227665954E+02 -0.59170586169E+01  0.73037667704E+01  0.17204715362E+03  0.17120000000E+03 0.  0.
        998    1    1    2    0    0  0.18574450343E+02 -0.57220709834E+01  0.14835835105E+04  0.14837445148E+04  0.10000000000E+02 0. -1.
</event>
<event>
 5    1  0.1607440E-008  0.3800749E+03  0.7957747E-01  0.3450832E+00
         13   -1    0    0    0    0  0.00000000000E+00  0.00000000000E+00  0.14999999963E+04  0.15000000000E+04  0.10566000000E+00 0. -1.
        994   -1    0    0    0    0 -0.00000000000E+00 -0.00000000000E+00  0.11368683772E-12  0.17120000000E+03  0.17120000000E+03 0.  0.
         13    1    1    2    0    0  0.16123332352E+02  0.19238534002E+02  0.69528272133E+02  0.73920733401E+02  0.10566000000E+00 0. -1.
        994    1    1    2    0    0 -0.16552965916E+02 -0.31459650313E+02  0.83303082609E+01  0.17505011943E+03  0.17120000000E+03 0.  0.
        998    1    1    2    0    0  0.42963356392E+00  0.12221116311E+02  0.14221414159E+04  0.14222291472E+04  0.10000000000E+02 0. -1.
</event>
<event>
 5    1  0.1607440E-008  0.3844656E+03  0.7957747E-01  0.3431942E+00
         13   -1    0    0    0    0  0.00000000000E+00  0.00000000000E+00  0.14999999963E+04  0.15000000000E+04  0.10566000000E+00 0. -1.
        994   -1    0    0    0    0 -0.00000000000E+00 -0.00000000000E+00  0.11368683772E-12  0.17120000000E+03  0.17120000000E+03 0.  0.
         13    1    1    2    0    0  0.65929316633E+02 -0.66999649098E+02  0.20007947519E+03  0.22105980034E+03  0.10566000000E+00 0. -1.
        994    1    1    2    0    0 -0.63230154578E+02  0.66501584726E+02  0.50530255737E+02  0.20070690064E+03  0.17120000000E+03 0.  0.
        998    1    1    2    0    0 -0.26991620543E+01  0.49806437138E+00  0.12493902654E+04  0.12494332990E+04  0.10000000000E+02 0.  0.
</event>
<event>
 5    1  0.1607440E-008  0.3692385E+03  0.7957747E-01  0.3499398E+00
         13   -1    0    0    0    0  0.00000000000E+00  0.00000000000E+00  0.14999999963E+04  0.15000000000E+04  0.10566000000E+00 0.  1.
        994   -1    0    0    0    0 -0.00000000000E+00 -0.00000000000E+00  0.11368683772E-12  0.17120000000E+03  0.17120000000E+03 0.  0.
         13    1    1    2    0    0 -0.60058519676E+01 -0.10171068729E+03  0.55972772625E+03  0.56892554246E+03  0.10566000000E+00 0.  1.
        994    1    1    2    0    0 -0.44544781230E+02  0.53035890829E+02  0.27454942688E+02  0.18670901727E+03  0.17120000000E+03 0.  0.
        998    1    1    2    0    0  0.50550633198E+02  0.48674796464E+02  0.91281732735E+03  0.91556544028E+03  0.10000000000E+02 0.  1.
</event>
<event>
 5    1  0.1607440E-008  0.3731537E+03  0.7957747E-01  0.3481522E+00
         13   -1    0    0    0    0  0.00000000000E+00  0.00000000000E+00  0.14999999963E+04  0.15000000000E+04  0.10566000000E+00 0.  1.
        994   -1    0    0    0    0 -0.00000000000E+00 -0.00000000000E+00  0.11368683772E-12  0.17120000000E+03  0.17120000000E+03 0.  0.
         13    1    1    2    0    0  0.41349329604E+02  0.36670847402E+02  0.27710036054E+03  0.28255820477E+03  0.10566000000E+00 0.  1.
        994    1    1    2    0    0 -0.44651397449E+01  0.26808497974E+02  0.10160558158E+02  0.17364132566E+03  0.17120000000E+03 0.  0.
        998    1    1    2    0    0 -0.36884189859E+02 -0.63479345376E+02  0.12127390776E+04  0.12150004696E+04  0.10000000000E+02 0.  1.
</event>
<event>
 5    1  0.1607440E-008  0.3811242E+03  0.7957747E-01  0.3446278E+00
         13   -1    0    0    0    0  0.00000000000E+00  0.00000000000E+00  0.14999999963E+04  0.15000000000E+04  0.10566000000E+00 0. -1.
        994   -1    0    0    0    0 -0.00000000000E+00 -0.00000000000E+00  0.11368683772E-12  0.17120000000E+03  0.17120000000E+03 0.  0.
         13    1    1    2    0    0 -0.37595263553E+01 -0.10742309711E+02  0.16440883131E+02  0.19996126088E+02  0.10566000000E+00 0. -1.
        994    1    1    2    0    0 -0.91269591221E+01  0.17233989329E+02  0.48343975054E+01  0.17237494937E+03  0.17120000000E+03 0.  0.
        998    1    1    2    0    0  0.12886485477E+02 -0.64916796179E+01  0.14787247156E+04  0.14788289245E+04  0.10000000000E+02 0. -1.
</event>
<event>
 5    1  0.1644163E-008  0.3863043E+03  0.7957747E-01  0.3424159E+00
         13   -1    0    0    0    0  0.00000000000E+00  0.00000000000E+00  0.14999999963E+04  0.15000000000E+04  0.10566000000E+00 0.  1.
        994   -1    0    0    0    0 -0.00000000000E+00 -0.00000000000E+00  0.11368683772E-12  0.17120000000E+03  0.17120000000E+03 0.  0.
         13    1    1    2    0    0 -0.85553733181E+01 -0.53042516235E+01  0.53423528662E+02  0.54363720224E+02  0.10566000000E+00 0.  1.
        994    1    1    2    0    0  0.10901266819E+01  0.61697903075E+01  0.11125342122E+01  0.17131821976E+03  0.17120000000E+03 0.  0.
        998    1    1    2    0    0  0.74652466362E+01 -0.86553868406E+00  0.14454639334E+04  0.14455180600E+04  0.10000000000E+02 0.  1.
</event>
<event>
 5    1  0.1607440E-008  0.3859043E+03  0.7957747E-01  0.3425846E+00
         13   -1    0    0    0    0  0.00000000000E+00  0.00000000000E+00  0.14999999963E+04  0.15000000000E+04  0.10566000000E+00 0. -1.
        994   -1    0    0    0    0 -0.00000000000E+00 -0.00000000000E+00  0.11368683772E-12  0.17120000000E+03  0.17120000000E+03 0.  0.
         13    1    1    2    0    0  0.24912375416E+01  0.11615231400E+02  0.59601265209E+02  0.60773693680E+02  0.10566000000E+00 0. -1.
        994    1    1    2    0    0 -0.10802432760E+02 -0.76537771846E+01  0.17567581948E+01  0.17172011838E+03  0.17120000000E+03 0.  0.
        998    1    1    2    0    0  0.83111952187E+01 -0.39614542157E+01  0.14386419729E+04  0.14387061879E+04  0.10000000000E+02 0. -1.
</event>
<event>
 5    1  0.1607440E-008  0.3770721E+03  0.7957747E-01  0.3464007E+00
         13   -1    0    0    0    0  0.00000000000E+00  0.00000000000E+00  0.14999999963E+04  0.15000000000E+04  0.10566000000E+00 0. -1.
        994   -1    0    0    0    0 -0.00000000000E+00 -0.00000000000E+00  0.11368683772E-12  0.17120000000E+03  0.17120000000E+03 0.  0.
         13    1    1    2    0    0 -0.20429633851E+02  0.10603655355E+02  0.43838577685E+02  0.49514033401E+02  0.10566000000E+00 0. -1.
        994    1    1    2    0    0  0.15783237832E+02 -0.19568639986E+02  0.77549289633E+01  0.17320976067E+03  0.17120000000E+03 0.  0.
        998    1    1    2    0    0  0.46463960183E+01  0.89649846312E+01  0.14484064896E+04  0.14484762059E+04  0.10000000000E+02 0. -1.
</event>
<event>
 5    1  0.1607440E-008  0.3815772E+03  0.7957747E-01  0.3444320E+00
         13   -1    0    0    0    0  0.00000000000E+00  0.00000000000E+00  0.14999999963E+04  0.15000000000E+04  0.10566000000E+00 0. -1.
        994   -1    0    0    0    0 -0.00000000000E+00 -0.00000000000E+00  0.11368683772E-12  0.17120000000E+03  0.17120000000E+03 0.  0.
         13    1    1    2    0    0  0.19211340083E+02 -0.86654843354E+01  0.64041552316E+02  0.67420306983E+02  0.10566000000E+00 0. -1.
        994    1    1    2    0    0 -0.13896064733E+02  0.13017143094E+02  0.45457180359E+01  0.17231555409E+03  0.17120000000E+03 0.  0.
        998    1    1    2    0    0 -0.53152753500E+01 -0.43516587587E+01  0.14314127259E+04  0.14314641389E+04  0.10000000000E+02 0. -1.
</event>
<event>
 5    1  0.1607440E-008  0.3819441E+03  0.7957747E-01  0.3442737E+00
         13   -1    0    0    0    0  0.00000000000E+00  0.00000000000E+00  0.14999999963E+04  0.15000000000E+04  0.10566000000E+00 0.  1.
        994   -1    0    0    0    0 -0.00000000000E+00 -0.00000000000E+00  0.11368683772E-12  0.17120000000E+03  0.17120000000E+03 0.  0.
         13    1    1    2    0    0 -0.21595951999E+02  0.97035043338E+01  0.88954836494E+02  0.92051709592E+02  0.10566000000E+00 0.  1.
        994    1    1    2    0    0  0.10790685241E+02 -0.61402978397E+01  0.36671432765E+01  0.17168875934E+03  0.17120000000E+03 0.  0.
        998    1    1    2    0    0  0.10805266758E+02 -0.35632064941E+01  0.14073780165E+04  0.14074595311E+04  0.10000000000E+02 0.  1.
</event>
<event>
 5    1  0.1607440E-008  0.3855718E+03  0.7957747E-01  0.3427251E+00
         13   -1    0    0    0    0  0.00000000000E+00  0.00000000000E+00  0.14999999963E+04  0.15000000000E+04  0.10566000000E+00 0.  1.
        994   -1    0    0    0    0 -0.00000000000E+00 -0.00000000000E+00  0.11368683772E-12  0.17120000000E+03  0.17120000000E+03 0.  0.
         13    1    1    2    0    0 -0.11147685401E+02 -0.74391181438E+01  0.66029710126E+02  0.67376146758E+02  0.10566000000E+00 0.  1.
        994    1    1    2    0    0  0.12897245826E+02  0.87772478504E+00  0.18952663621E+01  0.17169781998E+03  0.17120000000E+03 0.  0.
        998    1    1    2    0    0 -0.17495604255E+01  0.65613933588E+01  0.14320750198E+04  0.14321260333E+04  0.10000000000E+02 0.  1.
</event>
<event>
 5    1  0.1607440E-008  0.3821869E+03  0.7957747E-01  0.3441691E+00
         13   -1    0    0    0    0  0.00000000000E+00  0.00000000000E+00  0.14999999963E+04  0.15000000000E+04  0.10566000000E+00 0.  1.
        994   -1    0    0    0    0 -0.00000000000E+00 -0.00000000000E+00  0.11368683772E-12  0.17120000000E+03  0.17120000000E+03 0.  0.
         13    1    1    2    0    0 -0.12727139793E+01 -0.18377468449E+02  0.56379475273E+02  0.59312794097E+02  0.10566000000E+00 0.  1.
        994    1    1    2    0    0  0.14642110814E+02  0.53468818676E+01  0.38401328392E+01  0.17195106041E+03  0.17120000000E+03 0.  0.
        998    1    1    2    0    0 -0.13369396835E+02  0.13030586582E+02  0.14397803882E+04  0.14399361455E+04  0.10000000000E+02 0.  1.
</event>
<event>
 5    1  0.1607440E-008  0.3819471E+03  0.7957747E-01  0.3442724E+00
         13   -1    0    0    0    0  0.00000000000E+00  0.00000000000E+00  0.14999999963E+04  0.15000000000E+04  0.10566000000E+00 0. -1.
        994   -1    0    0    0    0 -0.00000000000E+00 -0.00000000000E+00  0.11368683772E-12  0.17120000000E+03  0.17120000000E+03 0.  0.
         13    1    1    2    0    0 -0.24645186355E+02  0.50069423881E+01  0.10058347277E+03  0.10367979958E+03  0.10566000000E+00 0. -1.
        994    1    1    2    0    0  0.11181867657E+02 -0.11550071886E+02  0.40123745080E+01  0.17199993452E+03  0.17120000000E+03 0.  0.
        998    1    1    2    0    0  0.13463318698E+02  0.65431294977E+01  0.13954041490E+04  0.13955202659E+04  0.10000000000E+02 0. -1.
</event>
<event>
 5    1  0.1607440E-008  0.3837104E+03  0.7957747E-01  0.3435160E+00
         13   -1    0    0    0    0  0.00000000000E+00  0.00000000000E+00  0.14999999963E+04  0.15000000000E+04  0.10566000000E+00 0.  1.
        994   -1    0    0    0    0 -0.00000000000E+00 -0.00000000000E+00  0.11368683772E-12  0.17120000000E+03  0.17120000000E+03 0.  0.
         13    1    1    2    0    0 -0.42237847435E+01 -0.91225000816E+01  0.21657961704E+02  0.23877580164E+02  0.10566000000E+00 0.  1.
        994    1    1    2    0    0 -0.76520665486E+00  0.53749104317E+01  0.23691252330E+01  0.17130244586E+03  0.17120000000E+03 0.  0.
        998    1    1    2    0    0  0.49889913984E+01  0.37475896499E+01  0.14759729093E+04  0.14760199740E+04  0.10000000000E+02 0.  1.
</event>
<event>
 5    1  0.1607440E-008  0.3842654E+03  0.7957747E-01  0.3432794E+00
         13   -1    0    0    0    0  0.00000000000E+00  0.00000000000E+00  0.14999999963E+04  0.15000000000E+04  0.10566000000E+00 0.  1.
        994   -1    0    0    0    0 -0.00000000000E+00 -0.00000000000E+00  0.11368683772E-12  0.17120000000E+03  0.17120000000E+03 0.  0.
         13    1    1    2    0    0  0.59749088053E+01  0.18440154004E+02  0.91403353712E+02  0.93436197743E+02  0.10566000000E+00 0.  1.
        994    1    1    2    0    0  0.67424974007E+01 -0.19402694619E+02  0.33874236181E+01  0.17246112741E+03  0.17120000000E+03 0.  0.
        998    1    1    2    0    0 -0.12717406206E+02  0.96254061438E+00  0.14052092189E+04  0.14053026748E+04  0.10000000000E+02 0.  1.
</event>
<event>
 5    1  0.1607440E-008  0.3726501E+03  0.7957747E-01  0.3483800E+00
         13   -1    0    0    0    0  0.00000000000E+00  0.00000000000E+00  0.14999999963E+04  0.15000000000E+04  0.10566000000E+00 0.  1.
        994   -1    0    0    0    0 -0.00000000000E+00 -0.00000000000E+00  0.11368683772E-12  0.17120000000E+03  0.17120000000E+03 0.  0.
         13    1    1    2    0    0  0.90294639396E+02  0.79724828711E+02  0.45283053049E+03  0.46857728362E+03  0.10566000000E+00 0.  1.
        994    1    1    2    0    0 -0.80391080145E+02 -0.66312356398E+02  0.51727465773E+02  0.20699088167E+03  0.17120000000E+03 0.  0.
        998    1    1    2    0    0 -0.99035592507E+01 -0.13412472313E+02  0.99544200001E+03  0.99563183471E+03  0.10000000000E+02 0.  1.
</event>
<event>
 5    1  0.1607440E-008  0.3828655E+03  0.7957747E-01  0.3438776E+00
         13   -1    0    0    0    0  0.00000000000E+00  0.00000000000E+00  0.14999999963E+04  0.15000000000E+04  0.10566000000E+00 0.  1.
        994   -1    0    0    0    0 -0.00000000000E+00 -0.00000000000E+00  0.11368683772E-12  0.17120000000E+03  0.17120000000E+03 0.  0.
         13    1    1    2    0    0  0.28760183159E+02  0.76136283314E+01  0.13169808950E+03  0.13501671532E+03  0.10566000000E+00 0.  1.
        994    1    1    2    0    0 -0.47476983957E+02 -0.12279662870E+02  0.10698631406E+02  0.17840615135E+03  0.17120000000E+03 0.  0.
        998    1    1    2    0    0  0.18716800798E+02  0.46660345384E+01  0.13576032754E+04  0.13577771333E+04  0.10000000000E+02 0.  1.
</event>
<event>
 5    1  0.1607440E-008  0.3855547E+03  0.7957747E-01  0.3427323E+00
         13   -1    0    0    0    0  0.00000000000E+00  0.00000000000E+00  0.14999999963E+04  0.15000000000E+04  0.10566000000E+00 0.  1.
        994   -1    0    0    0    0 -0.00000000000E+00 -0.00000000000E+00  0.11368683772E-12  0.17120000000E+03  0.17120000000E+03 0.  0.
         13    1    1    2    0    0  0.94018244985E+01  0.12614437013E+02  0.87579146008E+02  0.88981100828E+02  0.10566000000E+00 0.  1.
        994    1    1    2    0    0 -0.10893871818E+02 -0.12035787418E+02  0.22206035485E+01  0.17198228892E+03  0.17120000000E+03 0.  0.
        998    1    1    2    0    0  0.14920473195E+01 -0.57864959469E+00  0.14102002467E+04  0.14102366103E+04  0.10000000000E+02 0.  1.
</event>
<event>
 5    1  0.1607440E-008  0.3828528E+03  0.7957747E-01  0.3438830E+00
         13   -1    0    0    0    0  0.00000000000E+00  0.00000000000E+00  0.14999999963E+04  0.15000000000E+04  0.10566000000E+00 0. -1.
        994   -1    0    0    0    0 -0.00000000000E+00 -0.00000000000E+00  0.11368683772E-12  0.17120000000E+03  0.17120000000E+03 0.  0.
         13    1    1    2    0    0  0.22126441573E+02  0.23842010178E+01  0.86504552655E+02  0.89321400712E+02  0.10566000000E+00 0. -1.
        994    1    1    2    0    0 -0.23164510177E+02  0.35552894527E+01  0.45209922214E+01  0.17285576064E+03  0.17120000000E+03 0.  0.
        998    1    1    2    0    0  0.10380686042E+01 -0.59394904705E+01  0.14089744514E+04  0.14090228387E+04  0.10000000000E+02 0. -1.
</event>
<event>
 5    1  0.1607440E-008  0.3690061E+03  0.7957747E-01  0.3500471E+00
         13   -1    0    0    0    0  0.00000000000E+00  0.00000000000E+00  0.14999999963E+04  0.15000000000E+04  0.10566000000E+00 0.  1.
        994   -1    0    0    0    0 -0.00000000000E+00 -0.00000000000E+00  0.11368683772E-12  0.17120000000E+03  0.17120000000E+03 0.  0.
         13    1    1    2    0    0  0.16365307436E+02 -0.52215223005E+02  0.13356105834E+03  0.14433578998E+03  0.10566000000E+00 0.  1.
        994    1    1    2    0    0 -0.21518211072E+02  0.56723714122E+02  0.22670352293E+02  0.18304097362E+03  0.17120000000E+03 0.  0.
        998    1    1    2    0    0  0.51529036354E+01 -0.45084911176E+01  0.13437685856E+04  0.13438232364E+04  0.10000000000E+02 0.  1.
</event>
<event>
 5    1  0.1607440E-008  0.3758797E+03  0.7957747E-01  0.3469298E+00
         13   -1    0    0    0    0  0.00000000000E+00  0.00000000000E+00  0.14999999963E+04  0.15000000000E+04  0.10566000000E+00 0. -1.
        994   -1    0    0    0    0 -0.00000000000E+00 -0.00000000000E+00  0.11368683772E-12  0.17120000000E+03  0.17120000000E+03 0.  0.
         13    1    1    2    0    0 -0.69882793348E+01 -0.18896268534E+02  0.32823876375E+02  0.38513933022E+02  0.10566000000E+00 0. -1.
        994    1    1    2    0    0 -0.38355795588E+00 -0.19406836185E+02  0.75056482823E+01  0.17246027706E+03  0.17120000000E+03 0.  0.
        998    1    1    2    0    0  0.73718372907E+01  0.38303104719E+02  0.14596704716E+04  0.14602257899E+04  0.10000000000E+02 0. -1.
</event>
<event>
 5    1  0.1607440E-008  0.3847457E+03  0.7957747E-01  0.3430751E+00
         13   -1    0    0    0    0  0.00000000000E+00  0.00000000000E+00  0.14999999963E+04  0.15000000000E+04  0.10566000000E+00 0.  1.
        994   -1    0    0    0    0 -0.00000000000E+00 -0.00000000000E+00  0.11368683772E-12  0.17120000000E+03  0.17120000000E+03 0.  0.
         13    1    1    2    0    0  0.11875112310E+02 -0.93689463848E+01  0.66711035923E+02  0.68404451074E+02  0.10566000000E+00 0.  1.
        994    1    1    2    0    0 -0.36752035836E+01  0.47002808118E+01  0.18736264301E+01  0.17131418574E+03  0.17120000000E+03 0.  0.
        998    1    1    2    0    0 -0.81999087266E+01  0.46686655730E+01  0.14314153339E+04  0.14314813632E+04  0.10000000000E+02 0.  1.
</event>
<event>
 5    1  0.1607440E-008  0.3800961E+03  0.7957747E-01  0.3450740E+00
         13   -1    0    0    0    0  0.00000000000E+00  0.00000000000E+00  0.14999999963E+04  0.15000000000E+04  0.10566000000E+00 0.  1.
        994   -1    0    0    0    0 -0.00000000000E+00 -0.00000000000E+00  0.11368683772E-12  0.17120000000E+03  0.17120000000E+03 0.  0.
         13    1    1    2    0    0 -0.25273607969E+02 -0.12941439296E+02  0.10792742270E+03  0.11160007100E+03  0.10566000000E+00 0.  1.
        994    1    1    2    0    0 -0.57007538667E+01  0.73522545051E+01  0.43739432733E+01  0.17150838353E+03  0.17120000000E+03 0.  0.
        998    1    1    2    0    0  0.30974361836E+02  0.55891847911E+01  0.13876986303E+04  0.13880915455E+04  0.10000000000E+02 0.  1.
</event>
<event>
 5    1  0.1607440E-008  0.3829796E+03  0.7957747E-01  0.3438286E+00
         13   -1    0    0    0    0  0.00000000000E+00  0.00000000000E+00  0.14999999963E+04  0.15000000000E+04  0.10566000000E+00 0. -1.
        994   -1    0    0    0    0 -0.00000000000E+00 -0.00000000000E+00  0.11368683772E-12  0.17120000000E+03  0.17120000000E+03 0.  0.
         13    1    1    2    0    0  0.38069111964E+01 -0.19664631936E+02  0.93370679614E+02  0.95494949068E+02  0.10566000000E+00 0. -1.
        994    1    1    2    0    0 -0.57175199611E+00 -0.21880609282E+02  0.42240881988E+01  0.17264521680E+03  0.17120000000E+03 0.  0.
        998    1    1    2    0    0 -0.32351592003E+01  0.41545241218E+02  0.14024052285E+04  0.14030598341E+04  0.10000000000E+02 0. -1.
</event>
<event>
 5    1  0.1607440E-008  0.3850737E+03  0.7957747E-01  0.3429360E+00
         13   -1    0    0    0    0  0.00000000000E+00  0.00000000000E+00  0.14999999963E+04  0.15000000000E+04  0.10566000000E+00 0. -1.
        994   -1    0    0    0    0 -0.00000000000E+00 -0.00000000000E+00  0.11368683772E-12  0.17120000000E+03  0.17120000000E+03 0.  0.
         13    1    1    2    0    0 -0.10845681361E+01 -0.13136197702E+02  0.54759152413E+02  0.56323280401E+02  0.10566000000E+00 0. -1.
        994    1    1    2    0    0 -0.22341240391E+01  0.82633249135E+01  0.18344875625E+01  0.17142368329E+03  0.17120000000E+03 0.  0.
        998    1    1    2    0    0  0.33186921752E+01  0.48728727885E+01  0.14434063563E+04  0.14434530363E+04  0.10000000000E+02 0. -1.
</event>
<event>
 5    1  0.1607440E-008  0.3809350E+03  0.7957747E-01  0.3447098E+00
         13   -1    0    0    0    0  0.00000000000E+00  0.00000000000E+00  0.14999999963E+04  0.15000000000E+04  0.10566000000E+00 0.  1.
        994   -1    0    0    0    0 -0.00000000000E+00 -0.00000000000E+00  0.11368683772E-12  0.17120000000E+03  0.17120000000E+03 0.  0.
         13    1    1    2    0    0  0.91370696871E+02  0.98325782660E+01  0.46467155701E+03  0.47367177549E+03  0.10566000000E+00 0.  1.
        994    1    1    2    0    0 -0.13997485175E+03  0.21826157406E+02  0.73723906606E+02  0.23412388745E+03  0.17120000000E+03 0.  0.
        998    1    1    2    0    0  0.48604154883E+02 -0.31658735672E+02  0.96160453266E+03  0.96340433705E+03  0.10000000000E+02 0.  1.
</event>
<event>
 5    1  0.1607440E-008  0.3691052E+03  0.7957747E-01  0.3500013E+00
         13   -1    0    0    0    0  0.00000000000E+00  0.00000000000E+00  0.14999999963E+04  0.15000000000E+04  0.10566000000E+00 0.  1.
        994   -1    0    0    0    0 -0.00000000000E+00 -0.00000000000E+00  0.11368683772E-12  0.17120000000E+03  0.17120000000E+03 0.  0.
         13    1    1    2    0    0 -0.17811152817E+02 -0.25088664924E+02  0.39596197513E+02  0.50145271899E+02  0.10566000000E+00 0.  1.
        994    1    1    2    0    0  0.21001648493E+02  0.28258011074E+02  0.14798833494E+02  0.17540818083E+03  0.17120000000E+03 0.  0.
        998    1    1    2    0    0 -0.31904956754E+01 -0.31693461506E+01  0.14456049653E+04  0.14456465473E+04  0.10000000000E+02 0.  1.
</event>
<event>
 5    1  0.1607440E-008  0.3721920E+03  0.7957747E-01  0.3485877E+00
         13   -1    0    0    0    0  0.00000000000E+00  0.00000000000E+00  0.14999999963E+04  0.15000000000E+04  0.10566000000E+00 0. -1.
        994   -1    0    0    0    0 -0.00000000000E+00 -0.00000000000E+00  0.11368683772E-12  0.17120000000E+03  0.17120000000E+03 0.  0.
         13    1    1    2    0    0  0.54844212348E+02  0.78342074556E+02  0.28543915856E+03  0.30103304250E+03  0.10566000000E+00 0. -1.
        994    1    1    2    0    0 -0.95058282241E+02 -0.12815533424E+03  0.10128292312E+03  0.25500497492E+03  0.17120000000E+03 0.  0.
        998    1    1    2    0    0  0.40214069893E+02  0.49813259685E+02  0.11132779146E+04  0.11151619826E+04  0.10000000000E+02 0. -1.
</event>
<event>
 5    1  0.1607440E-008  0.3811818E+03  0.7957747E-01  0.3446029E+00
         13   -1    0    0    0    0  0.00000000000E+00  0.00000000000E+00  0.14999999963E+04  0.15000000000E+04  0.10566000000E+00 0. -1.
        994   -1    0    0    0    0 -0.00000000000E+00 -0.00000000000E+00  0.11368683772E-12  0.17120000000E+03  0.17120000000E+03 0.  0.
         13    1    1    2    0    0  0.31982704984E+02 -0.23390136504E+02  0.18593793235E+03  0.19011290791E+03  0.10566000000E+00 0. -1.
        994    1    1    2    0    0 -0.44027167099E+02  0.18204763484E+02  0.11133238612E+02  0.17805390717E+03  0.17120000000E+03 0.  0.
        998    1    1    2    0    0  0.12044462115E+02  0.51853730198E+01  0.13029288253E+04  0.13030331849E+04  0.10000000000E+02 0. -1.
</event>
<event>
 5    1  0.1607440E-008  0.3825372E+03  0.7957747E-01  0.3440185E+00
         13   -1    0    0    0    0  0.00000000000E+00  0.00000000000E+00  0.14999999963E+04  0.15000000000E+04  0.10566000000E+00 0. -1.
        994   -1    0    0    0    0 -0.00000000000E+00 -0.00000000000E+00  0.11368683772E-12  0.17120000000E+03  0.17120000000E+03 0.  0.
         13    1    1    2    0    0 -0.82575355885E+01 -0.13347758669E+02  0.43640094704E+02  0.46376918670E+02  0.10566000000E+00 0. -1.
        994    1    1    2    0    0 -0.38055780764E+01  0.47638038902E+01  0.29811079263E+01  0.17133447772E+03  0.17120000000E+03 0.  0.
        998    1    1    2    0    0  0.12063113665E+02  0.85839547787E+01  0.14533787936E+04  0.14534886036E+04  0.10000000000E+02 0. -1.
</event>
<event>
 5    1  0.1607440E-008  0.3858182E+03  0.7957747E-01  0.3426209E+00
         13   -1    0    0    0    0  0.00000000000E+00  0.00000000000E+00  0.14999999963E+04  0.15000000000E+04  0.10566000000E+00 0. -1.
        994   -1    0    0    0    0 -0.00000000000E+00 -0.00000000000E+00  0.11368683772E-12  0.17120000000E+03  0.17120000000E+03 0.  0.
         13    1    1    2    0    0  0.18796693395E+01 -0.12945395140E+02  0.72153149252E+02  0.73329424675E+02  0.10566000000E+00 0. -1.
        994    1    1    2    0    0 -0.89056973754E+01  0.45118098080E+01  0.15514208935E+01  0.17149785649E+03  0.17120000000E+03 0.  0.
        998    1    1    2    0    0  0.70260280359E+01  0.84335853317E+01  0.14262954261E+04  0.14263727188E+04  0.10000000000E+02 0. -1.
</event>
<event>
 5    1  0.1607440E-008  0.3812863E+03  0.7957747E-01  0.3445577E+00
         13   -1    0    0    0    0  0.00000000000E+00  0.00000000000E+00  0.14999999963E+04  0.15000000000E+04  0.10566000000E+00 0.  1.
        994   -1    0    0    0    0 -0.00000000000E+00 -0.00000000000E+00  0.11368683772E-12  0.17120000000E+03  0.17120000000E+03 0.  0.
         13    1    1    2    0    0  0.12355525269E+02 -0.13664646584E+02  0.45861426288E+02  0.49423305799E+02  0.10566000000E+00 0.  1.
        994    1    1    2    0    0 -0.15491196789E+02  0.14133807199E+02  0.49503831646E+01  0.17255053746E+03  0.17120000000E+03 0.  0.
        998    1    1    2    0    0  0.31356715201E+01 -0.46916061508E+00  0.14491881868E+04  0.14492261567E+04  0.10000000000E+02 0.  1.
</event>
<event>
 5    1  0.1607440E-008  0.3737555E+03  0.7957747E-01  0.3478807E+00
         13   -1    0    0    0    0  0.00000000000E+00  0.00000000000E+00  0.14999999963E+04  0.15000000000E+04  0.10566000000E+00 0.  1.
        994   -1    0    0    0    0 -0.00000000000E+00 -0.00000000000E+00  0.11368683772E-12  0.17120000000E+03  0.17120000000E+03 0.  0.
         13    1    1    2    0    0  0.16920281217E+02  0.16445880227E+02  0.34618969149E+02  0.41895669011E+02  0.10566000000E+00 0.  1.
        994    1    1    2    0    0 -0.19124489848E+02 -0.10098220383E+02  0.89173811571E+01  0.17279085582E+03  0.17120000000E+03 0.  0.
        998    1    1    2    0    0  0.22042086311E+01 -0.63476598444E+01  0.14564636460E+04  0.14565134752E+04  0.10000000000E+02 0.  1.
</event>
<event>
 5    1  0.1607440E-008  0.3818468E+03  0.7957747E-01  0.3443156E+00
         13   -1    0    0    0    0  0.00000000000E+00  0.00000000000E+00  0.14999999963E+04  0.15000000000E+04  0.10566000000E+00 0.  1.
        994   -1    0    0    0    0 -0.00000000000E+00 -0.00000000000E+00  0.11368683772E-12  0.17120000000E+03  0.17120000000E+03 0.  0.
         13    1    1    2    0    0  0.14769912657E+02 -0.29741839444E+02  0.17325872722E+03  0.17641237218E+03  0.10566000000E+00 0.  1.
        994    1    1    2    0    0 -0.70882096504E+01  0.16330270952E+02  0.42575009785E+01  0.17217574388E+03  0.17120000000E+03 0.  0.
        998    1    1    2    0    0 -0.76817030062E+01  0.13411568492E+02  0.13224837681E+04  0.13226118839E+04  0.10000000000E+02 0.  1.
</event>
<event>
 5    1  0.1607440E-008  0.3855049E+03  0.7957747E-01  0.3427534E+00
         13   -1    0    0    0    0  0.00000000000E+00  0.00000000000E+00  0.14999999963E+04  0.15000000000E+04  0.10566000000E+00 0.  1.
        994   -1    0    0    0    0 -0.00000000000E+00 -0.00000000000E+00  0.11368683772E-12  0.17120000000E+03  0.17120000000E+03 0.  0.
         13    1    1    2    0    0  0.15041370062E+02 -0.32482234405E+01  0.86549233098E+02  0.87906624795E+02  0.10566000000E+00 0.  1.
        994    1    1    2    0    0 -0.82555594628E+01  0.72782147270E+01  0.17774685588E+01  0.17156260101E+03  0.17120000000E+03 0.  0.
        998    1    1    2    0    0 -0.67858105996E+01 -0.40299912865E+01  0.14116732946E+04  0.14117307742E+04  0.10000000000E+02 0.  1.
</event>
<event>
 5    1  0.1607440E-008  0.3791076E+03  0.7957747E-01  0.3455053E+00
         13   -1    0    0    0    0  0.00000000000E+00  0.00000000000E+00  0.14999999963E+04  0.15000000000E+04  0.10566000000E+00 0. -1.
        994   -1    0    0    0    0 -0.00000000000E+00 -0.00000000000E+00  0.11368683772E-12  0.17120000000E+03  0.17120000000E+03 0.  0.
         13    1    1    2    0    0 -0.47897148749E+02 -0.15163017809E+01  0.21219041344E+03  0.21753440820E+03  0.10566000000E+00 0. -1.
        994    1    1    2    0    0  0.49748905535E+02  0.13244920358E+02  0.13522329234E+02  0.17928378316E+03  0.17120000000E+03 0.  0.
        998    1    1    2    0    0 -0.18517567859E+01 -0.11728618577E+02  0.12742872536E+04  0.12743818086E+04  0.10000000000E+02 0. -1.
</event>
<event>
 5    1  0.1607440E-008  0.3785307E+03  0.7957747E-01  0.3457581E+00
         13   -1    0    0    0    0  0.00000000000E+00  0.00000000000E+00  0.14999999963E+04  0.15000000000E+04  0.10566000000E+00 0. -1.
        994   -1    0    0    0    0 -0.00000000000E+00 -0.00000000000E+00  0.11368683772E-12  0.17120000000E+03  0.17120000000E+03 0.  0.
         13    1    1    2    0    0  0.94858934595E+01 -0.10136295001E+02  0.17602231462E+02  0.22418215084E+02  0.10566000000E+00 0. -1.
        994    1    1    2    0    0 -0.66355334188E+01  0.93894739106E+01  0.53208919836E+01  0.17166812289E+03  0.17120000000E+03 0.  0.
        998    1    1    2    0    0 -0.28503600407E+01  0.74682109070E+00  0.14770768728E+04  0.14771136620E+04  0.10000000000E+02 0. -1.
</event>
<event>
 5    1  0.1607440E-008  0.3851861E+03  0.7957747E-01  0.3428883E+00
         13   -1    0    0    0    0  0.00000000000E+00  0.00000000000E+00  0.14999999963E+04  0.15000000000E+04  0.10566000000E+00 0. -1.
        994   -1    0    0    0    0 -0.00000000000E+00 -0.00000000000E+00  0.11368683772E-12  0.17120000000E+03  0.17120000000E+03 0.  0.
         13    1    1    2    0    0 -0.70030139674E+01  0.15005344155E+02  0.87282283839E+02  0.88839241295E+02  0.10566000000E+00 0. -1.
        994    1    1    2    0    0  0.66057057025E+01 -0.12157611703E+02  0.21672136333E+01  0.17177188270E+03  0.17120000000E+03 0.  0.
        998    1    1    2    0    0  0.39730826494E+00 -0.28477324522E+01  0.14105504988E+04  0.14105888760E+04  0.10000000000E+02 0. -1.
</event>
<event>
 5    1  0.1607440E-008  0.3810796E+03  0.7957747E-01  0.3446471E+00
         13   -1    0    0    0    0  0.00000000000E+00  0.00000000000E+00  0.14999999963E+04  0.15000000000E+04  0.10566000000E+00 0. -1.
        994   -1    0    0    0    0 -0.00000000000E+00 -0.00000000000E+00  0.11368683772E-12  0.17120000000E+03  0.17120000000E+03 0.  0.
         13    1    1    2    0    0 -0.33368342013E+01  0.52534263703E+02  0.28423186499E+03  0.28906529983E+03  0.10566000000E+00 0. -1.
        994    1    1    2    0    0  0.26362958500E+02 -0.62518683323E+02  0.19078943180E+02  0.18514058825E+03  0.17120000000E+03 0.  0.
        998    1    1    2    0    0 -0.23026124298E+02  0.99844196196E+01  0.11966891881E+04  0.11969941119E+04  0.10000000000E+02 0. -1.
</event>
<event>
 5    1  0.1607440E-008  0.3695222E+03  0.7957747E-01  0.3498090E+00
         13   -1    0    0    0    0  0.00000000000E+00  0.00000000000E+00  0.14999999963E+04  0.15000000000E+04  0.10566000000E+00 0. -1.
        994   -1    0    0    0    0 -0.00000000000E+00 -0.00000000000E+00  0.11368683772E-12  0.17120000000E+03  0.17120000000E+03 0.  0.
         13    1    1    2    0    0  0.63292037392E+02 -0.51265626177E+02  0.34772885322E+03  0.35714060669E+03  0.10566000000E+00 0. -1.
        994    1    1    2    0    0 -0.37962975670E+02  0.51175502046E+00  0.15734066059E+02  0.17606376757E+03  0.17120000000E+03 0.  0.
        998    1    1    2    0    0 -0.25329061722E+02  0.50753871157E+02  0.11365370770E+04  0.11379956257E+04  0.10000000000E+02 0. -1.
</event>
<event>
 5    1  0.1607440E-008  0.3810028E+03  0.7957747E-01  0.3446804E+00
         13   -1    0    0    0    0  0.00000000000E+00  0.00000000000E+00  0.14999999963E+04  0.15000000000E+04  0.10566000000E+00 0.  1.
        994   -1    0    0    0    0 -0.00000000000E+00 -0.00000000000E+00  0.11368683772E-12  0.17120000000E+03  0.17120000000E+03 0.  0.
         13    1    1    2    0    0  0.20458828756E+02 -0.29588952091E+02  0.18463431233E+03  0.18810611424E+03  0.10566000000E+00 0.  1.
        994    1    1    2    0    0 -0.59231109614E+01  0.14695523277E+02  0.44646949599E+01  0.17198957861E+03  0.17120000000E+03 0.  0.
        998    1    1    2    0    0 -0.14535717795E+02  0.14893428814E+02  0.13109009890E+04  0.13111043072E+04  0.10000000000E+02 0.  1.
</event>
<event>
 5    1  0.1607440E-008  0.3855158E+03  0.7957747E-01  0.3427487E+00
         13   -1    0    0    0    0  0.00000000000E+00  0.00000000000E+00  0.14999999963E+04  0.15000000000E+04  0.10566000000E+00 0.  1.
        994   -1    0    0    0    0 -0.00000000000E+00 -0.00000000000E+00  0.11368683772E-12  0.17120000000E+03  0.17120000000E+03 0.  0.
         13    1    1    2    0    0  0.11779086009E+02  0.78877433218E+01  0.73380383334E+02  0.74737240946E+02  0.10566000000E+00 0.  1.
        994    1    1    2    0    0 -0.83775086702E+01 -0.46604869570E+01  0.16760458287E+01  0.17147638881E+03  0.17120000000E+03 0.  0.
        998    1    1    2    0    0 -0.34015773393E+01 -0.32272563648E+01  0.14249435671E+04  0.14249863702E+04  0.10000000000E+02 0.  1.
</event>
<event>
 5    1  0.1607440E-008  0.3747380E+03  0.7957747E-01  0.3474395E+00
         13   -1    0    0    0    0  0.00000000000E+00  0.00000000000E+00  0.14999999963E+04  0.15000000000E+04  0.10566000000E+00 0.  1.
        994   -1    0    0    0    0 -0.00000000000E+00 -0.00000000000E+00  0.11368683772E-12  0.17120000000E+03  0.17120000000E+03 0.  0.
         13    1    1    2    0    0  0.14750889924E+02 -0.51503764456E+02  0.18314539076E+03  0.19082052255E+03  0.10566000000E+00 0.  1.
        994    1    1    2    0    0 -0.11685570219E+02  0.53187569135E+02  0.16970225977E+02  0.18045192887E+03  0.17120000000E+03 0.  0.
        998    1    1    2    0    0 -0.30653197048E+01 -0.16838046798E+01  0.12998843795E+04  0.12999275486E+04  0.10000000000E+02 0.  1.
</event>
<event>
 5    1  0.1607440E-008  0.3741146E+03  0.7957747E-01  0.3477192E+00
         13   -1    0    0    0    0  0.00000000000E+00  0.00000000000E+00  0.14999999963E+04  0.15000000000E+04  0.10566000000E+00 0.  1.
        994   -1    0    0    0    0 -0.00000000000E+00 -0.00000000000E+00  0.11368683772E-12  0.17120000000E+03  0.17120000000E+03 0.  0.
         13    1    1    2    0    0 -0.13240867045E+02  0.33707635495E+01  0.98572988508E+01  0.16848148613E+02  0.10566000000E+00 0.  1.
        994    1    1    2    0    0  0.11233055701E+02 -0.62484522402E-01  0.75644345795E+01  0.17173481335E+03  0.17120000000E+03 0.  0.
        998    1    1    2    0    0  0.20078113448E+01 -0.33082790271E+01  0.14825782628E+04  0.14826170380E+04  0.10000000000E+02 0.  1.
</event>
<event>
 5    1  0.1607440E-008  0.3609437E+03  0.7957747E-01  0.3538576E+00
         13   -1    0    0    0    0  0.00000000000E+00  0.00000000000E+00  0.14999999963E+04  0.15000000000E+04  0.10566000000E+00 0.  1.
        994   -1    0    0    0    0 -0.00000000000E+00 -0.00000000000E+00  0.11368683772E-12  0.17120000000E+03  0.17120000000E+03 0.  0.
         13    1    1    2    0    0  0.56174042911E+02 -0.24538892447E+03  0.12230800808E+04  0.12487177994E+04  0.10566000000E+00 0.  1.
        994    1    1    2    0    0 -0.49528759863E+02  0.19447796995E+03  0.20782347130E+03  0.33581961537E+03  0.17120000000E+03 0.  0.
        998    1    1    2    0    0 -0.66452830484E+01  0.50910954523E+02  0.69096444167E+02  0.86662585201E+02  0.10000000000E+02 0.  1.
</event>
<event>
 5    1  0.1607440E-008  0.3807723E+03  0.7957747E-01  0.3447802E+00
         13   -1    0    0    0    0  0.00000000000E+00  0.00000000000E+00  0.14999999963E+04  0.15000000000E+04  0.10566000000E+00 0.  1.
        994   -1    0    0    0    0 -0.00000000000E+00 -0.00000000000E+00  0.11368683772E-12  0.17120000000E+03  0.17120000000E+03 0.  0.
         13    1    1    2    0    0  0.10558588573E+02 -0.40305139212E+01  0.16403166742E+02  0.19919936705E+02  0.10566000000E+00 0.  1.
        994    1    1    2    0    0  0.59181419676E+01 -0.25407584542E+02  0.60163796292E+01  0.17328071612E+03  0.17120000000E+03 0.  0.
        998    1    1    2    0    0 -0.16476730540E+02  0.29438098463E+02  0.14775804499E+04  0.14779993472E+04  0.10000000000E+02 0.  1.
</event>
<event>
 5    1  0.1607440E-008  0.3842461E+03  0.7957747E-01  0.3432876E+00
         13   -1    0    0    0    0  0.00000000000E+00  0.00000000000E+00  0.14999999963E+04  0.15000000000E+04  0.10566000000E+00 0. -1.
        994   -1    0    0    0    0 -0.00000000000E+00 -0.00000000000E+00  0.11368683772E-12  0.17120000000E+03  0.17120000000E+03 0.  0.
         13    1    1    2    0    0  0.10591757553E+02  0.17125805191E+02  0.91916523449E+02  0.94096423834E+02  0.10566000000E+00 0. -1.
        994    1    1    2    0    0 -0.18387491651E+02 -0.19762867794E+02  0.44108216096E+01  0.17337118025E+03  0.17120000000E+03 0.  0.
        998    1    1    2    0    0  0.77957340980E+01  0.26370626029E+01  0.14036726512E+04  0.14037323959E+04  0.10000000000E+02 0. -1.
</event>
<event>
 5    1  0.1607440E-008  0.3828093E+03  0.7957747E-01  0.3439017E+00
         13   -1    0    0    0    0  0.00000000000E+00  0.00000000000E+00  0.14999999963E+04  0.15000000000E+04  0.10566000000E+00 0. -1.
        994   -1    0    0    0    0 -0.00000000000E+00 -0.00000000000E+00  0.11368683772E-12  0.17120000000E+03  0.17120000000E+03 0.  0.
         13    1    1    2    0    0  0.17871292995E+02 -0.10790670434E+02  0.79237409257E+02  0.81941441722E+02  0.10566000000E+00 0. -1.
        994    1    1    2    0    0 -0.11760635947E+02  0.61784874851E+01  0.33064737188E+01  0.17174649642E+03  0.17120000000E+03 0.  0.
        998    1    1    2    0    0 -0.61106570474E+01  0.46121829485E+01  0.14174561133E+04  0.14175120619E+04  0.10000000000E+02 0. -1.
</event>
<event>
 5    1  0.1607440E-008  0.3852693E+03  0.7957747E-01  0.3428531E+00
         13   -1    0    0    0    0  0.00000000000E+00  0.00000000000E+00  0.14999999963E+04  0.15000000000E+04  0.10566000000E+00 0.  1.
        994   -1    0    0    0    0 -0.00000000000E+00 -0.00000000000E+00  0.11368683772E-12  0.17120000000E+03  0.17120000000E+03 0.  0.
         13    1    1    2    0    0 -0.13551993563E+02 -0.12898138198E+02  0.10612914668E+03  0.10776560415E+03  0.10566000000E+00 0.  1.
        994    1    1    2    0    0  0.25712434841E+02  0.79816437884E+01  0.38817766284E+01  0.17334746647E+03  0.17120000000E+03 0.  0.
        998    1    1    2    0    0 -0.12160441278E+02  0.49164944098E+01  0.13899890730E+04  0.13900869294E+04  0.10000000000E+02 0.  1.
</event>
<event>
 5    1  0.1607440E-008  0.3847721E+03  0.7957747E-01  0.3430640E+00
         13   -1    0    0    0    0  0.00000000000E+00  0.00000000000E+00  0.14999999963E+04  0.15000000000E+04  0.10566000000E+00 0. -1.
        994   -1    0    0    0    0 -0.00000000000E+00 -0.00000000000E+00  0.11368683772E-12  0.17120000000E+03  0.17120000000E+03 0.  0.
         13    1    1    2    0    0  0.15630690423E+02  0.55408327423E+01  0.81472125934E+02  0.83142875695E+02  0.10566000000E+00 0. -1.
        994    1    1    2    0    0 -0.66669537912E+01  0.10769941126E+01  0.18934674544E+01  0.17134361210E+03  0.17120000000E+03 0.  0.
        998    1    1    2    0    0 -0.89637366314E+01 -0.66178268550E+01  0.14166344029E+04  0.14167135122E+04  0.10000000000E+02 0. -1.
</event>
<event>
 5    1  0.1607440E-008  0.2480022E+03  0.7957747E-01  0.4355222E+00
         13   -1    0    0    0    0  0.00000000000E+00  0.00000000000E+00  0.14999999963E+04  0.15000000000E+04  0.10566000000E+00 0.  1.
        994   -1    0    0    0    0 -0.00000000000E+00 -0.00000000000E+00  0.11368683772E-12  0.17120000000E+03  0.17120000000E+03 0.  0.
         13    1    1    2    0    0  0.11498819391E+03  0.12766700222E+03  0.38614869152E+03  0.42264875645E+03  0.10566000000E+00 0.  1.
        994    1    1    2    0    0 -0.62371845962E+02 -0.82281253210E+02  0.84894835995E+02  0.21720272783E+03  0.17120000000E+03 0.  0.
        998    1    1    2    0    0 -0.52616347947E+02 -0.45385749012E+02  0.10289564688E+04  0.10313485157E+04  0.10000000000E+02 0. -1.
</event>
<event>
 5    1  0.1607440E-008  0.3847123E+03  0.7957747E-01  0.3430893E+00
         13   -1    0    0    0    0  0.00000000000E+00  0.00000000000E+00  0.14999999963E+04  0.15000000000E+04  0.10566000000E+00 0.  1.
        994   -1    0    0    0    0 -0.00000000000E+00 -0.00000000000E+00  0.11368683772E-12  0.17120000000E+03  0.17120000000E+03 0.  0.
         13    1    1    2    0    0 -0.12291784373E+02  0.44542061673E+01  0.51803693492E+02  0.53428098778E+02  0.10566000000E+00 0.  1.
        994    1    1    2    0    0 -0.11796651357E+02 -0.19104791130E+02  0.34343568856E+01  0.17270028615E+03  0.17120000000E+03 0.  0.
        998    1    1    2    0    0  0.24088435729E+02  0.14650584963E+02  0.14447619459E+04  0.14450716151E+04  0.10000000000E+02 0.  1.
</event>
<event>
 5    1  0.1607440E-008  0.3863016E+03  0.7957747E-01  0.3424171E+00
         13   -1    0    0    0    0  0.00000000000E+00  0.00000000000E+00  0.14999999963E+04  0.15000000000E+04  0.10566000000E+00 0. -1.
        994   -1    0    0    0    0 -0.00000000000E+00 -0.00000000000E+00  0.11368683772E-12  0.17120000000E+03  0.17120000000E+03 0.  0.
         13    1    1    2    0    0  0.17497124785E+03  0.58157438887E+02  0.10251247167E+04  0.10415747314E+04  0.10566000000E+00 0. -1.
        994    1    1    2    0    0 -0.19988560905E+03 -0.73660002182E+02  0.16718091469E+03  0.32037314317E+03  0.17120000000E+03 0.  0.
        998    1    1    2    0    0  0.24914361195E+02  0.15502563296E+02  0.30769436491E+03  0.30925212539E+03  0.10000000000E+02 0.  1.
</event>
<event>
 5    1  0.1607440E-008  0.3767331E+03  0.7957747E-01  0.3465508E+00
         13   -1    0    0    0    0  0.00000000000E+00  0.00000000000E+00  0.14999999963E+04  0.15000000000E+04  0.10566000000E+00 0.  1.
        994   -1    0    0    0    0 -0.00000000000E+00 -0.00000000000E+00  0.11368683772E-12  0.17120000000E+03  0.17120000000E+03 0.  0.
         13    1    1    2    0    0  0.97394322545E+01 -0.52461648630E+01  0.77872693634E+01  0.13528914021E+02  0.10566000000E+00 0.  1.
        994    1    1    2    0    0 -0.18253757810E+02  0.14294664385E-01  0.69182416309E+01  0.17230932054E+03  0.17120000000E+03 0.  0.
        998    1    1    2    0    0  0.85143255555E+01  0.52318701986E+01  0.14852944853E+04  0.14853617654E+04  0.10000000000E+02 0.  1.
</event>
<event>
 5    1  0.1607440E-008  0.3753547E+03  0.7957747E-01  0.3471638E+00
         13   -1    0    0    0    0  0.00000000000E+00  0.00000000000E+00  0.14999999963E+04  0.15000000000E+04  0.10566000000E+00 0.  1.
        994   -1    0    0    0    0 -0.00000000000E+00 -0.00000000000E+00  0.11368683772E-12  0.17120000000E+03  0.17120000000E+03 0.  0.
         13    1    1    2    0    0 -0.23220558553E+02  0.82448024333E+02  0.35418478243E+03  0.36439503609E+03  0.10566000000E+00 0.  1.
        994    1    1    2    0    0 -0.32005826889E+02 -0.13839838380E+02  0.18143202846E+02  0.17565457549E+03  0.17120000000E+03 0.  0.
        998    1    1    2    0    0  0.55226385443E+02 -0.68608185953E+02  0.11276720110E+04  0.11311503884E+04  0.10000000000E+02 0.  1.
</event>
<event>
 5    1  0.1607440E-008  0.3791828E+03  0.7957747E-01  0.3454724E+00
         13   -1    0    0    0    0  0.00000000000E+00  0.00000000000E+00  0.14999999963E+04  0.15000000000E+04  0.10566000000E+00 0. -1.
        994   -1    0    0    0    0 -0.00000000000E+00 -0.00000000000E+00  0.11368683772E-12  0.17120000000E+03  0.17120000000E+03 0.  0.
         13    1    1    2    0    0  0.30108153392E+02 -0.30376057516E+02  0.20878452758E+03  0.21312014426E+03  0.10566000000E+00 0. -1.
        994    1    1    2    0    0 -0.21394348654E+02  0.51205496229E+01  0.61700313590E+01  0.17271782615E+03  0.17120000000E+03 0.  0.
        998    1    1    2    0    0 -0.87138047373E+01  0.25255507893E+02  0.12850454373E+04  0.12853620296E+04  0.10000000000E+02 0. -1.
</event>
<event>
 5    1  0.1607440E-008  0.3822162E+03  0.7957747E-01  0.3441565E+00
         13   -1    0    0    0    0  0.00000000000E+00  0.00000000000E+00  0.14999999963E+04  0.15000000000E+04  0.10566000000E+00 0.  1.
        994   -1    0    0    0    0 -0.00000000000E+00 -0.00000000000E+00  0.11368683772E-12  0.17120000000E+03  0.17120000000E+03 0.  0.
         13    1    1    2    0    0  0.10435057490E+02  0.93450556892E+01  0.31715520570E+02  0.34671398872E+02  0.10566000000E+00 0.  1.
        994    1    1    2    0    0 -0.15053464844E+01 -0.85261397521E+01  0.32673712431E+01  0.17144992517E+03  0.17120000000E+03 0.  0.
        998    1    1    2    0    0 -0.89297110052E+01 -0.81891593710E+00  0.14650171045E+04  0.14650786760E+04  0.10000000000E+02 0.  1.
</event>
<event>
 5    1  0.1607440E-008  0.3826540E+03  0.7957747E-01  0.3439683E+00
         13   -1    0    0    0    0  0.00000000000E+00  0.00000000000E+00  0.14999999963E+04  0.15000000000E+04  0.10566000000E+00 0. -1.
        994   -1    0    0    0    0 -0.00000000000E+00 -0.00000000000E+00  0.11368683772E-12  0.17120000000E+03  0.17120000000E+03 0.  0.
         13    1    1    2    0    0  0.96400915731E+01 -0.26096376972E+02  0.14399353803E+02  0.31325785075E+02  0.10566000000E+00 0. -1.
        994    1    1    2    0    0 -0.11308539189E+02  0.15005635773E+02  0.19085709595E+02  0.17328230283E+03  0.17120000000E+03 0.  0.
        998    1    1    2    0    0  0.16684476160E+01  0.11090741199E+02  0.14665149329E+04  0.14665919121E+04  0.10000000000E+02 0. -1.
</event>
<event>
 5    1  0.1607440E-008  0.3844988E+03  0.7957747E-01  0.3431801E+00
         13   -1    0    0    0    0  0.00000000000E+00  0.00000000000E+00  0.14999999963E+04  0.15000000000E+04  0.10566000000E+00 0.  1.
        994   -1    0    0    0    0 -0.00000000000E+00 -0.00000000000E+00  0.11368683772E-12  0.17120000000E+03  0.17120000000E+03 0.  0.
         13    1    1    2    0    0 -0.12011797153E+02  0.48274657105E+01  0.43588562824E+02  0.45470448306E+02  0.10566000000E+00 0.  1.
        994    1    1    2    0    0  0.98882656863E+01 -0.73205192155E+01  0.23779371156E+01  0.17165798084E+03  0.17120000000E+03 0.  0.
        998    1    1    2    0    0  0.21235314662E+01  0.24930535050E+01  0.14540334963E+04  0.14540715709E+04  0.10000000000E+02 0.  0.
</event>
<event>
 5    1  0.1607440E-008  0.3711540E+03  0.7957747E-01  0.3490604E+00
         13   -1    0    0    0    0  0.00000000000E+00  0.00000000000E+00  0.14999999963E+04  0.15000000000E+04  0.10566000000E+00 0.  1.
        994   -1    0    0    0    0 -0.00000000000E+00 -0.00000000000E+00  0.11368683772E-12  0.17120000000E+03  0.17120000000E+03 0.  0.
         13    1    1    2    0    0  0.78123839777E+02 -0.88527939727E+02  0.63758606806E+03  0.64842619919E+03  0.10566000000E+00 0.  1.
        994    1    1    2    0    0 -0.54395595634E+02  0.38021993072E+02  0.27175728483E+02  0.18561388149E+03  0.17120000000E+03 0.  0.
        998    1    1    2    0    0 -0.23728244143E+02  0.50505946655E+02  0.83523819974E+03  0.83715991932E+03  0.10000000000E+02 0.  1.
</event>
<event>
 5    1  0.1607440E-008  0.3946434E+03  0.7957747E-01  0.3389776E+00
         13   -1    0    0    0    0  0.00000000000E+00  0.00000000000E+00  0.14999999963E+04  0.15000000000E+04  0.10566000000E+00 0.  1.
        994   -1    0    0    0    0 -0.00000000000E+00 -0.00000000000E+00  0.11368683772E-12  0.17120000000E+03  0.17120000000E+03 0.  0.
         13    1    1    2    0    0 -0.37535473141E+02 -0.42514213065E+02  0.55895543272E+02  0.79628468390E+02  0.10566000000E+00 0.  1.
        994    1    1    2    0    0  0.27987170217E+02  0.40176026280E+02  0.33856956260E+02  0.18125431932E+03  0.17120000000E+03 0.  0.
        998    1    1    2    0    0  0.95483029237E+01  0.23381867847E+01  0.14102474967E+04  0.14103172123E+04  0.10000000000E+02 0.  1.
</event>
<event>
 5    1  0.1607440E-008  0.3859172E+03  0.7957747E-01  0.3425791E+00
         13   -1    0    0    0    0  0.00000000000E+00  0.00000000000E+00  0.14999999963E+04  0.15000000000E+04  0.10566000000E+00 0.  1.
        994   -1    0    0    0    0 -0.00000000000E+00 -0.00000000000E+00  0.11368683772E-12  0.17120000000E+03  0.17120000000E+03 0.  0.
         13    1    1    2    0    0  0.10044900369E+02 -0.19827042054E+00  0.43687467508E+02  0.44827952395E+02  0.10566000000E+00 0.  1.
        994    1    1    2    0    0 -0.55783061496E+01 -0.88545491852E+00  0.12800309521E+01  0.17129792763E+03  0.17120000000E+03 0.  0.
        998    1    1    2    0    0 -0.44665942194E+01  0.10837253391E+01  0.14550324978E+04  0.14550741200E+04  0.10000000000E+02 0.  1.
</event>
<event>
 5    1  0.1607440E-008  0.3812753E+03  0.7957747E-01  0.3445624E+00
         13   -1    0    0    0    0  0.00000000000E+00  0.00000000000E+00  0.14999999963E+04  0.15000000000E+04  0.10566000000E+00 0. -1.
        994   -1    0    0    0    0 -0.00000000000E+00 -0.00000000000E+00  0.11368683772E-12  0.17120000000E+03  0.17120000000E+03 0.  0.
         13    1    1    2    0    0  0.27047725317E+02  0.25629515256E+01  0.95951406099E+02  0.99723776813E+02  0.10566000000E+00 0. -1.
        994    1    1    2    0    0 -0.32148662987E+02 -0.65887099800E+01  0.70840744238E+01  0.17446080288E+03  0.17120000000E+03 0.  0.
        998    1    1    2    0    0  0.51009376704E+01  0.40257584544E+01  0.13969645158E+04  0.13970154203E+04  0.10000000000E+02 0. -1.
</event>
<event>
 5    1  0.1607440E-008  0.3826578E+03  0.7957747E-01  0.3439667E+00
         13   -1    0    0    0    0  0.00000000000E+00  0.00000000000E+00  0.14999999963E+04  0.15000000000E+04  0.10566000000E+00 0. -1.
        994   -1    0    0    0    0 -0.00000000000E+00 -0.00000000000E+00  0.11368683772E-12  0.17120000000E+03  0.17120000000E+03 0.  0.
         13    1    1    2    0    0  0.27859298393E+01  0.11911146211E+02  0.26101492406E+02  0.28825958423E+02  0.10566000000E+00 0. -1.
        994    1    1    2    0    0 -0.36334923268E+01 -0.34367750093E+01  0.28803620781E+01  0.17129725676E+03  0.17120000000E+03 0.  0.
        998    1    1    2    0    0  0.84756248749E+00 -0.84743712021E+01  0.14710181418E+04  0.14710767848E+04  0.10000000000E+02 0. -1.
</event>
<event>
 5    1  0.1607440E-008  0.3753286E+03  0.7957747E-01  0.3471754E+00
         13   -1    0    0    0    0  0.00000000000E+00  0.00000000000E+00  0.14999999963E+04  0.15000000000E+04  0.10566000000E+00 0. -1.
        994   -1    0    0    0    0 -0.00000000000E+00 -0.00000000000E+00  0.11368683772E-12  0.17120000000E+03  0.17120000000E+03 0.  0.
         13    1    1    2    0    0  0.34691327413E+02 -0.57592377830E+02  0.35679560358E+03  0.36307503919E+03  0.10566000000E+00 0. -1.
        994    1    1    2    0    0 -0.31538608799E+02  0.21682985139E+02  0.11500068244E+02  0.17580252347E+03  0.17120000000E+03 0.  0.
        998    1    1    2    0    0 -0.31527186143E+01  0.35909392691E+02  0.11317043245E+04  0.11323224373E+04  0.10000000000E+02 0. -1.
</event>
<event>
 5    1  0.1607440E-008  0.3708046E+03  0.7957747E-01  0.3492201E+00
         13   -1    0    0    0    0  0.00000000000E+00  0.00000000000E+00  0.14999999963E+04  0.15000000000E+04  0.10566000000E+00 0.  1.
        994   -1    0    0    0    0 -0.00000000000E+00 -0.00000000000E+00  0.11368683772E-12  0.17120000000E+03  0.17120000000E+03 0.  0.
         13    1    1    2    0    0  0.16892846564E+02  0.38808979522E+02  0.10116547793E+03  0.10966298485E+03  0.10566000000E+00 0.  1.
        994    1    1    2    0    0 -0.25428699507E+02 -0.90699369957E+01  0.11366450827E+02  0.17368799245E+03  0.17120000000E+03 0.  0.
        998    1    1    2    0    0  0.85358529428E+01 -0.29739042526E+02  0.13874680675E+04  0.13878490227E+04  0.10000000000E+02 0.  1.
</event>
<event>
 5    1  0.1607440E-008  0.3799400E+03  0.7957747E-01  0.3451420E+00
         13   -1    0    0    0    0  0.00000000000E+00  0.00000000000E+00  0.14999999963E+04  0.15000000000E+04  0.10566000000E+00 0.  1.
        994   -1    0    0    0    0 -0.00000000000E+00 -0.00000000000E+00  0.11368683772E-12  0.17120000000E+03  0.17120000000E+03 0.  0.
         13    1    1    2    0    0 -0.31790832636E+02  0.24562405295E+02  0.17563684824E+03  0.18017292365E+03  0.10566000000E+00 0.  1.
        994    1    1    2    0    0  0.31128010069E+02 -0.19943566748E+02  0.87466658554E+01  0.17536431515E+03  0.17120000000E+03 0.  0.
        998    1    1    2    0    0  0.66282256616E+00 -0.46188385466E+01  0.13156164822E+04  0.13156627612E+04  0.10000000000E+02 0.  1.
</event>
<event>
 5    1  0.1607440E-008  0.3755743E+03  0.7957747E-01  0.3470658E+00
         13   -1    0    0    0    0  0.00000000000E+00  0.00000000000E+00  0.14999999963E+04  0.15000000000E+04  0.10566000000E+00 0.  1.
        994   -1    0    0    0    0 -0.00000000000E+00 -0.00000000000E+00  0.11368683772E-12  0.17120000000E+03  0.17120000000E+03 0.  0.
         13    1    1    2    0    0  0.22208984916E+02 -0.21177793920E+02  0.68115145343E+02  0.74708916171E+02  0.10566000000E+00 0.  1.
        994    1    1    2    0    0 -0.29737230312E+02  0.15721806612E+02  0.10232390490E+02  0.17477305251E+03  0.17120000000E+03 0.  0.
        998    1    1    2    0    0  0.75282453962E+01  0.54559873082E+01  0.14216524604E+04  0.14217180313E+04  0.10000000000E+02 0.  1.
</event>
<event>
 5    1  0.1607440E-008  0.3802276E+03  0.7957747E-01  0.3450168E+00
         13   -1    0    0    0    0  0.00000000000E+00  0.00000000000E+00  0.14999999963E+04  0.15000000000E+04  0.10566000000E+00 0.  1.
        994   -1    0    0    0    0 -0.00000000000E+00 -0.00000000000E+00  0.11368683772E-12  0.17120000000E+03  0.17120000000E+03 0.  0.
         13    1    1    2    0    0  0.17011224008E+01  0.11396689174E+02  0.14705634046E+02  0.18682750821E+02  0.10566000000E+00 0.  1.
        994    1    1    2    0    0  0.19746396604E+00 -0.10945053625E+02  0.44186830891E+01  0.17160652071E+03  0.17120000000E+03 0.  0.
        998    1    1    2    0    0 -0.18985863669E+01 -0.45163554845E+00  0.14808756791E+04  0.14809107285E+04  0.10000000000E+02 0.  1.
</event>
<event>
 5    1  0.1607440E-008  0.3840969E+03  0.7957747E-01  0.3433512E+00
         13   -1    0    0    0    0  0.00000000000E+00  0.00000000000E+00  0.14999999963E+04  0.15000000000E+04  0.10566000000E+00 0. -1.
        994   -1    0    0    0    0 -0.00000000000E+00 -0.00000000000E+00  0.11368683772E-12  0.17120000000E+03  0.17120000000E+03 0.  0.
         13    1    1    2    0    0  0.20119462835E+02  0.61698255139E+00  0.10974590995E+03  0.11157665243E+03  0.10566000000E+00 0. -1.
        994    1    1    2    0    0  0.38392421264E+01 -0.78685949307E+01  0.23320644622E+01  0.17143959021E+03  0.17120000000E+03 0.  0.
        998    1    1    2    0    0 -0.23958704961E+02  0.72516123793E+01  0.13879220219E+04  0.13881837574E+04  0.10000000000E+02 0. -1.
</event>
<event>
 5    1  0.1607440E-008  0.3733596E+03  0.7957747E-01  0.3480592E+00
         13   -1    0    0    0    0  0.00000000000E+00  0.00000000000E+00  0.14999999963E+04  0.15000000000E+04  0.10566000000E+00 0.  1.
        994   -1    0    0    0    0 -0.00000000000E+00 -0.00000000000E+00  0.11368683772E-12  0.17120000000E+03  0.17120000000E+03 0.  0.
         13    1    1    2    0    0 -0.77233824417E+01  0.31232943400E+02  0.66377580754E+02  0.73764095470E+02  0.10566000000E+00 0.  1.
        994    1    1    2    0    0  0.12748503690E+01 -0.19152956897E+02  0.87839464030E+01  0.17249654697E+03  0.17120000000E+03 0.  0.
        998    1    1    2    0    0  0.64485320727E+01 -0.12079986503E+02  0.14248384691E+04  0.14249393576E+04  0.10000000000E+02 0.  1.
</event>
<event>
 5    1  0.1607440E-008  0.3856130E+03  0.7957747E-01  0.3427076E+00
         13   -1    0    0    0    0  0.00000000000E+00  0.00000000000E+00  0.14999999963E+04  0.15000000000E+04  0.10566000000E+00 0.  1.
        994   -1    0    0    0    0 -0.00000000000E+00 -0.00000000000E+00  0.11368683772E-12  0.17120000000E+03  0.17120000000E+03 0.  0.
         13    1    1    2    0    0 -0.77445333257E+01  0.13953833607E+02  0.91257945394E+02  0.92642922182E+02  0.10566000000E+00 0.  1.
        994    1    1    2    0    0  0.91849408639E+01 -0.14638948795E+02  0.23069413889E+01  0.17208551345E+03  0.17120000000E+03 0.  0.
        998    1    1    2    0    0 -0.14404075382E+01  0.68511518791E+00  0.14064351095E+04  0.14064715644E+04  0.10000000000E+02 0.  1.
</event>
<event>
 5    1  0.1607440E-008  0.3755750E+03  0.7957747E-01  0.3470655E+00
         13   -1    0    0    0    0  0.00000000000E+00  0.00000000000E+00  0.14999999963E+04  0.15000000000E+04  0.10566000000E+00 0.  1.
        994   -1    0    0    0    0 -0.00000000000E+00 -0.00000000000E+00  0.11368683772E-12  0.17120000000E+03  0.17120000000E+03 0.  0.
         13    1    1    2    0    0  0.90044365491E+01 -0.28093872679E+02  0.25038493224E+02  0.38694739521E+02  0.10566000000E+00 0.  1.
        994    1    1    2    0    0 -0.12924750239E+02  0.27746732474E+02  0.17265624618E+02  0.17476976891E+03  0.17120000000E+03 0.  0.
        998    1    1    2    0    0  0.39203136895E+01  0.34714020511E+00  0.14576958784E+04  0.14577354916E+04  0.10000000000E+02 0.  1.
</event>
<event>
 5    1  0.1607440E-008  0.3804451E+03  0.7957747E-01  0.3449223E+00
         13   -1    0    0    0    0  0.00000000000E+00  0.00000000000E+00  0.14999999963E+04  0.15000000000E+04  0.10566000000E+00 0.  1.
        994   -1    0    0    0    0 -0.00000000000E+00 -0.00000000000E+00  0.11368683772E-12  0.17120000000E+03  0.17120000000E+03 0.  0.
         13    1    1    2    0    0  0.46241838030E+02 -0.31167895641E+02  0.27644141382E+03  0.28200994972E+03  0.10566000000E+00 0.  1.
        994    1    1    2    0    0 -0.58235246549E+02  0.45565920397E+02  0.22380492600E+02  0.18782418239E+03  0.17120000000E+03 0.  0.
        998    1    1    2    0    0  0.11993408518E+02 -0.14398024756E+02  0.12011780899E+04  0.12013658679E+04  0.10000000000E+02 0.  1.
</event>
<event>
 5    1  0.1607440E-008  0.3847258E+03  0.7957747E-01  0.3430836E+00
         13   -1    0    0    0    0  0.00000000000E+00  0.00000000000E+00  0.14999999963E+04  0.15000000000E+04  0.10566000000E+00 0. -1.
        994   -1    0    0    0    0 -0.00000000000E+00 -0.00000000000E+00  0.11368683772E-12  0.17120000000E+03  0.17120000000E+03 0.  0.
         13    1    1    2    0    0  0.58084849380E+01 -0.16288140247E+02  0.78292829806E+02  0.80179925000E+02  0.10566000000E+00 0. -1.
        994    1    1    2    0    0 -0.22458640982E+02  0.16559117460E+02  0.43333323666E+01  0.17351314848E+03  0.17120000000E+03 0.  0.
        998    1    1    2    0    0  0.16650156044E+02 -0.27097721286E+00  0.14173738341E+04  0.14175069265E+04  0.10000000000E+02 0. -1.
</event>
<event>
 5    1  0.1607440E-008  0.3723955E+03  0.7957747E-01  0.3484954E+00
         13   -1    0    0    0    0  0.00000000000E+00  0.00000000000E+00  0.14999999963E+04  0.15000000000E+04  0.10566000000E+00 0. -1.
        994   -1    0    0    0    0 -0.00000000000E+00 -0.00000000000E+00  0.11368683772E-12  0.17120000000E+03  0.17120000000E+03 0.  0.
         13    1    1    2    0    0  0.43975853451E+02 -0.16708970570E+02  0.15833695201E+03  0.16517768287E+03  0.10566000000E+00 0. -1.
        994    1    1    2    0    0  0.51256392091E+01  0.34395737820E+01  0.81529940928E+01  0.17150514324E+03  0.17120000000E+03 0.  0.
        998    1    1    2    0    0 -0.49101492660E+02  0.13269396788E+02  0.13335100502E+04  0.13345171739E+04  0.10000000000E+02 0. -1.
</event>
<event>
 5    1  0.1607440E-008  0.3696689E+03  0.7957747E-01  0.3497414E+00
         13   -1    0    0    0    0  0.00000000000E+00  0.00000000000E+00  0.14999999963E+04  0.15000000000E+04  0.10566000000E+00 0.  1.
        994   -1    0    0    0    0 -0.00000000000E+00 -0.00000000000E+00  0.11368683772E-12  0.17120000000E+03  0.17120000000E+03 0.  0.
         13    1    1    2    0    0  0.26460144925E+02 -0.41666240734E+02  0.11232077895E+03  0.12268734016E+03  0.10566000000E+00 0.  1.
        994    1    1    2    0    0 -0.20290374599E+02  0.57396499292E+02  0.22382819447E+02  0.18307508853E+03  0.17120000000E+03 0.  0.
        998    1    1    2    0    0 -0.61697703267E+01 -0.15730258557E+02  0.13652963979E+04  0.13654375713E+04  0.10000000000E+02 0.  1.
</event>
<event>
 5    1  0.1607440E-008  0.3845976E+03  0.7957747E-01  0.3431381E+00
         13   -1    0    0    0    0  0.00000000000E+00  0.00000000000E+00  0.14999999963E+04  0.15000000000E+04  0.10566000000E+00 0.  1.
        994   -1    0    0    0    0 -0.00000000000E+00 -0.00000000000E+00  0.11368683772E-12  0.17120000000E+03  0.17120000000E+03 0.  0.
         13    1    1    2    0    0 -0.16104781742E+02  0.15336600342E+02  0.13082228726E+03  0.13269912326E+03  0.10566000000E+00 0.  1.
        994    1    1    2    0    0  0.11932191880E+02 -0.12657105997E+02  0.28270777653E+01  0.17210465393E+03  0.17120000000E+03 0.  0.
        998    1    1    2    0    0  0.41725898619E+01 -0.26794943457E+01  0.13663506313E+04  0.13663962228E+04  0.10000000000E+02 0.  1.
</event>
<event>
 5    1  0.1607440E-008  0.3797634E+03  0.7957747E-01  0.3452189E+00
         13   -1    0    0    0    0  0.00000000000E+00  0.00000000000E+00  0.14999999963E+04  0.15000000000E+04  0.10566000000E+00 0.  1.
        994   -1    0    0    0    0 -0.00000000000E+00 -0.00000000000E+00  0.11368683772E-12  0.17120000000E+03  0.17120000000E+03 0.  0.
         13    1    1    2    0    0  0.22499045967E+01  0.13970209541E+02  0.22008684147E+02  0.26165285537E+02  0.10566000000E+00 0.  1.
        994    1    1    2    0    0 -0.50446601728E+01 -0.53563579723E+01  0.44337487536E+01  0.17141539398E+03  0.17120000000E+03 0.  0.
        998    1    1    2    0    0  0.27947555761E+01 -0.86138515687E+01  0.14735575634E+04  0.14736193205E+04  0.10000000000E+02 0.  1.
</event>
<event>
 5    1  0.1607440E-008  0.3790336E+03  0.7957747E-01  0.3455377E+00
         13   -1    0    0    0    0  0.00000000000E+00  0.00000000000E+00  0.14999999963E+04  0.15000000000E+04  0.10566000000E+00 0.  1.
        994   -1    0    0    0    0 -0.00000000000E+00 -0.00000000000E+00  0.11368683772E-12  0.17120000000E+03  0.17120000000E+03 0.  0.
         13    1    1    2    0    0  0.45826760558E+02  0.29389355769E+02  0.25827113629E+03  0.26394661812E+03  0.10566000000E+00 0.  1.
        994    1    1    2    0    0 -0.49758917076E+02 -0.29747950852E+02  0.15976715462E+02  0.18145408743E+03  0.17120000000E+03 0.  0.
        998    1    1    2    0    0  0.39321565181E+01  0.35859508351E+00  0.12257521445E+04  0.12257992944E+04  0.10000000000E+02 0.  0.
</event>
<event>
 5    1  0.1607440E-008  0.3856807E+03  0.7957747E-01  0.3426790E+00
         13   -1    0    0    0    0  0.00000000000E+00  0.00000000000E+00  0.14999999963E+04  0.15000000000E+04  0.10566000000E+00 0.  1.
        994   -1    0    0    0    0 -0.00000000000E+00 -0.00000000000E+00  0.11368683772E-12  0.17120000000E+03  0.17120000000E+03 0.  0.
         13    1    1    2    0    0 -0.11369138280E+02 -0.28802809075E+01  0.56119577789E+02  0.57332115769E+02  0.10566000000E+00 0.  1.
        994    1    1    2    0    0 -0.76234266777E-01  0.39866734664E+01  0.13447309927E+01  0.17125170854E+03  0.17120000000E+03 0.  0.
        998    1    1    2    0    0  0.11445372547E+02 -0.11063925590E+01  0.14425356875E+04  0.14426161757E+04  0.10000000000E+02 0.  1.
</event>
<event>
 5    1  0.1607440E-008  0.3828008E+03  0.7957747E-01  0.3439053E+00
         13   -1    0    0    0    0  0.00000000000E+00  0.00000000000E+00  0.14999999963E+04  0.15000000000E+04  0.10566000000E+00 0. -1.
        994   -1    0    0    0    0 -0.00000000000E+00 -0.00000000000E+00  0.11368683772E-12  0.17120000000E+03  0.17120000000E+03 0.  0.
         13    1    1    2    0    0  0.84523793300E+01 -0.12092409017E+02  0.38594557313E+02  0.41318519944E+02  0.10566000000E+00 0. -1.
        994    1    1    2    0    0 -0.60617570108E+01  0.11344690710E+02  0.32741355948E+01  0.17171373524E+03  0.17120000000E+03 0.  0.
        998    1    1    2    0    0 -0.23906223192E+01  0.74771830665E+00  0.14581313034E+04  0.14581677448E+04  0.10000000000E+02 0. -1.
</event>
<event>
 5    1  0.1607440E-008  0.3845842E+03  0.7957747E-01  0.3431438E+00
         13   -1    0    0    0    0  0.00000000000E+00  0.00000000000E+00  0.14999999963E+04  0.15000000000E+04  0.10566000000E+00 0.  1.
        994   -1    0    0    0    0 -0.00000000000E+00 -0.00000000000E+00  0.11368683772E-12  0.17120000000E+03  0.17120000000E+03 0.  0.
         13    1    1    2    0    0  0.90158672026E+01  0.22306214620E+02  0.14307375684E+03  0.14508261140E+03  0.10566000000E+00 0.  1.
        994    1    1    2    0    0 -0.59720853339E+01 -0.25124914732E+02  0.40360499956E+01  0.17318388159E+03  0.17120000000E+03 0.  0.
        998    1    1    2    0    0 -0.30437818687E+01  0.28187001121E+01  0.13528901894E+04  0.13529335070E+04  0.10000000000E+02 0.  1.
</event>
<event>
 5    1  0.1607440E-008  0.3801308E+03  0.7957747E-01  0.3450589E+00
         13   -1    0    0    0    0  0.00000000000E+00  0.00000000000E+00  0.14999999963E+04  0.15000000000E+04  0.10566000000E+00 0.  1.
        994   -1    0    0    0    0 -0.00000000000E+00 -0.00000000000E+00  0.11368683772E-12  0.17120000000E+03  0.17120000000E+03 0.  0.
         13    1    1    2    0    0 -0.16540180410E+02 -0.29907157026E+02  0.12707008545E+03  0.13158584038E+03  0.10566000000E+00 0.  1.
        994    1    1    2    0    0  0.28493260970E+02  0.29896527885E+02  0.97876771286E+01  0.17638284192E+03  0.17120000000E+03 0.  0.
        998    1    1    2    0    0 -0.11953080560E+02  0.10629140776E-01  0.13631422337E+04  0.13632313177E+04  0.10000000000E+02 0.  1.
</event>
<event>
 5    1  0.1607440E-008  0.3842951E+03  0.7957747E-01  0.3432667E+00
         13   -1    0    0    0    0  0.00000000000E+00  0.00000000000E+00  0.14999999963E+04  0.15000000000E+04  0.10566000000E+00 0. -1.
        994   -1    0    0    0    0 -0.00000000000E+00 -0.00000000000E+00  0.11368683772E-12  0.17120000000E+03  0.17120000000E+03 0.  0.
         13    1    1    2    0    0 -0.75179237869E+01 -0.16706989629E+02  0.89386430801E+02  0.91244659328E+02  0.10566000000E+00 0. -1.
        994    1    1    2    0    0 -0.34593024708E+01  0.53069450319E+01  0.21128196597E+01  0.17133019129E+03  0.17120000000E+03 0.  0.
        998    1    1    2    0    0  0.10977226258E+02  0.11400044597E+02  0.14085007458E+04  0.14086251494E+04  0.10000000000E+02 0. -1.
</event>
<event>
 5    1  0.1607440E-008  0.3696250E+03  0.7957747E-01  0.3497616E+00
         13   -1    0    0    0    0  0.00000000000E+00  0.00000000000E+00  0.14999999963E+04  0.15000000000E+04  0.10566000000E+00 0. -1.
        994   -1    0    0    0    0 -0.00000000000E+00 -0.00000000000E+00  0.11368683772E-12  0.17120000000E+03  0.17120000000E+03 0.  0.
         13    1    1    2    0    0 -0.16312126051E+02  0.22349504653E+02  0.37299638237E+02  0.46442006753E+02  0.10566000000E+00 0. -1.
        994    1    1    2    0    0 -0.93826763639E+01 -0.21835088891E+02  0.11423089774E+02  0.17321874235E+03  0.17120000000E+03 0.  0.
        998    1    1    2    0    0  0.25694802415E+02 -0.51441576289E+00  0.14512772683E+04  0.14515392509E+04  0.10000000000E+02 0. -1.
</event>
<event>
 5    1  0.1607440E-008  0.3842753E+03  0.7957747E-01  0.3432751E+00
         13   -1    0    0    0    0  0.00000000000E+00  0.00000000000E+00  0.14999999963E+04  0.15000000000E+04  0.10566000000E+00 0.  1.
        994   -1    0    0    0    0 -0.00000000000E+00 -0.00000000000E+00  0.11368683772E-12  0.17120000000E+03  0.17120000000E+03 0.  0.
         13    1    1    2    0    0  0.87046299963E+01  0.24658203513E+02  0.14315425935E+03  0.14552302470E+03  0.10566000000E+00 0.  1.
        994    1    1    2    0    0  0.20147237986E+02 -0.49195719255E+02  0.11362603873E+02  0.17962371435E+03  0.17120000000E+03 0.  0.
        998    1    1    2    0    0 -0.28851867982E+02  0.24537515742E+02  0.13454831331E+04  0.13460532609E+04  0.10000000000E+02 0.  1.
</event>
<event>
 5    1  0.1607440E-008  0.3791900E+03  0.7957747E-01  0.3454693E+00
         13   -1    0    0    0    0  0.00000000000E+00  0.00000000000E+00  0.14999999963E+04  0.15000000000E+04  0.10566000000E+00 0. -1.
        994   -1    0    0    0    0 -0.00000000000E+00 -0.00000000000E+00  0.11368683772E-12  0.17120000000E+03  0.17120000000E+03 0.  0.
         13    1    1    2    0    0 -0.10832674139E+02 -0.21160485889E+02  0.77263824135E+02  0.80838250080E+02  0.10566000000E+00 0. -1.
        994    1    1    2    0    0 -0.18105476303E+02 -0.34734747414E+02  0.97026216251E+01  0.17589170480E+03  0.17120000000E+03 0.  0.
        998    1    1    2    0    0  0.28938150442E+02  0.55895233304E+02  0.14130335505E+04  0.14144700451E+04  0.10000000000E+02 0. -1.
</event>
<event>
 5    1  0.1607440E-008  0.3780277E+03  0.7957747E-01  0.3459792E+00
         13   -1    0    0    0    0  0.00000000000E+00  0.00000000000E+00  0.14999999963E+04  0.15000000000E+04  0.10566000000E+00 0. -1.
        994   -1    0    0    0    0 -0.00000000000E+00 -0.00000000000E+00  0.11368683772E-12  0.17120000000E+03  0.17120000000E+03 0.  0.
         13    1    1    2    0    0  0.44379583137E+00  0.14635306782E+02  0.19124571832E+02  0.24086294259E+02  0.10566000000E+00 0. -1.
        994    1    1    2    0    0 -0.10033605008E+02 -0.95277128401E+00  0.54739684776E+01  0.17158375603E+03  0.17120000000E+03 0.  0.
        998    1    1    2    0    0  0.95898091768E+01 -0.13682535498E+02  0.14754014560E+04  0.14755299497E+04  0.10000000000E+02 0. -1.
</event>
<event>
 5    1  0.1607440E-008  0.3847961E+03  0.7957747E-01  0.3430537E+00
         13   -1    0    0    0    0  0.00000000000E+00  0.00000000000E+00  0.14999999963E+04  0.15000000000E+04  0.10566000000E+00 0.  1.
        994   -1    0    0    0    0 -0.00000000000E+00 -0.00000000000E+00  0.11368683772E-12  0.17120000000E+03  0.17120000000E+03 0.  0.
         13    1    1    2    0    0  0.85384356353E+01 -0.12808472402E+02  0.74980696859E+02  0.76544613879E+02  0.10566000000E+00 0.  1.
        994    1    1    2    0    0 -0.18938528497E+02 -0.16111334985E+02  0.37685659564E+01  0.17303723607E+03  0.17120000000E+03 0.  0.
        998    1    1    2    0    0  0.10400092862E+02  0.28919807388E+02  0.14212507335E+04  0.14216181501E+04  0.10000000000E+02 0.  1.
</event>
<event>
 5    1  0.1607440E-008  0.3734102E+03  0.7957747E-01  0.3480364E+00
         13   -1    0    0    0    0  0.00000000000E+00  0.00000000000E+00  0.14999999963E+04  0.15000000000E+04  0.10566000000E+00 0.  1.
        994   -1    0    0    0    0 -0.00000000000E+00 -0.00000000000E+00  0.11368683772E-12  0.17120000000E+03  0.17120000000E+03 0.  0.
         13    1    1    2    0    0 -0.63901810195E+02  0.22238097127E+02  0.38383623772E+03  0.38975407998E+03  0.10566000000E+00 0.  1.
        994    1    1    2    0    0  0.97287291871E+01 -0.73915354464E+01  0.80077236238E+01  0.17182213654E+03  0.17120000000E+03 0.  0.
        998    1    1    2    0    0  0.54173081008E+02 -0.14846561681E+02  0.11081560349E+04  0.11096237835E+04  0.10000000000E+02 0.  1.
</event>
<event>
 5    1  0.1607440E-008  0.3817456E+03  0.7957747E-01  0.3443593E+00
         13   -1    0    0    0    0  0.00000000000E+00  0.00000000000E+00  0.14999999963E+04  0.15000000000E+04  0.10566000000E+00 0. -1.
        994   -1    0    0    0    0 -0.00000000000E+00 -0.00000000000E+00  0.11368683772E-12  0.17120000000E+03  0.17120000000E+03 0.  0.
         13    1    1    2    0    0  0.23781891401E+02  0.93406728916E+01  0.93044363258E+02  0.96488813998E+02  0.10566000000E+00 0. -1.
        994    1    1    2    0    0 -0.23976108067E+02 -0.14215159077E+02  0.58411635692E+01  0.17355253872E+03  0.17120000000E+03 0.  0.
        998    1    1    2    0    0  0.19421666563E+00  0.48744861853E+01  0.14011144695E+04  0.14011586473E+04  0.10000000000E+02 0. -1.
</event>
<event>
 5    1  0.1607440E-008  0.3863944E+03  0.7957747E-01  0.3423780E+00
         13   -1    0    0    0    0  0.00000000000E+00  0.00000000000E+00  0.14999999963E+04  0.15000000000E+04  0.10566000000E+00 0.  1.
        994   -1    0    0    0    0 -0.00000000000E+00 -0.00000000000E+00  0.11368683772E-12  0.17120000000E+03  0.17120000000E+03 0.  0.
         13    1    1    2    0    0  0.10232252575E+02  0.16453406283E+01  0.60124677363E+02  0.61011426229E+02  0.10566000000E+00 0.  1.
        994    1    1    2    0    0 -0.40858526116E+01  0.56803663617E+01  0.10997362526E+01  0.17134646239E+03  0.17120000000E+03 0.  0.
        998    1    1    2    0    0 -0.61463999630E+01 -0.73257069900E+01  0.14387755827E+04  0.14388421114E+04  0.10000000000E+02 0.  1.
</event>
<event>
 5    1  0.1607440E-008  0.3822089E+03  0.7957747E-01  0.3441597E+00
         13   -1    0    0    0    0  0.00000000000E+00  0.00000000000E+00  0.14999999963E+04  0.15000000000E+04  0.10566000000E+00 0. -1.
        994   -1    0    0    0    0 -0.00000000000E+00 -0.00000000000E+00  0.11368683772E-12  0.17120000000E+03  0.17120000000E+03 0.  0.
         13    1    1    2    0    0 -0.14836817957E+02  0.29587130970E+02  0.16237638662E+03  0.16571551401E+03  0.10566000000E+00 0. -1.
        994    1    1    2    0    0  0.82855273654E+01 -0.33354650365E+02  0.69521418662E+01  0.17475398405E+03  0.17120000000E+03 0.  0.
        998    1    1    2    0    0  0.65512905918E+01  0.37675193945E+01  0.13306714678E+04  0.13307305019E+04  0.10000000000E+02 0. -1.
</event>
<event>
 5    1  0.1607440E-008  0.3849263E+03  0.7957747E-01  0.3429985E+00
         13   -1    0    0    0    0  0.00000000000E+00  0.00000000000E+00  0.14999999963E+04  0.15000000000E+04  0.10566000000E+00 0.  1.
        994   -1    0    0    0    0 -0.00000000000E+00 -0.00000000000E+00  0.11368683772E-12  0.17120000000E+03  0.17120000000E+03 0.  0.
         13    1    1    2    0    0  0.27119447912E+01  0.20620960108E+02  0.10935085909E+03  0.11131127611E+03  0.10566000000E+00 0.  1.
        994    1    1    2    0    0  0.15087989825E+02 -0.37717483060E+02  0.71140980692E+01  0.17609743427E+03  0.17120000000E+03 0.  0.
        998    1    1    2    0    0 -0.17799934617E+02  0.17096522952E+02  0.13835350391E+04  0.13837912896E+04  0.10000000000E+02 0.  1.
</event>
<event>
 5    1  0.1607440E-008  0.3811988E+03  0.7957747E-01  0.3445955E+00
         13   -1    0    0    0    0  0.00000000000E+00  0.00000000000E+00  0.14999999963E+04  0.15000000000E+04  0.10566000000E+00 0.  1.
        994   -1    0    0    0    0 -0.00000000000E+00 -0.00000000000E+00  0.11368683772E-12  0.17120000000E+03  0.17120000000E+03 0.  0.
         13    1    1    2    0    0 -0.74386243663E+01  0.97393720118E+01  0.19340876280E+02  0.22896924661E+02  0.10566000000E+00 0.  1.
        994    1    1    2    0    0  0.84512489571E+01 -0.15838323270E+02  0.46030518696E+01  0.17220018635E+03  0.17120000000E+03 0.  0.
        998    1    1    2    0    0 -0.10126245908E+01  0.60989512578E+01  0.14760560681E+04  0.14761028890E+04  0.10000000000E+02 0.  1.
</event>
<event>
 5    1  0.1607440E-008  0.3812956E+03  0.7957747E-01  0.3445537E+00
         13   -1    0    0    0    0  0.00000000000E+00  0.00000000000E+00  0.14999999963E+04  0.15000000000E+04  0.10566000000E+00 0. -1.
        994   -1    0    0    0    0 -0.00000000000E+00 -0.00000000000E+00  0.11368683772E-12  0.17120000000E+03  0.17120000000E+03 0.  0.
         13    1    1    2    0    0 -0.19317755460E+02 -0.13041130755E+01  0.52422244839E+02  0.55883622869E+02  0.10566000000E+00 0. -1.
        994    1    1    2    0    0  0.13535661502E+02  0.52665092235E+00  0.40915980988E+01  0.17178379629E+03  0.17120000000E+03 0.  0.
        998    1    1    2    0    0  0.57820939580E+01  0.77746215317E+00  0.14434861533E+04  0.14435325808E+04  0.10000000000E+02 0. -1.
</event>
<event>
 5    1  0.1607440E-008  0.3755452E+03  0.7957747E-01  0.3470788E+00
         13   -1    0    0    0    0  0.00000000000E+00  0.00000000000E+00  0.14999999963E+04  0.15000000000E+04  0.10566000000E+00 0. -1.
        994   -1    0    0    0    0 -0.00000000000E+00 -0.00000000000E+00  0.11368683772E-12  0.17120000000E+03  0.17120000000E+03 0.  0.
         13    1    1    2    0    0  0.14009797433E+02  0.24362294903E+02  0.56614057783E+02  0.63205684394E+02  0.10566000000E+00 0. -1.
        994    1    1    2    0    0 -0.15611118436E+02 -0.27677955451E+02  0.98327768725E+01  0.17440154741E+03  0.17120000000E+03 0.  0.
        998    1    1    2    0    0  0.16013210027E+01  0.33156605478E+01  0.14335531616E+04  0.14335927682E+04  0.10000000000E+02 0. -1.
</event>
<event>
 5    1  0.1607440E-008  0.3815073E+03  0.7957747E-01  0.3444621E+00
         13   -1    0    0    0    0  0.00000000000E+00  0.00000000000E+00  0.14999999963E+04  0.15000000000E+04  0.10566000000E+00 0.  1.
        994   -1    0    0    0    0 -0.00000000000E+00 -0.00000000000E+00  0.11368683772E-12  0.17120000000E+03  0.17120000000E+03 0.  0.
         13    1    1    2    0    0  0.10900235908E+02  0.14884732050E+02  0.48598677478E+02  0.51982814542E+02  0.10566000000E+00 0.  1.
        994    1    1    2    0    0 -0.64130979793E+01 -0.14405100009E+02  0.42016721184E+01  0.17197595408E+03  0.17120000000E+03 0.  0.
        998    1    1    2    0    0 -0.44871379288E+01 -0.47963204099E+00  0.14471996467E+04  0.14472412314E+04  0.10000000000E+02 0.  1.
</event>
<event>
 5    1  0.1607440E-008  0.3848915E+03  0.7957747E-01  0.3430132E+00
         13   -1    0    0    0    0  0.00000000000E+00  0.00000000000E+00  0.14999999963E+04  0.15000000000E+04  0.10566000000E+00 0.  1.
        994   -1    0    0    0    0 -0.00000000000E+00 -0.00000000000E+00  0.11368683772E-12  0.17120000000E+03  0.17120000000E+03 0.  0.
         13    1    1    2    0    0 -0.14689009109E+02  0.51568364242E+01  0.73257677472E+02  0.74893647415E+02  0.10566000000E+00 0.  1.
        994    1    1    2    0    0  0.72204207732E+01 -0.18583014039E+01  0.18668868975E+01  0.17137243952E+03  0.17120000000E+03 0.  0.
        998    1    1    2    0    0  0.74685883356E+01 -0.32985350202E+01  0.14248754319E+04  0.14249339131E+04  0.10000000000E+02 0.  1.
</event>
<event>
 5    1  0.1607440E-008  0.3757521E+03  0.7957747E-01  0.3469866E+00
         13   -1    0    0    0    0  0.00000000000E+00  0.00000000000E+00  0.14999999963E+04  0.15000000000E+04  0.10566000000E+00 0. -1.
        994   -1    0    0    0    0 -0.00000000000E+00 -0.00000000000E+00  0.11368683772E-12  0.17120000000E+03  0.17120000000E+03 0.  0.
         13    1    1    2    0    0 -0.73695070731E+01  0.79512932222E+01  0.64236109552E+01  0.12601850663E+02  0.10566000000E+00 0. -1.
        994    1    1    2    0    0  0.30918475550E+00 -0.13184924797E+02  0.68829867646E+01  0.17184514350E+03  0.17120000000E+03 0.  0.
        998    1    1    2    0    0  0.70603223176E+01  0.52336315748E+01  0.14866933986E+04  0.14867530058E+04  0.10000000000E+02 0. -1.
</event>
<event>
 5    1  0.1607440E-008  0.3855468E+03  0.7957747E-01  0.3427356E+00
         13   -1    0    0    0    0  0.00000000000E+00  0.00000000000E+00  0.14999999963E+04  0.15000000000E+04  0.10566000000E+00 0. -1.
        994   -1    0    0    0    0 -0.00000000000E+00 -0.00000000000E+00  0.11368683772E-12  0.17120000000E+03  0.17120000000E+03 0.  0.
         13    1    1    2    0    0 -0.98208414661E+01 -0.72320064470E+01  0.53166921891E+02  0.54547993471E+02  0.10566000000E+00 0. -1.
        994    1    1    2    0    0  0.12337905208E+02  0.63224957077E+01  0.19900888857E+01  0.17177193691E+03  0.17120000000E+03 0.  0.
        998    1    1    2    0    0 -0.25170637416E+01  0.90951073931E+00  0.14448429855E+04  0.14448800696E+04  0.10000000000E+02 0. -1.
</event>
<event>
 5    1  0.1607440E-008  0.3846404E+03  0.7957747E-01  0.3431199E+00
         13   -1    0    0    0    0  0.00000000000E+00  0.00000000000E+00  0.14999999963E+04  0.15000000000E+04  0.10566000000E+00 0. -1.
        994   -1    0    0    0    0 -0.00000000000E+00 -0.00000000000E+00  0.11368683772E-12  0.17120000000E+03  0.17120000000E+03 0.  0.
         13    1    1    2    0    0 -0.12241772456E+02 -0.11669090009E+02  0.72675633767E+02  0.74617608927E+02  0.10566000000E+00 0. -1.
        994    1    1    2    0    0  0.16175528609E+02  0.17950690072E+02  0.37335261407E+01  0.17293713950E+03  0.17120000000E+03 0.  0.
        998    1    1    2    0    0 -0.39337561528E+01 -0.62816000622E+01  0.14235908364E+04  0.14236452516E+04  0.10000000000E+02 0. -1.
</event>
<event>
 5    1  0.1607440E-008  0.3743361E+03  0.7957747E-01  0.3476197E+00
         13   -1    0    0    0    0  0.00000000000E+00  0.00000000000E+00  0.14999999963E+04  0.15000000000E+04  0.10566000000E+00 0.  1.
        994   -1    0    0    0    0 -0.00000000000E+00 -0.00000000000E+00  0.11368683772E-12  0.17120000000E+03  0.17120000000E+03 0.  0.
         13    1    1    2    0    0  0.78438121235E+02  0.88228994023E+02  0.36163901054E+03  0.38042039818E+03  0.10566000000E+00 0.  1.
        994    1    1    2    0    0 -0.70463317057E+02 -0.10783432761E+03  0.74755585450E+02  0.22691663407E+03  0.17120000000E+03 0.  0.
        998    1    1    2    0    0 -0.79748041785E+01  0.19605333590E+02  0.10636054003E+04  0.10638629677E+04  0.10000000000E+02 0.  1.
</event>
<event>
 5    1  0.1607440E-008  0.3686703E+03  0.7957747E-01  0.3502024E+00
         13   -1    0    0    0    0  0.00000000000E+00  0.00000000000E+00  0.14999999963E+04  0.15000000000E+04  0.10566000000E+00 0. -1.
        994   -1    0    0    0    0 -0.00000000000E+00 -0.00000000000E+00  0.11368683772E-12  0.17120000000E+03  0.17120000000E+03 0.  0.
         13    1    1    2    0    0  0.19252387165E+02 -0.23413516127E+02  0.38626736314E+02  0.49100744101E+02  0.10566000000E+00 0. -1.
        994    1    1    2    0    0 -0.25560287421E+02  0.32936417803E+02  0.16310238885E+02  0.17695649127E+03  0.17120000000E+03 0.  0.
        998    1    1    2    0    0  0.63079002554E+01 -0.95229016756E+01  0.14450630211E+04  0.14451427646E+04  0.10000000000E+02 0. -1.
</event>
<event>
 5    1  0.1607440E-008  0.3841935E+03  0.7957747E-01  0.3433100E+00
         13   -1    0    0    0    0  0.00000000000E+00  0.00000000000E+00  0.14999999963E+04  0.15000000000E+04  0.10566000000E+00 0.  1.
        994   -1    0    0    0    0 -0.00000000000E+00 -0.00000000000E+00  0.11368683772E-12  0.17120000000E+03  0.17120000000E+03 0.  0.
         13    1    1    2    0    0  0.15120703479E+02  0.89279944193E+01  0.79505787785E+02  0.81421902541E+02  0.10566000000E+00 0.  1.
        994    1    1    2    0    0 -0.47398761874E+01  0.14514575411E+01  0.21120979386E+01  0.17128477490E+03  0.17120000000E+03 0.  0.
        998    1    1    2    0    0 -0.10380827291E+02 -0.10379451960E+02  0.14183821106E+04  0.14184933226E+04  0.10000000000E+02 0.  1.
</event>
<event>
 5    1  0.1607440E-008  0.3833543E+03  0.7957747E-01  0.3436682E+00
         13   -1    0    0    0    0  0.00000000000E+00  0.00000000000E+00  0.14999999963E+04  0.15000000000E+04  0.10566000000E+00 0.  1.
        994   -1    0    0    0    0 -0.00000000000E+00 -0.00000000000E+00  0.11368683772E-12  0.17120000000E+03  0.17120000000E+03 0.  0.
         13    1    1    2    0    0  0.52974160963E+01 -0.13553990457E+02  0.41233000171E+02  0.43725790350E+02  0.10566000000E+00 0.  1.
        994    1    1    2    0    0  0.91733817905E+00  0.18571246864E+02  0.35933247853E+01  0.17224425884E+03  0.17120000000E+03 0.  0.
        998    1    1    2    0    0 -0.62147542754E+01 -0.50172564072E+01  0.14551736713E+04  0.14552299508E+04  0.10000000000E+02 0.  1.
</event>
<event>
 5    1  0.1607440E-008  0.3858682E+03  0.7957747E-01  0.3425998E+00
         13   -1    0    0    0    0  0.00000000000E+00  0.00000000000E+00  0.14999999963E+04  0.15000000000E+04  0.10566000000E+00 0.  1.
        994   -1    0    0    0    0 -0.00000000000E+00 -0.00000000000E+00  0.11368683772E-12  0.17120000000E+03  0.17120000000E+03 0.  0.
         13    1    1    2    0    0 -0.10712995114E+02 -0.41981541176E+01  0.57097541941E+02  0.58245456665E+02  0.10566000000E+00 0.  1.
        994    1    1    2    0    0  0.71212584770E+00  0.98875847614E+01  0.15220433564E+01  0.17149352195E+03  0.17120000000E+03 0.  0.
        998    1    1    2    0    0  0.10000869266E+02 -0.56894306439E+01  0.14413804110E+04  0.14414610214E+04  0.10000000000E+02 0.  1.
</event>
<event>
 5    1  0.1607440E-008  0.3858323E+03  0.7957747E-01  0.3426150E+00
         13   -1    0    0    0    0  0.00000000000E+00  0.00000000000E+00  0.14999999963E+04  0.15000000000E+04  0.10566000000E+00 0.  1.
        994   -1    0    0    0    0 -0.00000000000E+00 -0.00000000000E+00  0.11368683772E-12  0.17120000000E+03  0.17120000000E+03 0.  0.
         13    1    1    2    0    0 -0.75210007136E+00  0.10687705249E+02  0.41695657739E+02  0.43050339561E+02  0.10566000000E+00 0.  1.
        994    1    1    2    0    0  0.47249612071E+02 -0.28915105245E+02  0.11347304811E+02  0.18029645165E+03  0.17120000000E+03 0.  0.
        998    1    1    2    0    0 -0.46497512000E+02  0.18227399996E+02  0.14469570337E+04  0.14478532088E+04  0.10000000000E+02 0.  1.
</event>
<event>
 5    1  0.1607440E-008  0.2562835E+03  0.7957747E-01  0.4267835E+00
         13   -1    0    0    0    0  0.00000000000E+00  0.00000000000E+00  0.14999999963E+04  0.15000000000E+04  0.10566000000E+00 0.  1.
        994   -1    0    0    0    0 -0.00000000000E+00 -0.00000000000E+00  0.11368683772E-12  0.17120000000E+03  0.17120000000E+03 0.  0.
         13    1    1    2    0    0 -0.15328066887E+03 -0.97282467327E+02  0.29710298722E+03  0.34817960606E+03  0.10566000000E+00 0.  1.
        994    1    1    2    0    0  0.15250631087E+03  0.10069546983E+03  0.20109969778E+03  0.32116706080E+03  0.17120000000E+03 0.  0.
        998    1    1    2    0    0  0.77435799955E+00 -0.34130025021E+01  0.10017973113E+04  0.10018533331E+04  0.10000000000E+02 0.  1.
</event>
<event>
 5    1  0.1607440E-008  0.3809837E+03  0.7957747E-01  0.3446886E+00
         13   -1    0    0    0    0  0.00000000000E+00  0.00000000000E+00  0.14999999963E+04  0.15000000000E+04  0.10566000000E+00 0.  1.
        994   -1    0    0    0    0 -0.00000000000E+00 -0.00000000000E+00  0.11368683772E-12  0.17120000000E+03  0.17120000000E+03 0.  0.
         13    1    1    2    0    0  0.68738805187E+01  0.15879138075E+02  0.39141818307E+02  0.42795915270E+02  0.10566000000E+00 0.  1.
        994    1    1    2    0    0 -0.46160678207E+01 -0.15696559407E+02  0.45298621676E+01  0.17203967482E+03  0.17120000000E+03 0.  0.
        998    1    1    2    0    0 -0.22578126980E+01 -0.18257866719E+00  0.14563283158E+04  0.14563644099E+04  0.10000000000E+02 0.  1.
</event>
<event>
 5    1  0.1607440E-008  0.3852109E+03  0.7957747E-01  0.3428778E+00
         13   -1    0    0    0    0  0.00000000000E+00  0.00000000000E+00  0.14999999963E+04  0.15000000000E+04  0.10566000000E+00 0.  1.
        994   -1    0    0    0    0 -0.00000000000E+00 -0.00000000000E+00  0.11368683772E-12  0.17120000000E+03  0.17120000000E+03 0.  0.
         13    1    1    2    0    0  0.31094037582E+01  0.15975548437E+02  0.94472657130E+02  0.95864386760E+02  0.10566000000E+00 0.  1.
        994    1    1    2    0    0  0.66496543986E+01 -0.16383745892E+01  0.16796253860E+01  0.17134515843E+03  0.17120000000E+03 0.  0.
        998    1    1    2    0    0 -0.97590581569E+01 -0.14337173848E+02  0.14038477138E+04  0.14039904548E+04  0.10000000000E+02 0.  1.
</event>
<event>
 5    1  0.1607440E-008  0.3815355E+03  0.7957747E-01  0.3444500E+00
         13   -1    0    0    0    0  0.00000000000E+00  0.00000000000E+00  0.14999999963E+04  0.15000000000E+04  0.10566000000E+00 0.  1.
        994   -1    0    0    0    0 -0.00000000000E+00 -0.00000000000E+00  0.11368683772E-12  0.17120000000E+03  0.17120000000E+03 0.  0.
         13    1    1    2    0    0  0.46703313125E+01  0.17888608891E+02  0.49154626573E+02  0.52516690682E+02  0.10566000000E+00 0.  1.
        994    1    1    2    0    0 -0.64706354308E+00 -0.15095708752E+02  0.41197484043E+01  0.17191483776E+03  0.17120000000E+03 0.  0.
        998    1    1    2    0    0 -0.40232677694E+01 -0.27929001392E+01  0.14467256213E+04  0.14467684716E+04  0.10000000000E+02 0.  1.
</event>
<event>
 5    1  0.1607440E-008  0.3814648E+03  0.7957747E-01  0.3444805E+00
         13   -1    0    0    0    0  0.00000000000E+00  0.00000000000E+00  0.14999999963E+04  0.15000000000E+04  0.10566000000E+00 0. -1.
        994   -1    0    0    0    0 -0.00000000000E+00 -0.00000000000E+00  0.11368683772E-12  0.17120000000E+03  0.17120000000E+03 0.  0.
         13    1    1    2    0    0  0.98091594019E+01 -0.52597196932E+01  0.16648036747E+02  0.20026296487E+02  0.10566000000E+00 0. -1.
        994    1    1    2    0    0 -0.12091092599E+02  0.32138291528E+01  0.39164253277E+01  0.17170119861E+03  0.17120000000E+03 0.  0.
        998    1    1    2    0    0  0.22819331970E+01  0.20458905404E+01  0.14794355342E+04  0.14794725049E+04  0.10000000000E+02 0. -1.
</event>
<event>
 5    1  0.1607440E-008  0.3813924E+03  0.7957747E-01  0.3445118E+00
         13   -1    0    0    0    0  0.00000000000E+00  0.00000000000E+00  0.14999999963E+04  0.15000000000E+04  0.10566000000E+00 0. -1.
        994   -1    0    0    0    0 -0.00000000000E+00 -0.00000000000E+00  0.11368683772E-12  0.17120000000E+03  0.17120000000E+03 0.  0.
         13    1    1    2    0    0  0.13952557248E+03  0.10150159987E+02  0.48275550620E+03  0.50261645522E+03  0.10566000000E+00 0. -1.
        994    1    1    2    0    0 -0.10429348183E+03 -0.27097031135E+02  0.60716155180E+02  0.21120433459E+03  0.17120000000E+03 0.  0.
        998    1    1    2    0    0 -0.35232090655E+02  0.16946871149E+02  0.95652833490E+03  0.95737921020E+03  0.10000000000E+02 0. -1.
</event>
<event>
 5    1  0.1607440E-008  0.3834117E+03  0.7957747E-01  0.3436436E+00
         13   -1    0    0    0    0  0.00000000000E+00  0.00000000000E+00  0.14999999963E+04  0.15000000000E+04  0.10566000000E+00 0.  1.
        994   -1    0    0    0    0 -0.00000000000E+00 -0.00000000000E+00  0.11368683772E-12  0.17120000000E+03  0.17120000000E+03 0.  0.
         13    1    1    2    0    0  0.19525788458E+02 -0.11727971536E+02  0.10604808261E+03  0.10846662492E+03  0.10566000000E+00 0.  1.
        994    1    1    2    0    0 -0.13152278832E+02  0.67889427201E+01  0.31452659695E+01  0.17186740494E+03  0.17120000000E+03 0.  0.
        998    1    1    2    0    0 -0.63735096265E+01  0.49390288158E+01  0.13908066477E+04  0.13908659701E+04  0.10000000000E+02 0.  1.
</event>
<event>
 5    1  0.1607440E-008  0.3702120E+03  0.7957747E-01  0.3494917E+00
         13   -1    0    0    0    0  0.00000000000E+00  0.00000000000E+00  0.14999999963E+04  0.15000000000E+04  0.10566000000E+00 0. -1.
        994   -1    0    0    0    0 -0.00000000000E+00 -0.00000000000E+00  0.11368683772E-12  0.17120000000E+03  0.17120000000E+03 0.  0.
         13    1    1    2    0    0  0.30637142652E+02 -0.23008208715E+02  0.66067616772E+02  0.76373773824E+02  0.10566000000E+00 0. -1.
        994    1    1    2    0    0 -0.22360679688E+00  0.97094141860E+01  0.11381041539E+02  0.17185252640E+03  0.17120000000E+03 0.  0.
        998    1    1    2    0    0 -0.30413535855E+02  0.13298794529E+02  0.14225513380E+04  0.14229736998E+04  0.10000000000E+02 0. -1.
</event>
<event>
 5    1  0.1607440E-008  0.3791540E+03  0.7957747E-01  0.3454850E+00
         13   -1    0    0    0    0  0.00000000000E+00  0.00000000000E+00  0.14999999963E+04  0.15000000000E+04  0.10566000000E+00 0. -1.
        994   -1    0    0    0    0 -0.00000000000E+00 -0.00000000000E+00  0.11368683772E-12  0.17120000000E+03  0.17120000000E+03 0.  0.
         13    1    1    2    0    0  0.26314164087E+02  0.14453626396E+02  0.97293070350E+02  0.10181991578E+03  0.10566000000E+00 0. -1.
        994    1    1    2    0    0 -0.16906436919E+02 -0.69077543904E+01  0.56797244306E+01  0.17226503984E+03  0.17120000000E+03 0.  0.
        998    1    1    2    0    0 -0.94077271684E+01 -0.75458720057E+01  0.13970272015E+04  0.13971150444E+04  0.10000000000E+02 0. -1.
</event>
<event>
 5    1  0.1607440E-008  0.2977507E+03  0.7957747E-01  0.3912209E+00
         13   -1    0    0    0    0  0.00000000000E+00  0.00000000000E+00  0.14999999963E+04  0.15000000000E+04  0.10566000000E+00 0.  1.
        994   -1    0    0    0    0 -0.00000000000E+00 -0.00000000000E+00  0.11368683772E-12  0.17120000000E+03  0.17120000000E+03 0.  0.
         13    1    1    2    0    0 -0.20529203185E+03  0.15118055641E+02  0.68877496347E+03  0.71887713513E+03  0.10566000000E+00 0.  1.
        994    1    1    2    0    0  0.14355839753E+03  0.79694517858E+01  0.11222799578E+03  0.25015412989E+03  0.17120000000E+03 0.  0.
        998    1    1    2    0    0  0.61733634322E+02 -0.23087507427E+02  0.69899703703E+03  0.70216873498E+03  0.10000000000E+02 0.  1.
</event>
<event>
 5    1  0.1607440E-008  0.3829540E+03  0.7957747E-01  0.3438396E+00
         13   -1    0    0    0    0  0.00000000000E+00  0.00000000000E+00  0.14999999963E+04  0.15000000000E+04  0.10566000000E+00 0.  1.
        994   -1    0    0    0    0 -0.00000000000E+00 -0.00000000000E+00  0.11368683772E-12  0.17120000000E+03  0.17120000000E+03 0.  0.
         13    1    1    2    0    0 -0.12172242894E+02 -0.10794170149E+02  0.47973243929E+02  0.50656893937E+02  0.10566000000E+00 0.  1.
        994    1    1    2    0    0  0.12314264336E+02  0.10564228112E+02  0.35213401485E+01  0.17200315072E+03  0.17120000000E+03 0.  0.
        998    1    1    2    0    0 -0.14202144179E+00  0.22994203676E+00  0.14485054122E+04  0.14485399553E+04  0.10000000000E+02 0.  0.
</event>
<event>
 5    1  0.1607440E-008  0.3764076E+03  0.7957747E-01  0.3466951E+00
         13   -1    0    0    0    0  0.00000000000E+00  0.00000000000E+00  0.14999999963E+04  0.15000000000E+04  0.10566000000E+00 0.  1.
        994   -1    0    0    0    0 -0.00000000000E+00 -0.00000000000E+00  0.11368683772E-12  0.17120000000E+03  0.17120000000E+03 0.  0.
         13    1    1    2    0    0 -0.14874231776E+01  0.26387789150E+02  0.54600763980E+02  0.60661210300E+02  0.10566000000E+00 0.  1.
        994    1    1    2    0    0 -0.15583594045E+01 -0.26490141334E+02  0.83435924492E+01  0.17344512564E+03  0.17120000000E+03 0.  0.
        998    1    1    2    0    0  0.30457825821E+01  0.10235218425E+00  0.14370556398E+04  0.14370936641E+04  0.10000000000E+02 0.  1.
</event>
<event>
 5    1  0.1607440E-008  0.3851163E+03  0.7957747E-01  0.3429179E+00
         13   -1    0    0    0    0  0.00000000000E+00  0.00000000000E+00  0.14999999963E+04  0.15000000000E+04  0.10566000000E+00 0. -1.
        994   -1    0    0    0    0 -0.00000000000E+00 -0.00000000000E+00  0.11368683772E-12  0.17120000000E+03  0.17120000000E+03 0.  0.
         13    1    1    2    0    0 -0.10557617576E+02  0.52830309063E+00  0.35562434603E+02  0.37100408514E+02  0.10566000000E+00 0. -1.
        994    1    1    2    0    0  0.65926053129E+01  0.56114807521E+01  0.18188243046E+01  0.17142840862E+03  0.17120000000E+03 0.  0.
        998    1    1    2    0    0  0.39650122627E+01 -0.61397838427E+01  0.14626187374E+04  0.14626711829E+04  0.10000000000E+02 0. -1.
</event>
<event>
 5    1  0.1607440E-008  0.3852243E+03  0.7957747E-01  0.3428722E+00
         13   -1    0    0    0    0  0.00000000000E+00  0.00000000000E+00  0.14999999963E+04  0.15000000000E+04  0.10566000000E+00 0. -1.
        994   -1    0    0    0    0 -0.00000000000E+00 -0.00000000000E+00  0.11368683772E-12  0.17120000000E+03  0.17120000000E+03 0.  0.
         13    1    1    2    0    0 -0.54044728925E+01  0.11159361648E+02  0.49601288314E+02  0.51127670063E+02  0.10566000000E+00 0. -1.
        994    1    1    2    0    0  0.93253750698E+01 -0.88876921697E+01  0.20643934388E+01  0.17169640477E+03  0.17120000000E+03 0.  0.
        998    1    1    2    0    0 -0.39209021773E+01 -0.22716694784E+01  0.14483343145E+04  0.14483759252E+04  0.10000000000E+02 0. -1.
</event>
<event>
 5    1  0.1607440E-008  0.3863040E+03  0.7957747E-01  0.3424161E+00
         13   -1    0    0    0    0  0.00000000000E+00  0.00000000000E+00  0.14999999963E+04  0.15000000000E+04  0.10566000000E+00 0.  1.
        994   -1    0    0    0    0 -0.00000000000E+00 -0.00000000000E+00  0.11368683772E-12  0.17120000000E+03  0.17120000000E+03 0.  0.
         13    1    1    2    0    0 -0.83241529592E+01 -0.72350574932E+01  0.57561008716E+02  0.58608177483E+02  0.10566000000E+00 0.  1.
        994    1    1    2    0    0  0.20018439316E+02  0.64050808484E+01  0.24321250604E+01  0.17250251652E+03  0.17120000000E+03 0.  0.
        998    1    1    2    0    0 -0.11694286357E+02  0.82997664478E+00  0.14400068625E+04  0.14400893060E+04  0.10000000000E+02 0.  1.
</event>
<event>
 5    1  0.1607440E-008  0.3820766E+03  0.7957747E-01  0.3442166E+00
         13   -1    0    0    0    0  0.00000000000E+00  0.00000000000E+00  0.14999999963E+04  0.15000000000E+04  0.10566000000E+00 0. -1.
        994   -1    0    0    0    0 -0.00000000000E+00 -0.00000000000E+00  0.11368683772E-12  0.17120000000E+03  0.17120000000E+03 0.  0.
         13    1    1    2    0    0 -0.40837961698E+02 -0.11773597722E+01  0.24307372222E+03  0.24648320610E+03  0.10566000000E+00 0. -1.
        994    1    1    2    0    0  0.34397237907E+02  0.33487652518E+01  0.70642093935E+01  0.17479624498E+03  0.17120000000E+03 0.  0.
        998    1    1    2    0    0  0.64407237910E+01 -0.21714054796E+01  0.12498620647E+04  0.12499205489E+04  0.10000000000E+02 0.  0.
</event>
<event>
 5    1  0.1607440E-008  0.3839873E+03  0.7957747E-01  0.3433979E+00
         13   -1    0    0    0    0  0.00000000000E+00  0.00000000000E+00  0.14999999963E+04  0.15000000000E+04  0.10566000000E+00 0. -1.
        994   -1    0    0    0    0 -0.00000000000E+00 -0.00000000000E+00  0.11368683772E-12  0.17120000000E+03  0.17120000000E+03 0.  0.
         13    1    1    2    0    0  0.43680913641E-01  0.11075097951E+02  0.28056965581E+02  0.30163955051E+02  0.10566000000E+00 0. -1.
        994    1    1    2    0    0  0.28177460206E+01 -0.82973515076E+01  0.23871510790E+01  0.17144073094E+03  0.17120000000E+03 0.  0.
        998    1    1    2    0    0 -0.28614269342E+01 -0.27777464432E+01  0.14695558796E+04  0.14695953140E+04  0.10000000000E+02 0. -1.
</event>
<event>
 5    1  0.1607440E-008  0.3719351E+03  0.7957747E-01  0.3487045E+00
         13   -1    0    0    0    0  0.00000000000E+00  0.00000000000E+00  0.14999999963E+04  0.15000000000E+04  0.10566000000E+00 0. -1.
        994   -1    0    0    0    0 -0.00000000000E+00 -0.00000000000E+00  0.11368683772E-12  0.17120000000E+03  0.17120000000E+03 0.  0.
         13    1    1    2    0    0 -0.52479013228E+02  0.34845472502E+02  0.24452068290E+03  0.25250471147E+03  0.10566000000E+00 0. -1.
        994    1    1    2    0    0  0.31508629994E+02 -0.10067394272E+02  0.12028489055E+02  0.17478063606E+03  0.17120000000E+03 0.  0.
        998    1    1    2    0    0  0.20970383233E+02 -0.24778078230E+02  0.12434508243E+04  0.12439146525E+04  0.10000000000E+02 0. -1.
</event>
<event>
 5    1  0.1607440E-008  0.3685662E+03  0.7957747E-01  0.3502506E+00
         13   -1    0    0    0    0  0.00000000000E+00  0.00000000000E+00  0.14999999963E+04  0.15000000000E+04  0.10566000000E+00 0. -1.
        994   -1    0    0    0    0 -0.00000000000E+00 -0.00000000000E+00  0.11368683772E-12  0.17120000000E+03  0.17120000000E+03 0.  0.
         13    1    1    2    0    0  0.18537699951E+02 -0.28187660184E+02  0.51323067222E+02  0.61418717825E+02  0.10566000000E+00 0. -1.
        994    1    1    2    0    0  0.27021480007E+02  0.49240617093E+02  0.21238454791E+02  0.18142577192E+03  0.17120000000E+03 0.  0.
        998    1    1    2    0    0 -0.45559179958E+02 -0.21052956909E+02  0.14274384743E+04  0.14283555103E+04  0.10000000000E+02 0. -1.
</event>
<event>
 5    1  0.1607440E-008  0.3837046E+03  0.7957747E-01  0.3435185E+00
         13   -1    0    0    0    0  0.00000000000E+00  0.00000000000E+00  0.14999999963E+04  0.15000000000E+04  0.10566000000E+00 0.  1.
        994   -1    0    0    0    0 -0.00000000000E+00 -0.00000000000E+00  0.11368683772E-12  0.17120000000E+03  0.17120000000E+03 0.  0.
         13    1    1    2    0    0  0.79768615534E+01  0.93134013491E+01  0.32513469698E+02  0.34749196261E+02  0.10566000000E+00 0.  1.
        994    1    1    2    0    0 -0.44070278221E+01 -0.59438998871E+01  0.24554989298E+01  0.17137742359E+03  0.17120000000E+03 0.  0.
        998    1    1    2    0    0 -0.35698337313E+01 -0.33695014620E+01  0.14650310277E+04  0.14650733802E+04  0.10000000000E+02 0.  1.
</event>
<event>
 5    1  0.1607440E-008  0.3795199E+03  0.7957747E-01  0.3453252E+00
         13   -1    0    0    0    0  0.00000000000E+00  0.00000000000E+00  0.14999999963E+04  0.15000000000E+04  0.10566000000E+00 0. -1.
        994   -1    0    0    0    0 -0.00000000000E+00 -0.00000000000E+00  0.11368683772E-12  0.17120000000E+03  0.17120000000E+03 0.  0.
         13    1    1    2    0    0 -0.43240346192E+01  0.18283713716E+02  0.41143947410E+02  0.45230819528E+02  0.10566000000E+00 0. -1.
        994    1    1    2    0    0 -0.66959019380E+00  0.59820640147E+01  0.44970418823E+01  0.17136480627E+03  0.17120000000E+03 0.  0.
        998    1    1    2    0    0  0.49936248130E+01 -0.24265777731E+02  0.14543590070E+04  0.14546043742E+04  0.10000000000E+02 0. -1.
</event>
<event>
 5    1  0.2343000E-008  0.3862845E+03  0.7957747E-01  0.3424243E+00
         13   -1    0    0    0    0  0.00000000000E+00  0.00000000000E+00  0.14999999963E+04  0.15000000000E+04  0.10566000000E+00 0.  1.
        994   -1    0    0    0    0 -0.00000000000E+00 -0.00000000000E+00  0.11368683772E-12  0.17120000000E+03  0.17120000000E+03 0.  0.
         13    1    1    2    0    0  0.94168328642E+01 -0.65246742581E+01  0.67184562925E+02  0.68154418601E+02  0.10566000000E+00 0.  1.
        994    1    1    2    0    0 -0.86600609236E+01  0.84365646275E+00  0.12417156622E+01  0.17142546564E+03  0.17120000000E+03 0.  0.
        998    1    1    2    0    0 -0.75677194058E+00  0.56810177954E+01  0.14315737177E+04  0.14316201158E+04  0.10000000000E+02 0.  1.
</event>
<event>
 5    1  0.1607440E-008  0.3763176E+03  0.7957747E-01  0.3467351E+00
         13   -1    0    0    0    0  0.00000000000E+00  0.00000000000E+00  0.14999999963E+04  0.15000000000E+04  0.10566000000E+00 0. -1.
        994   -1    0    0    0    0 -0.00000000000E+00 -0.00000000000E+00  0.11368683772E-12  0.17120000000E+03  0.17120000000E+03 0.  0.
         13    1    1    2    0    0 -0.18771327257E+02  0.21109749502E+02  0.62317308063E+02  0.68421066196E+02  0.10566000000E+00 0. -1.
        994    1    1    2    0    0  0.18515347723E+02 -0.18830969684E+02  0.83674404103E+01  0.17342686522E+03  0.17120000000E+03 0.  0.
        998    1    1    2    0    0  0.25597953352E+00 -0.22787798187E+01  0.14293152478E+04  0.14293520686E+04  0.10000000000E+02 0. -1.
</event>
<event>
 5    1  0.1607440E-008  0.3793227E+03  0.7957747E-01  0.3454113E+00
         13   -1    0    0    0    0  0.00000000000E+00  0.00000000000E+00  0.14999999963E+04  0.15000000000E+04  0.10566000000E+00 0.  1.
        994   -1    0    0    0    0 -0.00000000000E+00 -0.00000000000E+00  0.11368683772E-12  0.17120000000E+03  0.17120000000E+03 0.  0.
         13    1    1    2    0    0 -0.15734290413E+02  0.12025146506E+02  0.43105386807E+02  0.47436879947E+02  0.10566000000E+00 0.  1.
        994    1    1    2    0    0  0.34216548959E+01 -0.56735232254E+01  0.46225006015E+01  0.17139050178E+03  0.17120000000E+03 0.  0.
        998    1    1    2    0    0  0.12312635517E+02 -0.63516232809E+01  0.14522721089E+04  0.14523726183E+04  0.10000000000E+02 0.  1.
</event>
<event>
 5    1  0.1607440E-008  0.3832187E+03  0.7957747E-01  0.3437262E+00
         13   -1    0    0    0    0  0.00000000000E+00  0.00000000000E+00  0.14999999963E+04  0.15000000000E+04  0.10566000000E+00 0. -1.
        994   -1    0    0    0    0 -0.00000000000E+00 -0.00000000000E+00  0.11368683772E-12  0.17120000000E+03  0.17120000000E+03 0.  0.
         13    1    1    2    0    0  0.12667546178E+02  0.19131121893E+02  0.11189595498E+03  0.11422426387E+03  0.10566000000E+00 0. -1.
        994    1    1    2    0    0 -0.31494379147E+01 -0.19735310478E+01  0.25628238708E+01  0.17125951609E+03  0.17120000000E+03 0.  0.
        998    1    1    2    0    0 -0.95181082635E+01 -0.17157590845E+02  0.13855412174E+04  0.13857162200E+04  0.10000000000E+02 0. -1.
</event>
<event>
 5    1  0.1607440E-008  0.3732446E+03  0.7957747E-01  0.3481111E+00
         13   -1    0    0    0    0  0.00000000000E+00  0.00000000000E+00  0.14999999963E+04  0.15000000000E+04  0.10566000000E+00 0.  1.
        994   -1    0    0    0    0 -0.00000000000E+00 -0.00000000000E+00  0.11368683772E-12  0.17120000000E+03  0.17120000000E+03 0.  0.
         13    1    1    2    0    0  0.24903851417E+02  0.32066959585E+02  0.10996486010E+03  0.11722104475E+03  0.10566000000E+00 0.  1.
        994    1    1    2    0    0 -0.23677795024E+02 -0.23095192302E+01  0.95206757626E+01  0.17310706260E+03  0.17120000000E+03 0.  0.
        998    1    1    2    0    0 -0.12260563932E+01 -0.29757440355E+02  0.13805144604E+04  0.13808718926E+04  0.10000000000E+02 0.  1.
</event>
<event>
 5    1  0.1607440E-008  0.3761612E+03  0.7957747E-01  0.3468046E+00
         13   -1    0    0    0    0  0.00000000000E+00  0.00000000000E+00  0.14999999963E+04  0.15000000000E+04  0.10566000000E+00 0. -1.
        994   -1    0    0    0    0 -0.00000000000E+00 -0.00000000000E+00  0.11368683772E-12  0.17120000000E+03  0.17120000000E+03 0.  0.
         13    1    1    2    0    0 -0.34082127163E+02  0.75775485686E+01  0.36228053122E+02  0.50313950663E+02  0.10566000000E+00 0. -1.
        994    1    1    2    0    0  0.34357265901E+02 -0.11518543210E+02  0.18940951479E+02  0.17601505106E+03  0.17120000000E+03 0.  0.
        998    1    1    2    0    0 -0.27513873777E+00  0.39409946414E+01  0.14448309917E+04  0.14448709983E+04  0.10000000000E+02 0. -1.
</event>
<event>
 5    1  0.1607440E-008  0.3852128E+03  0.7957747E-01  0.3428770E+00
         13   -1    0    0    0    0  0.00000000000E+00  0.00000000000E+00  0.14999999963E+04  0.15000000000E+04  0.10566000000E+00 0. -1.
        994   -1    0    0    0    0 -0.00000000000E+00 -0.00000000000E+00  0.11368683772E-12  0.17120000000E+03  0.17120000000E+03 0.  0.
         13    1    1    2    0    0  0.12012326548E+02  0.29739673609E+01  0.46560319911E+02  0.48176913819E+02  0.10566000000E+00 0. -1.
        994    1    1    2    0    0 -0.21956356541E+02 -0.39544343277E+01  0.31619392303E+01  0.17267645179E+03  0.17120000000E+03 0.  0.
        998    1    1    2    0    0  0.99440299928E+01  0.98046696681E+00  0.14502777371E+04  0.14503466344E+04  0.10000000000E+02 0. -1.
</event>
<event>
 5    1  0.1607440E-008  0.3761996E+03  0.7957747E-01  0.3467875E+00
         13   -1    0    0    0    0  0.00000000000E+00  0.00000000000E+00  0.14999999963E+04  0.15000000000E+04  0.10566000000E+00 0.  1.
        994   -1    0    0    0    0 -0.00000000000E+00 -0.00000000000E+00  0.11368683772E-12  0.17120000000E+03  0.17120000000E+03 0.  0.
         13    1    1    2    0    0  0.31710543258E+01 -0.10832485045E+02  0.79243102564E+01  0.13791452964E+02  0.10566000000E+00 0.  1.
        994    1    1    2    0    0  0.64061388399E+00 -0.15999144499E+01  0.60740657909E+01  0.17131638680E+03  0.17120000000E+03 0.  0.
        998    1    1    2    0    0 -0.38116682098E+01  0.12432399495E+02  0.14860016202E+04  0.14860921602E+04  0.10000000000E+02 0.  1.
</event>
<event>
 5    1  0.1607440E-008  0.3688887E+03  0.7957747E-01  0.3501014E+00
         13   -1    0    0    0    0  0.00000000000E+00  0.00000000000E+00  0.14999999963E+04  0.15000000000E+04  0.10566000000E+00 0.  1.
        994   -1    0    0    0    0 -0.00000000000E+00 -0.00000000000E+00  0.11368683772E-12  0.17120000000E+03  0.17120000000E+03 0.  0.
         13    1    1    2    0    0  0.15822655197E+03 -0.67775616604E+02  0.72271616600E+03  0.74293192401E+03  0.10566000000E+00 0.  1.
        994    1    1    2    0    0 -0.15431525124E+03  0.65246025216E+02  0.11468819633E+03  0.26558061479E+03  0.17120000000E+03 0.  0.
        998    1    1    2    0    0 -0.39113007323E+01  0.25295913885E+01  0.66259563395E+03  0.66268746120E+03  0.10000000000E+02 0.  0.
</event>
<event>
 5    1  0.1607440E-008  0.3722397E+03  0.7957747E-01  0.3485660E+00
         13   -1    0    0    0    0  0.00000000000E+00  0.00000000000E+00  0.14999999963E+04  0.15000000000E+04  0.10566000000E+00 0.  1.
        994   -1    0    0    0    0 -0.00000000000E+00 -0.00000000000E+00  0.11368683772E-12  0.17120000000E+03  0.17120000000E+03 0.  0.
         13    1    1    2    0    0 -0.18120993860E+02 -0.25193995120E+02  0.56860747509E+02  0.64778573463E+02  0.10566000000E+00 0.  1.
        994    1    1    2    0    0  0.14675271934E+02  0.10850013141E+02  0.92467535456E+01  0.17241818014E+03  0.17120000000E+03 0.  0.
        998    1    1    2    0    0  0.34457219251E+01  0.14343981980E+02  0.14338924952E+04  0.14340032464E+04  0.10000000000E+02 0.  1.
</event>
<event>
 5    1  0.1607440E-008  0.3829790E+03  0.7957747E-01  0.3438289E+00
         13   -1    0    0    0    0  0.00000000000E+00  0.00000000000E+00  0.14999999963E+04  0.15000000000E+04  0.10566000000E+00 0. -1.
        994   -1    0    0    0    0 -0.00000000000E+00 -0.00000000000E+00  0.11368683772E-12  0.17120000000E+03  0.17120000000E+03 0.  0.
         13    1    1    2    0    0  0.31183474205E+02 -0.14187601938E+02  0.20564184597E+03  0.20847608277E+03  0.10566000000E+00 0. -1.
        994    1    1    2    0    0 -0.47904210449E+02 -0.27350602782E+02  0.12775857630E+02  0.18032063495E+03  0.17120000000E+03 0.  0.
        998    1    1    2    0    0  0.16720736244E+02  0.41538204720E+02  0.12815822927E+04  0.12824032823E+04  0.10000000000E+02 0. -1.
</event>
<event>
 5    1  0.1607440E-008  0.3848958E+03  0.7957747E-01  0.3430114E+00
         13   -1    0    0    0    0  0.00000000000E+00  0.00000000000E+00  0.14999999963E+04  0.15000000000E+04  0.10566000000E+00 0.  1.
        994   -1    0    0    0    0 -0.00000000000E+00 -0.00000000000E+00  0.11368683772E-12  0.17120000000E+03  0.17120000000E+03 0.  0.
         13    1    1    2    0    0 -0.12515469886E+02  0.76040405325E+01  0.63643083188E+02  0.65306290820E+02  0.10566000000E+00 0.  1.
        994    1    1    2    0    0  0.97264430364E+01 -0.29309362596E+01  0.20214188952E+01  0.17151303220E+03  0.17120000000E+03 0.  0.
        998    1    1    2    0    0  0.27890268501E+01 -0.46731042729E+01  0.14343354942E+04  0.14343806770E+04  0.10000000000E+02 0.  1.
</event>
<event>
 5    1  0.1607440E-008  0.3839362E+03  0.7957747E-01  0.3434196E+00
         13   -1    0    0    0    0  0.00000000000E+00  0.00000000000E+00  0.14999999963E+04  0.15000000000E+04  0.10566000000E+00 0.  1.
        994   -1    0    0    0    0 -0.00000000000E+00 -0.00000000000E+00  0.11368683772E-12  0.17120000000E+03  0.17120000000E+03 0.  0.
         13    1    1    2    0    0 -0.11227407338E+02 -0.69401262495E+01  0.38533524197E+02  0.40731605407E+02  0.10566000000E+00 0.  1.
        994    1    1    2    0    0  0.13902463816E+02  0.85495351332E+01  0.30387454607E+01  0.17200304365E+03  0.17120000000E+03 0.  0.
        998    1    1    2    0    0 -0.26750564778E+01 -0.16094088837E+01  0.14584277266E+04  0.14584653509E+04  0.10000000000E+02 0.  1.
</event>
<event>
 5    1  0.1607440E-008  0.3767340E+03  0.7957747E-01  0.3465504E+00
         13   -1    0    0    0    0  0.00000000000E+00  0.00000000000E+00  0.14999999963E+04  0.15000000000E+04  0.10566000000E+00 0. -1.
        994   -1    0    0    0    0 -0.00000000000E+00 -0.00000000000E+00  0.11368683772E-12  0.17120000000E+03  0.17120000000E+03 0.  0.
         13    1    1    2    0    0  0.51740534006E+02 -0.88099304700E-01  0.96455952369E+02  0.10945708078E+03  0.10566000000E+00 0. -1.
        994    1    1    2    0    0 -0.16603975564E+01 -0.54855514739E+02  0.25409099477E+02  0.18156802239E+03  0.17120000000E+03 0.  0.
        998    1    1    2    0    0 -0.50080136449E+02  0.54943614044E+02  0.13781349444E+04  0.13801748968E+04  0.10000000000E+02 0. -1.
</event>
<event>
 5    1  0.1607440E-008  0.3842066E+03  0.7957747E-01  0.3433044E+00
         13   -1    0    0    0    0  0.00000000000E+00  0.00000000000E+00  0.14999999963E+04  0.15000000000E+04  0.10566000000E+00 0. -1.
        994   -1    0    0    0    0 -0.00000000000E+00 -0.00000000000E+00  0.11368683772E-12  0.17120000000E+03  0.17120000000E+03 0.  0.
         13    1    1    2    0    0  0.79315888721E+01 -0.23371827904E+02  0.13481612302E+03  0.13705674238E+03  0.10566000000E+00 0. -1.
        994    1    1    2    0    0 -0.23969421986E+02  0.22110392622E+02  0.55386049258E+01  0.17436604829E+03  0.17120000000E+03 0.  0.
        998    1    1    2    0    0  0.16037833114E+02  0.12614352822E+01  0.13596452683E+04  0.13597772093E+04  0.10000000000E+02 0. -1.
</event>
<event>
 5    1  0.1607440E-008  0.3789498E+03  0.7957747E-01  0.3455744E+00
         13   -1    0    0    0    0  0.00000000000E+00  0.00000000000E+00  0.14999999963E+04  0.15000000000E+04  0.10566000000E+00 0.  1.
        994   -1    0    0    0    0 -0.00000000000E+00 -0.00000000000E+00  0.11368683772E-12  0.17120000000E+03  0.17120000000E+03 0.  0.
         13    1    1    2    0    0  0.77589744431E+02  0.52945616803E+02  0.29356969230E+03  0.30823137767E+03  0.10566000000E+00 0.  1.
        994    1    1    2    0    0 -0.44759589973E+02 -0.12937616139E+02  0.23628818879E+02  0.17899319509E+03  0.17120000000E+03 0.  0.
        998    1    1    2    0    0 -0.32830154459E+02 -0.40008000664E+02  0.11828014851E+04  0.11839754272E+04  0.10000000000E+02 0.  1.
</event>
<event>
 5    1  0.1607440E-008  0.3808612E+03  0.7957747E-01  0.3447417E+00
         13   -1    0    0    0    0  0.00000000000E+00  0.00000000000E+00  0.14999999963E+04  0.15000000000E+04  0.10566000000E+00 0. -1.
        994   -1    0    0    0    0 -0.00000000000E+00 -0.00000000000E+00  0.11368683772E-12  0.17120000000E+03  0.17120000000E+03 0.  0.
         13    1    1    2    0    0 -0.12257455779E+02  0.10744382293E+02  0.34611440860E+02  0.38257678647E+02  0.10566000000E+00 0. -1.
        994    1    1    2    0    0  0.78445395726E+01 -0.63297269551E+01  0.40377852584E+01  0.17154400588E+03  0.17120000000E+03 0.  0.
        998    1    1    2    0    0  0.44129162067E+01 -0.44146553378E+01  0.14613507702E+04  0.14613983155E+04  0.10000000000E+02 0. -1.
</event>
<event>
 5    1  0.1607440E-008  0.3838407E+03  0.7957747E-01  0.3434604E+00
         13   -1    0    0    0    0  0.00000000000E+00  0.00000000000E+00  0.14999999963E+04  0.15000000000E+04  0.10566000000E+00 0.  1.
        994   -1    0    0    0    0 -0.00000000000E+00 -0.00000000000E+00  0.11368683772E-12  0.17120000000E+03  0.17120000000E+03 0.  0.
         13    1    1    2    0    0  0.57250029445E+01 -0.10707228230E+02  0.33326775277E+02  0.35469783049E+02  0.10566000000E+00 0.  1.
        994    1    1    2    0    0 -0.45899197330E+01  0.23282957379E+01  0.22942668914E+01  0.17129270850E+03  0.17120000000E+03 0.  0.
        998    1    1    2    0    0 -0.11350832115E+01  0.83789324923E+01  0.14643789541E+04  0.14644375085E+04  0.10000000000E+02 0.  1.
</event>
<event>
 5    1  0.1607440E-008  0.3855957E+03  0.7957747E-01  0.3427150E+00
         13   -1    0    0    0    0  0.00000000000E+00  0.00000000000E+00  0.14999999963E+04  0.15000000000E+04  0.10566000000E+00 0. -1.
        994   -1    0    0    0    0 -0.00000000000E+00 -0.00000000000E+00  0.11368683772E-12  0.17120000000E+03  0.17120000000E+03 0.  0.
         13    1    1    2    0    0  0.10775123011E+02 -0.27808035770E+01  0.48944032281E+02  0.50193282462E+02  0.10566000000E+00 0. -1.
        994    1    1    2    0    0  0.29587832412E+01  0.10414166366E+02  0.17195059808E+01  0.17155059300E+03  0.17120000000E+03 0.  0.
        998    1    1    2    0    0 -0.13733906252E+02 -0.76333627888E+01  0.14493364580E+04  0.14494561245E+04  0.10000000000E+02 0. -1.
</event>
<event>
 5    1  0.1607440E-008  0.3758726E+03  0.7957747E-01  0.3469329E+00
         13   -1    0    0    0    0  0.00000000000E+00  0.00000000000E+00  0.14999999963E+04  0.15000000000E+04  0.10566000000E+00 0. -1.
        994   -1    0    0    0    0 -0.00000000000E+00 -0.00000000000E+00  0.11368683772E-12  0.17120000000E+03  0.17120000000E+03 0.  0.
         13    1    1    2    0    0 -0.92429613861E+01 -0.13132915704E+03  0.77296513381E+03  0.78409686205E+03  0.10566000000E+00 0. -1.
        994    1    1    2    0    0  0.83314034756E+01  0.11988241401E+03  0.56862624347E+02  0.21675793762E+03  0.17120000000E+03 0.  0.
        998    1    1    2    0    0  0.91155791049E+00  0.11446743027E+02  0.67017223812E+03  0.67034520033E+03  0.10000000000E+02 0.  0.
</event>
<event>
 5    1  0.1607440E-008  0.3856692E+03  0.7957747E-01  0.3426839E+00
         13   -1    0    0    0    0  0.00000000000E+00  0.00000000000E+00  0.14999999963E+04  0.15000000000E+04  0.10566000000E+00 0. -1.
        994   -1    0    0    0    0 -0.00000000000E+00 -0.00000000000E+00  0.11368683772E-12  0.17120000000E+03  0.17120000000E+03 0.  0.
         13    1    1    2    0    0 -0.92559485382E+01  0.79357031903E+01  0.55988910099E+02  0.57301109819E+02  0.10566000000E+00 0. -1.
        994    1    1    2    0    0  0.72162140522E+01 -0.11005396175E+02  0.18667974204E+01  0.17171522187E+03  0.17120000000E+03 0.  0.
        998    1    1    2    0    0  0.20397344860E+01  0.30696929849E+01  0.14421442888E+04  0.14421836683E+04  0.10000000000E+02 0. -1.
</event>
<event>
 5    1  0.1607440E-008  0.3849002E+03  0.7957747E-01  0.3430095E+00
         13   -1    0    0    0    0  0.00000000000E+00  0.00000000000E+00  0.14999999963E+04  0.15000000000E+04  0.10566000000E+00 0.  1.
        994   -1    0    0    0    0 -0.00000000000E+00 -0.00000000000E+00  0.11368683772E-12  0.17120000000E+03  0.17120000000E+03 0.  0.
         13    1    1    2    0    0  0.10912862878E+02 -0.59715739985E+01  0.42862711589E+02  0.44631530122E+02  0.10566000000E+00 0.  1.
        994    1    1    2    0    0 -0.30969903097E+02 -0.98975863224E+01  0.51649747443E+01  0.17433649669E+03  0.17120000000E+03 0.  0.
        998    1    1    2    0    0  0.20057040219E+02  0.15869160321E+02  0.14519723099E+04  0.14522319732E+04  0.10000000000E+02 0.  1.
</event>
<event>
 5    1  0.1607440E-008  0.3781854E+03  0.7957747E-01  0.3459098E+00
         13   -1    0    0    0    0  0.00000000000E+00  0.00000000000E+00  0.14999999963E+04  0.15000000000E+04  0.10566000000E+00 0.  1.
        994   -1    0    0    0    0 -0.00000000000E+00 -0.00000000000E+00  0.11368683772E-12  0.17120000000E+03  0.17120000000E+03 0.  0.
         13    1    1    2    0    0 -0.51513502823E+02  0.15529981142E+02  0.32225757153E+03  0.32671818875E+03  0.10566000000E+00 0.  1.
        994    1    1    2    0    0  0.11192237748E+02 -0.24971914431E+02  0.75745560572E+01  0.17353868905E+03  0.17120000000E+03 0.  0.
        998    1    1    2    0    0  0.40321265075E+02  0.94419332893E+01  0.11701678687E+04  0.11709431222E+04  0.10000000000E+02 0.  1.
</event>
<event>
 5    1  0.1607440E-008  0.3760045E+03  0.7957747E-01  0.3468742E+00
         13   -1    0    0    0    0  0.00000000000E+00  0.00000000000E+00  0.14999999963E+04  0.15000000000E+04  0.10566000000E+00 0. -1.
        994   -1    0    0    0    0 -0.00000000000E+00 -0.00000000000E+00  0.11368683772E-12  0.17120000000E+03  0.17120000000E+03 0.  0.
         13    1    1    2    0    0 -0.63366818432E+02 -0.45998835242E+02  0.44480230357E+03  0.45164183481E+03  0.10566000000E+00 0. -1.
        994    1    1    2    0    0  0.29784933257E+02  0.56635132716E+02  0.20163943923E+02  0.18387687495E+03  0.17120000000E+03 0.  0.
        998    1    1    2    0    0  0.33581885176E+02 -0.10636297474E+02  0.10350337488E+04  0.10356812902E+04  0.10000000000E+02 0. -1.
</event>
<event>
 5    1  0.1607440E-008  0.3755178E+03  0.7957747E-01  0.3470910E+00
         13   -1    0    0    0    0  0.00000000000E+00  0.00000000000E+00  0.14999999963E+04  0.15000000000E+04  0.10566000000E+00 0.  1.
        994   -1    0    0    0    0 -0.00000000000E+00 -0.00000000000E+00  0.11368683772E-12  0.17120000000E+03  0.17120000000E+03 0.  0.
         13    1    1    2    0    0 -0.40245673125E+02 -0.36585938572E+02  0.28085370935E+03  0.28607177828E+03  0.10566000000E+00 0.  1.
        994    1    1    2    0    0  0.95446242764E+01 -0.41103532013E+01  0.67796155858E+01  0.17164905489E+03  0.17120000000E+03 0.  0.
        998    1    1    2    0    0  0.30701048848E+02  0.40696291774E+02  0.12123666713E+04  0.12134791668E+04  0.10000000000E+02 0.  1.
</event>
<event>
 5    1  0.2174687E-008  0.3864792E+03  0.7957747E-01  0.3423423E+00
         13   -1    0    0    0    0  0.00000000000E+00  0.00000000000E+00  0.14999999963E+04  0.15000000000E+04  0.10566000000E+00 0.  1.
        994   -1    0    0    0    0 -0.00000000000E+00 -0.00000000000E+00  0.11368683772E-12  0.17120000000E+03  0.17120000000E+03 0.  0.
         13    1    1    2    0    0  0.87390322514E+01 -0.54190964065E+01  0.56399922795E+02  0.57329745733E+02  0.10566000000E+00 0.  1.
        994    1    1    2    0    0 -0.10766471665E+02  0.11592695599E+02  0.17171965554E+01  0.17193805939E+03  0.17120000000E+03 0.  0.
        998    1    1    2    0    0  0.20274394139E+01 -0.61735991920E+01  0.14418828769E+04  0.14419321949E+04  0.10000000000E+02 0.  1.
</event>
<event>
 5    1  0.1607440E-008  0.3822059E+03  0.7957747E-01  0.3441609E+00
         13   -1    0    0    0    0  0.00000000000E+00  0.00000000000E+00  0.14999999963E+04  0.15000000000E+04  0.10566000000E+00 0. -1.
        994   -1    0    0    0    0 -0.00000000000E+00 -0.00000000000E+00  0.11368683772E-12  0.17120000000E+03  0.17120000000E+03 0.  0.
         13    1    1    2    0    0  0.37875240036E+02  0.52144003217E+01  0.20193228695E+03  0.20551978847E+03  0.10566000000E+00 0. -1.
        994    1    1    2    0    0 -0.41843194505E+02 -0.14240869920E+02  0.95346459975E+01  0.17707062087E+03  0.17120000000E+03 0.  0.
        998    1    1    2    0    0  0.39679544694E+01  0.90264695980E+01  0.12885330633E+04  0.12886095907E+04  0.10000000000E+02 0. -1.
</event>
<event>
 5    1  0.1607440E-008  0.3742396E+03  0.7957747E-01  0.3476630E+00
         13   -1    0    0    0    0  0.00000000000E+00  0.00000000000E+00  0.14999999963E+04  0.15000000000E+04  0.10566000000E+00 0.  1.
        994   -1    0    0    0    0 -0.00000000000E+00 -0.00000000000E+00  0.11368683772E-12  0.17120000000E+03  0.17120000000E+03 0.  0.
         13    1    1    2    0    0 -0.76178534258E+02 -0.64175991468E+02  0.45980193883E+03  0.47046738578E+03  0.10566000000E+00 0.  1.
        994    1    1    2    0    0  0.56391900625E+02  0.97188743732E+02  0.51396886026E+02  0.21113213459E+03  0.17120000000E+03 0.  0.
        998    1    1    2    0    0  0.19786633632E+02 -0.33012752263E+02  0.98880117142E+03  0.98960047963E+03  0.10000000000E+02 0.  1.
</event>
<event>
 5    1  0.1607440E-008  0.3826511E+03  0.7957747E-01  0.3439696E+00
         13   -1    0    0    0    0  0.00000000000E+00  0.00000000000E+00  0.14999999963E+04  0.15000000000E+04  0.10566000000E+00 0. -1.
        994   -1    0    0    0    0 -0.00000000000E+00 -0.00000000000E+00  0.11368683772E-12  0.17120000000E+03  0.17120000000E+03 0.  0.
         13    1    1    2    0    0  0.10044975359E+02 -0.69403215912E+01  0.25977199823E+02  0.28703582850E+02  0.10566000000E+00 0. -1.
        994    1    1    2    0    0 -0.15529576123E+01  0.47731707268E+01  0.28843234727E+01  0.17129785217E+03  0.17120000000E+03 0.  0.
        998    1    1    2    0    0 -0.84920177470E+01  0.21671508644E+01  0.14711384730E+04  0.14711985650E+04  0.10000000000E+02 0. -1.
</event>
<event>
 5    1  0.1607440E-008  0.3793735E+03  0.7957747E-01  0.3453891E+00
         13   -1    0    0    0    0  0.00000000000E+00  0.00000000000E+00  0.14999999963E+04  0.15000000000E+04  0.10566000000E+00 0.  1.
        994   -1    0    0    0    0 -0.00000000000E+00 -0.00000000000E+00  0.11368683772E-12  0.17120000000E+03  0.17120000000E+03 0.  0.
         13    1    1    2    0    0 -0.12407582095E+02  0.73440430963E+01  0.22196201853E+02  0.26468199848E+02  0.10566000000E+00 0.  1.
        994    1    1    2    0    0  0.48610826427E+00  0.39283270112E+01  0.45022084137E+01  0.17130492677E+03  0.17120000000E+03 0.  0.
        998    1    1    2    0    0  0.11921473831E+02 -0.11272370108E+02  0.14733015860E+04  0.14734268734E+04  0.10000000000E+02 0.  1.
</event>
<event>
 5    1  0.1607440E-008  0.3841016E+03  0.7957747E-01  0.3433491E+00
         13   -1    0    0    0    0  0.00000000000E+00  0.00000000000E+00  0.14999999963E+04  0.15000000000E+04  0.10566000000E+00 0.  1.
        994   -1    0    0    0    0 -0.00000000000E+00 -0.00000000000E+00  0.11368683772E-12  0.17120000000E+03  0.17120000000E+03 0.  0.
         13    1    1    2    0    0  0.81332371613E+01  0.20334252528E+02  0.10674652173E+03  0.10897000705E+03  0.10566000000E+00 0.  1.
        994    1    1    2    0    0 -0.69221503595E+01 -0.23232494782E+02  0.40174828671E+01  0.17295445975E+03  0.17120000000E+03 0.  0.
        998    1    1    2    0    0 -0.12110868018E+01  0.28982422537E+01  0.13892359917E+04  0.13892755332E+04  0.10000000000E+02 0.  1.
</event>
<event>
 5    1  0.1607440E-008  0.3844391E+03  0.7957747E-01  0.3432055E+00
         13   -1    0    0    0    0  0.00000000000E+00  0.00000000000E+00  0.14999999963E+04  0.15000000000E+04  0.10566000000E+00 0. -1.
        994   -1    0    0    0    0 -0.00000000000E+00 -0.00000000000E+00  0.11368683772E-12  0.17120000000E+03  0.17120000000E+03 0.  0.
         13    1    1    2    0    0 -0.51900944109E+00 -0.22641498521E+02  0.12197012272E+03  0.12405494277E+03  0.10566000000E+00 0. -1.
        994    1    1    2    0    0  0.41146035305E+01  0.25840113905E+02  0.41677740142E+01  0.17323813607E+03  0.17120000000E+03 0.  0.
        998    1    1    2    0    0 -0.35955940894E+01 -0.31986153841E+01  0.13738620995E+04  0.13739069212E+04  0.10000000000E+02 0. -1.
</event>
<event>
 5    1  0.1607440E-008  0.3860294E+03  0.7957747E-01  0.3425318E+00
         13   -1    0    0    0    0  0.00000000000E+00  0.00000000000E+00  0.14999999963E+04  0.15000000000E+04  0.10566000000E+00 0.  1.
        994   -1    0    0    0    0 -0.00000000000E+00 -0.00000000000E+00  0.11368683772E-12  0.17120000000E+03  0.17120000000E+03 0.  0.
         13    1    1    2    0    0 -0.10997924857E+00 -0.11097957924E+02  0.59332670473E+02  0.60361856458E+02  0.10566000000E+00 0.  1.
        994    1    1    2    0    0  0.78645705455E+01 -0.12229982190E+01  0.13275915749E+01  0.17139005133E+03  0.17120000000E+03 0.  0.
        998    1    1    2    0    0 -0.77545912970E+01  0.12320956143E+02  0.14393397342E+04  0.14394480922E+04  0.10000000000E+02 0.  1.
</event>
<event>
 5    1  0.1607440E-008  0.3828667E+03  0.7957747E-01  0.3438770E+00
         13   -1    0    0    0    0  0.00000000000E+00  0.00000000000E+00  0.14999999963E+04  0.15000000000E+04  0.10566000000E+00 0. -1.
        994   -1    0    0    0    0 -0.00000000000E+00 -0.00000000000E+00  0.11368683772E-12  0.17120000000E+03  0.17120000000E+03 0.  0.
         13    1    1    2    0    0  0.10763564791E+02 -0.15794789571E+02  0.64801019342E+02  0.67561179507E+02  0.10566000000E+00 0. -1.
        994    1    1    2    0    0 -0.82978168943E+01  0.17414123643E+02  0.39261903957E+01  0.17232806051E+03  0.17120000000E+03 0.  0.
        998    1    1    2    0    0 -0.24657478966E+01 -0.16193340724E+01  0.14312727865E+04  0.14313107600E+04  0.10000000000E+02 0. -1.
</event>
<event>
 5    1  0.1607440E-008  0.3814382E+03  0.7957747E-01  0.3444920E+00
         13   -1    0    0    0    0  0.00000000000E+00  0.00000000000E+00  0.14999999963E+04  0.15000000000E+04  0.10566000000E+00 0. -1.
        994   -1    0    0    0    0 -0.00000000000E+00 -0.00000000000E+00  0.11368683772E-12  0.17120000000E+03  0.17120000000E+03 0.  0.
         13    1    1    2    0    0 -0.15071848790E+02  0.12665709767E+02  0.51605755841E+02  0.55233558910E+02  0.10566000000E+00 0. -1.
        994    1    1    2    0    0  0.12599067204E+02 -0.33793900344E+02  0.77487777209E+01  0.17512923157E+03  0.17120000000E+03 0.  0.
        998    1    1    2    0    0  0.24727815861E+01  0.21128190577E+02  0.14406454627E+04  0.14408372095E+04  0.10000000000E+02 0. -1.
</event>
<event>
 5    1  0.1607440E-008  0.3804039E+03  0.7957747E-01  0.3449402E+00
         13   -1    0    0    0    0  0.00000000000E+00  0.00000000000E+00  0.14999999963E+04  0.15000000000E+04  0.10566000000E+00 0.  1.
        994   -1    0    0    0    0 -0.00000000000E+00 -0.00000000000E+00  0.11368683772E-12  0.17120000000E+03  0.17120000000E+03 0.  0.
         13    1    1    2    0    0  0.58766735482E+02 -0.30547029836E+03  0.99350449089E+03  0.10410652319E+04  0.10566000000E+00 0.  1.
        994    1    1    2    0    0 -0.49442826486E+02  0.30533589431E+03  0.45137696907E+03  0.57334562844E+03  0.17120000000E+03 0.  0.
        998    1    1    2    0    0 -0.93239089963E+01  0.13440404661E+00  0.55118536311E+02  0.56789139705E+02  0.10000000000E+02 0.  1.
</event>
<event>
 5    1  0.1607440E-008  0.3968107E+03  0.7957747E-01  0.3381076E+00
         13   -1    0    0    0    0  0.00000000000E+00  0.00000000000E+00  0.14999999963E+04  0.15000000000E+04  0.10566000000E+00 0.  1.
        994   -1    0    0    0    0 -0.00000000000E+00 -0.00000000000E+00  0.11368683772E-12  0.17120000000E+03  0.17120000000E+03 0.  0.
         13    1    1    2    0    0 -0.71036691384E+02  0.41175700934E+02  0.11145913041E+03  0.13843698489E+03  0.10566000000E+00 0.  1.
        994    1    1    2    0    0  0.72699592158E+02 -0.48625887498E+02  0.56104109661E+02  0.20026686884E+03  0.17120000000E+03 0.  0.
        998    1    1    2    0    0 -0.16629007733E+01  0.74501865636E+01  0.13324367562E+04  0.13324961463E+04  0.10000000000E+02 0.  1.
</event>
<event>
 5    1  0.1607440E-008  0.3836829E+03  0.7957747E-01  0.3435277E+00
         13   -1    0    0    0    0  0.00000000000E+00  0.00000000000E+00  0.14999999963E+04  0.15000000000E+04  0.10566000000E+00 0.  1.
        994   -1    0    0    0    0 -0.00000000000E+00 -0.00000000000E+00  0.11368683772E-12  0.17120000000E+03  0.17120000000E+03 0.  0.
         13    1    1    2    0    0 -0.11190147918E+03 -0.70869802834E+02  0.60706500635E+03  0.62134724840E+03  0.10566000000E+00 0.  1.
        994    1    1    2    0    0  0.60097908926E+02  0.58400522431E+00  0.31755917630E+02  0.18420091754E+03  0.17120000000E+03 0.  0.
        998    1    1    2    0    0  0.51803570258E+02  0.70285797610E+02  0.86117907230E+03  0.86565183405E+03  0.10000000000E+02 0.  1.
</event>
<event>
 5    1  0.1607440E-008  0.3790746E+03  0.7957747E-01  0.3455198E+00
         13   -1    0    0    0    0  0.00000000000E+00  0.00000000000E+00  0.14999999963E+04  0.15000000000E+04  0.10566000000E+00 0.  1.
        994   -1    0    0    0    0 -0.00000000000E+00 -0.00000000000E+00  0.11368683772E-12  0.17120000000E+03  0.17120000000E+03 0.  0.
         13    1    1    2    0    0  0.26126913454E+02  0.19347432950E+02  0.11775387192E+03  0.12215942160E+03  0.10566000000E+00 0.  1.
        994    1    1    2    0    0 -0.33030486954E+01 -0.16308992629E+02  0.55300466475E+01  0.17209565592E+03  0.17120000000E+03 0.  0.
        998    1    1    2    0    0 -0.22823864759E+02 -0.30384403202E+01  0.13767160777E+04  0.13769449225E+04  0.10000000000E+02 0.  1.
</event>
<event>
 5    1  0.1607440E-008  0.3852692E+03  0.7957747E-01  0.3428531E+00
         13   -1    0    0    0    0  0.00000000000E+00  0.00000000000E+00  0.14999999963E+04  0.15000000000E+04  0.10566000000E+00 0. -1.
        994   -1    0    0    0    0 -0.00000000000E+00 -0.00000000000E+00  0.11368683772E-12  0.17120000000E+03  0.17120000000E+03 0.  0.
         13    1    1    2    0    0  0.39880246088E+00 -0.13330659575E+02  0.57316979520E+02  0.58848218609E+02  0.10566000000E+00 0. -1.
        994    1    1    2    0    0  0.24523307762E+01  0.15215087369E+02  0.22773580698E+01  0.17190735636E+03  0.17120000000E+03 0.  0.
        998    1    1    2    0    0 -0.28511332371E+01 -0.18844277934E+01  0.14404056587E+04  0.14404444250E+04  0.10000000000E+02 0. -1.
</event>
<event>
 5    1  0.1607440E-008  0.3841165E+03  0.7957747E-01  0.3433428E+00
         13   -1    0    0    0    0  0.00000000000E+00  0.00000000000E+00  0.14999999963E+04  0.15000000000E+04  0.10566000000E+00 0.  1.
        994   -1    0    0    0    0 -0.00000000000E+00 -0.00000000000E+00  0.11368683772E-12  0.17120000000E+03  0.17120000000E+03 0.  0.
         13    1    1    2    0    0 -0.83241762916E+01  0.77643912667E+01  0.31990550003E+02  0.33955620098E+02  0.10566000000E+00 0.  1.
        994    1    1    2    0    0 -0.44956159131E+01 -0.22819707131E+01  0.21532365809E+01  0.17128775315E+03  0.17120000000E+03 0.  0.
        998    1    1    2    0    0  0.12819792205E+02 -0.54824205536E+01  0.14658562097E+04  0.14659566267E+04  0.10000000000E+02 0.  1.
</event>
<event>
 5    1  0.1607440E-008  0.3841959E+03  0.7957747E-01  0.3433090E+00
         13   -1    0    0    0    0  0.00000000000E+00  0.00000000000E+00  0.14999999963E+04  0.15000000000E+04  0.10566000000E+00 0. -1.
        994   -1    0    0    0    0 -0.00000000000E+00 -0.00000000000E+00  0.11368683772E-12  0.17120000000E+03  0.17120000000E+03 0.  0.
         13    1    1    2    0    0 -0.14197126877E+02  0.44731361151E+01  0.53929087474E+02  0.55945732618E+02  0.10566000000E+00 0. -1.
        994    1    1    2    0    0  0.80235347218E+01 -0.10564273067E+02  0.26103669685E+01  0.17173303407E+03  0.17120000000E+03 0.  0.
        998    1    1    2    0    0  0.61735921553E+01  0.60911369519E+01  0.14434605418E+04  0.14435212333E+04  0.10000000000E+02 0. -1.
</event>
<event>
 5    1  0.1607440E-008  0.3817960E+03  0.7957747E-01  0.3443375E+00
         13   -1    0    0    0    0  0.00000000000E+00  0.00000000000E+00  0.14999999963E+04  0.15000000000E+04  0.10566000000E+00 0.  1.
        994   -1    0    0    0    0 -0.00000000000E+00 -0.00000000000E+00  0.11368683772E-12  0.17120000000E+03  0.17120000000E+03 0.  0.
         13    1    1    2    0    0  0.14365798740E+02  0.31947354088E+01  0.33377263895E+02  0.36477875719E+02  0.10566000000E+00 0.  1.
        994    1    1    2    0    0 -0.32803204304E+01  0.10122227695E+02  0.36056225254E+01  0.17156823864E+03  0.17120000000E+03 0.  0.
        998    1    1    2    0    0 -0.11085478310E+02 -0.13316963103E+02  0.14630171099E+04  0.14631538856E+04  0.10000000000E+02 0.  1.
</event>
<event>
 5    1  0.1607440E-008  0.3826204E+03  0.7957747E-01  0.3439827E+00
         13   -1    0    0    0    0  0.00000000000E+00  0.00000000000E+00  0.14999999963E+04  0.15000000000E+04  0.10566000000E+00 0. -1.
        994   -1    0    0    0    0 -0.00000000000E+00 -0.00000000000E+00  0.11368683772E-12  0.17120000000E+03  0.17120000000E+03 0.  0.
         13    1    1    2    0    0 -0.28663050262E+01 -0.12581180669E+02  0.28718165281E+02  0.31484059342E+02  0.10566000000E+00 0. -1.
        994    1    1    2    0    0  0.20581742074E+01  0.69612159138E+01  0.29908487851E+01  0.17137992818E+03  0.17120000000E+03 0.  0.
        998    1    1    2    0    0  0.80813081883E+00  0.56199647548E+01  0.14682909822E+04  0.14683360125E+04  0.10000000000E+02 0. -1.
</event>
<event>
 5    1  0.1607440E-008  0.3769279E+03  0.7957747E-01  0.3464645E+00
         13   -1    0    0    0    0  0.00000000000E+00  0.00000000000E+00  0.14999999963E+04  0.15000000000E+04  0.10566000000E+00 0.  1.
        994   -1    0    0    0    0 -0.00000000000E+00 -0.00000000000E+00  0.11368683772E-12  0.17120000000E+03  0.17120000000E+03 0.  0.
         13    1    1    2    0    0  0.24368541572E+01 -0.50926751867E+02  0.30720209395E+03  0.31140425496E+03  0.10566000000E+00 0.  1.
        994    1    1    2    0    0 -0.14545151217E+02 -0.62745782002E+01  0.65399375243E+01  0.17205563791E+03  0.17120000000E+03 0.  0.
        998    1    1    2    0    0  0.12108297060E+02  0.57201330067E+02  0.11862579648E+04  0.11877401071E+04  0.10000000000E+02 0.  1.
</event>
<event>
 5    1  0.1607440E-008  0.3993494E+03  0.7957747E-01  0.3371005E+00
         13   -1    0    0    0    0  0.00000000000E+00  0.00000000000E+00  0.14999999963E+04  0.15000000000E+04  0.10566000000E+00 0.  1.
        994   -1    0    0    0    0 -0.00000000000E+00 -0.00000000000E+00  0.11368683772E-12  0.17120000000E+03  0.17120000000E+03 0.  0.
         13    1    1    2    0    0  0.16009609666E+02 -0.42829601834E+02  0.29209547464E+02  0.54257637453E+02  0.10566000000E+00 0.  1.
        994    1    1    2    0    0  0.17483663165E+00  0.19338649588E+02  0.28853063190E+02  0.17468815985E+03  0.17120000000E+03 0.  0.
        998    1    1    2    0    0 -0.16184446298E+02  0.23490952245E+02  0.14419373856E+04  0.14422542027E+04  0.10000000000E+02 0.  1.
</event>
<event>
 5    1  0.1607440E-008  0.2757314E+03  0.7957747E-01  0.4086114E+00
         13   -1    0    0    0    0  0.00000000000E+00  0.00000000000E+00  0.14999999963E+04  0.15000000000E+04  0.10566000000E+00 0. -1.
        994   -1    0    0    0    0 -0.00000000000E+00 -0.00000000000E+00  0.11368683772E-12  0.17120000000E+03  0.17120000000E+03 0.  0.
         13    1    1    2    0    0  0.11722899831E+03  0.16133010718E+03  0.37602495992E+03  0.42563461229E+03  0.10566000000E+00 0. -1.
        994    1    1    2    0    0 -0.12420153622E+03 -0.17265783564E+03  0.24622837686E+03  0.36766098975E+03  0.17120000000E+03 0.  0.
        998    1    1    2    0    0  0.69725379141E+01  0.11327728460E+02  0.87774665949E+03  0.87790439797E+03  0.10000000000E+02 0. -1.
</event>
<event>
 5    1  0.1607440E-008  0.3826904E+03  0.7957747E-01  0.3439527E+00
         13   -1    0    0    0    0  0.00000000000E+00  0.00000000000E+00  0.14999999963E+04  0.15000000000E+04  0.10566000000E+00 0.  1.
        994   -1    0    0    0    0 -0.00000000000E+00 -0.00000000000E+00  0.11368683772E-12  0.17120000000E+03  0.17120000000E+03 0.  0.
         13    1    1    2    0    0  0.15542153388E+01  0.25133235017E+02  0.11744174699E+03  0.12011107438E+03  0.10566000000E+00 0.  1.
        994    1    1    2    0    0  0.27932615840E+02 -0.12627618222E+02  0.59010177736E+01  0.17402284270E+03  0.17120000000E+03 0.  0.
        998    1    1    2    0    0 -0.29486831179E+02 -0.12505616795E+02  0.13766572315E+04  0.13770660829E+04  0.10000000000E+02 0.  1.
</event>
<event>
 5    1  0.1607440E-008  0.3726213E+03  0.7957747E-01  0.3483930E+00
         13   -1    0    0    0    0  0.00000000000E+00  0.00000000000E+00  0.14999999963E+04  0.15000000000E+04  0.10566000000E+00 0. -1.
        994   -1    0    0    0    0 -0.00000000000E+00 -0.00000000000E+00  0.11368683772E-12  0.17120000000E+03  0.17120000000E+03 0.  0.
         13    1    1    2    0    0  0.89826906431E+02 -0.62210451212E+02  0.39342349518E+03  0.40831491656E+03  0.10566000000E+00 0. -1.
        994    1    1    2    0    0 -0.71387338137E+02  0.60014640145E+02  0.43691229100E+02  0.19979057180E+03  0.17120000000E+03 0.  0.
        998    1    1    2    0    0 -0.18439568294E+02  0.21958110665E+01  0.10628852720E+04  0.10630945116E+04  0.10000000000E+02 0.  1.
</event>
<event>
 5    1  0.1607440E-008  0.3850642E+03  0.7957747E-01  0.3429400E+00
         13   -1    0    0    0    0  0.00000000000E+00  0.00000000000E+00  0.14999999963E+04  0.15000000000E+04  0.10566000000E+00 0. -1.
        994   -1    0    0    0    0 -0.00000000000E+00 -0.00000000000E+00  0.11368683772E-12  0.17120000000E+03  0.17120000000E+03 0.  0.
         13    1    1    2    0    0 -0.18072120062E+02 -0.78926381383E+01  0.10709996265E+03  0.10890045190E+03  0.10566000000E+00 0. -1.
        994    1    1    2    0    0  0.16193060949E+02  0.37329293908E+02  0.70611633261E+01  0.17611073628E+03  0.17120000000E+03 0.  0.
        998    1    1    2    0    0  0.18790591133E+01 -0.29436655770E+02  0.13858388703E+04  0.13861888118E+04  0.10000000000E+02 0. -1.
</event>
<event>
 5    1  0.1607440E-008  0.3848480E+03  0.7957747E-01  0.3430317E+00
         13   -1    0    0    0    0  0.00000000000E+00  0.00000000000E+00  0.14999999963E+04  0.15000000000E+04  0.10566000000E+00 0. -1.
        994   -1    0    0    0    0 -0.00000000000E+00 -0.00000000000E+00  0.11368683772E-12  0.17120000000E+03  0.17120000000E+03 0.  0.
         13    1    1    2    0    0 -0.11014939743E+02  0.75805045859E+01  0.51705435568E+02  0.53406518129E+02  0.10566000000E+00 0. -1.
        994    1    1    2    0    0  0.10985179802E+02 -0.33925695966E+01  0.21406862198E+01  0.17159896923E+03  0.17120000000E+03 0.  0.
        998    1    1    2    0    0  0.29759941294E-01 -0.41879349893E+01  0.14461538745E+04  0.14461945126E+04  0.10000000000E+02 0. -1.
</event>
<event>
 5    1  0.1607440E-008  0.2873741E+03  0.7957747E-01  0.3990494E+00
         13   -1    0    0    0    0  0.00000000000E+00  0.00000000000E+00  0.14999999963E+04  0.15000000000E+04  0.10566000000E+00 0. -1.
        994   -1    0    0    0    0 -0.00000000000E+00 -0.00000000000E+00  0.11368683772E-12  0.17120000000E+03  0.17120000000E+03 0.  0.
         13    1    1    2    0    0  0.16295728999E+03 -0.85739575399E+02  0.55681224890E+03  0.58646930426E+03  0.10566000000E+00 0. -1.
        994    1    1    2    0    0 -0.15495816974E+03  0.83696074986E+02  0.14254243641E+03  0.28398037523E+03  0.17120000000E+03 0.  0.
        998    1    1    2    0    0 -0.79991202513E+01  0.20435004134E+01  0.80064531097E+03  0.80075032051E+03  0.10000000000E+02 0.  1.
</event>
<event>
 5    1  0.1607440E-008  0.3749022E+03  0.7957747E-01  0.3473660E+00
         13   -1    0    0    0    0  0.00000000000E+00  0.00000000000E+00  0.14999999963E+04  0.15000000000E+04  0.10566000000E+00 0. -1.
        994   -1    0    0    0    0 -0.00000000000E+00 -0.00000000000E+00  0.11368683772E-12  0.17120000000E+03  0.17120000000E+03 0.  0.
         13    1    1    2    0    0  0.65172373136E+01  0.10075678922E+02  0.78069746643E+01  0.14316204294E+02  0.10566000000E+00 0. -1.
        994    1    1    2    0    0  0.94418783217E+01 -0.51131237697E+01  0.71210679646E+01  0.17168413645E+03  0.17120000000E+03 0.  0.
        998    1    1    2    0    0 -0.15959115635E+02 -0.49625551526E+01  0.14850719536E+04  0.14851996593E+04  0.10000000000E+02 0. -1.
</event>
<event>
 5    1  0.1607440E-008  0.3847224E+03  0.7957747E-01  0.3430851E+00
         13   -1    0    0    0    0  0.00000000000E+00  0.00000000000E+00  0.14999999963E+04  0.15000000000E+04  0.10566000000E+00 0.  1.
        994   -1    0    0    0    0 -0.00000000000E+00 -0.00000000000E+00  0.11368683772E-12  0.17120000000E+03  0.17120000000E+03 0.  0.
         13    1    1    2    0    0 -0.12053774545E+02 -0.18260862351E+01  0.40348433291E+02  0.42150151895E+02  0.10566000000E+00 0.  1.
        994    1    1    2    0    0  0.16138219865E+02 -0.30562969437E+01  0.26565657869E+01  0.17200662904E+03  0.17120000000E+03 0.  0.
        998    1    1    2    0    0 -0.40844453203E+01  0.48823831788E+01  0.14569949972E+04  0.14570432191E+04  0.10000000000E+02 0.  1.
</event>
<event>
 5    1  0.1607440E-008  0.3827765E+03  0.7957747E-01  0.3439157E+00
         13   -1    0    0    0    0  0.00000000000E+00  0.00000000000E+00  0.14999999963E+04  0.15000000000E+04  0.10566000000E+00 0. -1.
        994   -1    0    0    0    0 -0.00000000000E+00 -0.00000000000E+00  0.11368683772E-12  0.17120000000E+03  0.17120000000E+03 0.  0.
         13    1    1    2    0    0  0.14212905280E+02  0.77866923565E+01  0.35714789568E+02  0.39219849723E+02  0.10566000000E+00 0. -1.
        994    1    1    2    0    0 -0.80515934656E+02 -0.25933971032E+02  0.26813506059E+02  0.19283098997E+03  0.17120000000E+03 0.  0.
        998    1    1    2    0    0  0.66303029376E+02  0.18147278675E+02  0.14374717007E+04  0.14391491603E+04  0.10000000000E+02 0. -1.
</event>
<event>
 5    1  0.1607440E-008  0.3733069E+03  0.7957747E-01  0.3480830E+00
         13   -1    0    0    0    0  0.00000000000E+00  0.00000000000E+00  0.14999999963E+04  0.15000000000E+04  0.10566000000E+00 0. -1.
        994   -1    0    0    0    0 -0.00000000000E+00 -0.00000000000E+00  0.11368683772E-12  0.17120000000E+03  0.17120000000E+03 0.  0.
         13    1    1    2    0    0 -0.19970979309E+02 -0.75711652173E+02  0.30739119505E+03  0.31720727017E+03  0.10566000000E+00 0. -1.
        994    1    1    2    0    0  0.22083795525E+02  0.80620459820E+02  0.31829116082E+02  0.19315766927E+03  0.17120000000E+03 0.  0.
        998    1    1    2    0    0 -0.21128162152E+01 -0.49088076468E+01  0.11607796851E+04  0.11608350606E+04  0.10000000000E+02 0.  1.
</event>
<event>
 5    1  0.1607440E-008  0.3692154E+03  0.7957747E-01  0.3499505E+00
         13   -1    0    0    0    0  0.00000000000E+00  0.00000000000E+00  0.14999999963E+04  0.15000000000E+04  0.10566000000E+00 0.  1.
        994   -1    0    0    0    0 -0.00000000000E+00 -0.00000000000E+00  0.11368683772E-12  0.17120000000E+03  0.17120000000E+03 0.  0.
         13    1    1    2    0    0  0.42945177364E+02  0.53941782326E+02  0.27283306532E+03  0.28141054855E+03  0.10566000000E+00 0.  1.
        994    1    1    2    0    0 -0.28667574461E+01 -0.24808759490E+02  0.11845147755E+02  0.17341695526E+03  0.17120000000E+03 0.  0.
        998    1    1    2    0    0 -0.40078419918E+02 -0.29133022836E+02  0.12153217832E+04  0.12163724962E+04  0.10000000000E+02 0.  1.
</event>
<event>
 5    1  0.1607440E-008  0.3808571E+03  0.7957747E-01  0.3447435E+00
         13   -1    0    0    0    0  0.00000000000E+00  0.00000000000E+00  0.14999999963E+04  0.15000000000E+04  0.10566000000E+00 0.  1.
        994   -1    0    0    0    0 -0.00000000000E+00 -0.00000000000E+00  0.11368683772E-12  0.17120000000E+03  0.17120000000E+03 0.  0.
         13    1    1    2    0    0 -0.11051062898E+02 -0.83054568572E+01  0.24383032041E+02  0.28029449163E+02  0.10566000000E+00 0.  1.
        994    1    1    2    0    0  0.69663473399E+01  0.56207965615E+01  0.39682729704E+01  0.17147976714E+03  0.17120000000E+03 0.  0.
        998    1    1    2    0    0  0.40847155583E+01  0.26846602957E+01  0.14716486913E+04  0.14716907837E+04  0.10000000000E+02 0.  1.
</event>
<event>
 5    1  0.1607440E-008  0.3704835E+03  0.7957747E-01  0.3493672E+00
         13   -1    0    0    0    0  0.00000000000E+00  0.00000000000E+00  0.14999999963E+04  0.15000000000E+04  0.10566000000E+00 0. -1.
        994   -1    0    0    0    0 -0.00000000000E+00 -0.00000000000E+00  0.11368683772E-12  0.17120000000E+03  0.17120000000E+03 0.  0.
         13    1    1    2    0    0  0.11911225043E+02 -0.16747385486E+02  0.19281206283E+02  0.28180281802E+02  0.10566000000E+00 0. -1.
        994    1    1    2    0    0 -0.14569125364E+02  0.15208381472E+02  0.10549131400E+02  0.17281284227E+03  0.17120000000E+03 0.  0.
        998    1    1    2    0    0  0.26579003210E+01  0.15390040136E+01  0.14701696586E+04  0.14702068759E+04  0.10000000000E+02 0. -1.
</event>
<event>
 5    1  0.1607440E-008  0.3736544E+03  0.7957747E-01  0.3479263E+00
         13   -1    0    0    0    0  0.00000000000E+00  0.00000000000E+00  0.14999999963E+04  0.15000000000E+04  0.10566000000E+00 0.  1.
        994   -1    0    0    0    0 -0.00000000000E+00 -0.00000000000E+00  0.11368683772E-12  0.17120000000E+03  0.17120000000E+03 0.  0.
         13    1    1    2    0    0 -0.33801232336E+02 -0.21268722010E+02  0.97322958834E+02  0.10519815266E+03  0.10566000000E+00 0.  1.
        994    1    1    2    0    0  0.41208387338E+02  0.18762665975E+02  0.14404552984E+02  0.17767132568E+03  0.17120000000E+03 0.  0.
        998    1    1    2    0    0 -0.74071550021E+01  0.25060560347E+01  0.13882724845E+04  0.13883305217E+04  0.10000000000E+02 0.  1.
</event>
<event>
 5    1  0.1607440E-008  0.3814258E+03  0.7957747E-01  0.3444973E+00
         13   -1    0    0    0    0  0.00000000000E+00  0.00000000000E+00  0.14999999963E+04  0.15000000000E+04  0.10566000000E+00 0. -1.
        994   -1    0    0    0    0 -0.00000000000E+00 -0.00000000000E+00  0.11368683772E-12  0.17120000000E+03  0.17120000000E+03 0.  0.
         13    1    1    2    0    0  0.14023149870E+02  0.59405889557E+01  0.33587236925E+02  0.36878896102E+02  0.10566000000E+00 0. -1.
        994    1    1    2    0    0  0.22032311504E+01 -0.11155430111E+02  0.38454378678E+01  0.17162029379E+03  0.17120000000E+03 0.  0.
        998    1    1    2    0    0 -0.16226381021E+02  0.52148411551E+01  0.14625673215E+04  0.14627008101E+04  0.10000000000E+02 0. -1.
</event>
<event>
 5    1  0.1607440E-008  0.3811863E+03  0.7957747E-01  0.3446009E+00
         13   -1    0    0    0    0  0.00000000000E+00  0.00000000000E+00  0.14999999963E+04  0.15000000000E+04  0.10566000000E+00 0.  1.
        994   -1    0    0    0    0 -0.00000000000E+00 -0.00000000000E+00  0.11368683772E-12  0.17120000000E+03  0.17120000000E+03 0.  0.
         13    1    1    2    0    0  0.26181222373E+02 -0.14436000976E+02  0.11029661592E+03  0.11427689695E+03  0.10566000000E+00 0.  1.
        994    1    1    2    0    0 -0.35430736993E+02  0.19277561764E+02  0.89721134718E+01  0.17611615579E+03  0.17120000000E+03 0.  0.
        998    1    1    2    0    0  0.92495146205E+01 -0.48415607877E+01  0.13807312669E+04  0.13808069473E+04  0.10000000000E+02 0.  1.
</event>
<event>
 5    1  0.1607440E-008  0.3834477E+03  0.7957747E-01  0.3436283E+00
         13   -1    0    0    0    0  0.00000000000E+00  0.00000000000E+00  0.14999999963E+04  0.15000000000E+04  0.10566000000E+00 0.  1.
        994   -1    0    0    0    0 -0.00000000000E+00 -0.00000000000E+00  0.11368683772E-12  0.17120000000E+03  0.17120000000E+03 0.  0.
         13    1    1    2    0    0 -0.36138158256E+01  0.26506890794E+02  0.14020051312E+03  0.14273005979E+03  0.10566000000E+00 0.  1.
        994    1    1    2    0    0 -0.34094894303E+01 -0.24098690288E+02  0.43632062402E+01  0.17297644077E+03  0.17120000000E+03 0.  0.
        998    1    1    2    0    0  0.70233052559E+01 -0.24082005054E+01  0.13554362769E+04  0.13554934994E+04  0.10000000000E+02 0.  1.
</event>
<event>
 5    1  0.1607440E-008  0.3816293E+03  0.7957747E-01  0.3444095E+00
         13   -1    0    0    0    0  0.00000000000E+00  0.00000000000E+00  0.14999999963E+04  0.15000000000E+04  0.10566000000E+00 0.  1.
        994   -1    0    0    0    0 -0.00000000000E+00 -0.00000000000E+00  0.11368683772E-12  0.17120000000E+03  0.17120000000E+03 0.  0.
         13    1    1    2    0    0 -0.17968333133E+02 -0.28583787123E+02  0.17581089009E+03  0.17902338986E+03  0.10566000000E+00 0.  1.
        994    1    1    2    0    0  0.32723848787E+02 -0.15401875150E+00  0.68817841343E+01  0.17443529733E+03  0.17120000000E+03 0.  0.
        998    1    1    2    0    0 -0.14755515654E+02  0.28737805874E+02  0.13173073221E+04  0.13177413128E+04  0.10000000000E+02 0.  1.
</event>
<event>
 5    1  0.1607440E-008  0.3845488E+03  0.7957747E-01  0.3431588E+00
         13   -1    0    0    0    0  0.00000000000E+00  0.00000000000E+00  0.14999999963E+04  0.15000000000E+04  0.10566000000E+00 0. -1.
        994   -1    0    0    0    0 -0.00000000000E+00 -0.00000000000E+00  0.11368683772E-12  0.17120000000E+03  0.17120000000E+03 0.  0.
         13    1    1    2    0    0 -0.19563783143E+01  0.10040492064E+02  0.27899250076E+02  0.29715622420E+02  0.10566000000E+00 0. -1.
        994    1    1    2    0    0  0.11522428176E+01 -0.58908321475E+01  0.19730111172E+01  0.17131655594E+03  0.17120000000E+03 0.  0.
        998    1    1    2    0    0  0.80413549667E+00 -0.41496599167E+01  0.14701277351E+04  0.14701678216E+04  0.10000000000E+02 0. -1.
</event>
<event>
 5    1  0.1607440E-008  0.3837190E+03  0.7957747E-01  0.3435123E+00
         13   -1    0    0    0    0  0.00000000000E+00  0.00000000000E+00  0.14999999963E+04  0.15000000000E+04  0.10566000000E+00 0. -1.
        994   -1    0    0    0    0 -0.00000000000E+00 -0.00000000000E+00  0.11368683772E-12  0.17120000000E+03  0.17120000000E+03 0.  0.
         13    1    1    2    0    0  0.13670115587E+02  0.36134827323E+01  0.44327921974E+02  0.46528541221E+02  0.10566000000E+00 0. -1.
        994    1    1    2    0    0 -0.59110195364E+01  0.16208652726E+01  0.23915334517E+01  0.17132637505E+03  0.17120000000E+03 0.  0.
        998    1    1    2    0    0 -0.77590960509E+01 -0.52343480049E+01  0.14532805409E+04  0.14533450837E+04  0.10000000000E+02 0. -1.
</event>
<event>
 5    1  0.1607440E-008  0.3838588E+03  0.7957747E-01  0.3434527E+00
         13   -1    0    0    0    0  0.00000000000E+00  0.00000000000E+00  0.14999999963E+04  0.15000000000E+04  0.10566000000E+00 0.  1.
        994   -1    0    0    0    0 -0.00000000000E+00 -0.00000000000E+00  0.11368683772E-12  0.17120000000E+03  0.17120000000E+03 0.  0.
         13    1    1    2    0    0  0.12211887354E+02 -0.25018082384E+00  0.33114135883E+02  0.35295182993E+02  0.10566000000E+00 0.  1.
        994    1    1    2    0    0 -0.98772297656E+01  0.22768317561E+01  0.25370220751E+01  0.17151857075E+03  0.17120000000E+03 0.  0.
        998    1    1    2    0    0 -0.23346575880E+01 -0.20266509322E+01  0.14643488383E+04  0.14643862463E+04  0.10000000000E+02 0.  0.
</event>
<event>
 5    1  0.1607440E-008  0.3750292E+03  0.7957747E-01  0.3473092E+00
         13   -1    0    0    0    0  0.00000000000E+00  0.00000000000E+00  0.14999999963E+04  0.15000000000E+04  0.10566000000E+00 0.  1.
        994   -1    0    0    0    0 -0.00000000000E+00 -0.00000000000E+00  0.11368683772E-12  0.17120000000E+03  0.17120000000E+03 0.  0.
         13    1    1    2    0    0  0.58164310632E+02 -0.13010948855E+03  0.47380058022E+03  0.49477122695E+03  0.10566000000E+00 0.  1.
        994    1    1    2    0    0 -0.58531622258E+02  0.13113455078E+03  0.91157014915E+02  0.24133226594E+03  0.17120000000E+03 0.  0.
        998    1    1    2    0    0  0.36731162560E+00 -0.10250622345E+01  0.93504240114E+03  0.93509650711E+03  0.10000000000E+02 0.  1.
</event>
<event>
 5    1  0.1607440E-008  0.3809139E+03  0.7957747E-01  0.3447189E+00
         13   -1    0    0    0    0  0.00000000000E+00  0.00000000000E+00  0.14999999963E+04  0.15000000000E+04  0.10566000000E+00 0. -1.
        994   -1    0    0    0    0 -0.00000000000E+00 -0.00000000000E+00  0.11368683772E-12  0.17120000000E+03  0.17120000000E+03 0.  0.
         13    1    1    2    0    0 -0.48677082026E+02  0.79935154881E+01  0.27906518170E+03  0.28339149847E+03  0.10566000000E+00 0. -1.
        994    1    1    2    0    0  0.44880938968E+02 -0.13387531023E+02  0.11018012271E+02  0.17783239655E+03  0.17120000000E+03 0.  0.
        998    1    1    2    0    0  0.37961430585E+01  0.53940155348E+01  0.12099168023E+04  0.12099761050E+04  0.10000000000E+02 0. -1.
</event>
<event>
 5    1  0.1607440E-008  0.3821644E+03  0.7957747E-01  0.3441788E+00
         13   -1    0    0    0    0  0.00000000000E+00  0.00000000000E+00  0.14999999963E+04  0.15000000000E+04  0.10566000000E+00 0. -1.
        994   -1    0    0    0    0 -0.00000000000E+00 -0.00000000000E+00  0.11368683772E-12  0.17120000000E+03  0.17120000000E+03 0.  0.
         13    1    1    2    0    0 -0.16732129061E+02  0.97973630811E+01  0.62219787475E+02  0.65171048663E+02  0.10566000000E+00 0. -1.
        994    1    1    2    0    0  0.10739544577E+02  0.35863314230E+01  0.34701696589E+01  0.17160909553E+03  0.17120000000E+03 0.  0.
        998    1    1    2    0    0  0.59925844845E+01 -0.13383694504E+02  0.14343100391E+04  0.14344198558E+04  0.10000000000E+02 0. -1.
</event>
<event>
 5    1  0.1607440E-008  0.3893576E+03  0.7957747E-01  0.3411399E+00
         13   -1    0    0    0    0  0.00000000000E+00  0.00000000000E+00  0.14999999963E+04  0.15000000000E+04  0.10566000000E+00 0.  1.
        994   -1    0    0    0    0 -0.00000000000E+00 -0.00000000000E+00  0.11368683772E-12  0.17120000000E+03  0.17120000000E+03 0.  0.
         13    1    1    2    0    0 -0.15583398777E+02  0.82688282963E+02  0.14660524139E+03  0.16903639378E+03  0.10566000000E+00 0.  1.
        994    1    1    2    0    0  0.25160202732E+02 -0.72966540191E+02  0.44285536954E+02  0.19294507139E+03  0.17120000000E+03 0.  0.
        998    1    1    2    0    0 -0.95768039546E+01 -0.97217427719E+01  0.13091092179E+04  0.13092185348E+04  0.10000000000E+02 0.  1.
</event>
<event>
 5    1  0.1607440E-008  0.3732031E+03  0.7957747E-01  0.3481299E+00
         13   -1    0    0    0    0  0.00000000000E+00  0.00000000000E+00  0.14999999963E+04  0.15000000000E+04  0.10566000000E+00 0.  1.
        994   -1    0    0    0    0 -0.00000000000E+00 -0.00000000000E+00  0.11368683772E-12  0.17120000000E+03  0.17120000000E+03 0.  0.
         13    1    1    2    0    0 -0.25071439138E+02 -0.26784786040E+02  0.55984326964E+02  0.66934728306E+02  0.10566000000E+00 0.  1.
        994    1    1    2    0    0 -0.21752953857E+02 -0.18639777196E+02  0.15549507917E+02  0.17427524062E+03  0.17120000000E+03 0.  0.
        998    1    1    2    0    0  0.46824392995E+02  0.45424563236E+02  0.14284661614E+04  0.14299900311E+04  0.10000000000E+02 0.  1.
</event>
<event>
 5    1  0.1607440E-008  0.3816391E+03  0.7957747E-01  0.3444052E+00
         13   -1    0    0    0    0  0.00000000000E+00  0.00000000000E+00  0.14999999963E+04  0.15000000000E+04  0.10566000000E+00 0.  1.
        994   -1    0    0    0    0 -0.00000000000E+00 -0.00000000000E+00  0.11368683772E-12  0.17120000000E+03  0.17120000000E+03 0.  0.
         13    1    1    2    0    0 -0.10415505272E+02  0.16807868224E+01  0.15445726169E+02  0.18705331200E+02  0.10566000000E+00 0.  1.
        994    1    1    2    0    0  0.73318953685E+01 -0.27436668826E+01  0.35118212748E+01  0.17141486892E+03  0.17120000000E+03 0.  0.
        998    1    1    2    0    0  0.30836099032E+01  0.10628800602E+01  0.14810424488E+04  0.14810797999E+04  0.10000000000E+02 0.  1.
</event>
<event>
 5    1  0.1607440E-008  0.4023685E+03  0.7957747E-01  0.3359193E+00
         13   -1    0    0    0    0  0.00000000000E+00  0.00000000000E+00  0.14999999963E+04  0.15000000000E+04  0.10566000000E+00 0.  1.
        994   -1    0    0    0    0 -0.00000000000E+00 -0.00000000000E+00  0.11368683772E-12  0.17120000000E+03  0.17120000000E+03 0.  0.
         13    1    1    2    0    0 -0.48384082265E+02 -0.49469280965E+02  0.72988115118E+02  0.10057586832E+03  0.10566000000E+00 0.  1.
        994    1    1    2    0    0  0.45010046423E+02  0.25810801120E+02  0.39919274911E+02  0.18328963485E+03  0.17120000000E+03 0.  0.
        998    1    1    2    0    0  0.33740358417E+01  0.23658479845E+02  0.13870926062E+04  0.13873344968E+04  0.10000000000E+02 0.  1.
</event>
<event>
 5    1  0.1607440E-008  0.3811544E+03  0.7957747E-01  0.3446147E+00
         13   -1    0    0    0    0  0.00000000000E+00  0.00000000000E+00  0.14999999963E+04  0.15000000000E+04  0.10566000000E+00 0. -1.
        994   -1    0    0    0    0 -0.00000000000E+00 -0.00000000000E+00  0.11368683772E-12  0.17120000000E+03  0.17120000000E+03 0.  0.
         13    1    1    2    0    0  0.98766740211E+01  0.60631555645E+01  0.17203412468E+02  0.20743170194E+02  0.10566000000E+00 0. -1.
        994    1    1    2    0    0 -0.12490836724E+02 -0.49454152437E+01  0.41527955001E+01  0.17177649386E+03  0.17120000000E+03 0.  0.
        998    1    1    2    0    0  0.26141627029E+01 -0.11177403207E+01  0.14786437883E+04  0.14786803359E+04  0.10000000000E+02 0. -1.
</event>
<event>
 5    1  0.1607440E-008  0.3855383E+03  0.7957747E-01  0.3427393E+00
         13   -1    0    0    0    0  0.00000000000E+00  0.00000000000E+00  0.14999999963E+04  0.15000000000E+04  0.10566000000E+00 0. -1.
        994   -1    0    0    0    0 -0.00000000000E+00 -0.00000000000E+00  0.11368683772E-12  0.17120000000E+03  0.17120000000E+03 0.  0.
         13    1    1    2    0    0 -0.63455923943E+01  0.15000046504E+02  0.96335275088E+02  0.97702427443E+02  0.10566000000E+00 0. -1.
        994    1    1    2    0    0  0.38477490940E+01 -0.11718758643E+02  0.18627322618E+01  0.17165385008E+03  0.17120000000E+03 0.  0.
        998    1    1    2    0    0  0.24978433003E+01 -0.32812878612E+01  0.14018019889E+04  0.14018437225E+04  0.10000000000E+02 0. -1.
</event>
<event>
 5    1  0.1607440E-008  0.3854303E+03  0.7957747E-01  0.3427849E+00
         13   -1    0    0    0    0  0.00000000000E+00  0.00000000000E+00  0.14999999963E+04  0.15000000000E+04  0.10566000000E+00 0.  1.
        994   -1    0    0    0    0 -0.00000000000E+00 -0.00000000000E+00  0.11368683772E-12  0.17120000000E+03  0.17120000000E+03 0.  0.
         13    1    1    2    0    0  0.42117686368E+01  0.15811601442E+02  0.98816727919E+02  0.10016238124E+03  0.10566000000E+00 0.  1.
        994    1    1    2    0    0  0.49268408526E+01 -0.73176592539E+01  0.16722753661E+01  0.17143528926E+03  0.17120000000E+03 0.  0.
        998    1    1    2    0    0 -0.91386094894E+01 -0.84939421884E+01  0.13995109930E+04  0.13996023295E+04  0.10000000000E+02 0.  1.
</event>
<event>
 5    1  0.1607440E-008  0.3831731E+03  0.7957747E-01  0.3437457E+00
         13   -1    0    0    0    0  0.00000000000E+00  0.00000000000E+00  0.14999999963E+04  0.15000000000E+04  0.10566000000E+00 0.  1.
        994   -1    0    0    0    0 -0.00000000000E+00 -0.00000000000E+00  0.11368683772E-12  0.17120000000E+03  0.17120000000E+03 0.  0.
         13    1    1    2    0    0 -0.22917247708E+02 -0.17186262094E+02  0.15960525670E+03  0.16215553330E+03  0.10566000000E+00 0.  1.
        994    1    1    2    0    0  0.15751511968E+02  0.89422260910E+01  0.36259745601E+01  0.17219367360E+03  0.17120000000E+03 0.  0.
        998    1    1    2    0    0  0.71657357403E+01  0.82440360030E+01  0.13367687650E+04  0.13368507931E+04  0.10000000000E+02 0.  1.
</event>
<event>
 5    1  0.1607440E-008  0.3816165E+03  0.7957747E-01  0.3444150E+00
         13   -1    0    0    0    0  0.00000000000E+00  0.00000000000E+00  0.14999999963E+04  0.15000000000E+04  0.10566000000E+00 0. -1.
        994   -1    0    0    0    0 -0.00000000000E+00 -0.00000000000E+00  0.11368683772E-12  0.17120000000E+03  0.17120000000E+03 0.  0.
         13    1    1    2    0    0 -0.80316737027E+01  0.77483285418E+01  0.17179893738E+02  0.20486685689E+02  0.10566000000E+00 0. -1.
        994    1    1    2    0    0  0.75973764292E+01 -0.10273295437E+02  0.38624084320E+01  0.17171959389E+03  0.17120000000E+03 0.  0.
        998    1    1    2    0    0  0.43429727350E+00  0.25249668955E+01  0.14789576941E+04  0.14789937204E+04  0.10000000000E+02 0. -1.
</event>
<event>
 5    1  0.1607440E-008  0.3777727E+03  0.7957747E-01  0.3460914E+00
         13   -1    0    0    0    0  0.00000000000E+00  0.00000000000E+00  0.14999999963E+04  0.15000000000E+04  0.10566000000E+00 0. -1.
        994   -1    0    0    0    0 -0.00000000000E+00 -0.00000000000E+00  0.11368683772E-12  0.17120000000E+03  0.17120000000E+03 0.  0.
         13    1    1    2    0    0  0.26253410412E+02  0.35572105729E+02  0.17402901244E+03  0.17955702325E+03  0.10566000000E+00 0. -1.
        994    1    1    2    0    0 -0.23926725996E+02 -0.25608034773E+02  0.94092694311E+01  0.17500352572E+03  0.17120000000E+03 0.  0.
        998    1    1    2    0    0 -0.23266844161E+01 -0.99640709561E+01  0.13165617144E+04  0.13166394510E+04  0.10000000000E+02 0. -1.
</event>
<event>
 5    1  0.1607440E-008  0.3792745E+03  0.7957747E-01  0.3454323E+00
         13   -1    0    0    0    0  0.00000000000E+00  0.00000000000E+00  0.14999999963E+04  0.15000000000E+04  0.10566000000E+00 0. -1.
        994   -1    0    0    0    0 -0.00000000000E+00 -0.00000000000E+00  0.11368683772E-12  0.17120000000E+03  0.17120000000E+03 0.  0.
         13    1    1    2    0    0  0.12784193270E+03 -0.22083190172E+03  0.75118325580E+03  0.79333888316E+03  0.10566000000E+00 0. -1.
        994    1    1    2    0    0 -0.17676882292E+03  0.24200256004E+03  0.41545490058E+03  0.54011542307E+03  0.17120000000E+03 0.  0.
        998    1    1    2    0    0  0.48926890218E+02 -0.21170658315E+02  0.33336183990E+03  0.33774569377E+03  0.10000000000E+02 0. -1.
</event>
<event>
 5    1  0.1607440E-008  0.3845580E+03  0.7957747E-01  0.3431549E+00
         13   -1    0    0    0    0  0.00000000000E+00  0.00000000000E+00  0.14999999963E+04  0.15000000000E+04  0.10566000000E+00 0. -1.
        994   -1    0    0    0    0 -0.00000000000E+00 -0.00000000000E+00  0.11368683772E-12  0.17120000000E+03  0.17120000000E+03 0.  0.
         13    1    1    2    0    0  0.12738555437E+00 -0.15300826572E+02  0.63762849927E+02  0.65573193576E+02  0.10566000000E+00 0. -1.
        994    1    1    2    0    0  0.57495599276E+00  0.82382357832E+01  0.20743806653E+01  0.17141161617E+03  0.17120000000E+03 0.  0.
        998    1    1    2    0    0 -0.70234154714E+00  0.70625907889E+01  0.14341627657E+04  0.14342151903E+04  0.10000000000E+02 0. -1.
</event>
<event>
 5    1  0.1607440E-008  0.3709986E+03  0.7957747E-01  0.3491314E+00
         13   -1    0    0    0    0  0.00000000000E+00  0.00000000000E+00  0.14999999963E+04  0.15000000000E+04  0.10566000000E+00 0.  1.
        994   -1    0    0    0    0 -0.00000000000E+00 -0.00000000000E+00  0.11368683772E-12  0.17120000000E+03  0.17120000000E+03 0.  0.
         13    1    1    2    0    0 -0.13954103619E+02 -0.13310008503E+02  0.17402437285E+02  0.25975552384E+02  0.10566000000E+00 0.  1.
        994    1    1    2    0    0  0.78620024691E+01  0.14431416864E+02  0.96792006205E+01  0.17225911819E+03  0.17120000000E+03 0.  0.
        998    1    1    2    0    0  0.60921011500E+01 -0.11214083615E+01  0.14729183584E+04  0.14729653294E+04  0.10000000000E+02 0.  1.
</event>
<event>
 5    1  0.1607440E-008  0.3791671E+03  0.7957747E-01  0.3454793E+00
         13   -1    0    0    0    0  0.00000000000E+00  0.00000000000E+00  0.14999999963E+04  0.15000000000E+04  0.10566000000E+00 0.  1.
        994   -1    0    0    0    0 -0.00000000000E+00 -0.00000000000E+00  0.11368683772E-12  0.17120000000E+03  0.17120000000E+03 0.  0.
         13    1    1    2    0    0  0.90652890987E+01  0.37410973629E+02  0.16236818958E+03  0.16686881245E+03  0.10566000000E+00 0.  1.
        994    1    1    2    0    0 -0.36250804716E+01 -0.21026266347E+02  0.60816889336E+01  0.17263160784E+03  0.17120000000E+03 0.  0.
        998    1    1    2    0    0 -0.54402086271E+01 -0.16384707282E+02  0.13315501178E+04  0.13316995797E+04  0.10000000000E+02 0.  1.
</event>
<event>
 5    1  0.1607440E-008  0.3829267E+03  0.7957747E-01  0.3438513E+00
         13   -1    0    0    0    0  0.00000000000E+00  0.00000000000E+00  0.14999999963E+04  0.15000000000E+04  0.10566000000E+00 0.  1.
        994   -1    0    0    0    0 -0.00000000000E+00 -0.00000000000E+00  0.11368683772E-12  0.17120000000E+03  0.17120000000E+03 0.  0.
         13    1    1    2    0    0  0.42719403914E+01 -0.22342572596E+02  0.98333074733E+02  0.10092990030E+03  0.10566000000E+00 0.  1.
        994    1    1    2    0    0 -0.80986280894E+01  0.96032649908E+01  0.31856640865E+01  0.17168983351E+03  0.17120000000E+03 0.  0.
        998    1    1    2    0    0  0.38266876980E+01  0.12739307605E+02  0.13984812575E+04  0.13985802662E+04  0.10000000000E+02 0.  1.
</event>
<event>
 5    1  0.1607440E-008  0.3860200E+03  0.7957747E-01  0.3425358E+00
         13   -1    0    0    0    0  0.00000000000E+00  0.00000000000E+00  0.14999999963E+04  0.15000000000E+04  0.10566000000E+00 0. -1.
        994   -1    0    0    0    0 -0.00000000000E+00 -0.00000000000E+00  0.11368683772E-12  0.17120000000E+03  0.17120000000E+03 0.  0.
         13    1    1    2    0    0  0.81390280718E+01  0.80796680711E+01  0.60863156871E+02  0.61934318777E+02  0.10566000000E+00 0. -1.
        994    1    1    2    0    0 -0.88502141259E+01  0.32461884521E+01  0.14159021861E+01  0.17146518250E+03  0.17120000000E+03 0.  0.
        998    1    1    2    0    0  0.71118605418E+00 -0.11325856523E+02  0.14377209372E+04  0.14378004987E+04  0.10000000000E+02 0. -1.
</event>
<event>
 5    1  0.1607440E-008  0.3725611E+03  0.7957747E-01  0.3484203E+00
         13   -1    0    0    0    0  0.00000000000E+00  0.00000000000E+00  0.14999999963E+04  0.15000000000E+04  0.10566000000E+00 0.  1.
        994   -1    0    0    0    0 -0.00000000000E+00 -0.00000000000E+00  0.11368683772E-12  0.17120000000E+03  0.17120000000E+03 0.  0.
         13    1    1    2    0    0  0.82597384740E+01  0.28277902528E+02  0.58430526786E+02  0.65436997758E+02  0.10566000000E+00 0.  1.
        994    1    1    2    0    0 -0.38827214636E+01  0.21879433886E+02  0.96307542949E+01  0.17290453025E+03  0.17120000000E+03 0.  0.
        998    1    1    2    0    0 -0.43770170104E+01 -0.50157336413E+02  0.14319387152E+04  0.14328584720E+04  0.10000000000E+02 0.  1.
</event>
<event>
 5    1  0.1913629E-008  0.3859645E+03  0.7957747E-01  0.3425592E+00
         13   -1    0    0    0    0  0.00000000000E+00  0.00000000000E+00  0.14999999963E+04  0.15000000000E+04  0.10566000000E+00 0.  1.
        994   -1    0    0    0    0 -0.00000000000E+00 -0.00000000000E+00  0.11368683772E-12  0.17120000000E+03  0.17120000000E+03 0.  0.
         13    1    1    2    0    0 -0.11166166025E+02  0.38531412239E+01  0.60028029222E+02  0.61179289121E+02  0.10566000000E+00 0.  1.
        994    1    1    2    0    0  0.89208502852E+01 -0.69409209467E+01  0.15709944695E+01  0.17157991134E+03  0.17120000000E+03 0.  0.
        998    1    1    2    0    0  0.22453157400E+01  0.30877797229E+01  0.14384009726E+04  0.14384407995E+04  0.10000000000E+02 0.  1.
</event>
<event>
 5    1  0.1607440E-008  0.3807513E+03  0.7957747E-01  0.3447894E+00
         13   -1    0    0    0    0  0.00000000000E+00  0.00000000000E+00  0.14999999963E+04  0.15000000000E+04  0.10566000000E+00 0. -1.
        994   -1    0    0    0    0 -0.00000000000E+00 -0.00000000000E+00  0.11368683772E-12  0.17120000000E+03  0.17120000000E+03 0.  0.
         13    1    1    2    0    0 -0.71530771692E+02 -0.17569399772E+02  0.41713397033E+03  0.42358717577E+03  0.10566000000E+00 0. -1.
        994    1    1    2    0    0  0.99335005758E+02 -0.79241641132E+01  0.37610385306E+02  0.20162890871E+03  0.17120000000E+03 0.  0.
        998    1    1    2    0    0 -0.27804234066E+02  0.25493563886E+02  0.10452556406E+04  0.10459839155E+04  0.10000000000E+02 0. -1.
</event>
<event>
 5    1  0.1607440E-008  0.3899369E+03  0.7957747E-01  0.3409000E+00
         13   -1    0    0    0    0  0.00000000000E+00  0.00000000000E+00  0.14999999963E+04  0.15000000000E+04  0.10566000000E+00 0.  1.
        994   -1    0    0    0    0 -0.00000000000E+00 -0.00000000000E+00  0.11368683772E-12  0.17120000000E+03  0.17120000000E+03 0.  0.
         13    1    1    2    0    0 -0.24114442883E+01  0.12543168895E+02 -0.63066643607E+01  0.14245396761E+02  0.10566000000E+00 0.  1.
        994    1    1    2    0    0 -0.43949313832E+01 -0.15690904276E+02  0.22895872192E+02  0.17349115500E+03  0.17120000000E+03 0.  0.
        998    1    1    2    0    0  0.68063756716E+01  0.31477353816E+01  0.14834107884E+04  0.14834634482E+04  0.10000000000E+02 0.  1.
</event>
<event>
 5    1  0.1607440E-008  0.3839245E+03  0.7957747E-01  0.3434246E+00
         13   -1    0    0    0    0  0.00000000000E+00  0.00000000000E+00  0.14999999963E+04  0.15000000000E+04  0.10566000000E+00 0.  1.
        994   -1    0    0    0    0 -0.00000000000E+00 -0.00000000000E+00  0.11368683772E-12  0.17120000000E+03  0.17120000000E+03 0.  0.
         13    1    1    2    0    0 -0.20751711198E+01 -0.20950738471E+02  0.10655171877E+03  0.10861178442E+03  0.10566000000E+00 0.  1.
        994    1    1    2    0    0  0.18044267544E+01  0.67926810144E+01  0.23280929033E+01  0.17136002010E+03  0.17120000000E+03 0.  0.
        998    1    1    2    0    0  0.27074436531E+00  0.14158057457E+02  0.13911201846E+04  0.13912281955E+04  0.10000000000E+02 0.  1.
</event>
<event>
 5    1  0.1607440E-008  0.3845034E+03  0.7957747E-01  0.3431781E+00
         13   -1    0    0    0    0  0.00000000000E+00  0.00000000000E+00  0.14999999963E+04  0.15000000000E+04  0.10566000000E+00 0. -1.
        994   -1    0    0    0    0 -0.00000000000E+00 -0.00000000000E+00  0.11368683772E-12  0.17120000000E+03  0.17120000000E+03 0.  0.
         13    1    1    2    0    0 -0.52294174290E+01  0.19362219398E+02  0.10730720350E+03  0.10916542233E+03  0.10566000000E+00 0. -1.
        994    1    1    2    0    0  0.11902056580E+02 -0.95225738227E+01  0.26425550628E+01  0.17189753186E+03  0.17120000000E+03 0.  0.
        998    1    1    2    0    0 -0.66726391507E+01 -0.98396455749E+01  0.13900502377E+04  0.13901370458E+04  0.10000000000E+02 0. -1.
</event>
<event>
 5    1  0.1607440E-008  0.3705265E+03  0.7957747E-01  0.3493475E+00
         13   -1    0    0    0    0  0.00000000000E+00  0.00000000000E+00  0.14999999963E+04  0.15000000000E+04  0.10566000000E+00 0. -1.
        994   -1    0    0    0    0 -0.00000000000E+00 -0.00000000000E+00  0.11368683772E-12  0.17120000000E+03  0.17120000000E+03 0.  0.
         13    1    1    2    0    0 -0.14328630258E+02  0.11908919661E+02  0.15214700674E+02  0.24054735359E+02  0.10566000000E+00 0. -1.
        994    1    1    2    0    0  0.10801106723E+02 -0.15285537378E+02  0.10204125823E+02  0.17252210219E+03  0.17120000000E+03 0.  0.
        998    1    1    2    0    0  0.35275235348E+01  0.33766177175E+01  0.14745811698E+04  0.14746231625E+04  0.10000000000E+02 0. -1.
</event>
<event>
 5    1  0.1607440E-008  0.2510629E+03  0.7957747E-01  0.4322144E+00
         13   -1    0    0    0    0  0.00000000000E+00  0.00000000000E+00  0.14999999963E+04  0.15000000000E+04  0.10566000000E+00 0. -1.
        994   -1    0    0    0    0 -0.00000000000E+00 -0.00000000000E+00  0.11368683772E-12  0.17120000000E+03  0.17120000000E+03 0.  0.
         13    1    1    2    0    0  0.21783846139E+03 -0.17462261497E+02  0.26381308669E+03  0.34257244739E+03  0.10566000000E+00 0. -1.
        994    1    1    2    0    0 -0.14258448057E+03 -0.23731825123E+02  0.23861171874E+03  0.32732021927E+03  0.17120000000E+03 0.  0.
        998    1    1    2    0    0 -0.75253980827E+02  0.41194086620E+02  0.99757519085E+03  0.10013073333E+04  0.10000000000E+02 0. -1.
</event>
<event>
 5    1  0.1607440E-008  0.3829614E+03  0.7957747E-01  0.3438364E+00
         13   -1    0    0    0    0  0.00000000000E+00  0.00000000000E+00  0.14999999963E+04  0.15000000000E+04  0.10566000000E+00 0.  1.
        994   -1    0    0    0    0 -0.00000000000E+00 -0.00000000000E+00  0.11368683772E-12  0.17120000000E+03  0.17120000000E+03 0.  0.
         13    1    1    2    0    0  0.14769666574E+02  0.18798398169E+01  0.40098625510E+02  0.42773680930E+02  0.10566000000E+00 0.  1.
        994    1    1    2    0    0 -0.16004079676E+02  0.77594077041E+00  0.34960321912E+01  0.17198370531E+03  0.17120000000E+03 0.  0.
        998    1    1    2    0    0  0.12344131023E+01 -0.26557805873E+01  0.14564053386E+04  0.14564426138E+04  0.10000000000E+02 0.  1.
</event>
<event>
 5    1  0.1607440E-008  0.3818024E+03  0.7957747E-01  0.3443348E+00
         13   -1    0    0    0    0  0.00000000000E+00  0.00000000000E+00  0.14999999963E+04  0.15000000000E+04  0.10566000000E+00 0.  1.
        994   -1    0    0    0    0 -0.00000000000E+00 -0.00000000000E+00  0.11368683772E-12  0.17120000000E+03  0.17120000000E+03 0.  0.
         13    1    1    2    0    0 -0.22593375742E+02 -0.41736292121E+01  0.83354097192E+02  0.86462688432E+02  0.10566000000E+00 0.  1.
        994    1    1    2    0    0  0.99389534454E+01 -0.73771890798E+01  0.37353546825E+01  0.17168750272E+03  0.17120000000E+03 0.  0.
        998    1    1    2    0    0  0.12654422296E+02  0.11550818292E+02  0.14129105444E+04  0.14130498089E+04  0.10000000000E+02 0.  1.
</event>
<event>
 5    1  0.1607440E-008  0.3814760E+03  0.7957747E-01  0.3444757E+00
         13   -1    0    0    0    0  0.00000000000E+00  0.00000000000E+00  0.14999999963E+04  0.15000000000E+04  0.10566000000E+00 0.  1.
        994   -1    0    0    0    0 -0.00000000000E+00 -0.00000000000E+00  0.11368683772E-12  0.17120000000E+03  0.17120000000E+03 0.  0.
         13    1    1    2    0    0  0.87807625351E+01  0.13370374794E+02  0.35570081910E+02  0.39001417974E+02  0.10566000000E+00 0.  1.
        994    1    1    2    0    0 -0.86282527420E+01 -0.15878943717E+02  0.44771276839E+01  0.17220938497E+03  0.17120000000E+03 0.  0.
        998    1    1    2    0    0 -0.15250979309E+00  0.25085689231E+01  0.14599527867E+04  0.14599891971E+04  0.10000000000E+02 0.  1.
</event>
<event>
 5    1  0.1607440E-008  0.3685995E+03  0.7957747E-01  0.3502352E+00
         13   -1    0    0    0    0  0.00000000000E+00  0.00000000000E+00  0.14999999963E+04  0.15000000000E+04  0.10566000000E+00 0. -1.
        994   -1    0    0    0    0 -0.00000000000E+00 -0.00000000000E+00  0.11368683772E-12  0.17120000000E+03  0.17120000000E+03 0.  0.
         13    1    1    2    0    0 -0.14967154643E+02  0.36618338082E+02  0.73366766807E+02  0.83352336726E+02  0.10566000000E+00 0. -1.
        994    1    1    2    0    0 -0.10426413230E+01 -0.26504797333E+02  0.12651777521E+02  0.17370405538E+03  0.17120000000E+03 0.  0.
        998    1    1    2    0    0  0.16009795966E+02 -0.10113540749E+02  0.14139814520E+04  0.14141436079E+04  0.10000000000E+02 0. -1.
</event>
<event>
 5    1  0.1607440E-008  0.3693094E+03  0.7957747E-01  0.3499071E+00
         13   -1    0    0    0    0  0.00000000000E+00  0.00000000000E+00  0.14999999963E+04  0.15000000000E+04  0.10566000000E+00 0. -1.
        994   -1    0    0    0    0 -0.00000000000E+00 -0.00000000000E+00  0.11368683772E-12  0.17120000000E+03  0.17120000000E+03 0.  0.
         13    1    1    2    0    0 -0.18266379377E+02  0.18900223588E+01  0.11301716762E+02  0.21563227167E+02  0.10566000000E+00 0. -1.
        994    1    1    2    0    0  0.11808735430E+02 -0.89180709214E+01  0.11338178366E+02  0.17221199874E+03  0.17120000000E+03 0.  0.
        998    1    1    2    0    0  0.64576439471E+01  0.70280485626E+01  0.14773601012E+04  0.14774247741E+04  0.10000000000E+02 0. -1.
</event>
<event>
 5    1  0.1607440E-008  0.3825441E+03  0.7957747E-01  0.3440155E+00
         13   -1    0    0    0    0  0.00000000000E+00  0.00000000000E+00  0.14999999963E+04  0.15000000000E+04  0.10566000000E+00 0. -1.
        994   -1    0    0    0    0 -0.00000000000E+00 -0.00000000000E+00  0.11368683772E-12  0.17120000000E+03  0.17120000000E+03 0.  0.
         13    1    1    2    0    0 -0.86689924034E+01 -0.14791831568E+02  0.52068554707E+02  0.54818749199E+02  0.10566000000E+00 0. -1.
        994    1    1    2    0    0 -0.81148136240E+01  0.10330071923E+02  0.34266173649E+01  0.17173742252E+03  0.17120000000E+03 0.  0.
        998    1    1    2    0    0  0.16783806027E+02  0.44617596444E+01  0.14445048242E+04  0.14446438283E+04  0.10000000000E+02 0. -1.
</event>
<event>
 5    1  0.1607440E-008  0.3825652E+03  0.7957747E-01  0.3440065E+00
         13   -1    0    0    0    0  0.00000000000E+00  0.00000000000E+00  0.14999999963E+04  0.15000000000E+04  0.10566000000E+00 0.  1.
        994   -1    0    0    0    0 -0.00000000000E+00 -0.00000000000E+00  0.11368683772E-12  0.17120000000E+03  0.17120000000E+03 0.  0.
         13    1    1    2    0    0  0.21656562255E+02 -0.89827043130E+01  0.70938026787E+02  0.74712184241E+02  0.10566000000E+00 0.  1.
        994    1    1    2    0    0 -0.76392995363E+02  0.12070921797E+02  0.22931547220E+02  0.18925351450E+03  0.17120000000E+03 0.  0.
        998    1    1    2    0    0  0.54736433108E+02 -0.30882174837E+01  0.14061304223E+04  0.14072343013E+04  0.10000000000E+02 0.  1.
</event>
<event>
 5    1  0.1607440E-008  0.3821634E+03  0.7957747E-01  0.3441793E+00
         13   -1    0    0    0    0  0.00000000000E+00  0.00000000000E+00  0.14999999963E+04  0.15000000000E+04  0.10566000000E+00 0. -1.
        994   -1    0    0    0    0 -0.00000000000E+00 -0.00000000000E+00  0.11368683772E-12  0.17120000000E+03  0.17120000000E+03 0.  0.
         13    1    1    2    0    0  0.18420082080E+01 -0.37961332826E+02  0.22806711100E+03  0.23121218409E+03  0.10566000000E+00 0. -1.
        994    1    1    2    0    0 -0.96768635843E+01  0.25454411460E+02  0.55103627374E+01  0.17343982486E+03  0.17120000000E+03 0.  0.
        998    1    1    2    0    0  0.78348553763E+01  0.12506921366E+02  0.12664225225E+04  0.12665479910E+04  0.10000000000E+02 0. -1.
</event>
<event>
 5    1  0.1607440E-008  0.3700923E+03  0.7957747E-01  0.3495467E+00
         13   -1    0    0    0    0  0.00000000000E+00  0.00000000000E+00  0.14999999963E+04  0.15000000000E+04  0.10566000000E+00 0. -1.
        994   -1    0    0    0    0 -0.00000000000E+00 -0.00000000000E+00  0.11368683772E-12  0.17120000000E+03  0.17120000000E+03 0.  0.
         13    1    1    2    0    0  0.13453927190E+01  0.22181489922E+02  0.18035319658E+02  0.28620141438E+02  0.10566000000E+00 0. -1.
        994    1    1    2    0    0  0.11391920881E+02 -0.10430843380E+02  0.11822404789E+02  0.17230144402E+03  0.17120000000E+03 0.  0.
        998    1    1    2    0    0 -0.12737313600E+02 -0.11750646542E+02  0.14701422718E+04  0.14702784145E+04  0.10000000000E+02 0. -1.
</event>
<event>
 5    1  0.1607440E-008  0.3856634E+03  0.7957747E-01  0.3426864E+00
         13   -1    0    0    0    0  0.00000000000E+00  0.00000000000E+00  0.14999999963E+04  0.15000000000E+04  0.10566000000E+00 0. -1.
        994   -1    0    0    0    0 -0.00000000000E+00 -0.00000000000E+00  0.11368683772E-12  0.17120000000E+03  0.17120000000E+03 0.  0.
         13    1    1    2    0    0  0.12643442960E+02  0.51209870760E+01  0.67314884849E+02  0.68683229720E+02  0.10566000000E+00 0. -1.
        994    1    1    2    0    0 -0.19725271101E+02 -0.80981382650E+00  0.25811704707E+01  0.17235383535E+03  0.17120000000E+03 0.  0.
        998    1    1    2    0    0  0.70818281416E+01 -0.43111732495E+01  0.14301039410E+04  0.14301629349E+04  0.10000000000E+02 0. -1.
</event>
<event>
 5    1  0.1607440E-008  0.3811826E+03  0.7957747E-01  0.3446025E+00
         13   -1    0    0    0    0  0.00000000000E+00  0.00000000000E+00  0.14999999963E+04  0.15000000000E+04  0.10566000000E+00 0. -1.
        994   -1    0    0    0    0 -0.00000000000E+00 -0.00000000000E+00  0.11368683772E-12  0.17120000000E+03  0.17120000000E+03 0.  0.
         13    1    1    2    0    0  0.10122709193E+01  0.25021918582E+02  0.86768561964E+02  0.90310108024E+02  0.10566000000E+00 0. -1.
        994    1    1    2    0    0 -0.10502934570E+02 -0.16695467386E+02  0.48339119239E+01  0.17240028124E+03  0.17120000000E+03 0.  0.
        998    1    1    2    0    0  0.94906636505E+01 -0.83264511968E+01  0.14083975224E+04  0.14084896107E+04  0.10000000000E+02 0. -1.
</event>
<event>
 5    1  0.1607440E-008  0.3778941E+03  0.7957747E-01  0.3460380E+00
         13   -1    0    0    0    0  0.00000000000E+00  0.00000000000E+00  0.14999999963E+04  0.15000000000E+04  0.10566000000E+00 0.  1.
        994   -1    0    0    0    0 -0.00000000000E+00 -0.00000000000E+00  0.11368683772E-12  0.17120000000E+03  0.17120000000E+03 0.  0.
         13    1    1    2    0    0  0.10155014243E+02 -0.65452867657E+01  0.11594034177E+02  0.16745085418E+02  0.10566000000E+00 0.  1.
        994    1    1    2    0    0 -0.96780285606E+01  0.10219034249E+02  0.58671376812E+01  0.17187773620E+03  0.17120000000E+03 0.  0.
        998    1    1    2    0    0 -0.47698568237E+00 -0.36737474829E+01  0.14825388244E+04  0.14825771784E+04  0.10000000000E+02 0.  1.
</event>
<event>
 5    1  0.1607440E-008  0.3805779E+03  0.7957747E-01  0.3448646E+00
         13   -1    0    0    0    0  0.00000000000E+00  0.00000000000E+00  0.14999999963E+04  0.15000000000E+04  0.10566000000E+00 0.  1.
        994   -1    0    0    0    0 -0.00000000000E+00 -0.00000000000E+00  0.11368683772E-12  0.17120000000E+03  0.17120000000E+03 0.  0.
         13    1    1    2    0    0 -0.27189135706E+02  0.21146961691E+02  0.13811989426E+03  0.14235012976E+03  0.10566000000E+00 0.  1.
        994    1    1    2    0    0  0.29312408938E+02 -0.22694978391E+02  0.84406576790E+01  0.17537093278E+03  0.17120000000E+03 0.  0.
        998    1    1    2    0    0 -0.21232732323E+01  0.15480167001E+01  0.13534394443E+04  0.13534789375E+04  0.10000000000E+02 0.  1.
</event>
<event>
 5    1  0.1607440E-008  0.3733822E+03  0.7957747E-01  0.3480490E+00
         13   -1    0    0    0    0  0.00000000000E+00  0.00000000000E+00  0.14999999963E+04  0.15000000000E+04  0.10566000000E+00 0. -1.
        994   -1    0    0    0    0 -0.00000000000E+00 -0.00000000000E+00  0.11368683772E-12  0.17120000000E+03  0.17120000000E+03 0.  0.
         13    1    1    2    0    0 -0.10225769164E+02  0.15588514737E+02  0.20968891112E+02  0.28058398122E+02  0.10566000000E+00 0. -1.
        994    1    1    2    0    0  0.19909058903E+02  0.23922210459E+02  0.10829669335E+02  0.17434266408E+03  0.17120000000E+03 0.  0.
        998    1    1    2    0    0 -0.96832897391E+01 -0.39510725196E+02  0.14682014358E+04  0.14687989378E+04  0.10000000000E+02 0. -1.
</event>
<event>
 5    1  0.1607440E-008  0.3755446E+03  0.7957747E-01  0.3470791E+00
         13   -1    0    0    0    0  0.00000000000E+00  0.00000000000E+00  0.14999999963E+04  0.15000000000E+04  0.10566000000E+00 0.  1.
        994   -1    0    0    0    0 -0.00000000000E+00 -0.00000000000E+00  0.11368683772E-12  0.17120000000E+03  0.17120000000E+03 0.  0.
         13    1    1    2    0    0  0.84146603561E+01 -0.24298905314E+02  0.47130859319E+02  0.53689592777E+02  0.10566000000E+00 0.  1.
        994    1    1    2    0    0 -0.20578676675E+02  0.24986338865E+02  0.99627078114E+01  0.17451789195E+03  0.17120000000E+03 0.  0.
        998    1    1    2    0    0  0.12164016319E+02 -0.68743355039E+00  0.14429064291E+04  0.14429925153E+04  0.10000000000E+02 0.  1.
</event>
<event>
 5    1  0.1607440E-008  0.3750136E+03  0.7957747E-01  0.3473162E+00
         13   -1    0    0    0    0  0.00000000000E+00  0.00000000000E+00  0.14999999963E+04  0.15000000000E+04  0.10566000000E+00 0. -1.
        994   -1    0    0    0    0 -0.00000000000E+00 -0.00000000000E+00  0.11368683772E-12  0.17120000000E+03  0.17120000000E+03 0.  0.
         13    1    1    2    0    0  0.25129602242E+02 -0.32155132575E+02  0.13792487527E+03  0.14383578081E+03  0.10566000000E+00 0. -1.
        994    1    1    2    0    0 -0.49367284057E+01 -0.29745464996E+01  0.67846601921E+01  0.17143130061E+03  0.17120000000E+03 0.  0.
        998    1    1    2    0    0 -0.20192873837E+02  0.35129679075E+02  0.13552904608E+04  0.13559329186E+04  0.10000000000E+02 0. -1.
</event>
<event>
 5    1  0.1607440E-008  0.3848791E+03  0.7957747E-01  0.3430185E+00
         13   -1    0    0    0    0  0.00000000000E+00  0.00000000000E+00  0.14999999963E+04  0.15000000000E+04  0.10566000000E+00 0.  1.
        994   -1    0    0    0    0 -0.00000000000E+00 -0.00000000000E+00  0.11368683772E-12  0.17120000000E+03  0.17120000000E+03 0.  0.
         13    1    1    2    0    0 -0.45971052057E+01  0.14359784012E+02  0.67534979855E+02  0.69197698236E+02  0.10566000000E+00 0.  1.
        994    1    1    2    0    0  0.36660597316E+01 -0.84258996036E+01  0.19679941745E+01  0.17145771718E+03  0.17120000000E+03 0.  0.
        998    1    1    2    0    0  0.93104547417E+00 -0.59338844089E+01  0.14304970222E+04  0.14305445846E+04  0.10000000000E+02 0.  1.
</event>
<event>
 5    1  0.1607440E-008  0.3712920E+03  0.7957747E-01  0.3489974E+00
         13   -1    0    0    0    0  0.00000000000E+00  0.00000000000E+00  0.14999999963E+04  0.15000000000E+04  0.10566000000E+00 0.  1.
        994   -1    0    0    0    0 -0.00000000000E+00 -0.00000000000E+00  0.11368683772E-12  0.17120000000E+03  0.17120000000E+03 0.  0.
         13    1    1    2    0    0  0.18927235442E+02  0.29008213724E+01  0.17201865068E+02  0.25740441565E+02  0.10566000000E+00 0.  1.
        994    1    1    2    0    0 -0.23894259011E+02 -0.12433340691E+01  0.10568492672E+02  0.17318664651E+03  0.17120000000E+03 0.  0.
        998    1    1    2    0    0  0.49670235691E+01 -0.16574873033E+01  0.14722296385E+04  0.14722729119E+04  0.10000000000E+02 0.  1.
</event>
<event>
 5    1  0.1645258E-008  0.3852298E+03  0.7957747E-01  0.3428698E+00
         13   -1    0    0    0    0  0.00000000000E+00  0.00000000000E+00  0.14999999963E+04  0.15000000000E+04  0.10566000000E+00 0.  1.
        994   -1    0    0    0    0 -0.00000000000E+00 -0.00000000000E+00  0.11368683772E-12  0.17120000000E+03  0.17120000000E+03 0.  0.
         13    1    1    2    0    0  0.81624227534E+01 -0.79039106549E+01  0.41531346195E+02  0.43057645426E+02  0.10566000000E+00 0.  1.
        994    1    1    2    0    0 -0.73167611204E+01  0.10244549092E+02  0.20370815835E+01  0.17167432971E+03  0.17120000000E+03 0.  0.
        998    1    1    2    0    0 -0.84566163305E+00 -0.23406384366E+01  0.14564315685E+04  0.14564680249E+04  0.10000000000E+02 0.  1.
</event>
<event>
 5    1  0.1607440E-008  0.3712247E+03  0.7957747E-01  0.3490281E+00
         13   -1    0    0    0    0  0.00000000000E+00  0.00000000000E+00  0.14999999963E+04  0.15000000000E+04  0.10566000000E+00 0.  1.
        994   -1    0    0    0    0 -0.00000000000E+00 -0.00000000000E+00  0.11368683772E-12  0.17120000000E+03  0.17120000000E+03 0.  0.
         13    1    1    2    0    0  0.35434265247E+02 -0.15637231761E+02  0.85516283606E+02  0.93878411238E+02  0.10566000000E+00 0.  1.
        994    1    1    2    0    0 -0.17915317380E+02  0.60953483703E+01  0.98643159478E+01  0.17252494486E+03  0.17120000000E+03 0.  0.
        998    1    1    2    0    0 -0.17518947867E+02  0.95418833909E+01  0.14046193967E+04  0.14047966439E+04  0.10000000000E+02 0.  1.
</event>
<event>
 5    1  0.1607440E-008  0.3740545E+03  0.7957747E-01  0.3477462E+00
         13   -1    0    0    0    0  0.00000000000E+00  0.00000000000E+00  0.14999999963E+04  0.15000000000E+04  0.10566000000E+00 0.  1.
        994   -1    0    0    0    0 -0.00000000000E+00 -0.00000000000E+00  0.11368683772E-12  0.17120000000E+03  0.17120000000E+03 0.  0.
         13    1    1    2    0    0  0.41655261404E+02 -0.17763321119E+02  0.16360210452E+03  0.16975381041E+03  0.10566000000E+00 0.  1.
        994    1    1    2    0    0  0.46146881273E+01  0.68715858740E+01  0.73987143951E+01  0.17155959610E+03  0.17120000000E+03 0.  0.
        998    1    1    2    0    0 -0.46269949531E+02  0.10891735245E+02  0.13289991774E+04  0.13298865935E+04  0.10000000000E+02 0.  1.
</event>
<event>
 5    1  0.1607440E-008  0.3837962E+03  0.7957747E-01  0.3434794E+00
         13   -1    0    0    0    0  0.00000000000E+00  0.00000000000E+00  0.14999999963E+04  0.15000000000E+04  0.10566000000E+00 0. -1.
        994   -1    0    0    0    0 -0.00000000000E+00 -0.00000000000E+00  0.11368683772E-12  0.17120000000E+03  0.17120000000E+03 0.  0.
         13    1    1    2    0    0  0.21323713473E+02  0.12285726414E+00  0.11337941752E+03  0.11536732350E+03  0.10566000000E+00 0. -1.
        994    1    1    2    0    0  0.16383839333E+01  0.46988477147E+01  0.23107343622E+01  0.17128789498E+03  0.17120000000E+03 0.  0.
        998    1    1    2    0    0 -0.22962097406E+02 -0.48217049788E+01  0.13843098444E+04  0.13845447815E+04  0.10000000000E+02 0. -1.
</event>
<event>
 5    1  0.1607440E-008  0.3732521E+03  0.7957747E-01  0.3481077E+00
         13   -1    0    0    0    0  0.00000000000E+00  0.00000000000E+00  0.14999999963E+04  0.15000000000E+04  0.10566000000E+00 0. -1.
        994   -1    0    0    0    0 -0.00000000000E+00 -0.00000000000E+00  0.11368683772E-12  0.17120000000E+03  0.17120000000E+03 0.  0.
         13    1    1    2    0    0  0.60690505893E+02 -0.16386930073E+02  0.27520665876E+03  0.28229520926E+03  0.10566000000E+00 0. -1.
        994    1    1    2    0    0 -0.20880756613E+02  0.27845967656E+02  0.11732567241E+02  0.17509567969E+03  0.17120000000E+03 0.  0.
        998    1    1    2    0    0 -0.39809749280E+02 -0.11459037583E+02  0.12130607703E+04  0.12138091110E+04  0.10000000000E+02 0. -1.
</event>
<event>
 5    1  0.1607440E-008  0.3766623E+03  0.7957747E-01  0.3465822E+00
         13   -1    0    0    0    0  0.00000000000E+00  0.00000000000E+00  0.14999999963E+04  0.15000000000E+04  0.10566000000E+00 0.  1.
        994   -1    0    0    0    0 -0.00000000000E+00 -0.00000000000E+00  0.11368683772E-12  0.17120000000E+03  0.17120000000E+03 0.  0.
         13    1    1    2    0    0 -0.56446829054E+02 -0.19685873119E+03  0.10166126687E+04  0.10370346830E+04  0.10566000000E+00 0.  1.
        994    1    1    2    0    0  0.81733732564E+02  0.18655018018E+03  0.16208225388E+03  0.31154689821E+03  0.17120000000E+03 0.  0.
        998    1    1    2    0    0 -0.25286903510E+02  0.10308551011E+02  0.32130507372E+03  0.32261841874E+03  0.10000000000E+02 0. -1.
</event>
<event>
 5    1  0.1607440E-008  0.3840504E+03  0.7957747E-01  0.3433709E+00
         13   -1    0    0    0    0  0.00000000000E+00  0.00000000000E+00  0.14999999963E+04  0.15000000000E+04  0.10566000000E+00 0. -1.
        994   -1    0    0    0    0 -0.00000000000E+00 -0.00000000000E+00  0.11368683772E-12  0.17120000000E+03  0.17120000000E+03 0.  0.
         13    1    1    2    0    0  0.98249216901E+01  0.77220957908E+01  0.37640905811E+02  0.39661175020E+02  0.10566000000E+00 0. -1.
        994    1    1    2    0    0  0.62084517680E+01 -0.11558616665E+02  0.26704044883E+01  0.17172279276E+03  0.17120000000E+03 0.  0.
        998    1    1    2    0    0 -0.16033373458E+02  0.38365208746E+01  0.14596886860E+04  0.14598160322E+04  0.10000000000E+02 0. -1.
</event>
<event>
 5    1  0.1607440E-008  0.3692536E+03  0.7957747E-01  0.3499328E+00
         13   -1    0    0    0    0  0.00000000000E+00  0.00000000000E+00  0.14999999963E+04  0.15000000000E+04  0.10566000000E+00 0.  1.
        994   -1    0    0    0    0 -0.00000000000E+00 -0.00000000000E+00  0.11368683772E-12  0.17120000000E+03  0.17120000000E+03 0.  0.
         13    1    1    2    0    0  0.15387314581E+02  0.12506839803E+02  0.13953902966E+02  0.24246918647E+02  0.10566000000E+00 0.  1.
        994    1    1    2    0    0 -0.12614708741E+02 -0.12113129131E+02  0.11611853576E+02  0.17248227131E+03  0.17120000000E+03 0.  0.
        998    1    1    2    0    0 -0.27726058397E+01 -0.39371067193E+00  0.14744342397E+04  0.14744708100E+04  0.10000000000E+02 0.  1.
</event>
<event>
 5    1  0.1607440E-008  0.3852153E+03  0.7957747E-01  0.3428760E+00
         13   -1    0    0    0    0  0.00000000000E+00  0.00000000000E+00  0.14999999963E+04  0.15000000000E+04  0.10566000000E+00 0. -1.
        994   -1    0    0    0    0 -0.00000000000E+00 -0.00000000000E+00  0.11368683772E-12  0.17120000000E+03  0.17120000000E+03 0.  0.
         13    1    1    2    0    0  0.43292456028E+01  0.96252609466E+01  0.42127055109E+02  0.43429114105E+02  0.10566000000E+00 0. -1.
        994    1    1    2    0    0 -0.27880830967E+01  0.22187146327E+02  0.31683369561E+01  0.17268329748E+03  0.17120000000E+03 0.  0.
        998    1    1    2    0    0 -0.15411625061E+01 -0.31812407273E+02  0.14547046042E+04  0.14550875884E+04  0.10000000000E+02 0. -1.
</event>
<event>
 5    1  0.1607440E-008  0.3721821E+03  0.7957747E-01  0.3485922E+00
         13   -1    0    0    0    0  0.00000000000E+00  0.00000000000E+00  0.14999999963E+04  0.15000000000E+04  0.10566000000E+00 0. -1.
        994   -1    0    0    0    0 -0.00000000000E+00 -0.00000000000E+00  0.11368683772E-12  0.17120000000E+03  0.17120000000E+03 0.  0.
         13    1    1    2    0    0  0.37484897298E+02 -0.59288301786E+02  0.22642435419E+03  0.23704054419E+03  0.10566000000E+00 0. -1.
        994    1    1    2    0    0 -0.27376522296E+02  0.89106412195E+02  0.38570073373E+02  0.19871214665E+03  0.17120000000E+03 0.  0.
        998    1    1    2    0    0 -0.10108375002E+02 -0.29818110409E+02  0.12350055687E+04  0.12354473092E+04  0.10000000000E+02 0. -1.
</event>
<event>
 5    1  0.1607440E-008  0.3845627E+03  0.7957747E-01  0.3431529E+00
         13   -1    0    0    0    0  0.00000000000E+00  0.00000000000E+00  0.14999999963E+04  0.15000000000E+04  0.10566000000E+00 0.  1.
        994   -1    0    0    0    0 -0.00000000000E+00 -0.00000000000E+00  0.11368683772E-12  0.17120000000E+03  0.17120000000E+03 0.  0.
         13    1    1    2    0    0  0.98601595140E+01 -0.51916002669E+01  0.33434215904E+02  0.35242494465E+02  0.10566000000E+00 0.  1.
        994    1    1    2    0    0 -0.56738698203E+01  0.26264690554E+01  0.19761702649E+01  0.17132552754E+03  0.17120000000E+03 0.  0.
        998    1    1    2    0    0 -0.41862896937E+01  0.25651312115E+01  0.14645896101E+04  0.14646319780E+04  0.10000000000E+02 0.  1.
</event>
<event>
 5    1  0.1607440E-008  0.3730607E+03  0.7957747E-01  0.3481941E+00
         13   -1    0    0    0    0  0.00000000000E+00  0.00000000000E+00  0.14999999963E+04  0.15000000000E+04  0.10566000000E+00 0.  1.
        994   -1    0    0    0    0 -0.00000000000E+00 -0.00000000000E+00  0.11368683772E-12  0.17120000000E+03  0.17120000000E+03 0.  0.
         13    1    1    2    0    0 -0.32665868021E+01 -0.80730748047E+02  0.23713351759E+03  0.25052033969E+03  0.10566000000E+00 0.  1.
        994    1    1    2    0    0  0.35384999321E+02  0.62235298336E+02  0.30907132465E+02  0.18812235745E+03  0.17120000000E+03 0.  0.
        998    1    1    2    0    0 -0.32118412519E+02  0.18495449710E+02  0.12319593462E+04  0.12325573029E+04  0.10000000000E+02 0.  1.
</event>
<event>
 5    1  0.1607440E-008  0.3842932E+03  0.7957747E-01  0.3432675E+00
         13   -1    0    0    0    0  0.00000000000E+00  0.00000000000E+00  0.14999999963E+04  0.15000000000E+04  0.10566000000E+00 0.  1.
        994   -1    0    0    0    0 -0.00000000000E+00 -0.00000000000E+00  0.11368683772E-12  0.17120000000E+03  0.17120000000E+03 0.  0.
         13    1    1    2    0    0 -0.39065657513E+01 -0.14046462618E+02  0.54015860684E+02  0.55948983347E+02  0.10566000000E+00 0.  1.
        994    1    1    2    0    0  0.73146785877E+01  0.53727631100E+01  0.22530325306E+01  0.17145520483E+03  0.17120000000E+03 0.  0.
        998    1    1    2    0    0 -0.34081128364E+01  0.86736995083E+01  0.14437311031E+04  0.14437958118E+04  0.10000000000E+02 0.  1.
</event>
<event>
 5    1  0.1607440E-008  0.3856273E+03  0.7957747E-01  0.3427016E+00
         13   -1    0    0    0    0  0.00000000000E+00  0.00000000000E+00  0.14999999963E+04  0.15000000000E+04  0.10566000000E+00 0.  1.
        994   -1    0    0    0    0 -0.00000000000E+00 -0.00000000000E+00  0.11368683772E-12  0.17120000000E+03  0.17120000000E+03 0.  0.
         13    1    1    2    0    0  0.44915110616E+00 -0.15491136361E+02  0.86938280292E+02  0.88308848858E+02  0.10566000000E+00 0.  1.
        994    1    1    2    0    0 -0.14647268887E+01  0.16548276852E+02  0.22253199938E+01  0.17201855406E+03  0.17120000000E+03 0.  0.
        998    1    1    2    0    0  0.10155757825E+01 -0.10571404906E+01  0.14108363960E+04  0.14108725971E+04  0.10000000000E+02 0.  1.
</event>
<event>
 5    1  0.1607440E-008  0.3814166E+03  0.7957747E-01  0.3445013E+00
         13   -1    0    0    0    0  0.00000000000E+00  0.00000000000E+00  0.14999999963E+04  0.15000000000E+04  0.10566000000E+00 0. -1.
        994   -1    0    0    0    0 -0.00000000000E+00 -0.00000000000E+00  0.11368683772E-12  0.17120000000E+03  0.17120000000E+03 0.  0.
         13    1    1    2    0    0  0.72938368054E+01  0.44193939538E+02  0.16120226132E+03  0.16730954715E+03  0.10566000000E+00 0. -1.
        994    1    1    2    0    0 -0.21782548147E+02 -0.11390467256E+03  0.49543467696E+02  0.21263289733E+03  0.17120000000E+03 0.  0.
        998    1    1    2    0    0  0.14488711341E+02  0.69710733019E+02  0.12892542673E+04  0.12912575555E+04  0.10000000000E+02 0. -1.
</event>
<event>
 5    1  0.1607440E-008  0.3852519E+03  0.7957747E-01  0.3428605E+00
         13   -1    0    0    0    0  0.00000000000E+00  0.00000000000E+00  0.14999999963E+04  0.15000000000E+04  0.10566000000E+00 0.  1.
        994   -1    0    0    0    0 -0.00000000000E+00 -0.00000000000E+00  0.11368683772E-12  0.17120000000E+03  0.17120000000E+03 0.  0.
         13    1    1    2    0    0 -0.14805342348E+02  0.10418914654E+02  0.10420641154E+03  0.10576738304E+03  0.10566000000E+00 0.  1.
        994    1    1    2    0    0  0.17546509058E+02 -0.49217055862E+01  0.25971813889E+01  0.17218678381E+03  0.17120000000E+03 0.  0.
        998    1    1    2    0    0 -0.27411667094E+01 -0.54972090673E+01  0.13931964034E+04  0.13932458332E+04  0.10000000000E+02 0.  1.
</event>
<event>
 5    1  0.1607440E-008  0.3782406E+03  0.7957747E-01  0.3458855E+00
         13   -1    0    0    0    0  0.00000000000E+00  0.00000000000E+00  0.14999999963E+04  0.15000000000E+04  0.10566000000E+00 0.  1.
        994   -1    0    0    0    0 -0.00000000000E+00 -0.00000000000E+00  0.11368683772E-12  0.17120000000E+03  0.17120000000E+03 0.  0.
         13    1    1    2    0    0 -0.37983373176E+02  0.11420508848E+02  0.19966453696E+03  0.20356596755E+03  0.10566000000E+00 0.  1.
        994    1    1    2    0    0 -0.34693171959E+01  0.29731357520E+02  0.80425420150E+01  0.17398308040E+03  0.17120000000E+03 0.  0.
        998    1    1    2    0    0  0.41452690372E+02 -0.41151866368E+02  0.12922929173E+04  0.12936509521E+04  0.10000000000E+02 0.  1.
</event>
<event>
 5    1  0.1607440E-008  0.3837301E+03  0.7957747E-01  0.3435076E+00
         13   -1    0    0    0    0  0.00000000000E+00  0.00000000000E+00  0.14999999963E+04  0.15000000000E+04  0.10566000000E+00 0. -1.
        994   -1    0    0    0    0 -0.00000000000E+00 -0.00000000000E+00  0.11368683772E-12  0.17120000000E+03  0.17120000000E+03 0.  0.
         13    1    1    2    0    0 -0.57299546208E+01 -0.15286798333E+02  0.59253335693E+02  0.61461268600E+02  0.10566000000E+00 0. -1.
        994    1    1    2    0    0 -0.57527449846E+00  0.85936318447E+01  0.25069328072E+01  0.17143484524E+03  0.17120000000E+03 0.  0.
        998    1    1    2    0    0  0.63052291193E+01  0.66931664881E+01  0.14382397278E+04  0.14383038862E+04  0.10000000000E+02 0. -1.
</event>
<event>
 5    1  0.1607440E-008  0.3779776E+03  0.7957747E-01  0.3460012E+00
         13   -1    0    0    0    0  0.00000000000E+00  0.00000000000E+00  0.14999999963E+04  0.15000000000E+04  0.10566000000E+00 0. -1.
        994   -1    0    0    0    0 -0.00000000000E+00 -0.00000000000E+00  0.11368683772E-12  0.17120000000E+03  0.17120000000E+03 0.  0.
         13    1    1    2    0    0  0.12365945664E+02  0.14583821250E+02  0.37447348691E+02  0.42046635328E+02  0.10566000000E+00 0. -1.
        994    1    1    2    0    0  0.15074919793E+02  0.19328467700E+02  0.71822432093E+01  0.17309496667E+03  0.17120000000E+03 0.  0.
        998    1    1    2    0    0 -0.27440865457E+02 -0.33912288949E+02  0.14553704044E+04  0.14560583980E+04  0.10000000000E+02 0. -1.
</event>
<event>
 5    1  0.1607440E-008  0.3815470E+03  0.7957747E-01  0.3444450E+00
         13   -1    0    0    0    0  0.00000000000E+00  0.00000000000E+00  0.14999999963E+04  0.15000000000E+04  0.10566000000E+00 0.  1.
        994   -1    0    0    0    0 -0.00000000000E+00 -0.00000000000E+00  0.11368683772E-12  0.17120000000E+03  0.17120000000E+03 0.  0.
         13    1    1    2    0    0  0.17093225663E+02  0.22271551498E+02  0.10587151009E+03  0.10953076363E+03  0.10566000000E+00 0.  1.
        994    1    1    2    0    0 -0.18986156713E+02 -0.27742601942E+02  0.71220699053E+01  0.17461469007E+03  0.17120000000E+03 0.  0.
        998    1    1    2    0    0  0.18929310497E+01  0.54710504440E+01  0.13870064163E+04  0.13870545463E+04  0.10000000000E+02 0.  1.
</event>
<event>
 5    1  0.1607440E-008  0.3806354E+03  0.7957747E-01  0.3448397E+00
         13   -1    0    0    0    0  0.00000000000E+00  0.00000000000E+00  0.14999999963E+04  0.15000000000E+04  0.10566000000E+00 0. -1.
        994   -1    0    0    0    0 -0.00000000000E+00 -0.00000000000E+00  0.11368683772E-12  0.17120000000E+03  0.17120000000E+03 0.  0.
         13    1    1    2    0    0 -0.19210905964E+02 -0.82728234460E+01  0.57538160798E+02  0.61222133479E+02  0.10566000000E+00 0. -1.
        994    1    1    2    0    0  0.70199944875E+01  0.12214854077E+01  0.39821510066E+01  0.17139448613E+03  0.17120000000E+03 0.  0.
        998    1    1    2    0    0  0.12190911476E+02  0.70513380382E+01  0.14384796845E+04  0.14385833804E+04  0.10000000000E+02 0. -1.
</event>
<event>
 5    1  0.1607440E-008  0.3837518E+03  0.7957747E-01  0.3434983E+00
         13   -1    0    0    0    0  0.00000000000E+00  0.00000000000E+00  0.14999999963E+04  0.15000000000E+04  0.10566000000E+00 0. -1.
        994   -1    0    0    0    0 -0.00000000000E+00 -0.00000000000E+00  0.11368683772E-12  0.17120000000E+03  0.17120000000E+03 0.  0.
         13    1    1    2    0    0  0.99184945942E+01 -0.65840860340E+01  0.30797825910E+02  0.33018842632E+02  0.10566000000E+00 0. -1.
        994    1    1    2    0    0 -0.61161000404E+01  0.57751316917E+01  0.24847943889E+01  0.17142454033E+03  0.17120000000E+03 0.  0.
        998    1    1    2    0    0 -0.38023945538E+01  0.80895434232E+00  0.14667173760E+04  0.14667566170E+04  0.10000000000E+02 0. -1.
</event>
<event>
 5    1  0.1607440E-008  0.3780061E+03  0.7957747E-01  0.3459887E+00
         13   -1    0    0    0    0  0.00000000000E+00  0.00000000000E+00  0.14999999963E+04  0.15000000000E+04  0.10566000000E+00 0. -1.
        994   -1    0    0    0    0 -0.00000000000E+00 -0.00000000000E+00  0.11368683772E-12  0.17120000000E+03  0.17120000000E+03 0.  0.
         13    1    1    2    0    0  0.13529563320E+02 -0.74723447405E+01  0.20897832226E+02  0.25992606167E+02  0.10566000000E+00 0. -1.
        994    1    1    2    0    0 -0.11425948993E+02  0.74908083474E+01  0.57714555272E+01  0.17184124714E+03  0.17120000000E+03 0.  0.
        998    1    1    2    0    0 -0.21036143275E+01 -0.18463606879E-01  0.14733307085E+04  0.14733661467E+04  0.10000000000E+02 0. -1.
</event>
<event>
 5    1  0.1607440E-008  0.3842448E+03  0.7957747E-01  0.3432881E+00
         13   -1    0    0    0    0  0.00000000000E+00  0.00000000000E+00  0.14999999963E+04  0.15000000000E+04  0.10566000000E+00 0. -1.
        994   -1    0    0    0    0 -0.00000000000E+00 -0.00000000000E+00  0.11368683772E-12  0.17120000000E+03  0.17120000000E+03 0.  0.
         13    1    1    2    0    0 -0.43535756643E+01 -0.22808799015E+02  0.12000647009E+03  0.12223239735E+03  0.10566000000E+00 0. -1.
        994    1    1    2    0    0 -0.24823915116E+01  0.29846253521E+02  0.49681688706E+01  0.17387088261E+03  0.17120000000E+03 0.  0.
        998    1    1    2    0    0  0.68359671759E+01 -0.70374545065E+01  0.13750253573E+04  0.13750967200E+04  0.10000000000E+02 0. -1.
</event>
<event>
 5    1  0.1607440E-008  0.3756271E+03  0.7957747E-01  0.3470423E+00
         13   -1    0    0    0    0  0.00000000000E+00  0.00000000000E+00  0.14999999963E+04  0.15000000000E+04  0.10566000000E+00 0.  1.
        994   -1    0    0    0    0 -0.00000000000E+00 -0.00000000000E+00  0.11368683772E-12  0.17120000000E+03  0.17120000000E+03 0.  0.
         13    1    1    2    0    0  0.11834522055E+03 -0.91493230551E+02  0.81417470678E+03  0.82780255302E+03  0.10566000000E+00 0.  1.
        994    1    1    2    0    0 -0.99331194462E+02  0.11014251174E+03  0.85055427735E+02  0.24195438593E+03  0.17120000000E+03 0.  0.
        998    1    1    2    0    0 -0.19014026087E+02 -0.18649281187E+02  0.60076986176E+03  0.60144306105E+03  0.10000000000E+02 0.  1.
</event>
<event>
 5    1  0.1607440E-008  0.3785566E+03  0.7957747E-01  0.3457468E+00
         13   -1    0    0    0    0  0.00000000000E+00  0.00000000000E+00  0.14999999963E+04  0.15000000000E+04  0.10566000000E+00 0. -1.
        994   -1    0    0    0    0 -0.00000000000E+00 -0.00000000000E+00  0.11368683772E-12  0.17120000000E+03  0.17120000000E+03 0.  0.
         13    1    1    2    0    0 -0.45774955501E+02 -0.39461590208E+01  0.21345948197E+03  0.21834807150E+03  0.10566000000E+00 0. -1.
        994    1    1    2    0    0  0.33184240915E+02 -0.37132458305E+02  0.13239341896E+02  0.17878683810E+03  0.17120000000E+03 0.  0.
        998    1    1    2    0    0  0.12590714587E+02  0.41078617326E+02  0.12733011724E+04  0.12740650904E+04  0.10000000000E+02 0. -1.
</event>
<event>
 5    1  0.1607440E-008  0.3819956E+03  0.7957747E-01  0.3442515E+00
         13   -1    0    0    0    0  0.00000000000E+00  0.00000000000E+00  0.14999999963E+04  0.15000000000E+04  0.10566000000E+00 0.  1.
        994   -1    0    0    0    0 -0.00000000000E+00 -0.00000000000E+00  0.11368683772E-12  0.17120000000E+03  0.17120000000E+03 0.  0.
         13    1    1    2    0    0  0.62699233006E+01  0.44983815081E+02  0.27299244102E+03  0.27674489981E+03  0.10566000000E+00 0.  1.
        994    1    1    2    0    0  0.60680328843E+00 -0.45659501155E+02  0.10085152002E+02  0.17747199370E+03  0.17120000000E+03 0.  0.
        998    1    1    2    0    0 -0.68767265890E+01  0.67568607323E+00  0.12169224033E+04  0.12169831065E+04  0.10000000000E+02 0.  0.
</event>
<event>
 5    1  0.1607440E-008  0.3742679E+03  0.7957747E-01  0.3476503E+00
         13   -1    0    0    0    0  0.00000000000E+00  0.00000000000E+00  0.14999999963E+04  0.15000000000E+04  0.10566000000E+00 0.  1.
        994   -1    0    0    0    0 -0.00000000000E+00 -0.00000000000E+00  0.11368683772E-12  0.17120000000E+03  0.17120000000E+03 0.  0.
         13    1    1    2    0    0  0.66539073908E+01  0.77863712849E+01 -0.19101619929E+01  0.10419306322E+02  0.10566000000E+00 0.  1.
        994    1    1    2    0    0  0.97402536462E+02  0.30082225979E+02  0.51079150161E+02  0.20569568301E+03  0.17120000000E+03 0.  0.
        998    1    1    2    0    0 -0.10405644385E+03 -0.37868597263E+02  0.14508310081E+04  0.14550850107E+04  0.10000000000E+02 0.  1.
</event>
<event>
 5    1  0.1607440E-008  0.3822128E+03  0.7957747E-01  0.3441580E+00
         13   -1    0    0    0    0  0.00000000000E+00  0.00000000000E+00  0.14999999963E+04  0.15000000000E+04  0.10566000000E+00 0.  1.
        994   -1    0    0    0    0 -0.00000000000E+00 -0.00000000000E+00  0.11368683772E-12  0.17120000000E+03  0.17120000000E+03 0.  0.
         13    1    1    2    0    0 -0.35897556988E+00  0.11994658640E+02  0.24416239083E+02  0.27205966153E+02  0.10566000000E+00 0.  1.
        994    1    1    2    0    0 -0.25572092776E+02  0.14103630644E+02  0.58557481981E+01  0.17377161481E+03  0.17120000000E+03 0.  0.
        998    1    1    2    0    0  0.25931068346E+02 -0.26098289284E+02  0.14697280090E+04  0.14702224190E+04  0.10000000000E+02 0.  1.
</event>
<event>
 5    1  0.1607440E-008  0.3850344E+03  0.7957747E-01  0.3429527E+00
         13   -1    0    0    0    0  0.00000000000E+00  0.00000000000E+00  0.14999999963E+04  0.15000000000E+04  0.10566000000E+00 0. -1.
        994   -1    0    0    0    0 -0.00000000000E+00 -0.00000000000E+00  0.11368683772E-12  0.17120000000E+03  0.17120000000E+03 0.  0.
         13    1    1    2    0    0 -0.90633142046E+01 -0.91703767114E+01  0.49459459289E+02  0.51112510705E+02  0.10566000000E+00 0. -1.
        994    1    1    2    0    0  0.57713325956E+01  0.16729452974E+02  0.26435940978E+01  0.17213254041E+03  0.17120000000E+03 0.  0.
        998    1    1    2    0    0  0.32919816090E+01 -0.75590762626E+01  0.14478969429E+04  0.14479549489E+04  0.10000000000E+02 0. -1.
</event>
<event>
 5    1  0.1607440E-008  0.3837108E+03  0.7957747E-01  0.3435159E+00
         13   -1    0    0    0    0  0.00000000000E+00  0.00000000000E+00  0.14999999963E+04  0.15000000000E+04  0.10566000000E+00 0.  1.
        994   -1    0    0    0    0 -0.00000000000E+00 -0.00000000000E+00  0.11368683772E-12  0.17120000000E+03  0.17120000000E+03 0.  0.
         13    1    1    2    0    0 -0.61413796114E+01 -0.99092989162E+01  0.29336534766E+02  0.31568246461E+02  0.10566000000E+00 0.  1.
        994    1    1    2    0    0  0.11410631120E+02  0.11999493180E+01  0.27064427102E+01  0.17160538224E+03  0.17120000000E+03 0.  0.
        998    1    1    2    0    0 -0.52692515088E+01  0.87093495982E+01  0.14679570188E+04  0.14680263713E+04  0.10000000000E+02 0.  1.
</event>
<event>
 5    1  0.1607440E-008  0.3837938E+03  0.7957747E-01  0.3434804E+00
         13   -1    0    0    0    0  0.00000000000E+00  0.00000000000E+00  0.14999999963E+04  0.15000000000E+04  0.10566000000E+00 0.  1.
        994   -1    0    0    0    0 -0.00000000000E+00 -0.00000000000E+00  0.11368683772E-12  0.17120000000E+03  0.17120000000E+03 0.  0.
         13    1    1    2    0    0 -0.11435978203E+02 -0.17965887885E+02  0.11637602857E+03  0.11830868909E+03  0.10566000000E+00 0.  1.
        994    1    1    2    0    0  0.33169495297E+01 -0.83167204716E+01  0.24948994305E+01  0.17145213477E+03  0.17120000000E+03 0.  0.
        998    1    1    2    0    0  0.81190286738E+01  0.26282608357E+02  0.13811290683E+04  0.13814391761E+04  0.10000000000E+02 0.  1.
</event>
<event>
 5    1  0.1607440E-008  0.3752006E+03  0.7957747E-01  0.3472326E+00
         13   -1    0    0    0    0  0.00000000000E+00  0.00000000000E+00  0.14999999963E+04  0.15000000000E+04  0.10566000000E+00 0.  1.
        994   -1    0    0    0    0 -0.00000000000E+00 -0.00000000000E+00  0.11368683772E-12  0.17120000000E+03  0.17120000000E+03 0.  0.
         13    1    1    2    0    0  0.21997453002E+02 -0.19853412518E+01  0.34185662492E+02  0.40700125338E+02  0.10566000000E+00 0.  1.
        994    1    1    2    0    0 -0.16623623985E+02  0.10076863223E+02  0.78604251504E+01  0.17247931566E+03  0.17120000000E+03 0.  0.
        998    1    1    2    0    0 -0.53738290174E+01 -0.80915219713E+01  0.14579539086E+04  0.14580205590E+04  0.10000000000E+02 0.  1.
</event>
<event>
 5    1  0.1607440E-008  0.3804104E+03  0.7957747E-01  0.3449373E+00
         13   -1    0    0    0    0  0.00000000000E+00  0.00000000000E+00  0.14999999963E+04  0.15000000000E+04  0.10566000000E+00 0. -1.
        994   -1    0    0    0    0 -0.00000000000E+00 -0.00000000000E+00  0.11368683772E-12  0.17120000000E+03  0.17120000000E+03 0.  0.
         13    1    1    2    0    0 -0.29808957680E+02  0.19862145020E+02  0.17387664686E+03  0.17752796470E+03  0.10566000000E+00 0. -1.
        994    1    1    2    0    0  0.17015475918E+02  0.52427470976E+01  0.49851294511E+01  0.17219554098E+03  0.17120000000E+03 0.  0.
        998    1    1    2    0    0  0.12793481762E+02 -0.25104892118E+02  0.13211382200E+04  0.13214764943E+04  0.10000000000E+02 0. -1.
</event>
<event>
 5    1  0.1607440E-008  0.3846910E+03  0.7957747E-01  0.3430984E+00
         13   -1    0    0    0    0  0.00000000000E+00  0.00000000000E+00  0.14999999963E+04  0.15000000000E+04  0.10566000000E+00 0.  1.
        994   -1    0    0    0    0 -0.00000000000E+00 -0.00000000000E+00  0.11368683772E-12  0.17120000000E+03  0.17120000000E+03 0.  0.
         13    1    1    2    0    0 -0.10069405904E+02 -0.37056154913E+01  0.33267978350E+02  0.34955601396E+02  0.10566000000E+00 0.  1.
        994    1    1    2    0    0 -0.32425225571E+01  0.35875030442E+01  0.18606269980E+01  0.17127838761E+03  0.17120000000E+03 0.  0.
        998    1    1    2    0    0  0.13311928462E+02  0.11811244709E+00  0.14648713909E+04  0.14649660110E+04  0.10000000000E+02 0.  1.
</event>
<event>
 5    1  0.1607440E-008  0.3733369E+03  0.7957747E-01  0.3480694E+00
         13   -1    0    0    0    0  0.00000000000E+00  0.00000000000E+00  0.14999999963E+04  0.15000000000E+04  0.10566000000E+00 0. -1.
        994   -1    0    0    0    0 -0.00000000000E+00 -0.00000000000E+00  0.11368683772E-12  0.17120000000E+03  0.17120000000E+03 0.  0.
         13    1    1    2    0    0 -0.60386000260E+02  0.24720525633E+02  0.16103954044E+03  0.17375649100E+03  0.10566000000E+00 0. -1.
        994    1    1    2    0    0  0.50017368168E+02  0.67474888504E+01  0.21779963515E+02  0.17980843288E+03  0.17120000000E+03 0.  0.
        998    1    1    2    0    0  0.10368632093E+02 -0.31468014484E+02  0.13171804923E+04  0.13176350761E+04  0.10000000000E+02 0. -1.
</event>
<event>
 5    1  0.1607440E-008  0.3818282E+03  0.7957747E-01  0.3443236E+00
         13   -1    0    0    0    0  0.00000000000E+00  0.00000000000E+00  0.14999999963E+04  0.15000000000E+04  0.10566000000E+00 0.  1.
        994   -1    0    0    0    0 -0.00000000000E+00 -0.00000000000E+00  0.11368683772E-12  0.17120000000E+03  0.17120000000E+03 0.  0.
         13    1    1    2    0    0 -0.11775338965E+02  0.24593925211E+01  0.21585653703E+02  0.24711512077E+02  0.10566000000E+00 0.  1.
        994    1    1    2    0    0  0.25472960621E+01 -0.32829915684E+01  0.32704898574E+01  0.17128164775E+03  0.17120000000E+03 0.  0.
        998    1    1    2    0    0  0.92280429026E+01  0.82359904727E+00  0.14751438527E+04  0.14752068402E+04  0.10000000000E+02 0.  1.
</event>
<event>
 5    1  0.1607440E-008  0.3709781E+03  0.7957747E-01  0.3491408E+00
         13   -1    0    0    0    0  0.00000000000E+00  0.00000000000E+00  0.14999999963E+04  0.15000000000E+04  0.10566000000E+00 0.  1.
        994   -1    0    0    0    0 -0.00000000000E+00 -0.00000000000E+00  0.11368683772E-12  0.17120000000E+03  0.17120000000E+03 0.  0.
         13    1    1    2    0    0  0.71914235336E+02  0.23206568838E+02  0.32263041844E+03  0.33136173610E+03  0.10566000000E+00 0.  1.
        994    1    1    2    0    0 -0.40834731799E+02 -0.15739173832E+02  0.15387533218E+02  0.17737365389E+03  0.17120000000E+03 0.  0.
        998    1    1    2    0    0 -0.31079503537E+02 -0.74673950061E+01  0.11619820446E+04  0.11624646100E+04  0.10000000000E+02 0.  1.
</event>
<event>
 5    1  0.1607440E-008  0.3743762E+03  0.7957747E-01  0.3476017E+00
         13   -1    0    0    0    0  0.00000000000E+00  0.00000000000E+00  0.14999999963E+04  0.15000000000E+04  0.10566000000E+00 0. -1.
        994   -1    0    0    0    0 -0.00000000000E+00 -0.00000000000E+00  0.11368683772E-12  0.17120000000E+03  0.17120000000E+03 0.  0.
         13    1    1    2    0    0 -0.13632346539E+02  0.54120214754E+01  0.21355062753E+01  0.14822361475E+02  0.10566000000E+00 0. -1.
        994    1    1    2    0    0  0.63534564198E+01  0.71192414414E+01  0.13595109764E+02  0.17200382849E+03  0.17120000000E+03 0.  0.
        998    1    1    2    0    0  0.72788901187E+01 -0.12531262917E+02  0.14842693802E+04  0.14843738100E+04  0.10000000000E+02 0. -1.
</event>
<event>
 5    1  0.1607440E-008  0.3817942E+03  0.7957747E-01  0.3443383E+00
         13   -1    0    0    0    0  0.00000000000E+00  0.00000000000E+00  0.14999999963E+04  0.15000000000E+04  0.10566000000E+00 0. -1.
        994   -1    0    0    0    0 -0.00000000000E+00 -0.00000000000E+00  0.11368683772E-12  0.17120000000E+03  0.17120000000E+03 0.  0.
         13    1    1    2    0    0  0.32014404231E+02  0.93221465897E+01  0.16381992441E+03  0.16717895589E+03  0.10566000000E+00 0. -1.
        994    1    1    2    0    0 -0.22167191981E+02 -0.15195787665E+02  0.56342449915E+01  0.17338823801E+03  0.17120000000E+03 0.  0.
        998    1    1    2    0    0 -0.98472122497E+01  0.58736410756E+01  0.13305458269E+04  0.13306328061E+04  0.10000000000E+02 0. -1.
</event>
<event>
 5    1  0.1607440E-008  0.4430598E+03  0.7957747E-01  0.3215477E+00
         13   -1    0    0    0    0  0.00000000000E+00  0.00000000000E+00  0.14999999963E+04  0.15000000000E+04  0.10566000000E+00 0. -1.
        994   -1    0    0    0    0 -0.00000000000E+00 -0.00000000000E+00  0.11368683772E-12  0.17120000000E+03  0.17120000000E+03 0.  0.
         13    1    1    2    0    0 -0.40951705738E+02  0.27592649985E+02 -0.61021888885E+00  0.49384006188E+02  0.10566000000E+00 0. -1.
        994    1    1    2    0    0  0.63738065888E+02 -0.38799689985E+02  0.83717952126E+02  0.20466092078E+03  0.17120000000E+03 0.  0.
        998    1    1    2    0    0 -0.22786360150E+02  0.11207040000E+02  0.14168922630E+04  0.14171550730E+04  0.10000000000E+02 0. -1.
</event>
<event>
 5    1  0.1607440E-008  0.4497373E+03  0.7957747E-01  0.3194318E+00
         13   -1    0    0    0    0  0.00000000000E+00  0.00000000000E+00  0.14999999963E+04  0.15000000000E+04  0.10566000000E+00 0. -1.
        994   -1    0    0    0    0 -0.00000000000E+00 -0.00000000000E+00  0.11368683772E-12  0.17120000000E+03  0.17120000000E+03 0.  0.
         13    1    1    2    0    0 -0.59628423839E+02 -0.28785370495E+02  0.15763860946E+02  0.68063624353E+02  0.10566000000E+00 0. -1.
        994    1    1    2    0    0  0.47493687848E+02  0.23950108399E+02  0.75857057085E+02  0.19466122158E+03  0.17120000000E+03 0.  0.
        998    1    1    2    0    0  0.12134735991E+02  0.48352620960E+01  0.14083790782E+04  0.14084751541E+04  0.10000000000E+02 0. -1.
</event>
<event>
 5    1  0.1607440E-008  0.3806120E+03  0.7957747E-01  0.3448498E+00
         13   -1    0    0    0    0  0.00000000000E+00  0.00000000000E+00  0.14999999963E+04  0.15000000000E+04  0.10566000000E+00 0.  1.
        994   -1    0    0    0    0 -0.00000000000E+00 -0.00000000000E+00  0.11368683772E-12  0.17120000000E+03  0.17120000000E+03 0.  0.
         13    1    1    2    0    0  0.63820342495E+01  0.21965684289E+02  0.82240969872E+02  0.85362813549E+02  0.10566000000E+00 0.  1.
        994    1    1    2    0    0  0.13552313064E+02  0.23730393590E+02  0.63199579983E+01  0.17348250240E+03  0.17120000000E+03 0.  0.
        998    1    1    2    0    0 -0.19934347313E+02 -0.45696077879E+02  0.14114390684E+04  0.14123546841E+04  0.10000000000E+02 0.  1.
</event>
<event>
 5    1  0.1607440E-008  0.3833415E+03  0.7957747E-01  0.3436736E+00
         13   -1    0    0    0    0  0.00000000000E+00  0.00000000000E+00  0.14999999963E+04  0.15000000000E+04  0.10566000000E+00 0.  1.
        994   -1    0    0    0    0 -0.00000000000E+00 -0.00000000000E+00  0.11368683772E-12  0.17120000000E+03  0.17120000000E+03 0.  0.
         13    1    1    2    0    0 -0.60868771194E+01  0.17160963394E+02  0.70228835585E+02  0.72551011360E+02  0.10566000000E+00 0.  1.
        994    1    1    2    0    0  0.63150052235E+01 -0.72569320382E+00  0.25893867070E+01  0.17133753484E+03  0.17120000000E+03 0.  0.
        998    1    1    2    0    0 -0.22812810410E+00 -0.16435270190E+02  0.14271817740E+04  0.14273114538E+04  0.10000000000E+02 0.  1.
</event>
<event>
 5    1  0.1607440E-008  0.3846429E+03  0.7957747E-01  0.3431188E+00
         13   -1    0    0    0    0  0.00000000000E+00  0.00000000000E+00  0.14999999963E+04  0.15000000000E+04  0.10566000000E+00 0.  1.
        994   -1    0    0    0    0 -0.00000000000E+00 -0.00000000000E+00  0.11368683772E-12  0.17120000000E+03  0.17120000000E+03 0.  0.
         13    1    1    2    0    0  0.97952205708E+01 -0.87480890332E+01  0.46734504864E+02  0.48544829969E+02  0.10566000000E+00 0.  1.
        994    1    1    2    0    0 -0.95308059018E+01  0.71163362322E+01  0.22734794378E+01  0.17162775769E+03  0.17120000000E+03 0.  0.
        998    1    1    2    0    0 -0.26441466898E+00  0.16317528010E+01  0.14509920120E+04  0.14510274123E+04  0.10000000000E+02 0.  1.
</event>
<event>
 5    1  0.1607440E-008  0.3856567E+03  0.7957747E-01  0.3426892E+00
         13   -1    0    0    0    0  0.00000000000E+00  0.00000000000E+00  0.14999999963E+04  0.15000000000E+04  0.10566000000E+00 0.  1.
        994   -1    0    0    0    0 -0.00000000000E+00 -0.00000000000E+00  0.11368683772E-12  0.17120000000E+03  0.17120000000E+03 0.  0.
         13    1    1    2    0    0  0.43336317862E+01 -0.13592351131E+02  0.74309766428E+02  0.75666934155E+02  0.10566000000E+00 0.  1.
        994    1    1    2    0    0 -0.29502279722E+01  0.16714067762E+02  0.22503532397E+01  0.17205396827E+03  0.17120000000E+03 0.  0.
        998    1    1    2    0    0 -0.13834038140E+01 -0.31217166314E+01  0.14234398766E+04  0.14234790976E+04  0.10000000000E+02 0.  1.
</event>
<event>
 5    1  0.1607440E-008  0.3811023E+03  0.7957747E-01  0.3446373E+00
         13   -1    0    0    0    0  0.00000000000E+00  0.00000000000E+00  0.14999999963E+04  0.15000000000E+04  0.10566000000E+00 0. -1.
        994   -1    0    0    0    0 -0.00000000000E+00 -0.00000000000E+00  0.11368683772E-12  0.17120000000E+03  0.17120000000E+03 0.  0.
         13    1    1    2    0    0 -0.99697691768E+01 -0.23706403224E+01  0.13087795194E+02  0.16622809030E+02  0.10566000000E+00 0. -1.
        994    1    1    2    0    0  0.84690658286E+01  0.40385170771E+01  0.38710324030E+01  0.17150061104E+03  0.17120000000E+03 0.  0.
        998    1    1    2    0    0  0.15007033483E+01 -0.16678767547E+01  0.14830411687E+04  0.14830765799E+04  0.10000000000E+02 0. -1.
</event>
<event>
 5    1  0.1607440E-008  0.3823054E+03  0.7957747E-01  0.3441181E+00
         13   -1    0    0    0    0  0.00000000000E+00  0.00000000000E+00  0.14999999963E+04  0.15000000000E+04  0.10566000000E+00 0.  1.
        994   -1    0    0    0    0 -0.00000000000E+00 -0.00000000000E+00  0.11368683772E-12  0.17120000000E+03  0.17120000000E+03 0.  0.
         13    1    1    2    0    0  0.26032489209E+02 -0.27942212685E+01  0.11085871886E+03  0.11390858123E+03  0.10566000000E+00 0.  1.
        994    1    1    2    0    0 -0.20325731387E+02  0.63177430030E+01  0.44784123302E+01  0.17257620175E+03  0.17120000000E+03 0.  0.
        998    1    1    2    0    0 -0.57067578224E+01 -0.35235217345E+01  0.13846628651E+04  0.13847152170E+04  0.10000000000E+02 0.  1.
</event>
<event>
 5    1  0.1607440E-008  0.3844551E+03  0.7957747E-01  0.3431986E+00
         13   -1    0    0    0    0  0.00000000000E+00  0.00000000000E+00  0.14999999963E+04  0.15000000000E+04  0.10566000000E+00 0. -1.
        994   -1    0    0    0    0 -0.00000000000E+00 -0.00000000000E+00  0.11368683772E-12  0.17120000000E+03  0.17120000000E+03 0.  0.
         13    1    1    2    0    0  0.11710669615E+02 -0.16712658757E+01  0.36409996808E+02  0.38283572770E+02  0.10566000000E+00 0. -1.
        994    1    1    2    0    0 -0.81541420566E+01  0.23309234412E+00  0.21201684734E+01  0.17140734955E+03  0.17120000000E+03 0.  0.
        998    1    1    2    0    0 -0.35565275580E+01  0.14381735316E+01  0.14614698310E+04  0.14615090777E+04  0.10000000000E+02 0. -1.
</event>
<event>
 5    1  0.1607440E-008  0.3795888E+03  0.7957747E-01  0.3452951E+00
         13   -1    0    0    0    0  0.00000000000E+00  0.00000000000E+00  0.14999999963E+04  0.15000000000E+04  0.10566000000E+00 0. -1.
        994   -1    0    0    0    0 -0.00000000000E+00 -0.00000000000E+00  0.11368683772E-12  0.17120000000E+03  0.17120000000E+03 0.  0.
         13    1    1    2    0    0  0.13074944319E+02 -0.22598525938E+02  0.75289657020E+02  0.79688086699E+02  0.10566000000E+00 0. -1.
        994    1    1    2    0    0 -0.43291396929E+01  0.22151065288E+02  0.60479329677E+01  0.17278723517E+03  0.17120000000E+03 0.  0.
        998    1    1    2    0    0 -0.87458046265E+01  0.44746065007E+00  0.14186624063E+04  0.14187246781E+04  0.10000000000E+02 0. -1.
</event>
<event>
 5    1  0.1607440E-008  0.3775631E+03  0.7957747E-01  0.3461838E+00
         13   -1    0    0    0    0  0.00000000000E+00  0.00000000000E+00  0.14999999963E+04  0.15000000000E+04  0.10566000000E+00 0.  1.
        994   -1    0    0    0    0 -0.00000000000E+00 -0.00000000000E+00  0.11368683772E-12  0.17120000000E+03  0.17120000000E+03 0.  0.
         13    1    1    2    0    0  0.46144817784E+02  0.15182184766E+02  0.23887841718E+03  0.24376782458E+03  0.10566000000E+00 0.  1.
        994    1    1    2    0    0 -0.18747030610E+02  0.68519347751E+01  0.67121376105E+01  0.17249026917E+03  0.17120000000E+03 0.  0.
        998    1    1    2    0    0 -0.27397787175E+02 -0.22034119542E+02  0.12544094415E+04  0.12549419062E+04  0.10000000000E+02 0.  1.
</event>
<event>
 5    1  0.1607440E-008  0.3804923E+03  0.7957747E-01  0.3449018E+00
         13   -1    0    0    0    0  0.00000000000E+00  0.00000000000E+00  0.14999999963E+04  0.15000000000E+04  0.10566000000E+00 0. -1.
        994   -1    0    0    0    0 -0.00000000000E+00 -0.00000000000E+00  0.11368683772E-12  0.17120000000E+03  0.17120000000E+03 0.  0.
         13    1    1    2    0    0  0.74058794145E+01 -0.21293684278E+02  0.63485320987E+02  0.67369616185E+02  0.10566000000E+00 0. -1.
        994    1    1    2    0    0 -0.69056050389E+01  0.14936976836E+02  0.47891494092E+01  0.17205573693E+03  0.17120000000E+03 0.  0.
        998    1    1    2    0    0 -0.50027437561E+00  0.63567074417E+01  0.14317255259E+04  0.14317746469E+04  0.10000000000E+02 0. -1.
</event>
<event>
 5    1  0.1607440E-008  0.3770544E+03  0.7957747E-01  0.3464086E+00
         13   -1    0    0    0    0  0.00000000000E+00  0.00000000000E+00  0.14999999963E+04  0.15000000000E+04  0.10566000000E+00 0.  1.
        994   -1    0    0    0    0 -0.00000000000E+00 -0.00000000000E+00  0.11368683772E-12  0.17120000000E+03  0.17120000000E+03 0.  0.
         13    1    1    2    0    0 -0.21259281949E+02  0.23249085721E+02  0.80618030099E+02  0.86554924741E+02  0.10566000000E+00 0.  1.
        994    1    1    2    0    0  0.20855589902E+02 -0.29410298966E+02  0.10028380899E+02  0.17524248840E+03  0.17120000000E+03 0.  0.
        998    1    1    2    0    0  0.40369204663E+00  0.61612132454E+01  0.14093535853E+04  0.14094025869E+04  0.10000000000E+02 0.  1.
</event>
<event>
 5    1  0.1607440E-008  0.3790428E+03  0.7957747E-01  0.3455337E+00
         13   -1    0    0    0    0  0.00000000000E+00  0.00000000000E+00  0.14999999963E+04  0.15000000000E+04  0.10566000000E+00 0. -1.
        994   -1    0    0    0    0 -0.00000000000E+00 -0.00000000000E+00  0.11368683772E-12  0.17120000000E+03  0.17120000000E+03 0.  0.
         13    1    1    2    0    0 -0.19669846835E+02  0.23342458840E+02  0.94883703066E+02  0.99672972921E+02  0.10566000000E+00 0. -1.
        994    1    1    2    0    0  0.16819427619E+02 -0.22609764399E+02  0.72846951196E+01  0.17365656157E+03  0.17120000000E+03 0.  0.
        998    1    1    2    0    0  0.28504192159E+01 -0.73269444058E+00  0.13978315981E+04  0.13978704655E+04  0.10000000000E+02 0. -1.
</event>
<event>
 5    1  0.1607440E-008  0.3799626E+03  0.7957747E-01  0.3451321E+00
         13   -1    0    0    0    0  0.00000000000E+00  0.00000000000E+00  0.14999999963E+04  0.15000000000E+04  0.10566000000E+00 0.  1.
        994   -1    0    0    0    0 -0.00000000000E+00 -0.00000000000E+00  0.11368683772E-12  0.17120000000E+03  0.17120000000E+03 0.  0.
         13    1    1    2    0    0  0.48396854476E+02 -0.45080263605E+01  0.23741251776E+03  0.24233714651E+03  0.10566000000E+00 0.  1.
        994    1    1    2    0    0 -0.48539878296E+02  0.30853825512E+02  0.15292407608E+02  0.18124948569E+03  0.17120000000E+03 0.  0.
        998    1    1    2    0    0  0.14302381932E+00 -0.26345799151E+02  0.12472950709E+04  0.12476133678E+04  0.10000000000E+02 0.  1.
</event>
<event>
 5    1  0.1607440E-008  0.3850365E+03  0.7957747E-01  0.3429518E+00
         13   -1    0    0    0    0  0.00000000000E+00  0.00000000000E+00  0.14999999963E+04  0.15000000000E+04  0.10566000000E+00 0.  1.
        994   -1    0    0    0    0 -0.00000000000E+00 -0.00000000000E+00  0.11368683772E-12  0.17120000000E+03  0.17120000000E+03 0.  0.
         13    1    1    2    0    0  0.61636205313E+01  0.82221901902E+01  0.32555506642E+02  0.34138933879E+02  0.10566000000E+00 0.  1.
        994    1    1    2    0    0  0.83565448902E+00 -0.94504610047E+01  0.19080615432E+01  0.17147329305E+03  0.17120000000E+03 0.  0.
        998    1    1    2    0    0 -0.69992750204E+01  0.12282708145E+01  0.14655364281E+04  0.14655877731E+04  0.10000000000E+02 0.  1.
</event>
<event>
 5    1  0.1607440E-008  0.3729929E+03  0.7957747E-01  0.3482248E+00
         13   -1    0    0    0    0  0.00000000000E+00  0.00000000000E+00  0.14999999963E+04  0.15000000000E+04  0.10566000000E+00 0. -1.
        994   -1    0    0    0    0 -0.00000000000E+00 -0.00000000000E+00  0.11368683772E-12  0.17120000000E+03  0.17120000000E+03 0.  0.
         13    1    1    2    0    0  0.31549321077E+02  0.36370891810E+02  0.24522551898E+03  0.24990751840E+03  0.10566000000E+00 0. -1.
        994    1    1    2    0    0  0.11337212037E+02  0.49834242493E+02  0.16705559852E+02  0.17944497717E+03  0.17120000000E+03 0.  0.
        998    1    1    2    0    0 -0.42886533114E+02 -0.86205134303E+02  0.12380689175E+04  0.12418475044E+04  0.10000000000E+02 0. -1.
</event>
<event>
 5    1  0.1607440E-008  0.3710787E+03  0.7957747E-01  0.3490948E+00
         13   -1    0    0    0    0  0.00000000000E+00  0.00000000000E+00  0.14999999963E+04  0.15000000000E+04  0.10566000000E+00 0.  1.
        994   -1    0    0    0    0 -0.00000000000E+00 -0.00000000000E+00  0.11368683772E-12  0.17120000000E+03  0.17120000000E+03 0.  0.
         13    1    1    2    0    0 -0.68152844711E+01 -0.30876147101E+02  0.55321949727E+02  0.63720592023E+02  0.10566000000E+00 0.  1.
        994    1    1    2    0    0 -0.46581320061E+01  0.14765868381E+02  0.95325815131E+01  0.17216282750E+03  0.17120000000E+03 0.  0.
        998    1    1    2    0    0  0.11473416477E+02  0.16110278720E+02  0.14351454650E+04  0.14353165805E+04  0.10000000000E+02 0.  1.
</event>
<event>
 5    1  0.1607440E-008  0.3812487E+03  0.7957747E-01  0.3445739E+00
         13   -1    0    0    0    0  0.00000000000E+00  0.00000000000E+00  0.14999999963E+04  0.15000000000E+04  0.10566000000E+00 0.  1.
        994   -1    0    0    0    0 -0.00000000000E+00 -0.00000000000E+00  0.11368683772E-12  0.17120000000E+03  0.17120000000E+03 0.  0.
         13    1    1    2    0    0  0.42440145878E+01 -0.18411746814E+02  0.51625047169E+02  0.54974182484E+02  0.10566000000E+00 0.  1.
        994    1    1    2    0    0  0.50322823677E+00  0.31808491476E+01  0.35386581334E+01  0.17126684776E+03  0.17120000000E+03 0.  0.
        998    1    1    2    0    0 -0.47472428246E+01  0.15230897666E+02  0.14448362910E+04  0.14449589698E+04  0.10000000000E+02 0.  1.
</event>
<event>
 5    1  0.1607440E-008  0.3789021E+03  0.7957747E-01  0.3455953E+00
         13   -1    0    0    0    0  0.00000000000E+00  0.00000000000E+00  0.14999999963E+04  0.15000000000E+04  0.10566000000E+00 0.  1.
        994   -1    0    0    0    0 -0.00000000000E+00 -0.00000000000E+00  0.11368683772E-12  0.17120000000E+03  0.17120000000E+03 0.  0.
         13    1    1    2    0    0 -0.95059517620E+01 -0.72445866506E+01  0.13531917381E+02  0.18054669941E+02  0.10566000000E+00 0.  1.
        994    1    1    2    0    0 -0.17615202993E+01 -0.16894263037E+01  0.47083855284E+01  0.17128212402E+03  0.17120000000E+03 0.  0.
        998    1    1    2    0    0  0.11267472061E+02  0.89340129543E+01  0.14817596934E+04  0.14818632060E+04  0.10000000000E+02 0.  1.
</event>
<event>
 5    1  0.1607440E-008  0.3836909E+03  0.7957747E-01  0.3435243E+00
         13   -1    0    0    0    0  0.00000000000E+00  0.00000000000E+00  0.14999999963E+04  0.15000000000E+04  0.10566000000E+00 0. -1.
        994   -1    0    0    0    0 -0.00000000000E+00 -0.00000000000E+00  0.11368683772E-12  0.17120000000E+03  0.17120000000E+03 0.  0.
         13    1    1    2    0    0 -0.68674146547E+01 -0.18415731786E+02  0.10062445359E+03  0.10252605711E+03  0.10566000000E+00 0. -1.
        994    1    1    2    0    0  0.50845537564E+01 -0.15930452332E+02  0.32055469561E+01  0.17204460913E+03  0.17120000000E+03 0.  0.
        998    1    1    2    0    0  0.17828608983E+01  0.34346184117E+02  0.13961699957E+04  0.13966293338E+04  0.10000000000E+02 0. -1.
</event>
<event>
 5    1  0.1607440E-008  0.3740778E+03  0.7957747E-01  0.3477358E+00
         13   -1    0    0    0    0  0.00000000000E+00  0.00000000000E+00  0.14999999963E+04  0.15000000000E+04  0.10566000000E+00 0. -1.
        994   -1    0    0    0    0 -0.00000000000E+00 -0.00000000000E+00  0.11368683772E-12  0.17120000000E+03  0.17120000000E+03 0.  0.
         13    1    1    2    0    0 -0.14480067501E+02  0.12465991163E+02  0.22792359174E+02  0.29741823939E+02  0.10566000000E+00 0. -1.
        994    1    1    2    0    0  0.83905214034E+01 -0.24272574187E+01  0.74132668391E+01  0.17158289237E+03  0.17120000000E+03 0.  0.
        998    1    1    2    0    0  0.60895460972E+01 -0.10038733744E+02  0.14697943703E+04  0.14698752837E+04  0.10000000000E+02 0. -1.
</event>
<event>
 5    1  0.1607440E-008  0.3864543E+03  0.7957747E-01  0.3423528E+00
         13   -1    0    0    0    0  0.00000000000E+00  0.00000000000E+00  0.14999999963E+04  0.15000000000E+04  0.10566000000E+00 0. -1.
        994   -1    0    0    0    0 -0.00000000000E+00 -0.00000000000E+00  0.11368683772E-12  0.17120000000E+03  0.17120000000E+03 0.  0.
         13    1    1    2    0    0  0.13533778931E+01  0.11122940895E+02  0.66422255459E+02  0.67360809305E+02  0.10566000000E+00 0. -1.
        994    1    1    2    0    0  0.13557699135E+02 -0.16608815249E+02  0.24158398988E+01  0.17255416608E+03  0.17120000000E+03 0.  0.
        998    1    1    2    0    0 -0.14911077028E+02  0.54858743546E+01  0.14311619009E+04  0.14312850246E+04  0.10000000000E+02 0. -1.
</event>
<event>
 5    1  0.1607440E-008  0.3734511E+03  0.7957747E-01  0.3480179E+00
         13   -1    0    0    0    0  0.00000000000E+00  0.00000000000E+00  0.14999999963E+04  0.15000000000E+04  0.10566000000E+00 0.  1.
        994   -1    0    0    0    0 -0.00000000000E+00 -0.00000000000E+00  0.11368683772E-12  0.17120000000E+03  0.17120000000E+03 0.  0.
         13    1    1    2    0    0  0.49721527670E+01 -0.12772091010E+02  0.90588004592E+01  0.16429292185E+02  0.10566000000E+00 0.  1.
        994    1    1    2    0    0 -0.34781841655E+01  0.16159400794E+02  0.84104616746E+01  0.17220162562E+03  0.17120000000E+03 0.  0.
        998    1    1    2    0    0 -0.14939686015E+01 -0.33873097840E+01  0.14825307341E+04  0.14825690822E+04  0.10000000000E+02 0.  1.
</event>
<event>
 5    1  0.1607440E-008  0.3812952E+03  0.7957747E-01  0.3445538E+00
         13   -1    0    0    0    0  0.00000000000E+00  0.00000000000E+00  0.14999999963E+04  0.15000000000E+04  0.10566000000E+00 0.  1.
        994   -1    0    0    0    0 -0.00000000000E+00 -0.00000000000E+00  0.11368683772E-12  0.17120000000E+03  0.17120000000E+03 0.  0.
         13    1    1    2    0    0 -0.23975875000E+02 -0.56821508346E+01  0.95536994382E+02  0.98663356317E+02  0.10566000000E+00 0.  1.
        994    1    1    2    0    0 -0.42280677549E+01  0.14759852817E+01  0.35475345436E+01  0.17129530084E+03  0.17120000000E+03 0.  0.
        998    1    1    2    0    0  0.28203942755E+02  0.42061655530E+01  0.14009154674E+04  0.14012413428E+04  0.10000000000E+02 0.  1.
</event>
<event>
 5    1  0.1607440E-008  0.3786658E+03  0.7957747E-01  0.3456989E+00
         13   -1    0    0    0    0  0.00000000000E+00  0.00000000000E+00  0.14999999963E+04  0.15000000000E+04  0.10566000000E+00 0.  1.
        994   -1    0    0    0    0 -0.00000000000E+00 -0.00000000000E+00  0.11368683772E-12  0.17120000000E+03  0.17120000000E+03 0.  0.
         13    1    1    2    0    0  0.30758314892E+01  0.21468995651E+02  0.48014732632E+02  0.52685901599E+02  0.10566000000E+00 0.  1.
        994    1    1    2    0    0  0.41165112871E+01 -0.91996012338E+01  0.51493175683E+01  0.17157369787E+03  0.17120000000E+03 0.  0.
        998    1    1    2    0    0 -0.71923427763E+01 -0.12269394417E+02  0.14468359461E+04  0.14469404005E+04  0.10000000000E+02 0.  1.
</event>
<event>
 5    1  0.1607440E-008  0.3791296E+03  0.7957747E-01  0.3454957E+00
         13   -1    0    0    0    0  0.00000000000E+00  0.00000000000E+00  0.14999999963E+04  0.15000000000E+04  0.10566000000E+00 0. -1.
        994   -1    0    0    0    0 -0.00000000000E+00 -0.00000000000E+00  0.11368683772E-12  0.17120000000E+03  0.17120000000E+03 0.  0.
         13    1    1    2    0    0  0.24457592766E+02  0.23822894350E+02  0.11326980072E+03  0.11830368996E+03  0.10566000000E+00 0. -1.
        994    1    1    2    0    0 -0.28384105448E+02 -0.29361612702E+02  0.10184800227E+02  0.17629784995E+03  0.17120000000E+03 0.  0.
        998    1    1    2    0    0  0.39265126826E+01  0.55387183518E+01  0.13765453953E+04  0.13765984601E+04  0.10000000000E+02 0. -1.
</event>
<event>
 5    1  0.1607440E-008  0.3840614E+03  0.7957747E-01  0.3433662E+00
         13   -1    0    0    0    0  0.00000000000E+00  0.00000000000E+00  0.14999999963E+04  0.15000000000E+04  0.10566000000E+00 0. -1.
        994   -1    0    0    0    0 -0.00000000000E+00 -0.00000000000E+00  0.11368683772E-12  0.17120000000E+03  0.17120000000E+03 0.  0.
         13    1    1    2    0    0 -0.72519391344E+01  0.15348097873E+02  0.68125641871E+02  0.70208752830E+02  0.10566000000E+00 0. -1.
        994    1    1    2    0    0  0.15794820554E+01 -0.11976710156E+02  0.25783743673E+01  0.17164505342E+03  0.17120000000E+03 0.  0.
        998    1    1    2    0    0  0.56724570790E+01 -0.33713877164E+01  0.14292959800E+04  0.14293461937E+04  0.10000000000E+02 0. -1.
</event>
<event>
 5    1  0.1607440E-008  0.3830885E+03  0.7957747E-01  0.3437820E+00
         13   -1    0    0    0    0  0.00000000000E+00  0.00000000000E+00  0.14999999963E+04  0.15000000000E+04  0.10566000000E+00 0. -1.
        994   -1    0    0    0    0 -0.00000000000E+00 -0.00000000000E+00  0.11368683772E-12  0.17120000000E+03  0.17120000000E+03 0.  0.
         13    1    1    2    0    0  0.34288655269E+01  0.12192704268E+02  0.29633126511E+02  0.32226580753E+02  0.10566000000E+00 0. -1.
        994    1    1    2    0    0  0.16627934000E+01 -0.14894859857E+02  0.33258038469E+01  0.17188694745E+03  0.17120000000E+03 0.  0.
        998    1    1    2    0    0 -0.50916589269E+01  0.27021555891E+01  0.14670410659E+04  0.14670864718E+04  0.10000000000E+02 0. -1.
</event>
<event>
 5    1  0.1607440E-008  0.3699873E+03  0.7957747E-01  0.3495949E+00
         13   -1    0    0    0    0  0.00000000000E+00  0.00000000000E+00  0.14999999963E+04  0.15000000000E+04  0.10566000000E+00 0. -1.
        994   -1    0    0    0    0 -0.00000000000E+00 -0.00000000000E+00  0.11368683772E-12  0.17120000000E+03  0.17120000000E+03 0.  0.
         13    1    1    2    0    0 -0.45958948592E+02  0.34722437111E+01  0.94202826897E+02  0.10487356765E+03  0.10566000000E+00 0. -1.
        994    1    1    2    0    0  0.67400919028E+02 -0.90781720196E+02  0.54875105370E+02  0.21237919342E+03  0.17120000000E+03 0.  0.
        998    1    1    2    0    0 -0.21441970436E+02  0.87309476485E+02  0.13509220640E+04  0.13539472389E+04  0.10000000000E+02 0. -1.
</event>
<event>
 5    1  0.1607440E-008  0.3788295E+03  0.7957747E-01  0.3456271E+00
         13   -1    0    0    0    0  0.00000000000E+00  0.00000000000E+00  0.14999999963E+04  0.15000000000E+04  0.10566000000E+00 0.  1.
        994   -1    0    0    0    0 -0.00000000000E+00 -0.00000000000E+00  0.11368683772E-12  0.17120000000E+03  0.17120000000E+03 0.  0.
         13    1    1    2    0    0  0.20504274529E+02  0.26344693024E+02  0.14603441121E+03  0.14980163066E+03  0.10566000000E+00 0.  1.
        994    1    1    2    0    0  0.67438114363E+01  0.16949661228E+02  0.58427275016E+01  0.17226824279E+03  0.17120000000E+03 0.  0.
        998    1    1    2    0    0 -0.27248085965E+02 -0.43294354252E+02  0.13481228576E+04  0.13491301266E+04  0.10000000000E+02 0.  1.
</event>
<event>
 5    1  0.1607440E-008  0.3742065E+03  0.7957747E-01  0.3476779E+00
         13   -1    0    0    0    0  0.00000000000E+00  0.00000000000E+00  0.14999999963E+04  0.15000000000E+04  0.10566000000E+00 0.  1.
        994   -1    0    0    0    0 -0.00000000000E+00 -0.00000000000E+00  0.11368683772E-12  0.17120000000E+03  0.17120000000E+03 0.  0.
         13    1    1    2    0    0  0.19759091513E+02 -0.12416230192E+02  0.35853237583E+02  0.42779086933E+02  0.10566000000E+00 0.  1.
        994    1    1    2    0    0 -0.80007527504E+01  0.11408908446E+02  0.77488505650E+01  0.17194086170E+03  0.17120000000E+03 0.  0.
        998    1    1    2    0    0 -0.11758338763E+02  0.10073217457E+01  0.14563979081E+04  0.14564800514E+04  0.10000000000E+02 0.  1.
</event>
<event>
 5    1  0.1607440E-008  0.3837283E+03  0.7957747E-01  0.3435084E+00
         13   -1    0    0    0    0  0.00000000000E+00  0.00000000000E+00  0.14999999963E+04  0.15000000000E+04  0.10566000000E+00 0. -1.
        994   -1    0    0    0    0 -0.00000000000E+00 -0.00000000000E+00  0.11368683772E-12  0.17120000000E+03  0.17120000000E+03 0.  0.
         13    1    1    2    0    0 -0.11263577693E+02  0.56598848989E+01  0.33593827827E+02  0.35881177679E+02  0.10566000000E+00 0. -1.
        994    1    1    2    0    0  0.10152372032E+02 -0.13094331645E+02  0.31699521765E+01  0.17202912770E+03  0.17120000000E+03 0.  0.
        998    1    1    2    0    0  0.11112056619E+01  0.74344467456E+01  0.14632362163E+04  0.14632896946E+04  0.10000000000E+02 0. -1.
</event>
<event>
 5    1  0.1607440E-008  0.3861419E+03  0.7957747E-01  0.3424844E+00
         13   -1    0    0    0    0  0.00000000000E+00  0.00000000000E+00  0.14999999963E+04  0.15000000000E+04  0.10566000000E+00 0.  1.
        994   -1    0    0    0    0 -0.00000000000E+00 -0.00000000000E+00  0.11368683772E-12  0.17120000000E+03  0.17120000000E+03 0.  0.
         13    1    1    2    0    0  0.50314422985E+01 -0.92389578932E+01  0.55571481219E+02  0.56558593012E+02  0.10566000000E+00 0.  1.
        994    1    1    2    0    0  0.71417954082E+01  0.38662354045E+01  0.12803883485E+01  0.17139729406E+03  0.17120000000E+03 0.  0.
        998    1    1    2    0    0 -0.12173237707E+02  0.53727224887E+01  0.14431481267E+04  0.14432441129E+04  0.10000000000E+02 0.  1.
</event>
<event>
 5    1  0.1607440E-008  0.3789969E+03  0.7957747E-01  0.3455538E+00
         13   -1    0    0    0    0  0.00000000000E+00  0.00000000000E+00  0.14999999963E+04  0.15000000000E+04  0.10566000000E+00 0. -1.
        994   -1    0    0    0    0 -0.00000000000E+00 -0.00000000000E+00  0.11368683772E-12  0.17120000000E+03  0.17120000000E+03 0.  0.
         13    1    1    2    0    0  0.31006210209E+02  0.85631060900E+01  0.13103698389E+03  0.13492744038E+03  0.10566000000E+00 0. -1.
        994    1    1    2    0    0  0.12053256137E+02 -0.98178290574E+00  0.51309995877E+01  0.17170326741E+03  0.17120000000E+03 0.  0.
        998    1    1    2    0    0 -0.43059466345E+02 -0.75813231842E+01  0.13638320128E+04  0.13645692922E+04  0.10000000000E+02 0. -1.
</event>
<event>
 5    1  0.1607440E-008  0.3792047E+03  0.7957747E-01  0.3454629E+00
         13   -1    0    0    0    0  0.00000000000E+00  0.00000000000E+00  0.14999999963E+04  0.15000000000E+04  0.10566000000E+00 0.  1.
        994   -1    0    0    0    0 -0.00000000000E+00 -0.00000000000E+00  0.11368683772E-12  0.17120000000E+03  0.17120000000E+03 0.  0.
         13    1    1    2    0    0  0.90937128714E+01 -0.12956761745E+02  0.25870315241E+02  0.30329155336E+02  0.10566000000E+00 0.  1.
        994    1    1    2    0    0 -0.57917126012E+01  0.75904253496E+01  0.48407195368E+01  0.17153434367E+03  0.17120000000E+03 0.  0.
        998    1    1    2    0    0 -0.33020002702E+01  0.53663363950E+01  0.14692889615E+04  0.14693365010E+04  0.10000000000E+02 0.  1.
</event>
<event>
 5    1  0.1607440E-008  0.3787617E+03  0.7957747E-01  0.3456568E+00
         13   -1    0    0    0    0  0.00000000000E+00  0.00000000000E+00  0.14999999963E+04  0.15000000000E+04  0.10566000000E+00 0. -1.
        994   -1    0    0    0    0 -0.00000000000E+00 -0.00000000000E+00  0.11368683772E-12  0.17120000000E+03  0.17120000000E+03 0.  0.
         13    1    1    2    0    0  0.47456956738E+01  0.23623318344E+02  0.64034169863E+02  0.68417606441E+02  0.10566000000E+00 0. -1.
        994    1    1    2    0    0 -0.32461574685E+01  0.50155498105E+01  0.48793706137E+01  0.17137368974E+03  0.17120000000E+03 0.  0.
        998    1    1    2    0    0 -0.14995382052E+01 -0.28638868154E+02  0.14310864558E+04  0.14314087038E+04  0.10000000000E+02 0. -1.
</event>
<event>
 5    1  0.1607440E-008  0.3859335E+03  0.7957747E-01  0.3425723E+00
         13   -1    0    0    0    0  0.00000000000E+00  0.00000000000E+00  0.14999999963E+04  0.15000000000E+04  0.10566000000E+00 0. -1.
        994   -1    0    0    0    0 -0.00000000000E+00 -0.00000000000E+00  0.11368683772E-12  0.17120000000E+03  0.17120000000E+03 0.  0.
         13    1    1    2    0    0 -0.49842506901E+01 -0.94489958836E+01  0.49623704348E+02  0.50760707988E+02  0.10566000000E+00 0. -1.
        994    1    1    2    0    0  0.13520269552E+01  0.66347848592E+01  0.13177071370E+01  0.17133891764E+03  0.17120000000E+03 0.  0.
        998    1    1    2    0    0  0.36322237349E+01  0.28142110244E+01  0.14490585848E+04  0.14491003744E+04  0.10000000000E+02 0. -1.
</event>
<event>
 5    1  0.1607440E-008  0.3839182E+03  0.7957747E-01  0.3434273E+00
         13   -1    0    0    0    0  0.00000000000E+00  0.00000000000E+00  0.14999999963E+04  0.15000000000E+04  0.10566000000E+00 0.  1.
        994   -1    0    0    0    0 -0.00000000000E+00 -0.00000000000E+00  0.11368683772E-12  0.17120000000E+03  0.17120000000E+03 0.  0.
         13    1    1    2    0    0  0.27510294084E+01 -0.25279985550E+02  0.13707616368E+03  0.13941496205E+03  0.10566000000E+00 0.  1.
        994    1    1    2    0    0 -0.31903716404E+01  0.25363520489E+02  0.43277897263E+01  0.17315211927E+03  0.17120000000E+03 0.  0.
        998    1    1    2    0    0  0.43934223192E+00 -0.83534938999E-01  0.13585960429E+04  0.13586329187E+04  0.10000000000E+02 0.  0.
</event>
<event>
 5    1  0.1607440E-008  0.3736556E+03  0.7957747E-01  0.3479257E+00
         13   -1    0    0    0    0  0.00000000000E+00  0.00000000000E+00  0.14999999963E+04  0.15000000000E+04  0.10566000000E+00 0. -1.
        994   -1    0    0    0    0 -0.00000000000E+00 -0.00000000000E+00  0.11368683772E-12  0.17120000000E+03  0.17120000000E+03 0.  0.
         13    1    1    2    0    0 -0.67543825727E+01  0.20045108633E+02  0.11964811960E+02  0.24302180011E+02  0.10566000000E+00 0. -1.
        994    1    1    2    0    0 -0.42051039415E+01 -0.10189209127E+02  0.13315380071E+02  0.17207045716E+03  0.17120000000E+03 0.  0.
        998    1    1    2    0    0  0.10959486514E+02 -0.98558995055E+01  0.14747198042E+04  0.14748273628E+04  0.10000000000E+02 0. -1.
</event>
<event>
 5    1  0.1607440E-008  0.3754578E+03  0.7957747E-01  0.3471178E+00
         13   -1    0    0    0    0  0.00000000000E+00  0.00000000000E+00  0.14999999963E+04  0.15000000000E+04  0.10566000000E+00 0.  1.
        994   -1    0    0    0    0 -0.00000000000E+00 -0.00000000000E+00  0.11368683772E-12  0.17120000000E+03  0.17120000000E+03 0.  0.
         13    1    1    2    0    0 -0.15732292945E+02 -0.17098749266E+02  0.37632557982E+02  0.44227738492E+02  0.10566000000E+00 0.  1.
        994    1    1    2    0    0  0.21016214163E+02  0.22198338369E+02  0.96218222386E+01  0.17417366893E+03  0.17120000000E+03 0.  0.
        998    1    1    2    0    0 -0.52839212187E+01 -0.50995891024E+01  0.14527456161E+04  0.14527985926E+04  0.10000000000E+02 0.  1.
</event>
<event>
 5    1  0.1607440E-008  0.3820673E+03  0.7957747E-01  0.3442206E+00
         13   -1    0    0    0    0  0.00000000000E+00  0.00000000000E+00  0.14999999963E+04  0.15000000000E+04  0.10566000000E+00 0. -1.
        994   -1    0    0    0    0 -0.00000000000E+00 -0.00000000000E+00  0.11368683772E-12  0.17120000000E+03  0.17120000000E+03 0.  0.
         13    1    1    2    0    0  0.32612313128E+02  0.11701493619E+02  0.16704536393E+03  0.17060085783E+03  0.10566000000E+00 0. -1.
        994    1    1    2    0    0 -0.38910569053E+02 -0.91597763557E+01  0.84169549758E+01  0.17600630392E+03  0.17120000000E+03 0.  0.
        998    1    1    2    0    0  0.62982559254E+01 -0.25417172629E+01  0.13245376774E+04  0.13245928383E+04  0.10000000000E+02 0. -1.
</event>
<event>
 5    1  0.1908626E-008  0.3861442E+03  0.7957747E-01  0.3424834E+00
         13   -1    0    0    0    0  0.00000000000E+00  0.00000000000E+00  0.14999999963E+04  0.15000000000E+04  0.10566000000E+00 0.  1.
        994   -1    0    0    0    0 -0.00000000000E+00 -0.00000000000E+00  0.11368683772E-12  0.17120000000E+03  0.17120000000E+03 0.  0.
         13    1    1    2    0    0  0.19597117961E+01 -0.12574089181E+02  0.76263967690E+02  0.77318510856E+02  0.10566000000E+00 0.  1.
        994    1    1    2    0    0 -0.16754403280E+01  0.97343895826E+01  0.13828395820E+01  0.17149028452E+03  0.17120000000E+03 0.  0.
        998    1    1    2    0    0 -0.28427146817E+00  0.28396995985E+01  0.14223531890E+04  0.14223912046E+04  0.10000000000E+02 0.  1.
</event>
<event>
 5    1  0.1607440E-008  0.3842996E+03  0.7957747E-01  0.3432648E+00
         13   -1    0    0    0    0  0.00000000000E+00  0.00000000000E+00  0.14999999963E+04  0.15000000000E+04  0.10566000000E+00 0.  1.
        994   -1    0    0    0    0 -0.00000000000E+00 -0.00000000000E+00  0.11368683772E-12  0.17120000000E+03  0.17120000000E+03 0.  0.
         13    1    1    2    0    0  0.16533080646E+02  0.25197374524E+01  0.71810204472E+02  0.73732004333E+02  0.10566000000E+00 0.  1.
        994    1    1    2    0    0 -0.63199038757E+01 -0.93138950384E+01  0.23959638784E+01  0.17158633532E+03  0.17120000000E+03 0.  0.
        998    1    1    2    0    0 -0.10213176771E+02  0.67941575860E+01  0.14257938279E+04  0.14258816603E+04  0.10000000000E+02 0.  1.
</event>
<event>
 5    1  0.1607440E-008  0.3816173E+03  0.7957747E-01  0.3444147E+00
         13   -1    0    0    0    0  0.00000000000E+00  0.00000000000E+00  0.14999999963E+04  0.15000000000E+04  0.10566000000E+00 0. -1.
        994   -1    0    0    0    0 -0.00000000000E+00 -0.00000000000E+00  0.11368683772E-12  0.17120000000E+03  0.17120000000E+03 0.  0.
         13    1    1    2    0    0  0.11958379647E+02  0.76221278324E+01  0.29222486585E+02  0.32481757384E+02  0.10566000000E+00 0. -1.
        994    1    1    2    0    0 -0.10810172875E+02  0.25085039317E+01  0.37285850211E+01  0.17159980995E+03  0.17120000000E+03 0.  0.
        998    1    1    2    0    0 -0.11482067719E+01 -0.10130631764E+02  0.14670489247E+04  0.14671184327E+04  0.10000000000E+02 0. -1.
</event>
<event>
 5    1  0.1607440E-008  0.3803613E+03  0.7957747E-01  0.3449587E+00
         13   -1    0    0    0    0  0.00000000000E+00  0.00000000000E+00  0.14999999963E+04  0.15000000000E+04  0.10566000000E+00 0. -1.
        994   -1    0    0    0    0 -0.00000000000E+00 -0.00000000000E+00  0.11368683772E-12  0.17120000000E+03  0.17120000000E+03 0.  0.
         13    1    1    2    0    0  0.30867957221E+02 -0.11530152791E+02  0.13386764992E+03  0.13786346168E+03  0.10566000000E+00 0. -1.
        994    1    1    2    0    0 -0.28629567043E+02 -0.11718509058E+02  0.71527185686E+01  0.17411943300E+03  0.17120000000E+03 0.  0.
        998    1    1    2    0    0 -0.22383901774E+01  0.23248661849E+02  0.13589796278E+04  0.13592171053E+04  0.10000000000E+02 0. -1.
</event>
<event>
 5    1  0.1607440E-008  0.3815098E+03  0.7957747E-01  0.3444611E+00
         13   -1    0    0    0    0  0.00000000000E+00  0.00000000000E+00  0.14999999963E+04  0.15000000000E+04  0.10566000000E+00 0.  1.
        994   -1    0    0    0    0 -0.00000000000E+00 -0.00000000000E+00  0.11368683772E-12  0.17120000000E+03  0.17120000000E+03 0.  0.
         13    1    1    2    0    0 -0.29096276457E+02  0.68835488372E+01  0.11992500227E+03  0.12359609169E+03  0.10566000000E+00 0.  1.
        994    1    1    2    0    0  0.33326426935E+02 -0.24603545321E+01  0.70963485138E+01  0.17457520511E+03  0.17120000000E+03 0.  0.
        998    1    1    2    0    0 -0.42301504782E+01 -0.44231943051E+01  0.13729786455E+04  0.13730287032E+04  0.10000000000E+02 0.  1.
</event>
<event>
 5    1  0.1607440E-008  0.3810526E+03  0.7957747E-01  0.3446588E+00
         13   -1    0    0    0    0  0.00000000000E+00  0.00000000000E+00  0.14999999963E+04  0.15000000000E+04  0.10566000000E+00 0. -1.
        994   -1    0    0    0    0 -0.00000000000E+00 -0.00000000000E+00  0.11368683772E-12  0.17120000000E+03  0.17120000000E+03 0.  0.
         13    1    1    2    0    0 -0.36670292901E+02  0.16023750281E+02  0.21703049798E+03  0.22068919134E+03  0.10566000000E+00 0. -1.
        994    1    1    2    0    0  0.37176437244E+01 -0.73917206291E+02  0.22070830248E+02  0.18781409907E+03  0.17120000000E+03 0.  0.
        998    1    1    2    0    0  0.32952649176E+02  0.57893456010E+02  0.12608986680E+04  0.12626967096E+04  0.10000000000E+02 0. -1.
</event>
<event>
 5    1  0.1607440E-008  0.3853231E+03  0.7957747E-01  0.3428303E+00
         13   -1    0    0    0    0  0.00000000000E+00  0.00000000000E+00  0.14999999963E+04  0.15000000000E+04  0.10566000000E+00 0.  1.
        994   -1    0    0    0    0 -0.00000000000E+00 -0.00000000000E+00  0.11368683772E-12  0.17120000000E+03  0.17120000000E+03 0.  0.
         13    1    1    2    0    0 -0.57868771396E+01 -0.16979606121E+02  0.10489403556E+03  0.10641693865E+03  0.10566000000E+00 0.  1.
        994    1    1    2    0    0  0.42950668626E+01  0.16351510240E+02  0.24093397504E+01  0.17204959868E+03  0.17120000000E+03 0.  0.
        998    1    1    2    0    0  0.14918102770E+01  0.62809588021E+00  0.13926966210E+04  0.13927334627E+04  0.10000000000E+02 0.  0.
</event>
<event>
 5    1  0.1607440E-008  0.3769753E+03  0.7957747E-01  0.3464435E+00
         13   -1    0    0    0    0  0.00000000000E+00  0.00000000000E+00  0.14999999963E+04  0.15000000000E+04  0.10566000000E+00 0. -1.
        994   -1    0    0    0    0 -0.00000000000E+00 -0.00000000000E+00  0.11368683772E-12  0.17120000000E+03  0.17120000000E+03 0.  0.
         13    1    1    2    0    0 -0.89546645246E+01  0.42539509779E+02  0.14618285069E+03  0.15250977971E+03  0.10566000000E+00 0. -1.
        994    1    1    2    0    0  0.35150201766E+02 -0.42074586576E+02  0.15885756153E+02  0.18046496826E+03  0.17120000000E+03 0.  0.
        998    1    1    2    0    0 -0.26195537242E+02 -0.46492320294E+00  0.13379313894E+04  0.13382252520E+04  0.10000000000E+02 0. -1.
</event>
<event>
 5    1  0.1607440E-008  0.3686616E+03  0.7957747E-01  0.3502065E+00
         13   -1    0    0    0    0  0.00000000000E+00  0.00000000000E+00  0.14999999963E+04  0.15000000000E+04  0.10566000000E+00 0. -1.
        994   -1    0    0    0    0 -0.00000000000E+00 -0.00000000000E+00  0.11368683772E-12  0.17120000000E+03  0.17120000000E+03 0.  0.
         13    1    1    2    0    0 -0.78036122398E+01  0.17007600894E+02  0.12241669177E+02  0.22361227167E+02  0.10566000000E+00 0. -1.
        994    1    1    2    0    0  0.50745189815E+01 -0.26443034176E+02  0.12759667942E+02  0.17377351330E+03  0.17120000000E+03 0.  0.
        998    1    1    2    0    0  0.27290932583E+01  0.94354332825E+01  0.14749986592E+04  0.14750652595E+04  0.10000000000E+02 0. -1.
</event>
<event>
 5    1  0.1607440E-008  0.3739019E+03  0.7957747E-01  0.3478149E+00
         13   -1    0    0    0    0  0.00000000000E+00  0.00000000000E+00  0.14999999963E+04  0.15000000000E+04  0.10566000000E+00 0. -1.
        994   -1    0    0    0    0 -0.00000000000E+00 -0.00000000000E+00  0.11368683772E-12  0.17120000000E+03  0.17120000000E+03 0.  0.
         13    1    1    2    0    0  0.46088727831E+02  0.52676594887E+02  0.30645243282E+03  0.31434391871E+03  0.10566000000E+00 0. -1.
        994    1    1    2    0    0 -0.30676841900E+02 -0.43071445125E+02  0.16844643872E+02  0.17997055326E+03  0.17120000000E+03 0.  0.
        998    1    1    2    0    0 -0.15411885931E+02 -0.96051497626E+01  0.11767029196E+04  0.11768855280E+04  0.10000000000E+02 0. -1.
</event>
<event>
 5    1  0.1607440E-008  0.3834844E+03  0.7957747E-01  0.3436126E+00
         13   -1    0    0    0    0  0.00000000000E+00  0.00000000000E+00  0.14999999963E+04  0.15000000000E+04  0.10566000000E+00 0.  1.
        994   -1    0    0    0    0 -0.00000000000E+00 -0.00000000000E+00  0.11368683772E-12  0.17120000000E+03  0.17120000000E+03 0.  0.
         13    1    1    2    0    0  0.13251030919E+02 -0.31725719674E+01  0.37678017886E+02  0.40066185608E+02  0.10566000000E+00 0.  1.
        994    1    1    2    0    0 -0.98835538433E+01  0.13579373442E+02  0.33172862561E+01  0.17205385322E+03  0.17120000000E+03 0.  0.
        998    1    1    2    0    0 -0.33674770757E+01 -0.10406801474E+02  0.14590046921E+04  0.14590799612E+04  0.10000000000E+02 0.  1.
</event>
<event>
 5    1  0.1607440E-008  0.3755669E+03  0.7957747E-01  0.3470691E+00
         13   -1    0    0    0    0  0.00000000000E+00  0.00000000000E+00  0.14999999963E+04  0.15000000000E+04  0.10566000000E+00 0. -1.
        994   -1    0    0    0    0 -0.00000000000E+00 -0.00000000000E+00  0.11368683772E-12  0.17120000000E+03  0.17120000000E+03 0.  0.
         13    1    1    2    0    0  0.10437656454E+00  0.41960861766E+02  0.12771196098E+03  0.13442872072E+03  0.10566000000E+00 0. -1.
        994    1    1    2    0    0  0.28552163005E+01 -0.37570863970E+02  0.11219835416E+02  0.17565604683E+03  0.17120000000E+03 0.  0.
        998    1    1    2    0    0 -0.29595928650E+01 -0.43899977958E+01  0.13610681999E+04  0.13611152325E+04  0.10000000000E+02 0. -1.
</event>
<event>
 5    1  0.1607440E-008  0.3852420E+03  0.7957747E-01  0.3428647E+00
         13   -1    0    0    0    0  0.00000000000E+00  0.00000000000E+00  0.14999999963E+04  0.15000000000E+04  0.10566000000E+00 0. -1.
        994   -1    0    0    0    0 -0.00000000000E+00 -0.00000000000E+00  0.11368683772E-12  0.17120000000E+03  0.17120000000E+03 0.  0.
         13    1    1    2    0    0  0.93387668082E+01  0.11381973741E+02  0.74179186199E+02  0.75626217153E+02  0.10566000000E+00 0. -1.
        994    1    1    2    0    0 -0.10460249061E+02  0.15167625481E+01  0.18772402104E+01  0.17153623935E+03  0.17120000000E+03 0.  0.
        998    1    1    2    0    0  0.11214822524E+01 -0.12898736289E+02  0.14239435699E+04  0.14240375435E+04  0.10000000000E+02 0. -1.
</event>
<event>
 5    1  0.1607440E-008  0.3697081E+03  0.7957747E-01  0.3497233E+00
         13   -1    0    0    0    0  0.00000000000E+00  0.00000000000E+00  0.14999999963E+04  0.15000000000E+04  0.10566000000E+00 0. -1.
        994   -1    0    0    0    0 -0.00000000000E+00 -0.00000000000E+00  0.11368683772E-12  0.17120000000E+03  0.17120000000E+03 0.  0.
         13    1    1    2    0    0  0.26864214912E+02 -0.38846800589E+02  0.10765027763E+03  0.11755574591E+03  0.10566000000E+00 0. -1.
        994    1    1    2    0    0 -0.34549647739E+02  0.32979450287E+02  0.17359453975E+02  0.17858363011E+03  0.17120000000E+03 0.  0.
        998    1    1    2    0    0  0.76854328263E+01  0.58673503013E+01  0.13749902647E+04  0.13750606240E+04  0.10000000000E+02 0. -1.
</event>
<event>
 5    1  0.1607440E-008  0.3809539E+03  0.7957747E-01  0.3447016E+00
         13   -1    0    0    0    0  0.00000000000E+00  0.00000000000E+00  0.14999999963E+04  0.15000000000E+04  0.10566000000E+00 0.  1.
        994   -1    0    0    0    0 -0.00000000000E+00 -0.00000000000E+00  0.11368683772E-12  0.17120000000E+03  0.17120000000E+03 0.  0.
         13    1    1    2    0    0  0.37218726255E+02 -0.50939552247E+01  0.20659565277E+03  0.20998322998E+03  0.10566000000E+00 0.  1.
        994    1    1    2    0    0 -0.12895617141E+02 -0.11006047703E+01  0.42108099991E+01  0.17174015021E+03  0.17120000000E+03 0.  0.
        998    1    1    2    0    0 -0.24323109114E+02  0.61945599950E+01  0.12891935335E+04  0.12894766198E+04  0.10000000000E+02 0.  1.
</event>
<event>
 5    1  0.1607440E-008  0.3739595E+03  0.7957747E-01  0.3477889E+00
         13   -1    0    0    0    0  0.00000000000E+00  0.00000000000E+00  0.14999999963E+04  0.15000000000E+04  0.10566000000E+00 0. -1.
        994   -1    0    0    0    0 -0.00000000000E+00 -0.00000000000E+00  0.11368683772E-12  0.17120000000E+03  0.17120000000E+03 0.  0.
         13    1    1    2    0    0 -0.24510381927E+02 -0.28419778213E+02  0.10162623392E+03  0.10833441374E+03  0.10566000000E+00 0. -1.
        994    1    1    2    0    0  0.13661369679E+02 -0.24691644482E+01  0.78717205517E+01  0.17194223966E+03  0.17120000000E+03 0.  0.
        998    1    1    2    0    0  0.10849012249E+02  0.30888942661E+02  0.13905020418E+04  0.13909233466E+04  0.10000000000E+02 0. -1.
</event>
<event>
 5    1  0.1607440E-008  0.3831560E+03  0.7957747E-01  0.3437531E+00
         13   -1    0    0    0    0  0.00000000000E+00  0.00000000000E+00  0.14999999963E+04  0.15000000000E+04  0.10566000000E+00 0. -1.
        994   -1    0    0    0    0 -0.00000000000E+00 -0.00000000000E+00  0.11368683772E-12  0.17120000000E+03  0.17120000000E+03 0.  0.
         13    1    1    2    0    0  0.65798840041E+01 -0.83816798090E+01  0.21507839401E+02  0.24003036259E+02  0.10566000000E+00 0. -1.
        994    1    1    2    0    0 -0.35788195871E+01  0.38947071503E+01  0.26409909216E+01  0.17130204764E+03  0.17120000000E+03 0.  0.
        998    1    1    2    0    0 -0.30010644170E+01  0.44869726587E+01  0.14758511660E+04  0.14758949161E+04  0.10000000000E+02 0. -1.
</event>
<event>
 5    1  0.1607440E-008  0.3729004E+03  0.7957747E-01  0.3482667E+00
         13   -1    0    0    0    0  0.00000000000E+00  0.00000000000E+00  0.14999999963E+04  0.15000000000E+04  0.10566000000E+00 0. -1.
        994   -1    0    0    0    0 -0.00000000000E+00 -0.00000000000E+00  0.11368683772E-12  0.17120000000E+03  0.17120000000E+03 0.  0.
         13    1    1    2    0    0 -0.35924417678E+02  0.14123392551E+02  0.54056881970E+02  0.66424330294E+02  0.10566000000E+00 0. -1.
        994    1    1    2    0    0  0.32785182990E+02 -0.59538718202E+01  0.16412317327E+02  0.17518310699E+03  0.17120000000E+03 0.  0.
        998    1    1    2    0    0  0.31392346879E+01 -0.81695207313E+01  0.14295307970E+04  0.14295925627E+04  0.10000000000E+02 0. -1.
</event>
<event>
 5    1  0.1607440E-008  0.3773616E+03  0.7957747E-01  0.3462728E+00
         13   -1    0    0    0    0  0.00000000000E+00  0.00000000000E+00  0.14999999963E+04  0.15000000000E+04  0.10566000000E+00 0.  1.
        994   -1    0    0    0    0 -0.00000000000E+00 -0.00000000000E+00  0.11368683772E-12  0.17120000000E+03  0.17120000000E+03 0.  0.
         13    1    1    2    0    0 -0.12494393821E+02  0.28794720119E+01  0.12277154456E+02  0.17752208922E+02  0.10566000000E+00 0.  1.
        994    1    1    2    0    0  0.21364171240E+02  0.16696434208E+01  0.70211240518E+01  0.17267875291E+03  0.17120000000E+03 0.  0.
        998    1    1    2    0    0 -0.88697774189E+01 -0.45491154326E+01  0.14807017178E+04  0.14807690382E+04  0.10000000000E+02 0.  1.
</event>
<event>
 5    1  0.1607440E-008  0.3833357E+03  0.7957747E-01  0.3436761E+00
         13   -1    0    0    0    0  0.00000000000E+00  0.00000000000E+00  0.14999999963E+04  0.15000000000E+04  0.10566000000E+00 0. -1.
        994   -1    0    0    0    0 -0.00000000000E+00 -0.00000000000E+00  0.11368683772E-12  0.17120000000E+03  0.17120000000E+03 0.  0.
         13    1    1    2    0    0 -0.26482486969E+02  0.75750246507E+01  0.16111364273E+03  0.16345127761E+03  0.10566000000E+00 0. -1.
        994    1    1    2    0    0  0.10934145181E+02 -0.97149384391E+00  0.28571972201E+01  0.17157535635E+03  0.17120000000E+03 0.  0.
        998    1    1    2    0    0  0.15548341788E+02 -0.66035308068E+01  0.13360291563E+04  0.13361733660E+04  0.10000000000E+02 0. -1.
</event>
<event>
 5    1  0.1607440E-008  0.3836588E+03  0.7957747E-01  0.3435381E+00
         13   -1    0    0    0    0  0.00000000000E+00  0.00000000000E+00  0.14999999963E+04  0.15000000000E+04  0.10566000000E+00 0.  1.
        994   -1    0    0    0    0 -0.00000000000E+00 -0.00000000000E+00  0.11368683772E-12  0.17120000000E+03  0.17120000000E+03 0.  0.
         13    1    1    2    0    0  0.91545115714E+01 -0.14208521460E+02  0.60503080219E+02  0.62819750431E+02  0.10566000000E+00 0.  1.
        994    1    1    2    0    0 -0.95076460826E+01  0.11149080933E+02  0.30069762074E+01  0.17185220175E+03  0.17120000000E+03 0.  0.
        998    1    1    2    0    0  0.35313451119E+00  0.30594405262E+01  0.14364899399E+04  0.14365280478E+04  0.10000000000E+02 0.  1.
</event>
<event>
 5    1  0.1607440E-008  0.3856738E+03  0.7957747E-01  0.3426820E+00
         13   -1    0    0    0    0  0.00000000000E+00  0.00000000000E+00  0.14999999963E+04  0.15000000000E+04  0.10566000000E+00 0. -1.
        994   -1    0    0    0    0 -0.00000000000E+00 -0.00000000000E+00  0.11368683772E-12  0.17120000000E+03  0.17120000000E+03 0.  0.
         13    1    1    2    0    0 -0.80422392201E+01  0.12266189248E+02  0.87376282548E+02  0.88598887839E+02  0.10566000000E+00 0. -1.
        994    1    1    2    0    0  0.58071301134E+01 -0.12333255631E+01  0.14116445324E+01  0.17130871721E+03  0.17120000000E+03 0.  0.
        998    1    1    2    0    0  0.22351091068E+01 -0.11032863685E+02  0.14112120692E+04  0.14112923950E+04  0.10000000000E+02 0. -1.
</event>
<event>
 5    1  0.1607440E-008  0.3747725E+03  0.7957747E-01  0.3474241E+00
         13   -1    0    0    0    0  0.00000000000E+00  0.00000000000E+00  0.14999999963E+04  0.15000000000E+04  0.10566000000E+00 0. -1.
        994   -1    0    0    0    0 -0.00000000000E+00 -0.00000000000E+00  0.11368683772E-12  0.17120000000E+03  0.17120000000E+03 0.  0.
         13    1    1    2    0    0 -0.96623069862E+02 -0.90470196232E+02  0.69926367148E+03  0.71168150703E+03  0.10566000000E+00 0. -1.
        994    1    1    2    0    0  0.95751887436E+02  0.83684067363E+02  0.63966511130E+02  0.22264905485E+03  0.17120000000E+03 0.  0.
        998    1    1    2    0    0  0.87118242536E+00  0.67861288690E+01  0.73676981367E+03  0.73686943812E+03  0.10000000000E+02 0.  0.
</event>
<event>
 5    1  0.1607440E-008  0.3830406E+03  0.7957747E-01  0.3438025E+00
         13   -1    0    0    0    0  0.00000000000E+00  0.00000000000E+00  0.14999999963E+04  0.15000000000E+04  0.10566000000E+00 0.  1.
        994   -1    0    0    0    0 -0.00000000000E+00 -0.00000000000E+00  0.11368683772E-12  0.17120000000E+03  0.17120000000E+03 0.  0.
         13    1    1    2    0    0  0.23479075703E+01 -0.21535627390E+02  0.93249361681E+02  0.95732703582E+02  0.10566000000E+00 0.  1.
        994    1    1    2    0    0  0.73585751006E+01  0.74325882026E+01  0.29682195820E+01  0.17154486971E+03  0.17120000000E+03 0.  0.
        998    1    1    2    0    0 -0.97064826709E+01  0.14103039187E+02  0.14037824150E+04  0.14039224267E+04  0.10000000000E+02 0.  1.
</event>
<event>
 5    1  0.1607440E-008  0.3826098E+03  0.7957747E-01  0.3439873E+00
         13   -1    0    0    0    0  0.00000000000E+00  0.00000000000E+00  0.14999999963E+04  0.15000000000E+04  0.10566000000E+00 0.  1.
        994   -1    0    0    0    0 -0.00000000000E+00 -0.00000000000E+00  0.11368683772E-12  0.17120000000E+03  0.17120000000E+03 0.  0.
         13    1    1    2    0    0  0.70310938918E+01  0.88815758315E+01 -0.46209515456E+01  0.12234501534E+02  0.10566000000E+00 0.  1.
        994    1    1    2    0    0 -0.61093906801E+01 -0.84046369199E+01  0.18163554392E+02  0.17247410613E+03  0.17120000000E+03 0.  0.
        998    1    1    2    0    0 -0.92170321173E+00 -0.47693891162E+00  0.14864573934E+04  0.14864913923E+04  0.10000000000E+02 0.  1.
</event>
<event>
 5    1  0.1607440E-008  0.3823094E+03  0.7957747E-01  0.3441164E+00
         13   -1    0    0    0    0  0.00000000000E+00  0.00000000000E+00  0.14999999963E+04  0.15000000000E+04  0.10566000000E+00 0.  1.
        994   -1    0    0    0    0 -0.00000000000E+00 -0.00000000000E+00  0.11368683772E-12  0.17120000000E+03  0.17120000000E+03 0.  0.
         13    1    1    2    0    0  0.28441403690E+01 -0.12118464747E+02  0.24984887151E+02  0.27914191234E+02  0.10566000000E+00 0.  1.
        994    1    1    2    0    0 -0.26243682858E+01  0.78578502406E+01  0.31996470739E+01  0.17143019238E+03  0.17120000000E+03 0.  0.
        998    1    1    2    0    0 -0.21977208314E+00  0.42606145064E+01  0.14718154621E+04  0.14718556164E+04  0.10000000000E+02 0.  1.
</event>
<event>
 5    1  0.1607440E-008  0.3993309E+03  0.7957747E-01  0.3371078E+00
         13   -1    0    0    0    0  0.00000000000E+00  0.00000000000E+00  0.14999999963E+04  0.15000000000E+04  0.10566000000E+00 0.  1.
        994   -1    0    0    0    0 -0.00000000000E+00 -0.00000000000E+00  0.11368683772E-12  0.17120000000E+03  0.17120000000E+03 0.  0.
         13    1    1    2    0    0 -0.75530886373E+02  0.15515548081E+02  0.94697928020E+02  0.12212025124E+03  0.10566000000E+00 0.  1.
        994    1    1    2    0    0  0.72505507356E+02 -0.17348088377E+02  0.49421624566E+02  0.19315781564E+03  0.17120000000E+03 0.  0.
        998    1    1    2    0    0  0.30253790174E+01  0.18325402963E+01  0.13558804437E+04  0.13559219331E+04  0.10000000000E+02 0.  1.
</event>
<event>
 5    1  0.1607440E-008  0.3806826E+03  0.7957747E-01  0.3448192E+00
         13   -1    0    0    0    0  0.00000000000E+00  0.00000000000E+00  0.14999999963E+04  0.15000000000E+04  0.10566000000E+00 0. -1.
        994   -1    0    0    0    0 -0.00000000000E+00 -0.00000000000E+00  0.11368683772E-12  0.17120000000E+03  0.17120000000E+03 0.  0.
         13    1    1    2    0    0 -0.22288337655E+02  0.17876868862E+02  0.94703953131E+02  0.98920181653E+02  0.10566000000E+00 0. -1.
        994    1    1    2    0    0  0.28592325359E+02 -0.28567989625E+02  0.92571015966E+01  0.17614989364E+03  0.17120000000E+03 0.  0.
        998    1    1    2    0    0 -0.63039877042E+01  0.10691120763E+02  0.13960389416E+04  0.13961299247E+04  0.10000000000E+02 0. -1.
</event>
<event>
 5    1  0.1607440E-008  0.3779234E+03  0.7957747E-01  0.3460251E+00
         13   -1    0    0    0    0  0.00000000000E+00  0.00000000000E+00  0.14999999963E+04  0.15000000000E+04  0.10566000000E+00 0.  1.
        994   -1    0    0    0    0 -0.00000000000E+00 -0.00000000000E+00  0.11368683772E-12  0.17120000000E+03  0.17120000000E+03 0.  0.
         13    1    1    2    0    0 -0.39495688326E+02 -0.92739776700E+01  0.15872779158E+03  0.16383051927E+03  0.10566000000E+00 0.  1.
        994    1    1    2    0    0  0.27277930355E+02 -0.18050431678E+02  0.87948321492E+01  0.17451845931E+03  0.17120000000E+03 0.  0.
        998    1    1    2    0    0  0.12217757970E+02  0.27324409348E+02  0.13324773725E+04  0.13328510214E+04  0.10000000000E+02 0. -1.
</event>
<event>
 5    1  0.1607440E-008  0.3846203E+03  0.7957747E-01  0.3431284E+00
         13   -1    0    0    0    0  0.00000000000E+00  0.00000000000E+00  0.14999999963E+04  0.15000000000E+04  0.10566000000E+00 0.  1.
        994   -1    0    0    0    0 -0.00000000000E+00 -0.00000000000E+00  0.11368683772E-12  0.17120000000E+03  0.17120000000E+03 0.  0.
         13    1    1    2    0    0 -0.84409529078E+01 -0.71115153396E+01  0.33281845150E+02  0.35064450902E+02  0.10566000000E+00 0.  1.
        994    1    1    2    0    0  0.36010536421E+01  0.58989462615E+01  0.19760741708E+01  0.17135083899E+03  0.17120000000E+03 0.  0.
        998    1    1    2    0    0  0.48398992657E+01  0.12125690781E+01  0.14647420770E+04  0.14647847101E+04  0.10000000000E+02 0.  1.
</event>
<event>
 5    1  0.1607440E-008  0.3739456E+03  0.7957747E-01  0.3477952E+00
         13   -1    0    0    0    0  0.00000000000E+00  0.00000000000E+00  0.14999999963E+04  0.15000000000E+04  0.10566000000E+00 0. -1.
        994   -1    0    0    0    0 -0.00000000000E+00 -0.00000000000E+00  0.11368683772E-12  0.17120000000E+03  0.17120000000E+03 0.  0.
         13    1    1    2    0    0 -0.12664430082E+03 -0.73492923004E+02  0.59854048339E+03  0.61619048198E+03  0.10566000000E+00 0. -1.
        994    1    1    2    0    0  0.15263432998E+03  0.78491166252E+02  0.11547891619E+03  0.26851987255E+03  0.17120000000E+03 0.  0.
        998    1    1    2    0    0 -0.25990029168E+02 -0.49982432481E+01  0.78598059670E+03  0.78648964547E+03  0.10000000000E+02 0. -1.
</event>
<event>
 5    1  0.1607440E-008  0.3773488E+03  0.7957747E-01  0.3462784E+00
         13   -1    0    0    0    0  0.00000000000E+00  0.00000000000E+00  0.14999999963E+04  0.15000000000E+04  0.10566000000E+00 0.  1.
        994   -1    0    0    0    0 -0.00000000000E+00 -0.00000000000E+00  0.11368683772E-12  0.17120000000E+03  0.17120000000E+03 0.  0.
         13    1    1    2    0    0  0.16312442103E+03 -0.25756727775E+02  0.85779583276E+03  0.87354833159E+03  0.10566000000E+00 0.  1.
        994    1    1    2    0    0 -0.16933540935E+03  0.11538628354E+02  0.10975632368E+03  0.26488395835E+03  0.17120000000E+03 0.  0.
        998    1    1    2    0    0  0.62109883276E+01  0.14218099421E+02  0.53244783984E+03  0.53276771006E+03  0.10000000000E+02 0.  0.
</event>
<event>
 5    1  0.1607440E-008  0.3809945E+03  0.7957747E-01  0.3446840E+00
         13   -1    0    0    0    0  0.00000000000E+00  0.00000000000E+00  0.14999999963E+04  0.15000000000E+04  0.10566000000E+00 0.  1.
        994   -1    0    0    0    0 -0.00000000000E+00 -0.00000000000E+00  0.11368683772E-12  0.17120000000E+03  0.17120000000E+03 0.  0.
         13    1    1    2    0    0 -0.33718763695E+02 -0.38998620460E+01  0.16711904420E+03  0.17053137555E+03  0.10566000000E+00 0.  1.
        994    1    1    2    0    0  0.11675911153E+02 -0.51051312066E+00  0.40872025849E+01  0.17164711693E+03  0.17120000000E+03 0.  0.
        998    1    1    2    0    0  0.22042852541E+02  0.44103751666E+01  0.13287937495E+04  0.13290215075E+04  0.10000000000E+02 0.  1.
</event>
<event>
 5    1  0.1607440E-008  0.3712549E+03  0.7957747E-01  0.3490143E+00
         13   -1    0    0    0    0  0.00000000000E+00  0.00000000000E+00  0.14999999963E+04  0.15000000000E+04  0.10566000000E+00 0. -1.
        994   -1    0    0    0    0 -0.00000000000E+00 -0.00000000000E+00  0.11368683772E-12  0.17120000000E+03  0.17120000000E+03 0.  0.
         13    1    1    2    0    0  0.59348906394E+02  0.99140173299E+02  0.58612872274E+03  0.59740937174E+03  0.10566000000E+00 0. -1.
        994    1    1    2    0    0 -0.62139409172E+02 -0.73274605933E+02  0.41096918610E+02  0.20057136078E+03  0.17120000000E+03 0.  0.
        998    1    1    2    0    0  0.27905027783E+01 -0.25865567366E+02  0.87277435493E+03  0.87321926748E+03  0.10000000000E+02 0. -1.
</event>
<event>
 5    1  0.1607440E-008  0.3850454E+03  0.7957747E-01  0.3429480E+00
         13   -1    0    0    0    0  0.00000000000E+00  0.00000000000E+00  0.14999999963E+04  0.15000000000E+04  0.10566000000E+00 0. -1.
        994   -1    0    0    0    0 -0.00000000000E+00 -0.00000000000E+00  0.11368683772E-12  0.17120000000E+03  0.17120000000E+03 0.  0.
         13    1    1    2    0    0 -0.13167707093E+01 -0.12519428600E+02  0.53812820014E+02  0.55265728436E+02  0.10566000000E+00 0. -1.
        994    1    1    2    0    0  0.16374844359E+02 -0.80106644165E+01  0.27010274328E+01  0.17218897125E+03  0.17120000000E+03 0.  0.
        998    1    1    2    0    0 -0.15058073650E+02  0.20530093017E+02  0.14434861488E+04  0.14437453003E+04  0.10000000000E+02 0. -1.
</event>
<event>
 5    1  0.1607440E-008  0.3869244E+03  0.7957747E-01  0.3421552E+00
         13   -1    0    0    0    0  0.00000000000E+00  0.00000000000E+00  0.14999999963E+04  0.15000000000E+04  0.10566000000E+00 0. -1.
        994   -1    0    0    0    0 -0.00000000000E+00 -0.00000000000E+00  0.11368683772E-12  0.17120000000E+03  0.17120000000E+03 0.  0.
         13    1    1    2    0    0  0.83763709290E+02  0.44495874418E+02  0.19342908967E+03  0.21543227643E+03  0.10566000000E+00 0. -1.
        994    1    1    2    0    0 -0.61713586006E+02 -0.72847594485E+02  0.54932234078E+02  0.20357389091E+03  0.17120000000E+03 0.  0.
        998    1    1    2    0    0 -0.22050123284E+02  0.28351720068E+02  0.12516386725E+04  0.12521938327E+04  0.10000000000E+02 0. -1.
</event>
<event>
 5    1  0.1607440E-008  0.3708357E+03  0.7957747E-01  0.3492059E+00
         13   -1    0    0    0    0  0.00000000000E+00  0.00000000000E+00  0.14999999963E+04  0.15000000000E+04  0.10566000000E+00 0. -1.
        994   -1    0    0    0    0 -0.00000000000E+00 -0.00000000000E+00  0.11368683772E-12  0.17120000000E+03  0.17120000000E+03 0.  0.
         13    1    1    2    0    0 -0.27358953481E+02  0.16146255132E+01  0.28868121559E+02  0.39805765380E+02  0.10566000000E+00 0. -1.
        994    1    1    2    0    0  0.10875689523E+02 -0.14731982929E+02  0.12557899658E+02  0.17263386918E+03  0.17120000000E+03 0.  0.
        998    1    1    2    0    0  0.16483263959E+02  0.13117357416E+02  0.14585739751E+04  0.14587603654E+04  0.10000000000E+02 0. -1.
</event>
<event>
 5    1  0.1607440E-008  0.2879410E+03  0.7957747E-01  0.3986057E+00
         13   -1    0    0    0    0  0.00000000000E+00  0.00000000000E+00  0.14999999963E+04  0.15000000000E+04  0.10566000000E+00 0.  1.
        994   -1    0    0    0    0 -0.00000000000E+00 -0.00000000000E+00  0.11368683772E-12  0.17120000000E+03  0.17120000000E+03 0.  0.
         13    1    1    2    0    0  0.21160873329E+03 -0.42750770329E+02  0.34937196812E+03  0.41069047668E+03  0.10566000000E+00 0.  1.
        994    1    1    2    0    0 -0.25022165359E+03  0.43017633980E+01  0.37202955670E+03  0.47994250922E+03  0.17120000000E+03 0.  0.
        998    1    1    2    0    0  0.38612920301E+02  0.38449006931E+02  0.77859847145E+03  0.78056701410E+03  0.10000000000E+02 0. -1.
</event>
<event>
 5    1  0.1607440E-008  0.3720921E+03  0.7957747E-01  0.3486331E+00
         13   -1    0    0    0    0  0.00000000000E+00  0.00000000000E+00  0.14999999963E+04  0.15000000000E+04  0.10566000000E+00 0.  1.
        994   -1    0    0    0    0 -0.00000000000E+00 -0.00000000000E+00  0.11368683772E-12  0.17120000000E+03  0.17120000000E+03 0.  0.
         13    1    1    2    0    0 -0.18710955343E+02  0.84302383912E+01  0.21804287159E+02  0.29943394458E+02  0.10566000000E+00 0.  1.
        994    1    1    2    0    0  0.24390814103E+02 -0.25137884169E+01  0.10246352451E+02  0.17325027759E+03  0.17120000000E+03 0.  0.
        998    1    1    2    0    0 -0.56798587603E+01 -0.59164499743E+01  0.14679493567E+04  0.14680063280E+04  0.10000000000E+02 0.  1.
</event>
<event>
 5    1  0.1607440E-008  0.3712949E+03  0.7957747E-01  0.3489961E+00
         13   -1    0    0    0    0  0.00000000000E+00  0.00000000000E+00  0.14999999963E+04  0.15000000000E+04  0.10566000000E+00 0. -1.
        994   -1    0    0    0    0 -0.00000000000E+00 -0.00000000000E+00  0.11368683772E-12  0.17120000000E+03  0.17120000000E+03 0.  0.
         13    1    1    2    0    0  0.32713208115E+02 -0.64821036972E+02  0.32770059530E+03  0.33564804803E+03  0.10566000000E+00 0. -1.
        994    1    1    2    0    0 -0.70957233829E+01  0.31595504978E+02  0.12212018797E+02  0.17466310036E+03  0.17120000000E+03 0.  0.
        998    1    1    2    0    0 -0.25617484733E+02  0.33225531994E+02  0.11600873822E+04  0.11608888516E+04  0.10000000000E+02 0. -1.
</event>
<event>
 5    1  0.1607440E-008  0.3828158E+03  0.7957747E-01  0.3438989E+00
         13   -1    0    0    0    0  0.00000000000E+00  0.00000000000E+00  0.14999999963E+04  0.15000000000E+04  0.10566000000E+00 0.  1.
        994   -1    0    0    0    0 -0.00000000000E+00 -0.00000000000E+00  0.11368683772E-12  0.17120000000E+03  0.17120000000E+03 0.  0.
         13    1    1    2    0    0  0.29137665265E+02 -0.95097380661E+01  0.17375229599E+03  0.17643500271E+03  0.10566000000E+00 0.  1.
        994    1    1    2    0    0 -0.15883820372E+02  0.55279954147E+01  0.36558587283E+01  0.17206295297E+03  0.17120000000E+03 0.  0.
        998    1    1    2    0    0 -0.13253844894E+02  0.39817426514E+01  0.13225918416E+04  0.13227020443E+04  0.10000000000E+02 0.  1.
</event>
<event>
 5    1  0.1607440E-008  0.3820461E+03  0.7957747E-01  0.3442297E+00
         13   -1    0    0    0    0  0.00000000000E+00  0.00000000000E+00  0.14999999963E+04  0.15000000000E+04  0.10566000000E+00 0.  1.
        994   -1    0    0    0    0 -0.00000000000E+00 -0.00000000000E+00  0.11368683772E-12  0.17120000000E+03  0.17120000000E+03 0.  0.
         13    1    1    2    0    0  0.14068011343E+02  0.18144221002E+02  0.91620358152E+02  0.94453284172E+02  0.10566000000E+00 0.  1.
        994    1    1    2    0    0  0.20993409084E+02 -0.15611762291E+02  0.53798448575E+01  0.17327098164E+03  0.17120000000E+03 0.  0.
        998    1    1    2    0    0 -0.35061420427E+02 -0.25324587107E+01  0.14029997933E+04  0.14034757342E+04  0.10000000000E+02 0.  1.
</event>
<event>
 5    1  0.1607440E-008  0.3834130E+03  0.7957747E-01  0.3436431E+00
         13   -1    0    0    0    0  0.00000000000E+00  0.00000000000E+00  0.14999999963E+04  0.15000000000E+04  0.10566000000E+00 0. -1.
        994   -1    0    0    0    0 -0.00000000000E+00 -0.00000000000E+00  0.11368683772E-12  0.17120000000E+03  0.17120000000E+03 0.  0.
         13    1    1    2    0    0  0.25862419826E+02 -0.17254157387E+02  0.18085000372E+03  0.18350287659E+03  0.10566000000E+00 0. -1.
        994    1    1    2    0    0 -0.26461552830E+02  0.13006101208E+02  0.52992357344E+01  0.17380130709E+03  0.17120000000E+03 0.  0.
        998    1    1    2    0    0  0.59913300417E+00  0.42480561788E+01  0.13138507568E+04  0.13138958163E+04  0.10000000000E+02 0. -1.
</event>
<event>
 5    1  0.1607440E-008  0.3830188E+03  0.7957747E-01  0.3438118E+00
         13   -1    0    0    0    0  0.00000000000E+00  0.00000000000E+00  0.14999999963E+04  0.15000000000E+04  0.10566000000E+00 0.  1.
        994   -1    0    0    0    0 -0.00000000000E+00 -0.00000000000E+00  0.11368683772E-12  0.17120000000E+03  0.17120000000E+03 0.  0.
         13    1    1    2    0    0 -0.71056599794E+01  0.73637613252E+01  0.18806238825E+02  0.21410305168E+02  0.10566000000E+00 0.  1.
        994    1    1    2    0    0  0.96519113020E+01 -0.59888580708E+01  0.30441373432E+01  0.17160341659E+03  0.17120000000E+03 0.  0.
        998    1    1    2    0    0 -0.25462513226E+01 -0.13749032544E+01  0.14781496201E+04  0.14781862782E+04  0.10000000000E+02 0.  1.
</event>
<event>
 5    1  0.1607440E-008  0.3843871E+03  0.7957747E-01  0.3432276E+00
         13   -1    0    0    0    0  0.00000000000E+00  0.00000000000E+00  0.14999999963E+04  0.15000000000E+04  0.10566000000E+00 0. -1.
        994   -1    0    0    0    0 -0.00000000000E+00 -0.00000000000E+00  0.11368683772E-12  0.17120000000E+03  0.17120000000E+03 0.  0.
         13    1    1    2    0    0 -0.90491637748E+01  0.19003624804E+02  0.95137088793E+02  0.97437682386E+02  0.10566000000E+00 0. -1.
        994    1    1    2    0    0  0.88520984866E+01 -0.40141679994E+02  0.75226548477E+01  0.17622640113E+03  0.17120000000E+03 0.  0.
        998    1    1    2    0    0  0.19706528819E+00  0.21138055190E+02  0.13973402526E+04  0.13975359165E+04  0.10000000000E+02 0. -1.
</event>
<event>
 5    1  0.1607440E-008  0.3803670E+03  0.7957747E-01  0.3449562E+00
         13   -1    0    0    0    0  0.00000000000E+00  0.00000000000E+00  0.14999999963E+04  0.15000000000E+04  0.10566000000E+00 0. -1.
        994   -1    0    0    0    0 -0.00000000000E+00 -0.00000000000E+00  0.11368683772E-12  0.17120000000E+03  0.17120000000E+03 0.  0.
         13    1    1    2    0    0  0.51457966750E+02 -0.62743215137E+02  0.25672125580E+03  0.26924050166E+03  0.10566000000E+00 0. -1.
        994    1    1    2    0    0 -0.29514011084E+01 -0.11940255778E+02  0.17078231639E+02  0.17248880101E+03  0.17120000000E+03 0.  0.
        998    1    1    2    0    0 -0.48506565642E+02  0.74683470915E+02  0.12262005088E+04  0.12294706973E+04  0.10000000000E+02 0. -1.
</event>
<event>
 5    1  0.1607440E-008  0.3846918E+03  0.7957747E-01  0.3430980E+00
         13   -1    0    0    0    0  0.00000000000E+00  0.00000000000E+00  0.14999999963E+04  0.15000000000E+04  0.10566000000E+00 0.  1.
        994   -1    0    0    0    0 -0.00000000000E+00 -0.00000000000E+00  0.11368683772E-12  0.17120000000E+03  0.17120000000E+03 0.  0.
         13    1    1    2    0    0  0.14265456973E+02  0.13873392517E+02  0.11746787572E+03  0.11914145909E+03  0.10566000000E+00 0.  1.
        994    1    1    2    0    0 -0.18185865782E+01 -0.61167437955E+01  0.19173048054E+01  0.17132961761E+03  0.17120000000E+03 0.  0.
        998    1    1    2    0    0 -0.12446870395E+02 -0.77566487215E+01  0.13806148157E+04  0.13807289233E+04  0.10000000000E+02 0.  1.
</event>
<event>
 5    1  0.1607440E-008  0.4044853E+03  0.7957747E-01  0.3351015E+00
         13   -1    0    0    0    0  0.00000000000E+00  0.00000000000E+00  0.14999999963E+04  0.15000000000E+04  0.10566000000E+00 0. -1.
        994   -1    0    0    0    0 -0.00000000000E+00 -0.00000000000E+00  0.11368683772E-12  0.17120000000E+03  0.17120000000E+03 0.  0.
         13    1    1    2    0    0 -0.11203989010E+02 -0.16420672147E+02 -0.91742439525E+01  0.21893966284E+02  0.10566000000E+00 0. -1.
        994    1    1    2    0    0  0.89158614491E+02  0.10576700758E+03  0.11179114651E+03  0.24686558867E+03  0.17120000000E+03 0.  0.
        998    1    1    2    0    0 -0.77954625481E+02 -0.89346335434E+02  0.13973830937E+04  0.14024404450E+04  0.10000000000E+02 0. -1.
</event>
<event>
 5    1  0.1607440E-008  0.3841137E+03  0.7957747E-01  0.3433440E+00
         13   -1    0    0    0    0  0.00000000000E+00  0.00000000000E+00  0.14999999963E+04  0.15000000000E+04  0.10566000000E+00 0. -1.
        994   -1    0    0    0    0 -0.00000000000E+00 -0.00000000000E+00  0.11368683772E-12  0.17120000000E+03  0.17120000000E+03 0.  0.
         13    1    1    2    0    0 -0.44696685939E+01  0.20971173934E+02  0.11925019617E+03  0.12116265317E+03  0.10566000000E+00 0. -1.
        994    1    1    2    0    0  0.10293546866E+01 -0.35630124686E+01  0.21161543776E+01  0.17125324154E+03  0.17120000000E+03 0.  0.
        998    1    1    2    0    0  0.34403139073E+01 -0.17408161465E+02  0.13786336457E+04  0.13787841053E+04  0.10000000000E+02 0. -1.
</event>
<event>
 5    1  0.1607440E-008  0.3847787E+03  0.7957747E-01  0.3430611E+00
         13   -1    0    0    0    0  0.00000000000E+00  0.00000000000E+00  0.14999999963E+04  0.15000000000E+04  0.10566000000E+00 0. -1.
        994   -1    0    0    0    0 -0.00000000000E+00 -0.00000000000E+00  0.11368683772E-12  0.17120000000E+03  0.17120000000E+03 0.  0.
         13    1    1    2    0    0 -0.78296164233E+01  0.15628640773E+02  0.92177119017E+02  0.93819985825E+02  0.10566000000E+00 0. -1.
        994    1    1    2    0    0 -0.35769370479E+01 -0.69179222077E+01  0.19397057702E+01  0.17138802346E+03  0.17120000000E+03 0.  0.
        998    1    1    2    0    0  0.11406553471E+02 -0.87107185654E+01  0.14058831715E+04  0.14059919907E+04  0.10000000000E+02 0. -1.
</event>
<event>
 5    1  0.1607440E-008  0.3832448E+03  0.7957747E-01  0.3437151E+00
         13   -1    0    0    0    0  0.00000000000E+00  0.00000000000E+00  0.14999999963E+04  0.15000000000E+04  0.10566000000E+00 0.  1.
        994   -1    0    0    0    0 -0.00000000000E+00 -0.00000000000E+00  0.11368683772E-12  0.17120000000E+03  0.17120000000E+03 0.  0.
         13    1    1    2    0    0  0.73031524572E+01  0.17349466555E+02  0.77484859508E+02  0.79738664665E+02  0.10566000000E+00 0.  1.
        994    1    1    2    0    0 -0.75922820175E-01  0.58874203898E+01  0.26187601791E+01  0.17132123449E+03  0.17120000000E+03 0.  0.
        998    1    1    2    0    0 -0.72272296370E+01 -0.23236886945E+02  0.14198963766E+04  0.14201401008E+04  0.10000000000E+02 0.  1.
</event>
<event>
 5    1  0.1607440E-008  0.3805915E+03  0.7957747E-01  0.3448587E+00
         13   -1    0    0    0    0  0.00000000000E+00  0.00000000000E+00  0.14999999963E+04  0.15000000000E+04  0.10566000000E+00 0.  1.
        994   -1    0    0    0    0 -0.00000000000E+00 -0.00000000000E+00  0.11368683772E-12  0.17120000000E+03  0.17120000000E+03 0.  0.
         13    1    1    2    0    0  0.88675613396E+01  0.63805123100E+01  0.13070719345E+02  0.17035241404E+02  0.10566000000E+00 0.  1.
        994    1    1    2    0    0 -0.22680151961E+02 -0.24483378420E+02  0.75599662738E+01  0.17458642044E+03  0.17120000000E+03 0.  0.
        998    1    1    2    0    0  0.13812590622E+02  0.18102866110E+02  0.14793693107E+04  0.14795783382E+04  0.10000000000E+02 0.  1.
</event>
<event>
 5    1  0.1607440E-008  0.3819251E+03  0.7957747E-01  0.3442819E+00
         13   -1    0    0    0    0  0.00000000000E+00  0.00000000000E+00  0.14999999963E+04  0.15000000000E+04  0.10566000000E+00 0.  1.
        994   -1    0    0    0    0 -0.00000000000E+00 -0.00000000000E+00  0.11368683772E-12  0.17120000000E+03  0.17120000000E+03 0.  0.
         13    1    1    2    0    0 -0.91463311084E+01 -0.10692656820E+02  0.29978809144E+02  0.33116890620E+02  0.10566000000E+00 0.  1.
        994    1    1    2    0    0  0.49176350331E+01  0.10125902592E+02  0.35855274716E+01  0.17160714742E+03  0.17120000000E+03 0.  0.
        998    1    1    2    0    0  0.42286960753E+01  0.56675422816E+00  0.14664356597E+04  0.14664759620E+04  0.10000000000E+02 0.  1.
</event>
<event>
 5    1  0.1607440E-008  0.3824572E+03  0.7957747E-01  0.3440529E+00
         13   -1    0    0    0    0  0.00000000000E+00  0.00000000000E+00  0.14999999963E+04  0.15000000000E+04  0.10566000000E+00 0.  1.
        994   -1    0    0    0    0 -0.00000000000E+00 -0.00000000000E+00  0.11368683772E-12  0.17120000000E+03  0.17120000000E+03 0.  0.
         13    1    1    2    0    0  0.47533460694E+01  0.17497678282E+02  0.54199747769E+02  0.57152312869E+02  0.10566000000E+00 0.  1.
        994    1    1    2    0    0 -0.22587404172E+01 -0.18357690839E+02  0.40331247916E+01  0.17224346959E+03  0.17120000000E+03 0.  0.
        998    1    1    2    0    0 -0.24946056522E+01  0.86001255654E+00  0.14417671237E+04  0.14418042175E+04  0.10000000000E+02 0.  1.
</event>
<event>
 5    1  0.1607440E-008  0.3764989E+03  0.7957747E-01  0.3466546E+00
         13   -1    0    0    0    0  0.00000000000E+00  0.00000000000E+00  0.14999999963E+04  0.15000000000E+04  0.10566000000E+00 0. -1.
        994   -1    0    0    0    0 -0.00000000000E+00 -0.00000000000E+00  0.11368683772E-12  0.17120000000E+03  0.17120000000E+03 0.  0.
         13    1    1    2    0    0 -0.52121560306E+01  0.11881104221E+02  0.11935355388E+02  0.17629267718E+02  0.10566000000E+00 0. -1.
        994    1    1    2    0    0 -0.37576368704E+01  0.14385171246E+01  0.59657938377E+01  0.17135115950E+03  0.17120000000E+03 0.  0.
        998    1    1    2    0    0  0.89697929009E+01 -0.13319621346E+02  0.14820988471E+04  0.14822195728E+04  0.10000000000E+02 0. -1.
</event>
<event>
 5    1  0.1607440E-008  0.3837753E+03  0.7957747E-01  0.3434883E+00
         13   -1    0    0    0    0  0.00000000000E+00  0.00000000000E+00  0.14999999963E+04  0.15000000000E+04  0.10566000000E+00 0.  1.
        994   -1    0    0    0    0 -0.00000000000E+00 -0.00000000000E+00  0.11368683772E-12  0.17120000000E+03  0.17120000000E+03 0.  0.
         13    1    1    2    0    0 -0.13460375878E+02  0.20954421184E+02  0.12712046560E+03  0.12953722794E+03  0.10566000000E+00 0.  1.
        994    1    1    2    0    0 -0.96633030678E+01 -0.38679463898E+02  0.75052329036E+01  0.17594103806E+03  0.17120000000E+03 0.  0.
        998    1    1    2    0    0  0.23123678946E+02  0.17725042713E+02  0.13653742978E+04  0.13657217340E+04  0.10000000000E+02 0.  1.
</event>
<event>
 5    1  0.1607440E-008  0.3828016E+03  0.7957747E-01  0.3439050E+00
         13   -1    0    0    0    0  0.00000000000E+00  0.00000000000E+00  0.14999999963E+04  0.15000000000E+04  0.10566000000E+00 0. -1.
        994   -1    0    0    0    0 -0.00000000000E+00 -0.00000000000E+00  0.11368683772E-12  0.17120000000E+03  0.17120000000E+03 0.  0.
         13    1    1    2    0    0 -0.91969454503E+01  0.14088501197E+02  0.55770735872E+02  0.58253375999E+02  0.10566000000E+00 0. -1.
        994    1    1    2    0    0 -0.26432814256E+02 -0.88534087799E+01  0.53036644329E+01  0.17353571786E+03  0.17120000000E+03 0.  0.
        998    1    1    2    0    0  0.35629759707E+02 -0.52350924175E+01  0.14389255960E+04  0.14394109061E+04  0.10000000000E+02 0. -1.
</event>
<event>
 5    1  0.1607440E-008  0.3728316E+03  0.7957747E-01  0.3482978E+00
         13   -1    0    0    0    0  0.00000000000E+00  0.00000000000E+00  0.14999999963E+04  0.15000000000E+04  0.10566000000E+00 0.  1.
        994   -1    0    0    0    0 -0.00000000000E+00 -0.00000000000E+00  0.11368683772E-12  0.17120000000E+03  0.17120000000E+03 0.  0.
         13    1    1    2    0    0 -0.69362579743E+01  0.20514019539E+02  0.13362941289E+02  0.25446336402E+02  0.10566000000E+00 0.  1.
        994    1    1    2    0    0  0.11364488207E+01 -0.19408700723E+02  0.13779713757E+02  0.17285054148E+03  0.17120000000E+03 0.  0.
        998    1    1    2    0    0  0.57998091537E+01 -0.11053188154E+01  0.14728573412E+04  0.14729031221E+04  0.10000000000E+02 0.  1.
</event>
<event>
 5    1  0.1607440E-008  0.3747902E+03  0.7957747E-01  0.3474162E+00
         13   -1    0    0    0    0  0.00000000000E+00  0.00000000000E+00  0.14999999963E+04  0.15000000000E+04  0.10566000000E+00 0.  1.
        994   -1    0    0    0    0 -0.00000000000E+00 -0.00000000000E+00  0.11368683772E-12  0.17120000000E+03  0.17120000000E+03 0.  0.
         13    1    1    2    0    0 -0.86490482892E+02  0.48182174644E+02  0.59717256005E+03  0.60532404812E+03  0.10566000000E+00 0.  1.
        994    1    1    2    0    0  0.56314985102E+02 -0.52289595935E+02  0.27148175553E+02  0.18961023924E+03  0.17120000000E+03 0.  0.
        998    1    1    2    0    0  0.30175497790E+02  0.41074212903E+01  0.87567926067E+03  0.87626571264E+03  0.10000000000E+02 0.  1.
</event>
<event>
 5    1  0.1607440E-008  0.3770032E+03  0.7957747E-01  0.3464312E+00
         13   -1    0    0    0    0  0.00000000000E+00  0.00000000000E+00  0.14999999963E+04  0.15000000000E+04  0.10566000000E+00 0.  1.
        994   -1    0    0    0    0 -0.00000000000E+00 -0.00000000000E+00  0.11368683772E-12  0.17120000000E+03  0.17120000000E+03 0.  0.
         13    1    1    2    0    0 -0.26791664583E+02 -0.40528546067E+02  0.17147854161E+03  0.17822810590E+03  0.10566000000E+00 0.  1.
        994    1    1    2    0    0  0.22496495745E+02  0.58027509559E+02  0.18845132799E+02  0.18313345739E+03  0.17120000000E+03 0.  0.
        998    1    1    2    0    0  0.42951688384E+01 -0.17498963491E+02  0.13096763219E+04  0.13098384367E+04  0.10000000000E+02 0.  1.
</event>
<event>
 5    1  0.1607440E-008  0.3772001E+03  0.7957747E-01  0.3463441E+00
         13   -1    0    0    0    0  0.00000000000E+00  0.00000000000E+00  0.14999999963E+04  0.15000000000E+04  0.10566000000E+00 0. -1.
        994   -1    0    0    0    0 -0.00000000000E+00 -0.00000000000E+00  0.11368683772E-12  0.17120000000E+03  0.17120000000E+03 0.  0.
         13    1    1    2    0    0  0.37997297684E+02 -0.12457573303E+03  0.74589945146E+03  0.75718485903E+03  0.10566000000E+00 0. -1.
        994    1    1    2    0    0 -0.35780692722E+02  0.12306113411E+03  0.63145155904E+02  0.22298217734E+03  0.17120000000E+03 0.  0.
        998    1    1    2    0    0 -0.22166049620E+01  0.15145989220E+01  0.69095538891E+03  0.69103296362E+03  0.10000000000E+02 0.  0.
</event>
<event>
 5    1  0.1607440E-008  0.3845919E+03  0.7957747E-01  0.3431405E+00
         13   -1    0    0    0    0  0.00000000000E+00  0.00000000000E+00  0.14999999963E+04  0.15000000000E+04  0.10566000000E+00 0. -1.
        994   -1    0    0    0    0 -0.00000000000E+00 -0.00000000000E+00  0.11368683772E-12  0.17120000000E+03  0.17120000000E+03 0.  0.
         13    1    1    2    0    0 -0.10134664259E+01 -0.15286442603E+02  0.72483822202E+02  0.74085208285E+02  0.10566000000E+00 0. -1.
        994    1    1    2    0    0 -0.84680106372E+01 -0.89710005690E+01  0.23341803993E+01  0.17165976364E+03  0.17120000000E+03 0.  0.
        998    1    1    2    0    0  0.94814770631E+01  0.24257443172E+02  0.14251819937E+04  0.14254550281E+04  0.10000000000E+02 0. -1.
</event>
<event>
 5    1  0.1607440E-008  0.3834809E+03  0.7957747E-01  0.3436141E+00
         13   -1    0    0    0    0  0.00000000000E+00  0.00000000000E+00  0.14999999963E+04  0.15000000000E+04  0.10566000000E+00 0.  1.
        994   -1    0    0    0    0 -0.00000000000E+00 -0.00000000000E+00  0.11368683772E-12  0.17120000000E+03  0.17120000000E+03 0.  0.
         13    1    1    2    0    0  0.91173676389E+01 -0.97061825247E+01  0.35905557090E+02  0.38295646826E+02  0.10566000000E+00 0.  1.
        994    1    1    2    0    0 -0.79559181745E+01  0.99816186185E+01  0.29248923296E+01  0.17170010000E+03  0.17120000000E+03 0.  0.
        998    1    1    2    0    0 -0.11614494643E+01 -0.27543609385E+00  0.14611695469E+04  0.14612042532E+04  0.10000000000E+02 0.  1.
</event>
<event>
 5    1  0.1607440E-008  0.3697220E+03  0.7957747E-01  0.3497170E+00
         13   -1    0    0    0    0  0.00000000000E+00  0.00000000000E+00  0.14999999963E+04  0.15000000000E+04  0.10566000000E+00 0.  1.
        994   -1    0    0    0    0 -0.00000000000E+00 -0.00000000000E+00  0.11368683772E-12  0.17120000000E+03  0.17120000000E+03 0.  0.
         13    1    1    2    0    0  0.60038413570E+02  0.22653450112E+02  0.22295118202E+03  0.23200222119E+03  0.10566000000E+00 0.  1.
        994    1    1    2    0    0 -0.10478927441E+02  0.12436593411E+02  0.11716098755E+02  0.17236932368E+03  0.17120000000E+03 0.  0.
        998    1    1    2    0    0 -0.49559486129E+02 -0.35090043523E+02  0.12653327155E+04  0.12668284551E+04  0.10000000000E+02 0.  1.
</event>
<event>
 5    1  0.1607440E-008  0.3789618E+03  0.7957747E-01  0.3455692E+00
         13   -1    0    0    0    0  0.00000000000E+00  0.00000000000E+00  0.14999999963E+04  0.15000000000E+04  0.10566000000E+00 0.  1.
        994   -1    0    0    0    0 -0.00000000000E+00 -0.00000000000E+00  0.11368683772E-12  0.17120000000E+03  0.17120000000E+03 0.  0.
         13    1    1    2    0    0  0.24437913928E+02  0.36489087664E+02  0.22812156904E+03  0.23231040997E+03  0.10566000000E+00 0.  1.
        994    1    1    2    0    0  0.12183542470E+02 -0.23087203008E+02  0.69474208164E+01  0.17331810150E+03  0.17120000000E+03 0.  0.
        998    1    1    2    0    0 -0.36621456398E+02 -0.13401884657E+02  0.12649310064E+04  0.12655714885E+04  0.10000000000E+02 0.  1.
</event>
<event>
 5    1  0.1607440E-008  0.3756978E+03  0.7957747E-01  0.3470108E+00
         13   -1    0    0    0    0  0.00000000000E+00  0.00000000000E+00  0.14999999963E+04  0.15000000000E+04  0.10566000000E+00 0.  1.
        994   -1    0    0    0    0 -0.00000000000E+00 -0.00000000000E+00  0.11368683772E-12  0.17120000000E+03  0.17120000000E+03 0.  0.
         13    1    1    2    0    0 -0.51576087107E+02 -0.31015556819E+02  0.30462390334E+03  0.31051214336E+03  0.10566000000E+00 0.  1.
        994    1    1    2    0    0  0.24284374532E+02  0.94311941172E+01  0.86258146101E+01  0.17338547502E+03  0.17120000000E+03 0.  0.
        998    1    1    2    0    0  0.27291712575E+02  0.21584362702E+02  0.11867502783E+04  0.11873023816E+04  0.10000000000E+02 0. -1.
</event>
<event>
 5    1  0.1607440E-008  0.3765428E+03  0.7957747E-01  0.3466352E+00
         13   -1    0    0    0    0  0.00000000000E+00  0.00000000000E+00  0.14999999963E+04  0.15000000000E+04  0.10566000000E+00 0. -1.
        994   -1    0    0    0    0 -0.00000000000E+00 -0.00000000000E+00  0.11368683772E-12  0.17120000000E+03  0.17120000000E+03 0.  0.
         13    1    1    2    0    0 -0.48903848245E+02  0.75472297587E+01  0.20803058649E+03  0.21383470983E+03  0.10566000000E+00 0. -1.
        994    1    1    2    0    0  0.26116096916E+02 -0.78403008221E+01  0.84069928898E+01  0.17356162699E+03  0.17120000000E+03 0.  0.
        998    1    1    2    0    0  0.22787751329E+02  0.29307106337E+00  0.12835624169E+04  0.12838036632E+04  0.10000000000E+02 0. -1.
</event>
<event>
 5    1  0.1607440E-008  0.3842115E+03  0.7957747E-01  0.3433023E+00
         13   -1    0    0    0    0  0.00000000000E+00  0.00000000000E+00  0.14999999963E+04  0.15000000000E+04  0.10566000000E+00 0. -1.
        994   -1    0    0    0    0 -0.00000000000E+00 -0.00000000000E+00  0.11368683772E-12  0.17120000000E+03  0.17120000000E+03 0.  0.
         13    1    1    2    0    0 -0.41576077023E+01  0.97647965584E+01  0.28864964741E+02  0.30754419311E+02  0.10566000000E+00 0. -1.
        994    1    1    2    0    0 -0.11444716417E+01  0.67711001013E+01  0.21776315150E+01  0.17135150916E+03  0.17120000000E+03 0.  0.
        998    1    1    2    0    0  0.53020793440E+01 -0.16535896660E+02  0.14689574000E+04  0.14690940715E+04  0.10000000000E+02 0. -1.
</event>
<event>
 5    1  0.1607440E-008  0.3813585E+03  0.7957747E-01  0.3445265E+00
         13   -1    0    0    0    0  0.00000000000E+00  0.00000000000E+00  0.14999999963E+04  0.15000000000E+04  0.10566000000E+00 0. -1.
        994   -1    0    0    0    0 -0.00000000000E+00 -0.00000000000E+00  0.11368683772E-12  0.17120000000E+03  0.17120000000E+03 0.  0.
         13    1    1    2    0    0 -0.84525909726E+02 -0.10500945944E+01  0.27417660188E+03  0.28691209856E+03  0.10566000000E+00 0. -1.
        994    1    1    2    0    0 -0.50427310043E+01 -0.45645687326E+02  0.24795350000E+02  0.17897823133E+03  0.17120000000E+03 0.  0.
        998    1    1    2    0    0  0.89568640730E+02  0.46695781920E+02  0.12010280444E+04  0.12053096701E+04  0.10000000000E+02 0. -1.
</event>
<event>
 5    1  0.1607440E-008  0.4015816E+03  0.7957747E-01  0.3362254E+00
         13   -1    0    0    0    0  0.00000000000E+00  0.00000000000E+00  0.14999999963E+04  0.15000000000E+04  0.10566000000E+00 0. -1.
        994   -1    0    0    0    0 -0.00000000000E+00 -0.00000000000E+00  0.11368683772E-12  0.17120000000E+03  0.17120000000E+03 0.  0.
         13    1    1    2    0    0  0.34791113743E+02  0.77313872084E+02  0.97261076893E+02  0.12902551939E+03  0.10566000000E+00 0. -1.
        994    1    1    2    0    0 -0.75914278964E+02 -0.94668099857E+02  0.89489987734E+02  0.22812918442E+03  0.17120000000E+03 0.  0.
        998    1    1    2    0    0  0.41123165220E+02  0.17354227773E+02  0.13132489317E+04  0.13140452962E+04  0.10000000000E+02 0. -1.
</event>
<event>
 5    1  0.1607440E-008  0.3806498E+03  0.7957747E-01  0.3448334E+00
         13   -1    0    0    0    0  0.00000000000E+00  0.00000000000E+00  0.14999999963E+04  0.15000000000E+04  0.10566000000E+00 0.  1.
        994   -1    0    0    0    0 -0.00000000000E+00 -0.00000000000E+00  0.11368683772E-12  0.17120000000E+03  0.17120000000E+03 0.  0.
         13    1    1    2    0    0  0.20553211427E+02 -0.26730715515E+01  0.56205517212E+02  0.59905351519E+02  0.10566000000E+00 0.  1.
        994    1    1    2    0    0 -0.95426819155E+01 -0.79793996412E+01  0.43217981466E+01  0.17170571201E+03  0.17120000000E+03 0.  0.
        998    1    1    2    0    0 -0.11010529511E+02  0.10652471193E+02  0.14394726809E+04  0.14395889365E+04  0.10000000000E+02 0.  1.
</event>
<event>
 5    1  0.1607440E-008  0.3772271E+03  0.7957747E-01  0.3463322E+00
         13   -1    0    0    0    0  0.00000000000E+00  0.00000000000E+00  0.14999999963E+04  0.15000000000E+04  0.10566000000E+00 0. -1.
        994   -1    0    0    0    0 -0.00000000000E+00 -0.00000000000E+00  0.11368683772E-12  0.17120000000E+03  0.17120000000E+03 0.  0.
         13    1    1    2    0    0 -0.11903345892E+02  0.22233789759E+01  0.10654036049E+02  0.16129250003E+02  0.10566000000E+00 0. -1.
        994    1    1    2    0    0  0.12101226266E+02 -0.64894026076E+01  0.61758660438E+01  0.17186079642E+03  0.17120000000E+03 0.  0.
        998    1    1    2    0    0 -0.19788037347E+00  0.42660236317E+01  0.14831700942E+04  0.14832099536E+04  0.10000000000E+02 0. -1.
</event>
<event>
 5    1  0.1607440E-008  0.3776248E+03  0.7957747E-01  0.3461566E+00
         13   -1    0    0    0    0  0.00000000000E+00  0.00000000000E+00  0.14999999963E+04  0.15000000000E+04  0.10566000000E+00 0.  1.
        994   -1    0    0    0    0 -0.00000000000E+00 -0.00000000000E+00  0.11368683772E-12  0.17120000000E+03  0.17120000000E+03 0.  0.
         13    1    1    2    0    0  0.26594356555E+02  0.26727146997E+01  0.65308459512E+02  0.70566346457E+02  0.10566000000E+00 0.  1.
        994    1    1    2    0    0 -0.16795314318E+02  0.11543548828E+02  0.67376279933E+01  0.17254034813E+03  0.17120000000E+03 0.  0.
        998    1    1    2    0    0 -0.97990422372E+01 -0.14216263528E+02  0.14279539088E+04  0.14280933054E+04  0.10000000000E+02 0.  1.
</event>
<event>
 5    1  0.1607440E-008  0.3858265E+03  0.7957747E-01  0.3426175E+00
         13   -1    0    0    0    0  0.00000000000E+00  0.00000000000E+00  0.14999999963E+04  0.15000000000E+04  0.10566000000E+00 0.  1.
        994   -1    0    0    0    0 -0.00000000000E+00 -0.00000000000E+00  0.11368683772E-12  0.17120000000E+03  0.17120000000E+03 0.  0.
         13    1    1    2    0    0 -0.78969339916E+01 -0.70372961278E+01  0.46190822689E+02  0.47386584261E+02  0.10566000000E+00 0.  1.
        994    1    1    2    0    0  0.35507847765E+01  0.69949805629E+01  0.14222185874E+01  0.17138553186E+03  0.17120000000E+03 0.  0.
        998    1    1    2    0    0  0.43461492151E+01  0.42315564966E-01  0.14523869550E+04  0.14524278839E+04  0.10000000000E+02 0.  1.
</event>
<event>
 5    1  0.1607440E-008  0.3822787E+03  0.7957747E-01  0.3441296E+00
         13   -1    0    0    0    0  0.00000000000E+00  0.00000000000E+00  0.14999999963E+04  0.15000000000E+04  0.10566000000E+00 0.  1.
        994   -1    0    0    0    0 -0.00000000000E+00 -0.00000000000E+00  0.11368683772E-12  0.17120000000E+03  0.17120000000E+03 0.  0.
         13    1    1    2    0    0 -0.61760620761E+01 -0.26380901649E+02  0.12927851020E+03  0.13208724419E+03  0.10566000000E+00 0.  1.
        994    1    1    2    0    0  0.15725562937E+02  0.45819097296E+01  0.38779578922E+01  0.17202548004E+03  0.17120000000E+03 0.  0.
        998    1    1    2    0    0 -0.95495008610E+01  0.21798991920E+02  0.13668435282E+04  0.13670872758E+04  0.10000000000E+02 0.  1.
</event>
<event>
 5    1  0.1607440E-008  0.3847018E+03  0.7957747E-01  0.3430938E+00
         13   -1    0    0    0    0  0.00000000000E+00  0.00000000000E+00  0.14999999963E+04  0.15000000000E+04  0.10566000000E+00 0.  1.
        994   -1    0    0    0    0 -0.00000000000E+00 -0.00000000000E+00  0.11368683772E-12  0.17120000000E+03  0.17120000000E+03 0.  0.
         13    1    1    2    0    0 -0.18135170036E+02 -0.30182833542E+01  0.93450509761E+02  0.95241815214E+02  0.10566000000E+00 0.  1.
        994    1    1    2    0    0  0.14316066348E+02 -0.12921854405E+01  0.24586991388E+01  0.17181997759E+03  0.17120000000E+03 0.  0.
        998    1    1    2    0    0  0.38191036877E+01  0.43104687947E+01  0.14040907874E+04  0.14041382072E+04  0.10000000000E+02 0.  1.
</event>
<event>
 5    1  0.1607440E-008  0.3852452E+03  0.7957747E-01  0.3428633E+00
         13   -1    0    0    0    0  0.00000000000E+00  0.00000000000E+00  0.14999999963E+04  0.15000000000E+04  0.10566000000E+00 0. -1.
        994   -1    0    0    0    0 -0.00000000000E+00 -0.00000000000E+00  0.11368683772E-12  0.17120000000E+03  0.17120000000E+03 0.  0.
         13    1    1    2    0    0  0.29207603257E+01  0.13222906981E+02  0.60202081881E+02  0.61706384895E+02  0.10566000000E+00 0. -1.
        994    1    1    2    0    0 -0.33989272323E+01 -0.10376423509E+02  0.19003382998E+01  0.17155836953E+03  0.17120000000E+03 0.  0.
        998    1    1    2    0    0  0.47816690657E+00 -0.28464834711E+01  0.14378975761E+04  0.14379352456E+04  0.10000000000E+02 0. -1.
</event>
<event>
 5    1  0.1607440E-008  0.3780335E+03  0.7957747E-01  0.3459766E+00
         13   -1    0    0    0    0  0.00000000000E+00  0.00000000000E+00  0.14999999963E+04  0.15000000000E+04  0.10566000000E+00 0.  1.
        994   -1    0    0    0    0 -0.00000000000E+00 -0.00000000000E+00  0.11368683772E-12  0.17120000000E+03  0.17120000000E+03 0.  0.
         13    1    1    2    0    0  0.10208880799E+02 -0.40846096206E+02  0.15077224092E+03  0.15654042487E+03  0.10566000000E+00 0.  1.
        994    1    1    2    0    0  0.12742090424E+01  0.48819144149E+02  0.13196284905E+02  0.17851754642E+03  0.17120000000E+03 0.  0.
        998    1    1    2    0    0 -0.11483089841E+02 -0.79730479429E+01  0.13360314705E+04  0.13361420287E+04  0.10000000000E+02 0. -1.
</event>
<event>
 5    1  0.1607440E-008  0.3796802E+03  0.7957747E-01  0.3452552E+00
         13   -1    0    0    0    0  0.00000000000E+00  0.00000000000E+00  0.14999999963E+04  0.15000000000E+04  0.10566000000E+00 0. -1.
        994   -1    0    0    0    0 -0.00000000000E+00 -0.00000000000E+00  0.11368683772E-12  0.17120000000E+03  0.17120000000E+03 0.  0.
         13    1    1    2    0    0  0.13408391410E+02 -0.23122087964E+01  0.19501792394E+02  0.23779452061E+02  0.10566000000E+00 0. -1.
        994    1    1    2    0    0 -0.13881325000E+02  0.41126803962E+01  0.49964261256E+01  0.17188370952E+03  0.17120000000E+03 0.  0.
        998    1    1    2    0    0  0.47293359000E+00 -0.18004715998E+01  0.14755017778E+04  0.14755368384E+04  0.10000000000E+02 0. -1.
</event>
<event>
 5    1  0.1607440E-008  0.3853503E+03  0.7957747E-01  0.3428188E+00
         13   -1    0    0    0    0  0.00000000000E+00  0.00000000000E+00  0.14999999963E+04  0.15000000000E+04  0.10566000000E+00 0.  1.
        994   -1    0    0    0    0 -0.00000000000E+00 -0.00000000000E+00  0.11368683772E-12  0.17120000000E+03  0.17120000000E+03 0.  0.
         13    1    1    2    0    0  0.13255924773E+02 -0.55765658262E+00  0.61083262053E+02  0.62507652248E+02  0.10566000000E+00 0.  1.
        994    1    1    2    0    0 -0.77337977771E+01 -0.89656807478E+00  0.16554532691E+01  0.17138493513E+03  0.17120000000E+03 0.  0.
        998    1    1    2    0    0 -0.55221269954E+01  0.14542246574E+01  0.14372612810E+04  0.14373074126E+04  0.10000000000E+02 0.  1.
</event>
<event>
 5    1  0.1607440E-008  0.3837946E+03  0.7957747E-01  0.3434801E+00
         13   -1    0    0    0    0  0.00000000000E+00  0.00000000000E+00  0.14999999963E+04  0.15000000000E+04  0.10566000000E+00 0.  1.
        994   -1    0    0    0    0 -0.00000000000E+00 -0.00000000000E+00  0.11368683772E-12  0.17120000000E+03  0.17120000000E+03 0.  0.
         13    1    1    2    0    0 -0.10126030014E+02 -0.22450235000E+02  0.12350955525E+03  0.12594114076E+03  0.10566000000E+00 0.  1.
        994    1    1    2    0    0  0.13752324952E+02  0.23949827993E+02  0.47520066641E+01  0.17347836254E+03  0.17120000000E+03 0.  0.
        998    1    1    2    0    0 -0.36262949373E+01 -0.14995929930E+01  0.13717384344E+04  0.13717804967E+04  0.10000000000E+02 0.  1.
</event>
<event>
 5    1  0.1607440E-008  0.3859768E+03  0.7957747E-01  0.3425540E+00
         13   -1    0    0    0    0  0.00000000000E+00  0.00000000000E+00  0.14999999963E+04  0.15000000000E+04  0.10566000000E+00 0.  1.
        994   -1    0    0    0    0 -0.00000000000E+00 -0.00000000000E+00  0.11368683772E-12  0.17120000000E+03  0.17120000000E+03 0.  0.
         13    1    1    2    0    0 -0.32611122124E+01  0.14691932657E+02  0.90472155725E+02  0.91715374195E+02  0.10566000000E+00 0.  1.
        994    1    1    2    0    0  0.13383906628E+02 -0.18799283983E+02  0.28937342272E+01  0.17277255492E+03  0.17120000000E+03 0.  0.
        998    1    1    2    0    0 -0.10122794416E+02  0.41073513261E+01  0.14066341063E+04  0.14067120709E+04  0.10000000000E+02 0.  1.
</event>
<event>
 5    1  0.1607440E-008  0.3841013E+03  0.7957747E-01  0.3433493E+00
         13   -1    0    0    0    0  0.00000000000E+00  0.00000000000E+00  0.14999999963E+04  0.15000000000E+04  0.10566000000E+00 0. -1.
        994   -1    0    0    0    0 -0.00000000000E+00 -0.00000000000E+00  0.11368683772E-12  0.17120000000E+03  0.17120000000E+03 0.  0.
         13    1    1    2    0    0 -0.97712273720E+01  0.21237372442E+02  0.13738340260E+03  0.13935821951E+03  0.10566000000E+00 0. -1.
        994    1    1    2    0    0  0.83567481195E+01 -0.58344580158E+01  0.24196906598E+01  0.17152017678E+03  0.17120000000E+03 0.  0.
        998    1    1    2    0    0  0.14144792525E+01 -0.15402914427E+02  0.13601969030E+04  0.13603216037E+04  0.10000000000E+02 0. -1.
</event>
<event>
 5    1  0.1607440E-008  0.3847800E+03  0.7957747E-01  0.3430606E+00
         13   -1    0    0    0    0  0.00000000000E+00  0.00000000000E+00  0.14999999963E+04  0.15000000000E+04  0.10566000000E+00 0. -1.
        994   -1    0    0    0    0 -0.00000000000E+00 -0.00000000000E+00  0.11368683772E-12  0.17120000000E+03  0.17120000000E+03 0.  0.
         13    1    1    2    0    0 -0.86787557602E+01 -0.18911423036E+02  0.12577826770E+03  0.12748782888E+03  0.10566000000E+00 0. -1.
        994    1    1    2    0    0  0.53792191487E+01  0.10365168432E+02  0.21883583007E+01  0.17161177590E+03  0.17120000000E+03 0.  0.
        998    1    1    2    0    0  0.32995366115E+01  0.85462546037E+01  0.13720333703E+04  0.13721003952E+04  0.10000000000E+02 0. -1.
</event>
<event>
 5    1  0.1607440E-008  0.3843994E+03  0.7957747E-01  0.3432224E+00
         13   -1    0    0    0    0  0.00000000000E+00  0.00000000000E+00  0.14999999963E+04  0.15000000000E+04  0.10566000000E+00 0. -1.
        994   -1    0    0    0    0 -0.00000000000E+00 -0.00000000000E+00  0.11368683772E-12  0.17120000000E+03  0.17120000000E+03 0.  0.
         13    1    1    2    0    0 -0.41749535191E+02 -0.67425951054E+02  0.14395307246E+03  0.16435261117E+03  0.10566000000E+00 0. -1.
        994    1    1    2    0    0  0.47369124976E+02  0.69343708819E+02  0.45229529412E+02  0.19597840260E+03  0.17120000000E+03 0.  0.
        998    1    1    2    0    0 -0.56195897846E+01 -0.19177577649E+01  0.13108173944E+04  0.13108689862E+04  0.10000000000E+02 0. -1.
</event>
<event>
 5    1  0.1607440E-008  0.3804657E+03  0.7957747E-01  0.3449133E+00
         13   -1    0    0    0    0  0.00000000000E+00  0.00000000000E+00  0.14999999963E+04  0.15000000000E+04  0.10566000000E+00 0. -1.
        994   -1    0    0    0    0 -0.00000000000E+00 -0.00000000000E+00  0.11368683772E-12  0.17120000000E+03  0.17120000000E+03 0.  0.
         13    1    1    2    0    0  0.15882695366E+02  0.31371768730E+02  0.13592988333E+03  0.14040438822E+03  0.10566000000E+00 0. -1.
        994    1    1    2    0    0 -0.17700369818E+02 -0.41385810275E+02  0.10690680954E+02  0.17734096832E+03  0.17120000000E+03 0.  0.
        998    1    1    2    0    0  0.18176744519E+01  0.10014041544E+02  0.13533794320E+04  0.13534546435E+04  0.10000000000E+02 0. -1.
</event>
<event>
 5    1  0.1607440E-008  0.3745283E+03  0.7957747E-01  0.3475335E+00
         13   -1    0    0    0    0  0.00000000000E+00  0.00000000000E+00  0.14999999963E+04  0.15000000000E+04  0.10566000000E+00 0. -1.
        994   -1    0    0    0    0 -0.00000000000E+00 -0.00000000000E+00  0.11368683772E-12  0.17120000000E+03  0.17120000000E+03 0.  0.
         13    1    1    2    0    0 -0.11435925251E+02  0.24667577805E+02  0.47896023653E+02  0.55075493887E+02  0.10566000000E+00 0. -1.
        994    1    1    2    0    0  0.11625560692E+02 -0.34661295578E+02  0.11485186001E+02  0.17543633766E+03  0.17120000000E+03 0.  0.
        998    1    1    2    0    0 -0.18963544038E+00  0.99937177725E+01  0.14406187866E+04  0.14406881685E+04  0.10000000000E+02 0. -1.
</event>
<event>
 5    1  0.1607440E-008  0.3830738E+03  0.7957747E-01  0.3437883E+00
         13   -1    0    0    0    0  0.00000000000E+00  0.00000000000E+00  0.14999999963E+04  0.15000000000E+04  0.10566000000E+00 0. -1.
        994   -1    0    0    0    0 -0.00000000000E+00 -0.00000000000E+00  0.11368683772E-12  0.17120000000E+03  0.17120000000E+03 0.  0.
         13    1    1    2    0    0  0.88151586246E+01  0.18686393434E+02  0.85978518748E+02  0.88426269690E+02  0.10566000000E+00 0. -1.
        994    1    1    2    0    0  0.49617608384E+01 -0.73018055017E+01  0.28474543525E+01  0.17145111090E+03  0.17120000000E+03 0.  0.
        998    1    1    2    0    0 -0.13776919463E+02 -0.11384587932E+02  0.14111740232E+04  0.14113226194E+04  0.10000000000E+02 0. -1.
</event>
<event>
 5    1  0.1607440E-008  0.3704124E+03  0.7957747E-01  0.3493998E+00
         13   -1    0    0    0    0  0.00000000000E+00  0.00000000000E+00  0.14999999963E+04  0.15000000000E+04  0.10566000000E+00 0. -1.
        994   -1    0    0    0    0 -0.00000000000E+00 -0.00000000000E+00  0.11368683772E-12  0.17120000000E+03  0.17120000000E+03 0.  0.
         13    1    1    2    0    0  0.84705792881E+02  0.69268941108E+02  0.41530657937E+03  0.42947971265E+03  0.10566000000E+00 0. -1.
        994    1    1    2    0    0 -0.79677585466E+02 -0.97094230619E+02  0.65670784459E+02  0.22225638163E+03  0.17120000000E+03 0.  0.
        998    1    1    2    0    0 -0.50282074155E+01  0.27825289511E+02  0.10190226325E+04  0.10194639057E+04  0.10000000000E+02 0. -1.
</event>
<event>
 5    1  0.1607440E-008  0.3801467E+03  0.7957747E-01  0.3450520E+00
         13   -1    0    0    0    0  0.00000000000E+00  0.00000000000E+00  0.14999999963E+04  0.15000000000E+04  0.10566000000E+00 0. -1.
        994   -1    0    0    0    0 -0.00000000000E+00 -0.00000000000E+00  0.11368683772E-12  0.17120000000E+03  0.17120000000E+03 0.  0.
         13    1    1    2    0    0  0.92163493693E+01  0.88638959344E+01  0.18119919754E+02  0.22177745665E+02  0.10566000000E+00 0. -1.
        994    1    1    2    0    0 -0.12943870317E+02 -0.90450166438E+01  0.48927109534E+01  0.17199632184E+03  0.17120000000E+03 0.  0.
        998    1    1    2    0    0  0.37275209478E+01  0.18112070940E+00  0.14769873656E+04  0.14770259325E+04  0.10000000000E+02 0. -1.
</event>
<event>
 5    1  0.1607440E-008  0.3846795E+03  0.7957747E-01  0.3431032E+00
         13   -1    0    0    0    0  0.00000000000E+00  0.00000000000E+00  0.14999999963E+04  0.15000000000E+04  0.10566000000E+00 0. -1.
        994   -1    0    0    0    0 -0.00000000000E+00 -0.00000000000E+00  0.11368683772E-12  0.17120000000E+03  0.17120000000E+03 0.  0.
         13    1    1    2    0    0  0.13766389196E+02 -0.85490475573E+01  0.69135052069E+02  0.71008916864E+02  0.10566000000E+00 0. -1.
        994    1    1    2    0    0 -0.18505113387E+02  0.79457956289E+01  0.31256439204E+01  0.17240877164E+03  0.17120000000E+03 0.  0.
        998    1    1    2    0    0  0.47387241901E+01  0.60325192843E+00  0.14277393003E+04  0.14277823115E+04  0.10000000000E+02 0. -1.
</event>
<event>
 5    1  0.1607440E-008  0.4326861E+03  0.7957747E-01  0.3249604E+00
         13   -1    0    0    0    0  0.00000000000E+00  0.00000000000E+00  0.14999999963E+04  0.15000000000E+04  0.10566000000E+00 0. -1.
        994   -1    0    0    0    0 -0.00000000000E+00 -0.00000000000E+00  0.11368683772E-12  0.17120000000E+03  0.17120000000E+03 0.  0.
         13    1    1    2    0    0  0.70749941086E+02 -0.37329969988E+02  0.53110078079E+02  0.96019645805E+02  0.10566000000E+00 0. -1.
        994    1    1    2    0    0 -0.64562490635E+01  0.78605555044E+02  0.77791586441E+02  0.20391539264E+03  0.17120000000E+03 0.  0.
        998    1    1    2    0    0 -0.64293692023E+02 -0.41275585056E+02  0.13690983318E+04  0.13712649616E+04  0.10000000000E+02 0. -1.
</event>
<event>
 5    1  0.1607440E-008  0.3851802E+03  0.7957747E-01  0.3428908E+00
         13   -1    0    0    0    0  0.00000000000E+00  0.00000000000E+00  0.14999999963E+04  0.15000000000E+04  0.10566000000E+00 0.  1.
        994   -1    0    0    0    0 -0.00000000000E+00 -0.00000000000E+00  0.11368683772E-12  0.17120000000E+03  0.17120000000E+03 0.  0.
         13    1    1    2    0    0  0.14389698023E+02 -0.45427579078E+01  0.70278799616E+02  0.71880601681E+02  0.10566000000E+00 0.  1.
        994    1    1    2    0    0 -0.19897425670E+02 -0.38526385139E+01  0.28918696033E+01  0.17241970097E+03  0.17120000000E+03 0.  0.
        998    1    1    2    0    0  0.55077276469E+01  0.83953964217E+01  0.14268293271E+04  0.14268996974E+04  0.10000000000E+02 0.  1.
</event>
<event>
 5    1  0.1607440E-008  0.3770200E+03  0.7957747E-01  0.3464237E+00
         13   -1    0    0    0    0  0.00000000000E+00  0.00000000000E+00  0.14999999963E+04  0.15000000000E+04  0.10566000000E+00 0. -1.
        994   -1    0    0    0    0 -0.00000000000E+00 -0.00000000000E+00  0.11368683772E-12  0.17120000000E+03  0.17120000000E+03 0.  0.
         13    1    1    2    0    0  0.22537141427E+01 -0.27519267108E+02  0.63025521170E+02  0.68808551593E+02  0.10566000000E+00 0. -1.
        994    1    1    2    0    0  0.11586655188E+00  0.27813610435E+02  0.82613140491E+01  0.17364129595E+03  0.17120000000E+03 0.  0.
        998    1    1    2    0    0 -0.23695806946E+01 -0.29434332645E+00  0.14287131611E+04  0.14287501525E+04  0.10000000000E+02 0. -1.
</event>
<event>
 5    1  0.1607440E-008  0.3691168E+03  0.7957747E-01  0.3499960E+00
         13   -1    0    0    0    0  0.00000000000E+00  0.00000000000E+00  0.14999999963E+04  0.15000000000E+04  0.10566000000E+00 0.  1.
        994   -1    0    0    0    0 -0.00000000000E+00 -0.00000000000E+00  0.11368683772E-12  0.17120000000E+03  0.17120000000E+03 0.  0.
         13    1    1    2    0    0  0.31124370717E+02  0.15827427093E+02  0.53251432980E+02  0.63678569232E+02  0.10566000000E+00 0.  1.
        994    1    1    2    0    0 -0.26476688256E+02 -0.13756282890E+02  0.13581547585E+02  0.17431049531E+03  0.17120000000E+03 0.  0.
        998    1    1    2    0    0 -0.46476824615E+01 -0.20711442027E+01  0.14331670157E+04  0.14332109355E+04  0.10000000000E+02 0.  1.
</event>
<event>
 5    1  0.1607440E-008  0.3855159E+03  0.7957747E-01  0.3427487E+00
         13   -1    0    0    0    0  0.00000000000E+00  0.00000000000E+00  0.14999999963E+04  0.15000000000E+04  0.10566000000E+00 0. -1.
        994   -1    0    0    0    0 -0.00000000000E+00 -0.00000000000E+00  0.11368683772E-12  0.17120000000E+03  0.17120000000E+03 0.  0.
         13    1    1    2    0    0 -0.79553500608E+01 -0.10572556592E+02  0.68877784565E+02  0.70137200672E+02  0.10566000000E+00 0. -1.
        994    1    1    2    0    0  0.91722921061E+01 -0.83914714106E+01  0.18818054975E+01  0.17166108740E+03  0.17120000000E+03 0.  0.
        998    1    1    2    0    0 -0.12169420453E+01  0.18964028003E+02  0.14292404062E+04  0.14294017119E+04  0.10000000000E+02 0. -1.
</event>
<event>
 5    1  0.1607440E-008  0.3801777E+03  0.7957747E-01  0.3450385E+00
         13   -1    0    0    0    0  0.00000000000E+00  0.00000000000E+00  0.14999999963E+04  0.15000000000E+04  0.10566000000E+00 0.  1.
        994   -1    0    0    0    0 -0.00000000000E+00 -0.00000000000E+00  0.11368683772E-12  0.17120000000E+03  0.17120000000E+03 0.  0.
         13    1    1    2    0    0 -0.49644245940E+02 -0.47647655068E+02  0.38050280886E+03  0.38667460338E+03  0.10566000000E+00 0.  1.
        994    1    1    2    0    0  0.51890462525E+02  0.63598793471E+02  0.26891370752E+02  0.19175508456E+03  0.17120000000E+03 0.  0.
        998    1    1    2    0    0 -0.22462165846E+01 -0.15951138403E+02  0.10926058167E+04  0.10927703121E+04  0.10000000000E+02 0.  1.
</event>
<event>
 5    1  0.1607440E-008  0.3840842E+03  0.7957747E-01  0.3433566E+00
         13   -1    0    0    0    0  0.00000000000E+00  0.00000000000E+00  0.14999999963E+04  0.15000000000E+04  0.10566000000E+00 0.  1.
        994   -1    0    0    0    0 -0.00000000000E+00 -0.00000000000E+00  0.11368683772E-12  0.17120000000E+03  0.17120000000E+03 0.  0.
         13    1    1    2    0    0  0.75723816002E+01 -0.23999621966E+02  0.13612439482E+03  0.13843115562E+03  0.10566000000E+00 0.  1.
        994    1    1    2    0    0 -0.35338577321E+02  0.20107971136E+02  0.75574837041E+01  0.17612410712E+03  0.17120000000E+03 0.  0.
        998    1    1    2    0    0  0.27766195720E+02  0.38916508302E+01  0.13563181178E+04  0.13566447373E+04  0.10000000000E+02 0.  1.
</event>
<event>
 5    1  0.1607440E-008  0.3804472E+03  0.7957747E-01  0.3449214E+00
         13   -1    0    0    0    0  0.00000000000E+00  0.00000000000E+00  0.14999999963E+04  0.15000000000E+04  0.10566000000E+00 0. -1.
        994   -1    0    0    0    0 -0.00000000000E+00 -0.00000000000E+00  0.11368683772E-12  0.17120000000E+03  0.17120000000E+03 0.  0.
         13    1    1    2    0    0 -0.16914008726E+02  0.12988026401E+02  0.55063410294E+02  0.59048817416E+02  0.10566000000E+00 0. -1.
        994    1    1    2    0    0  0.18537197582E+02 -0.11044923407E+02  0.54633390710E+01  0.17264097457E+03  0.17120000000E+03 0.  0.
        998    1    1    2    0    0 -0.16231888559E+01 -0.19431029938E+01  0.14394732469E+04  0.14395102080E+04  0.10000000000E+02 0.  0.
</event>
<event>
 5    1  0.1607440E-008  0.3727020E+03  0.7957747E-01  0.3483564E+00
         13   -1    0    0    0    0  0.00000000000E+00  0.00000000000E+00  0.14999999963E+04  0.15000000000E+04  0.10566000000E+00 0. -1.
        994   -1    0    0    0    0 -0.00000000000E+00 -0.00000000000E+00  0.11368683772E-12  0.17120000000E+03  0.17120000000E+03 0.  0.
         13    1    1    2    0    0 -0.14403349719E+01 -0.14376395418E+02  0.96210742873E+01  0.17358903898E+02  0.10566000000E+00 0. -1.
        994    1    1    2    0    0  0.77324045038E+00  0.15944864886E+02  0.87370449706E+01  0.17216449277E+03  0.17120000000E+03 0.  0.
        998    1    1    2    0    0  0.66709452147E+00 -0.15684694679E+01  0.14816418770E+04  0.14816766033E+04  0.10000000000E+02 0. -1.
</event>
<event>
 5    1  0.1607440E-008  0.3859843E+03  0.7957747E-01  0.3425508E+00
         13   -1    0    0    0    0  0.00000000000E+00  0.00000000000E+00  0.14999999963E+04  0.15000000000E+04  0.10566000000E+00 0. -1.
        994   -1    0    0    0    0 -0.00000000000E+00 -0.00000000000E+00  0.11368683772E-12  0.17120000000E+03  0.17120000000E+03 0.  0.
         13    1    1    2    0    0  0.11045122020E+02 -0.41933817925E+01  0.63470924394E+02  0.64561200258E+02  0.10566000000E+00 0. -1.
        994    1    1    2    0    0 -0.39997056560E+01  0.16280144001E+01  0.12033725297E+01  0.17125868206E+03  0.17120000000E+03 0.  0.
        998    1    1    2    0    0 -0.70454163641E+01  0.25653673924E+01  0.14353256994E+04  0.14353801177E+04  0.10000000000E+02 0. -1.
</event>
<event>
 5    1  0.1607440E-008  0.3980819E+03  0.7957747E-01  0.3376017E+00
         13   -1    0    0    0    0  0.00000000000E+00  0.00000000000E+00  0.14999999963E+04  0.15000000000E+04  0.10566000000E+00 0. -1.
        994   -1    0    0    0    0 -0.00000000000E+00 -0.00000000000E+00  0.11368683772E-12  0.17120000000E+03  0.17120000000E+03 0.  0.
         13    1    1    2    0    0 -0.83488167591E+01  0.15497485704E+03  0.48211102376E+03  0.50647602060E+03  0.10566000000E+00 0. -1.
        994    1    1    2    0    0  0.13328005814E+02 -0.80642285940E+02  0.53087520268E+02  0.19699882951E+03  0.17120000000E+03 0.  0.
        998    1    1    2    0    0 -0.49791890551E+01 -0.74332571096E+02  0.96480145225E+03  0.96772514989E+03  0.10000000000E+02 0. -1.
</event>
<event>
 5    1  0.1607440E-008  0.3859493E+03  0.7957747E-01  0.3425656E+00
         13   -1    0    0    0    0  0.00000000000E+00  0.00000000000E+00  0.14999999963E+04  0.15000000000E+04  0.10566000000E+00 0.  1.
        994   -1    0    0    0    0 -0.00000000000E+00 -0.00000000000E+00  0.11368683772E-12  0.17120000000E+03  0.17120000000E+03 0.  0.
         13    1    1    2    0    0 -0.12206907623E+02 -0.53757407090E+01  0.78265564468E+02  0.79394061034E+02  0.10566000000E+00 0.  1.
        994    1    1    2    0    0  0.38433974996E+01  0.10486337972E+02  0.15686006190E+01  0.17157108001E+03  0.17120000000E+03 0.  0.
        998    1    1    2    0    0  0.83635101237E+01 -0.51105972630E+01  0.14201658312E+04  0.14202348590E+04  0.10000000000E+02 0.  1.
</event>
<event>
 5    1  0.1607440E-008  0.3842156E+03  0.7957747E-01  0.3433006E+00
         13   -1    0    0    0    0  0.00000000000E+00  0.00000000000E+00  0.14999999963E+04  0.15000000000E+04  0.10566000000E+00 0.  1.
        994   -1    0    0    0    0 -0.00000000000E+00 -0.00000000000E+00  0.11368683772E-12  0.17120000000E+03  0.17120000000E+03 0.  0.
         13    1    1    2    0    0  0.11105344720E+02  0.82939143979E+01  0.47016143969E+02  0.49016799723E+02  0.10566000000E+00 0.  1.
        994    1    1    2    0    0 -0.23528596058E+01 -0.13369839924E+02  0.26279036433E+01  0.17175748731E+03  0.17120000000E+03 0.  0.
        998    1    1    2    0    0 -0.87524851140E+01  0.50759255262E+01  0.14503559487E+04  0.14504257130E+04  0.10000000000E+02 0.  1.
</event>
<event>
 5    1  0.1607440E-008  0.3794182E+03  0.7957747E-01  0.3453695E+00
         13   -1    0    0    0    0  0.00000000000E+00  0.00000000000E+00  0.14999999963E+04  0.15000000000E+04  0.10566000000E+00 0.  1.
        994   -1    0    0    0    0 -0.00000000000E+00 -0.00000000000E+00  0.11368683772E-12  0.17120000000E+03  0.17120000000E+03 0.  0.
         13    1    1    2    0    0  0.74669407405E+02 -0.27016732531E+01  0.18246365950E+03  0.19716951499E+03  0.10566000000E+00 0.  1.
        994    1    1    2    0    0 -0.28803809519E+02 -0.57567176304E+01  0.19133955019E+02  0.17475224598E+03  0.17120000000E+03 0.  0.
        998    1    1    2    0    0 -0.45865597887E+02  0.84583908836E+01  0.12984023818E+04  0.12992782390E+04  0.10000000000E+02 0.  1.
</event>
<event>
 5    1  0.1607440E-008  0.3843127E+03  0.7957747E-01  0.3432592E+00
         13   -1    0    0    0    0  0.00000000000E+00  0.00000000000E+00  0.14999999963E+04  0.15000000000E+04  0.10566000000E+00 0.  1.
        994   -1    0    0    0    0 -0.00000000000E+00 -0.00000000000E+00  0.11368683772E-12  0.17120000000E+03  0.17120000000E+03 0.  0.
         13    1    1    2    0    0 -0.12867071234E+02  0.21038224045E+01  0.43823897671E+02  0.45722344231E+02  0.10566000000E+00 0.  1.
        994    1    1    2    0    0  0.25213066107E+01 -0.61094852401E+01  0.21157442640E+01  0.17134059405E+03  0.17120000000E+03 0.  0.
        998    1    1    2    0    0  0.10345764623E+02  0.40056628356E+01  0.14540603543E+04  0.14541370617E+04  0.10000000000E+02 0.  1.
</event>
<event>
 5    1  0.1607440E-008  0.3821152E+03  0.7957747E-01  0.3442000E+00
         13   -1    0    0    0    0  0.00000000000E+00  0.00000000000E+00  0.14999999963E+04  0.15000000000E+04  0.10566000000E+00 0. -1.
        994   -1    0    0    0    0 -0.00000000000E+00 -0.00000000000E+00  0.11368683772E-12  0.17120000000E+03  0.17120000000E+03 0.  0.
         13    1    1    2    0    0 -0.97323486881E+01 -0.44353114922E+01  0.17891839672E+02  0.20845135881E+02  0.10566000000E+00 0. -1.
        994    1    1    2    0    0 -0.76733061273E+00 -0.36298223970E+01  0.31148788528E+01  0.17126852273E+03  0.17120000000E+03 0.  0.
        998    1    1    2    0    0  0.10499679301E+02  0.80651338892E+01  0.14789932778E+04  0.14790863414E+04  0.10000000000E+02 0. -1.
</event>
<event>
 5    1  0.1607440E-008  0.3884686E+03  0.7957747E-01  0.3415093E+00
         13   -1    0    0    0    0  0.00000000000E+00  0.00000000000E+00  0.14999999963E+04  0.15000000000E+04  0.10566000000E+00 0.  1.
        994   -1    0    0    0    0 -0.00000000000E+00 -0.00000000000E+00  0.11368683772E-12  0.17120000000E+03  0.17120000000E+03 0.  0.
         13    1    1    2    0    0 -0.36650844607E+02 -0.28206724688E+02  0.43719911672E+02  0.63642325293E+02  0.10566000000E+00 0.  1.
        994    1    1    2    0    0  0.19845750019E+02  0.20261611715E+02  0.24073093017E+02  0.17519514979E+03  0.17120000000E+03 0.  0.
        998    1    1    2    0    0  0.16805094588E+02  0.79451129727E+01  0.14322069916E+04  0.14323625249E+04  0.10000000000E+02 0.  1.
</event>
<event>
 5    1  0.1607440E-008  0.3828127E+03  0.7957747E-01  0.3439002E+00
         13   -1    0    0    0    0  0.00000000000E+00  0.00000000000E+00  0.14999999963E+04  0.15000000000E+04  0.10566000000E+00 0.  1.
        994   -1    0    0    0    0 -0.00000000000E+00 -0.00000000000E+00  0.11368683772E-12  0.17120000000E+03  0.17120000000E+03 0.  0.
         13    1    1    2    0    0 -0.19407405376E+02 -0.20312185735E+02  0.15285162012E+02  0.31982489186E+02  0.10566000000E+00 0.  1.
        994    1    1    2    0    0  0.14923494622E+02 -0.11473614065E+02  0.19179347204E+02  0.17329639890E+03  0.17120000000E+03 0.  0.
        998    1    1    2    0    0  0.44839107538E+01  0.31785799799E+02  0.14655354871E+04  0.14659211119E+04  0.10000000000E+02 0.  1.
</event>
<event>
 5    1  0.3028051E-008  0.3825599E+03  0.7957747E-01  0.3440087E+00
         13   -1    0    0    0    0  0.00000000000E+00  0.00000000000E+00  0.14999999963E+04  0.15000000000E+04  0.10566000000E+00 0.  1.
        994   -1    0    0    0    0 -0.00000000000E+00 -0.00000000000E+00  0.11368683772E-12  0.17120000000E+03  0.17120000000E+03 0.  0.
         13    1    1    2    0    0  0.25739777051E+01 -0.10109679700E+02  0.17901109042E+02  0.20719359397E+02  0.10566000000E+00 0.  1.
        994    1    1    2    0    0 -0.16374543055E+01  0.92206787371E+01  0.31372657641E+01  0.17148464832E+03  0.17120000000E+03 0.  0.
        998    1    1    2    0    0 -0.93652339958E+00  0.88900096340E+00  0.14789616215E+04  0.14789959923E+04  0.10000000000E+02 0.  1.
</event>
<event>
 5    1  0.1607440E-008  0.3684322E+03  0.7957747E-01  0.3503127E+00
         13   -1    0    0    0    0  0.00000000000E+00  0.00000000000E+00  0.14999999963E+04  0.15000000000E+04  0.10566000000E+00 0.  1.
        994   -1    0    0    0    0 -0.00000000000E+00 -0.00000000000E+00  0.11368683772E-12  0.17120000000E+03  0.17120000000E+03 0.  0.
         13    1    1    2    0    0 -0.62099416459E+02 -0.22805046153E+01  0.25195099837E+03  0.25950116564E+03  0.10566000000E+00 0.  1.
        994    1    1    2    0    0 -0.84748999049E+01 -0.48619749589E+02  0.18606756215E+02  0.17914060220E+03  0.17120000000E+03 0.  0.
        998    1    1    2    0    0  0.70574316364E+02  0.50900254204E+02  0.12294422417E+04  0.12325582322E+04  0.10000000000E+02 0.  1.
</event>
<event>
 5    1  0.1607440E-008  0.3801392E+03  0.7957747E-01  0.3450552E+00
         13   -1    0    0    0    0  0.00000000000E+00  0.00000000000E+00  0.14999999963E+04  0.15000000000E+04  0.10566000000E+00 0. -1.
        994   -1    0    0    0    0 -0.00000000000E+00 -0.00000000000E+00  0.11368683772E-12  0.17120000000E+03  0.17120000000E+03 0.  0.
         13    1    1    2    0    0 -0.37872024942E+02 -0.15049355769E+01  0.18282140796E+03  0.18670895393E+03  0.10566000000E+00 0. -1.
        994    1    1    2    0    0  0.16136087576E+02  0.25300621881E+01  0.49547735147E+01  0.17204872658E+03  0.17120000000E+03 0.  0.
        998    1    1    2    0    0  0.21735937366E+02 -0.10251266113E+01  0.13122238148E+04  0.13124423195E+04  0.10000000000E+02 0. -1.
</event>
<event>
 5    1  0.1607440E-008  0.3823737E+03  0.7957747E-01  0.3440888E+00
         13   -1    0    0    0    0  0.00000000000E+00  0.00000000000E+00  0.14999999963E+04  0.15000000000E+04  0.10566000000E+00 0.  1.
        994   -1    0    0    0    0 -0.00000000000E+00 -0.00000000000E+00  0.11368683772E-12  0.17120000000E+03  0.17120000000E+03 0.  0.
         13    1    1    2    0    0 -0.28011682826E+02  0.19771205679E+02  0.20403115206E+03  0.20689194553E+03  0.10566000000E+00 0.  1.
        994    1    1    2    0    0  0.41170623228E+01 -0.24871510035E+02  0.50505847822E+01  0.17311987356E+03  0.17120000000E+03 0.  0.
        998    1    1    2    0    0  0.23894620503E+02  0.51003043561E+01  0.12909182594E+04  0.12911881809E+04  0.10000000000E+02 0.  1.
</event>
<event>
 5    1  0.1684763E-008  0.3863937E+03  0.7957747E-01  0.3423783E+00
         13   -1    0    0    0    0  0.00000000000E+00  0.00000000000E+00  0.14999999963E+04  0.15000000000E+04  0.10566000000E+00 0.  1.
        994   -1    0    0    0    0 -0.00000000000E+00 -0.00000000000E+00  0.11368683772E-12  0.17120000000E+03  0.17120000000E+03 0.  0.
         13    1    1    2    0    0  0.90286474836E+01  0.47282703098E+01  0.59320830198E+02  0.60190074555E+02  0.10566000000E+00 0.  1.
        994    1    1    2    0    0 -0.24743451053E+01  0.37814821742E+01  0.10066302486E+01  0.17126259164E+03  0.17120000000E+03 0.  0.
        998    1    1    2    0    0 -0.65543023783E+01 -0.85097524840E+01  0.14396725358E+04  0.14397473338E+04  0.10000000000E+02 0.  1.
</event>
<event>
 5    1  0.1607440E-008  0.3821762E+03  0.7957747E-01  0.3441737E+00
         13   -1    0    0    0    0  0.00000000000E+00  0.00000000000E+00  0.14999999963E+04  0.15000000000E+04  0.10566000000E+00 0.  1.
        994   -1    0    0    0    0 -0.00000000000E+00 -0.00000000000E+00  0.11368683772E-12  0.17120000000E+03  0.17120000000E+03 0.  0.
         13    1    1    2    0    0  0.30492755916E+02  0.10491790018E+02  0.14509509619E+03  0.14863540602E+03  0.10566000000E+00 0.  1.
        994    1    1    2    0    0 -0.35810134254E+02 -0.25529160706E+02  0.94847267815E+01  0.17701272215E+03  0.17120000000E+03 0.  0.
        998    1    1    2    0    0  0.53173783383E+01  0.15037370688E+02  0.13454201733E+04  0.13455518718E+04  0.10000000000E+02 0.  1.
</event>
<event>
 5    1  0.1607440E-008  0.3773275E+03  0.7957747E-01  0.3462878E+00
         13   -1    0    0    0    0  0.00000000000E+00  0.00000000000E+00  0.14999999963E+04  0.15000000000E+04  0.10566000000E+00 0.  1.
        994   -1    0    0    0    0 -0.00000000000E+00 -0.00000000000E+00  0.11368683772E-12  0.17120000000E+03  0.17120000000E+03 0.  0.
         13    1    1    2    0    0  0.30503925403E+02 -0.14581072865E+02  0.92393324785E+02  0.98385134953E+02  0.10566000000E+00 0.  1.
        994    1    1    2    0    0 -0.38086174316E+02  0.21629695479E+02  0.11986060065E+02  0.17712003285E+03  0.17120000000E+03 0.  0.
        998    1    1    2    0    0  0.75822489128E+01 -0.70486226141E+01  0.13956206114E+04  0.13956948322E+04  0.10000000000E+02 0.  1.
</event>
<event>
 5    1  0.1607440E-008  0.3745860E+03  0.7957747E-01  0.3475076E+00
         13   -1    0    0    0    0  0.00000000000E+00  0.00000000000E+00  0.14999999963E+04  0.15000000000E+04  0.10566000000E+00 0.  1.
        994   -1    0    0    0    0 -0.00000000000E+00 -0.00000000000E+00  0.11368683772E-12  0.17120000000E+03  0.17120000000E+03 0.  0.
         13    1    1    2    0    0  0.11488426700E+02  0.13905163884E+02  0.20364193058E+02  0.27203842626E+02  0.10566000000E+00 0.  1.
        994    1    1    2    0    0 -0.96905863424E+01 -0.16129945279E+02  0.80976752062E+01  0.17242127172E+03  0.17120000000E+03 0.  0.
        998    1    1    2    0    0 -0.17978403578E+01  0.22247813955E+01  0.14715381280E+04  0.14715748857E+04  0.10000000000E+02 0.  1.
</event>
<event>
 5    1  0.1607440E-008  0.2131961E+03  0.7957747E-01  0.4813055E+00
         13   -1    0    0    0    0  0.00000000000E+00  0.00000000000E+00  0.14999999963E+04  0.15000000000E+04  0.10566000000E+00 0. -1.
        994   -1    0    0    0    0 -0.00000000000E+00 -0.00000000000E+00  0.11368683772E-12  0.17120000000E+03  0.17120000000E+03 0.  0.
         13    1    1    2    0    0 -0.12847821425E+03  0.20931942660E+01  0.11461725865E+03  0.17218641103E+03  0.10566000000E+00 0. -1.
        994    1    1    2    0    0  0.85842287971E+01  0.56664361933E+02  0.99426467100E+02  0.20610580112E+03  0.17120000000E+03 0.  0.
        998    1    1    2    0    0  0.11989398545E+03 -0.58757556199E+02  0.12859562705E+04  0.12929077878E+04  0.10000000000E+02 0. -1.
</event>
<event>
 5    1  0.1607440E-008  0.3763973E+03  0.7957747E-01  0.3466997E+00
         13   -1    0    0    0    0  0.00000000000E+00  0.00000000000E+00  0.14999999963E+04  0.15000000000E+04  0.10566000000E+00 0.  1.
        994   -1    0    0    0    0 -0.00000000000E+00 -0.00000000000E+00  0.11368683772E-12  0.17120000000E+03  0.17120000000E+03 0.  0.
         13    1    1    2    0    0  0.22209096792E+02  0.14753275258E+02  0.63126440708E+02  0.68526358372E+02  0.10566000000E+00 0.  1.
        994    1    1    2    0    0 -0.17085702524E+01  0.19492823323E+02  0.72594028276E+01  0.17246747027E+03  0.17120000000E+03 0.  0.
        998    1    1    2    0    0 -0.20500526540E+02 -0.34246098581E+02  0.14296141527E+04  0.14302061714E+04  0.10000000000E+02 0.  1.
</event>
<event>
 5    1  0.1607440E-008  0.3817491E+03  0.7957747E-01  0.3443578E+00
         13   -1    0    0    0    0  0.00000000000E+00  0.00000000000E+00  0.14999999963E+04  0.15000000000E+04  0.10566000000E+00 0.  1.
        994   -1    0    0    0    0 -0.00000000000E+00 -0.00000000000E+00  0.11368683772E-12  0.17120000000E+03  0.17120000000E+03 0.  0.
         13    1    1    2    0    0  0.25402902602E+02 -0.91300240917E+01  0.98193125380E+02  0.10183597516E+03  0.10566000000E+00 0.  1.
        994    1    1    2    0    0 -0.34036231499E+02  0.18910581958E+02  0.83082227571E+01  0.17576843212E+03  0.17120000000E+03 0.  0.
        998    1    1    2    0    0  0.86333288961E+01 -0.97805578666E+01  0.13934986481E+04  0.13935955927E+04  0.10000000000E+02 0.  1.
</event>
<event>
 5    1  0.1607440E-008  0.3663382E+03  0.7957747E-01  0.3512891E+00
         13   -1    0    0    0    0  0.00000000000E+00  0.00000000000E+00  0.14999999963E+04  0.15000000000E+04  0.10566000000E+00 0.  1.
        994   -1    0    0    0    0 -0.00000000000E+00 -0.00000000000E+00  0.11368683772E-12  0.17120000000E+03  0.17120000000E+03 0.  0.
         13    1    1    2    0    0  0.14900164881E+03  0.23846639301E+03  0.97504237355E+03  0.10147784750E+04  0.10566000000E+00 0.  1.
        994    1    1    2    0    0 -0.16829958051E+03 -0.22306604353E+03  0.35009112143E+03  0.47953773770E+03  0.17120000000E+03 0.  0.
        998    1    1    2    0    0  0.19297931704E+02 -0.15400349480E+02  0.17486650130E+03  0.17688378730E+03  0.10000000000E+02 0.  1.
</event>
<event>
 5    1  0.1607440E-008  0.3843339E+03  0.7957747E-01  0.3432502E+00
         13   -1    0    0    0    0  0.00000000000E+00  0.00000000000E+00  0.14999999963E+04  0.15000000000E+04  0.10566000000E+00 0.  1.
        994   -1    0    0    0    0 -0.00000000000E+00 -0.00000000000E+00  0.11368683772E-12  0.17120000000E+03  0.17120000000E+03 0.  0.
         13    1    1    2    0    0  0.18316357154E+02 -0.93723490173E+01  0.11585242202E+03  0.11766530805E+03  0.10566000000E+00 0.  1.
        994    1    1    2    0    0 -0.15639238174E+02 -0.20471776938E+02  0.41516084125E+01  0.17317723659E+03  0.17120000000E+03 0.  0.
        998    1    1    2    0    0 -0.26771189795E+01  0.29844125955E+02  0.13799959658E+04  0.13803574554E+04  0.10000000000E+02 0.  1.
</event>
<event>
 5    1  0.1607440E-008  0.3856557E+03  0.7957747E-01  0.3426896E+00
         13   -1    0    0    0    0  0.00000000000E+00  0.00000000000E+00  0.14999999963E+04  0.15000000000E+04  0.10566000000E+00 0. -1.
        994   -1    0    0    0    0 -0.00000000000E+00 -0.00000000000E+00  0.11368683772E-12  0.17120000000E+03  0.17120000000E+03 0.  0.
         13    1    1    2    0    0  0.42943217283E+01  0.10101843224E+02  0.46370047243E+02  0.47651661891E+02  0.10566000000E+00 0. -1.
        994    1    1    2    0    0 -0.12155260441E+02 -0.32886495458E+01  0.18254996880E+01  0.17167218185E+03  0.17120000000E+03 0.  0.
        998    1    1    2    0    0  0.78609387125E+01 -0.68131936786E+01  0.14518044493E+04  0.14518761563E+04  0.10000000000E+02 0. -1.
</event>
<event>
 5    1  0.1607440E-008  0.3838590E+03  0.7957747E-01  0.3434526E+00
         13   -1    0    0    0    0  0.00000000000E+00  0.00000000000E+00  0.14999999963E+04  0.15000000000E+04  0.10566000000E+00 0.  1.
        994   -1    0    0    0    0 -0.00000000000E+00 -0.00000000000E+00  0.11368683772E-12  0.17120000000E+03  0.17120000000E+03 0.  0.
         13    1    1    2    0    0  0.76604955608E+01 -0.20331743733E+02  0.11999338687E+03  0.12194460649E+03  0.10566000000E+00 0.  1.
        994    1    1    2    0    0  0.48647691707E+01  0.19241769760E+00  0.22759510145E+01  0.17128433366E+03  0.17120000000E+03 0.  0.
        998    1    1    2    0    0 -0.12525264731E+02  0.20139326036E+02  0.13777306584E+04  0.13779710599E+04  0.10000000000E+02 0.  1.
</event>
<event>
 5    1  0.1607440E-008  0.3862287E+03  0.7957747E-01  0.3424478E+00
         13   -1    0    0    0    0  0.00000000000E+00  0.00000000000E+00  0.14999999963E+04  0.15000000000E+04  0.10566000000E+00 0. -1.
        994   -1    0    0    0    0 -0.00000000000E+00 -0.00000000000E+00  0.11368683772E-12  0.17120000000E+03  0.17120000000E+03 0.  0.
         13    1    1    2    0    0  0.13088621596E+01  0.10653713413E+02  0.54742374323E+02  0.55784885410E+02  0.10566000000E+00 0. -1.
        994    1    1    2    0    0 -0.15589982667E+02 -0.12027303971E+02  0.22923161717E+01  0.17234383747E+03  0.17120000000E+03 0.  0.
        998    1    1    2    0    0  0.14281120508E+02  0.13735905585E+01  0.14429653058E+04  0.14430712771E+04  0.10000000000E+02 0. -1.
</event>
<event>
 5    1  0.1607440E-008  0.3760931E+03  0.7957747E-01  0.3468348E+00
         13   -1    0    0    0    0  0.00000000000E+00  0.00000000000E+00  0.14999999963E+04  0.15000000000E+04  0.10566000000E+00 0. -1.
        994   -1    0    0    0    0 -0.00000000000E+00 -0.00000000000E+00  0.11368683772E-12  0.17120000000E+03  0.17120000000E+03 0.  0.
         13    1    1    2    0    0 -0.36831578350E+01 -0.17624084848E+02  0.23710606076E+02  0.29772101419E+02  0.10566000000E+00 0. -1.
        994    1    1    2    0    0 -0.64519317630E+01  0.17544376284E+02  0.73027725219E+01  0.17237228040E+03  0.17120000000E+03 0.  0.
        998    1    1    2    0    0  0.10135089598E+02  0.79708563413E-01  0.14689866177E+04  0.14690556182E+04  0.10000000000E+02 0. -1.
</event>
<event>
 5    1  0.1607440E-008  0.3841939E+03  0.7957747E-01  0.3433098E+00
         13   -1    0    0    0    0  0.00000000000E+00  0.00000000000E+00  0.14999999963E+04  0.15000000000E+04  0.10566000000E+00 0.  1.
        994   -1    0    0    0    0 -0.00000000000E+00 -0.00000000000E+00  0.11368683772E-12  0.17120000000E+03  0.17120000000E+03 0.  0.
         13    1    1    2    0    0 -0.20733386463E+01 -0.17323521757E+02  0.79340759460E+02  0.81236509126E+02  0.10566000000E+00 0.  1.
        994    1    1    2    0    0 -0.47107083111E+02  0.10082812450E+02  0.97208159066E+01  0.17811421798E+03  0.17120000000E+03 0.  0.
        998    1    1    2    0    0  0.49180421757E+02  0.72407093071E+01  0.14109384209E+04  0.14118492729E+04  0.10000000000E+02 0.  1.
</event>
<event>
 5    1  0.1607440E-008  0.3829757E+03  0.7957747E-01  0.3438303E+00
         13   -1    0    0    0    0  0.00000000000E+00  0.00000000000E+00  0.14999999963E+04  0.15000000000E+04  0.10566000000E+00 0.  1.
        994   -1    0    0    0    0 -0.00000000000E+00 -0.00000000000E+00  0.11368683772E-12  0.17120000000E+03  0.17120000000E+03 0.  0.
         13    1    1    2    0    0 -0.20480777810E+02  0.19407805136E+02  0.14516657641E+03  0.14788330274E+03  0.10566000000E+00 0.  1.
        994    1    1    2    0    0  0.14454097984E+02 -0.15663517781E+02  0.41437435782E+01  0.17257136886E+03  0.17120000000E+03 0.  0.
        998    1    1    2    0    0  0.60266798252E+01 -0.37442873550E+01  0.13506896763E+04  0.13507453284E+04  0.10000000000E+02 0.  1.
</event>
<event>
 5    1  0.1607440E-008  0.3839058E+03  0.7957747E-01  0.3434326E+00
         13   -1    0    0    0    0  0.00000000000E+00  0.00000000000E+00  0.14999999963E+04  0.15000000000E+04  0.10566000000E+00 0.  1.
        994   -1    0    0    0    0 -0.00000000000E+00 -0.00000000000E+00  0.11368683772E-12  0.17120000000E+03  0.17120000000E+03 0.  0.
         13    1    1    2    0    0 -0.75634068214E+01 -0.25929965096E+02  0.15117550169E+03  0.15356956628E+03  0.10566000000E+00 0.  1.
        994    1    1    2    0    0  0.13308548137E+02  0.25662470985E+02  0.49372578818E+01  0.17369368551E+03  0.17120000000E+03 0.  0.
        998    1    1    2    0    0 -0.57451413160E+01  0.26749411085E+00  0.13438872367E+04  0.13439367482E+04  0.10000000000E+02 0.  1.
</event>
<event>
 5    1  0.1607440E-008  0.3843473E+03  0.7957747E-01  0.3432445E+00
         13   -1    0    0    0    0  0.00000000000E+00  0.00000000000E+00  0.14999999963E+04  0.15000000000E+04  0.10566000000E+00 0. -1.
        994   -1    0    0    0    0 -0.00000000000E+00 -0.00000000000E+00  0.11368683772E-12  0.17120000000E+03  0.17120000000E+03 0.  0.
         13    1    1    2    0    0 -0.84449226036E+01 -0.14097563993E+02  0.68349870771E+02  0.70297752643E+02  0.10566000000E+00 0. -1.
        994    1    1    2    0    0  0.15774235421E+01  0.12843051691E+02  0.25065092686E+01  0.17170659519E+03  0.17120000000E+03 0.  0.
        998    1    1    2    0    0  0.68674990614E+01  0.12545123018E+01  0.14291436162E+04  0.14291956522E+04  0.10000000000E+02 0. -1.
</event>
<event>
 5    1  0.1607440E-008  0.3772456E+03  0.7957747E-01  0.3463240E+00
         13   -1    0    0    0    0  0.00000000000E+00  0.00000000000E+00  0.14999999963E+04  0.15000000000E+04  0.10566000000E+00 0. -1.
        994   -1    0    0    0    0 -0.00000000000E+00 -0.00000000000E+00  0.11368683772E-12  0.17120000000E+03  0.17120000000E+03 0.  0.
         13    1    1    2    0    0  0.14704285317E+02  0.22959482579E+02  0.18030518646E+02  0.32687376977E+02  0.10566000000E+00 0. -1.
        994    1    1    2    0    0 -0.56198803267E+02 -0.69922299546E+01  0.26418767337E+02  0.18224869831E+03  0.17120000000E+03 0.  0.
        998    1    1    2    0    0  0.41494517950E+02 -0.15967252624E+02  0.14555507103E+04  0.14562639247E+04  0.10000000000E+02 0. -1.
</event>
<event>
 5    1  0.1607440E-008  0.3769106E+03  0.7957747E-01  0.3464722E+00
         13   -1    0    0    0    0  0.00000000000E+00  0.00000000000E+00  0.14999999963E+04  0.15000000000E+04  0.10566000000E+00 0. -1.
        994   -1    0    0    0    0 -0.00000000000E+00 -0.00000000000E+00  0.11368683772E-12  0.17120000000E+03  0.17120000000E+03 0.  0.
         13    1    1    2    0    0 -0.19195714703E+01  0.41492140112E+02  0.14538097481E+03  0.15119828520E+03  0.10566000000E+00 0. -1.
        994    1    1    2    0    0  0.12572523155E+02 -0.29075432474E+02  0.90974119237E+01  0.17434348860E+03  0.17120000000E+03 0.  0.
        998    1    1    2    0    0 -0.10652951684E+02 -0.12416707637E+02  0.13455216095E+04  0.13456582262E+04  0.10000000000E+02 0. -1.
</event>
<event>
 5    1  0.1607440E-008  0.3854881E+03  0.7957747E-01  0.3427605E+00
         13   -1    0    0    0    0  0.00000000000E+00  0.00000000000E+00  0.14999999963E+04  0.15000000000E+04  0.10566000000E+00 0.  1.
        994   -1    0    0    0    0 -0.00000000000E+00 -0.00000000000E+00  0.11368683772E-12  0.17120000000E+03  0.17120000000E+03 0.  0.
         13    1    1    2    0    0 -0.15726274552E+02  0.41665844544E+01  0.85871438158E+02  0.87399034278E+02  0.10566000000E+00 0.  1.
        994    1    1    2    0    0  0.23829398280E+02 -0.66430740855E+01  0.33999539404E+01  0.17301147460E+03  0.17120000000E+03 0.  0.
        998    1    1    2    0    0 -0.81031237279E+01  0.24764896310E+01  0.14107286042E+04  0.14107894911E+04  0.10000000000E+02 0.  1.
</event>
<event>
 5    1  0.1607440E-008  0.3822797E+03  0.7957747E-01  0.3441292E+00
         13   -1    0    0    0    0  0.00000000000E+00  0.00000000000E+00  0.14999999963E+04  0.15000000000E+04  0.10566000000E+00 0.  1.
        994   -1    0    0    0    0 -0.00000000000E+00 -0.00000000000E+00  0.11368683772E-12  0.17120000000E+03  0.17120000000E+03 0.  0.
         13    1    1    2    0    0  0.17989356093E+02  0.17828763847E+02  0.12042814411E+03  0.12306271089E+03  0.10566000000E+00 0.  1.
        994    1    1    2    0    0  0.19783429028E+02 -0.16821435981E+02  0.52274305364E+01  0.17323715191E+03  0.17120000000E+03 0.  0.
        998    1    1    2    0    0 -0.37772785120E+02 -0.10073278660E+01  0.13743444216E+04  0.13749001372E+04  0.10000000000E+02 0.  1.
</event>
<event>
 5    1  0.1607440E-008  0.3828197E+03  0.7957747E-01  0.3438972E+00
         13   -1    0    0    0    0  0.00000000000E+00  0.00000000000E+00  0.14999999963E+04  0.15000000000E+04  0.10566000000E+00 0. -1.
        994   -1    0    0    0    0 -0.00000000000E+00 -0.00000000000E+00  0.11368683772E-12  0.17120000000E+03  0.17120000000E+03 0.  0.
         13    1    1    2    0    0  0.58028335515E+01  0.26169665156E+02  0.13212977202E+03  0.13482140806E+03  0.10566000000E+00 0. -1.
        994    1    1    2    0    0 -0.73984353593E+00 -0.15647274901E+02  0.35296453055E+01  0.17195139713E+03  0.17120000000E+03 0.  0.
        998    1    1    2    0    0 -0.50629900156E+01 -0.10522390255E+02  0.13643405790E+04  0.13644271948E+04  0.10000000000E+02 0. -1.
</event>
<event>
 5    1  0.1607440E-008  0.3845239E+03  0.7957747E-01  0.3431694E+00
         13   -1    0    0    0    0  0.00000000000E+00  0.00000000000E+00  0.14999999963E+04  0.15000000000E+04  0.10566000000E+00 0. -1.
        994   -1    0    0    0    0 -0.00000000000E+00 -0.00000000000E+00  0.11368683772E-12  0.17120000000E+03  0.17120000000E+03 0.  0.
         13    1    1    2    0    0  0.90930980982E+01 -0.85549321377E+01  0.42742613276E+02  0.44528793501E+02  0.10566000000E+00 0. -1.
        994    1    1    2    0    0 -0.19590538125E+02 -0.17113076453E+02  0.40985727597E+01  0.17321340845E+03  0.17120000000E+03 0.  0.
        998    1    1    2    0    0  0.10497440026E+02  0.25668008590E+02  0.14531588102E+04  0.14534577980E+04  0.10000000000E+02 0. -1.
</event>
<event>
 5    1  0.1607440E-008  0.3760354E+03  0.7957747E-01  0.3468605E+00
         13   -1    0    0    0    0  0.00000000000E+00  0.00000000000E+00  0.14999999963E+04  0.15000000000E+04  0.10566000000E+00 0.  1.
        994   -1    0    0    0    0 -0.00000000000E+00 -0.00000000000E+00  0.11368683772E-12  0.17120000000E+03  0.17120000000E+03 0.  0.
         13    1    1    2    0    0 -0.24662671791E+02 -0.30753821973E+02  0.13732296812E+03  0.14286935880E+03  0.10566000000E+00 0.  1.
        994    1    1    2    0    0 -0.42479062759E+01  0.87206439440E+01  0.64667602353E+01  0.17159648402E+03  0.17120000000E+03 0.  0.
        998    1    1    2    0    0  0.28910578067E+02  0.22033178029E+02  0.13562102679E+04  0.13567341572E+04  0.10000000000E+02 0.  1.
</event>
<event>
 5    1  0.1607440E-008  0.3825230E+03  0.7957747E-01  0.3440246E+00
         13   -1    0    0    0    0  0.00000000000E+00  0.00000000000E+00  0.14999999963E+04  0.15000000000E+04  0.10566000000E+00 0. -1.
        994   -1    0    0    0    0 -0.00000000000E+00 -0.00000000000E+00  0.11368683772E-12  0.17120000000E+03  0.17120000000E+03 0.  0.
         13    1    1    2    0    0  0.18803588490E+02 -0.23502721611E+02  0.14199230184E+03  0.14514743473E+03  0.10566000000E+00 0. -1.
        994    1    1    2    0    0 -0.22799562848E+02  0.23010576010E+02  0.63514579970E+01  0.17435334150E+03  0.17120000000E+03 0.  0.
        998    1    1    2    0    0  0.39959743580E+01  0.49214560092E+00  0.13516562364E+04  0.13516992238E+04  0.10000000000E+02 0.  0.
</event>
<event>
 5    1  0.1607440E-008  0.3849673E+03  0.7957747E-01  0.3429811E+00
         13   -1    0    0    0    0  0.00000000000E+00  0.00000000000E+00  0.14999999963E+04  0.15000000000E+04  0.10566000000E+00 0. -1.
        994   -1    0    0    0    0 -0.00000000000E+00 -0.00000000000E+00  0.11368683772E-12  0.17120000000E+03  0.17120000000E+03 0.  0.
         13    1    1    2    0    0 -0.83605378821E+01 -0.12477776072E+02  0.66097521047E+02  0.67782644843E+02  0.10566000000E+00 0. -1.
        994    1    1    2    0    0  0.72513071225E+01  0.13887094993E+02  0.24539938450E+01  0.17193282103E+03  0.17120000000E+03 0.  0.
        998    1    1    2    0    0  0.11092307596E+01 -0.14093189213E+01  0.14314484814E+04  0.14314845341E+04  0.10000000000E+02 0.  0.
</event>
<event>
 5    1  0.1607440E-008  0.3850265E+03  0.7957747E-01  0.3429560E+00
         13   -1    0    0    0    0  0.00000000000E+00  0.00000000000E+00  0.14999999963E+04  0.15000000000E+04  0.10566000000E+00 0.  1.
        994   -1    0    0    0    0 -0.00000000000E+00 -0.00000000000E+00  0.11368683772E-12  0.17120000000E+03  0.17120000000E+03 0.  0.
         13    1    1    2    0    0  0.20963563933E+01  0.14998668618E+02 -0.27664322985E+01  0.15395424064E+02  0.10566000000E+00 0.  1.
        994    1    1    2    0    0 -0.83082869669E+01 -0.18889803790E+02  0.20689726294E+02  0.17367601185E+03  0.17120000000E+03 0.  0.
        998    1    1    2    0    0  0.62119305736E+01  0.38911351720E+01  0.14820767023E+04  0.14821285641E+04  0.10000000000E+02 0.  1.
</event>
<event>
 5    1  0.1607440E-008  0.3778270E+03  0.7957747E-01  0.3460675E+00
         13   -1    0    0    0    0  0.00000000000E+00  0.00000000000E+00  0.14999999963E+04  0.15000000000E+04  0.10566000000E+00 0. -1.
        994   -1    0    0    0    0 -0.00000000000E+00 -0.00000000000E+00  0.11368683772E-12  0.17120000000E+03  0.17120000000E+03 0.  0.
         13    1    1    2    0    0 -0.40801506067E+02 -0.52724958116E+01  0.15920368595E+03  0.16443353336E+03  0.10566000000E+00 0. -1.
        994    1    1    2    0    0  0.28238313997E+02 -0.20342544147E+02  0.93232490637E+01  0.17495023422E+03  0.17120000000E+03 0.  0.
        998    1    1    2    0    0  0.12563192071E+02  0.25615039958E+02  0.13314730613E+04  0.13318162324E+04  0.10000000000E+02 0. -1.
</event>
<event>
 5    1  0.1607440E-008  0.3842177E+03  0.7957747E-01  0.3432997E+00
         13   -1    0    0    0    0  0.00000000000E+00  0.00000000000E+00  0.14999999963E+04  0.15000000000E+04  0.10566000000E+00 0.  1.
        994   -1    0    0    0    0 -0.00000000000E+00 -0.00000000000E+00  0.11368683772E-12  0.17120000000E+03  0.17120000000E+03 0.  0.
         13    1    1    2    0    0  0.21485408063E+02  0.30726675919E+01  0.12147344865E+03  0.12339722013E+03  0.10566000000E+00 0.  1.
        994    1    1    2    0    0 -0.68578283392E+01 -0.91167917705E+01  0.24482591941E+01  0.17159714355E+03  0.17120000000E+03 0.  0.
        998    1    1    2    0    0 -0.14627579724E+02  0.60441241786E+01  0.13760782884E+04  0.13762056363E+04  0.10000000000E+02 0.  1.
</event>
<event>
 5    1  0.1607440E-008  0.3726584E+03  0.7957747E-01  0.3483762E+00
         13   -1    0    0    0    0  0.00000000000E+00  0.00000000000E+00  0.14999999963E+04  0.15000000000E+04  0.10566000000E+00 0.  1.
        994   -1    0    0    0    0 -0.00000000000E+00 -0.00000000000E+00  0.11368683772E-12  0.17120000000E+03  0.17120000000E+03 0.  0.
         13    1    1    2    0    0 -0.11027543627E+03  0.81151242529E+02  0.53262431028E+03  0.54994078143E+03  0.10566000000E+00 0.  1.
        994    1    1    2    0    0  0.10484582057E+03 -0.63658437947E+02  0.67523199420E+02  0.22116479212E+03  0.17120000000E+03 0.  0.
        998    1    1    2    0    0  0.54296157081E+01 -0.17492804581E+02  0.89985248657E+03  0.90009442645E+03  0.10000000000E+02 0.  1.
</event>
<event>
 5    1  0.3038570E-008  0.3829635E+03  0.7957747E-01  0.3438356E+00
         13   -1    0    0    0    0  0.00000000000E+00  0.00000000000E+00  0.14999999963E+04  0.15000000000E+04  0.10566000000E+00 0.  1.
        994   -1    0    0    0    0 -0.00000000000E+00 -0.00000000000E+00  0.11368683772E-12  0.17120000000E+03  0.17120000000E+03 0.  0.
         13    1    1    2    0    0  0.74404089949E+01  0.78087873536E+01  0.20841375801E+02  0.23467231521E+02  0.10566000000E+00 0.  1.
        994    1    1    2    0    0 -0.82007046914E+01 -0.63406088447E+01  0.30004331619E+01  0.17153978395E+03  0.17120000000E+03 0.  0.
        998    1    1    2    0    0  0.76029569651E+00 -0.14681785089E+01  0.14761581873E+04  0.14761929845E+04  0.10000000000E+02 0.  1.
</event>
<event>
 5    1  0.1607440E-008  0.3836740E+03  0.7957747E-01  0.3435315E+00
         13   -1    0    0    0    0  0.00000000000E+00  0.00000000000E+00  0.14999999963E+04  0.15000000000E+04  0.10566000000E+00 0. -1.
        994   -1    0    0    0    0 -0.00000000000E+00 -0.00000000000E+00  0.11368683772E-12  0.17120000000E+03  0.17120000000E+03 0.  0.
         13    1    1    2    0    0  0.96905645627E+01  0.13883361691E+02  0.61283498420E+02  0.63579345042E+02  0.10566000000E+00 0. -1.
        994    1    1    2    0    0 -0.17323411686E+02 -0.43523628063E+01  0.33443630461E+01  0.17216175074E+03  0.17120000000E+03 0.  0.
        998    1    1    2    0    0  0.76328471229E+01 -0.95309988848E+01  0.14353721348E+04  0.14354589042E+04  0.10000000000E+02 0. -1.
</event>
<event>
 5    1  0.1607440E-008  0.3794040E+03  0.7957747E-01  0.3453758E+00
         13   -1    0    0    0    0  0.00000000000E+00  0.00000000000E+00  0.14999999963E+04  0.15000000000E+04  0.10566000000E+00 0. -1.
        994   -1    0    0    0    0 -0.00000000000E+00 -0.00000000000E+00  0.11368683772E-12  0.17120000000E+03  0.17120000000E+03 0.  0.
         13    1    1    2    0    0 -0.86249611115E+01  0.16631950538E+02  0.36030636103E+02  0.40610708377E+02  0.10566000000E+00 0. -1.
        994    1    1    2    0    0  0.19122854708E+02 -0.21399325734E+02  0.71979353540E+01  0.17373792041E+03  0.17120000000E+03 0.  0.
        998    1    1    2    0    0 -0.10497893597E+02  0.47673751968E+01  0.14567714248E+04  0.14568513712E+04  0.10000000000E+02 0. -1.
</event>
<event>
 5    1  0.1607440E-008  0.3807590E+03  0.7957747E-01  0.3447860E+00
         13   -1    0    0    0    0  0.00000000000E+00  0.00000000000E+00  0.14999999963E+04  0.15000000000E+04  0.10566000000E+00 0. -1.
        994   -1    0    0    0    0 -0.00000000000E+00 -0.00000000000E+00  0.11368683772E-12  0.17120000000E+03  0.17120000000E+03 0.  0.
         13    1    1    2    0    0  0.15012423719E+00  0.40708065781E+02  0.20231744510E+03  0.20637230655E+03  0.10566000000E+00 0. -1.
        994    1    1    2    0    0 -0.10184897014E+02 -0.34322038295E+02  0.80363314078E+01  0.17508785527E+03  0.17120000000E+03 0.  0.
        998    1    1    2    0    0  0.10034772777E+02 -0.63860274866E+01  0.12896462198E+04  0.12897398382E+04  0.10000000000E+02 0. -1.
</event>
<event>
 5    1  0.1607440E-008  0.3843455E+03  0.7957747E-01  0.3432453E+00
         13   -1    0    0    0    0  0.00000000000E+00  0.00000000000E+00  0.14999999963E+04  0.15000000000E+04  0.10566000000E+00 0.  1.
        994   -1    0    0    0    0 -0.00000000000E+00 -0.00000000000E+00  0.11368683772E-12  0.17120000000E+03  0.17120000000E+03 0.  0.
         13    1    1    2    0    0 -0.57711920587E+01 -0.16646688828E+02  0.86854386715E+02  0.88623442510E+02  0.10566000000E+00 0.  1.
        994    1    1    2    0    0 -0.33262680050E+01 -0.13565524241E+01  0.19979786201E+01  0.17124933930E+03  0.17120000000E+03 0.  0.
        998    1    1    2    0    0  0.90974600637E+01  0.18003241252E+02  0.14111476309E+04  0.14113272182E+04  0.10000000000E+02 0.  1.
</event>
<event>
 5    1  0.1607440E-008  0.3815640E+03  0.7957747E-01  0.3444376E+00
         13   -1    0    0    0    0  0.00000000000E+00  0.00000000000E+00  0.14999999963E+04  0.15000000000E+04  0.10566000000E+00 0. -1.
        994   -1    0    0    0    0 -0.00000000000E+00 -0.00000000000E+00  0.11368683772E-12  0.17120000000E+03  0.17120000000E+03 0.  0.
         13    1    1    2    0    0  0.27399926772E+02  0.54663546253E+01  0.13311650395E+03  0.13601710116E+03  0.10566000000E+00 0. -1.
        994    1    1    2    0    0  0.32977513055E+01  0.55340650317E+01  0.34837449256E+01  0.17135658003E+03  0.17120000000E+03 0.  0.
        998    1    1    2    0    0 -0.30697678077E+02 -0.11000419657E+02  0.13633997474E+04  0.13638263188E+04  0.10000000000E+02 0. -1.
</event>
<event>
 5    1  0.1607440E-008  0.3735192E+03  0.7957747E-01  0.3479872E+00
         13   -1    0    0    0    0  0.00000000000E+00  0.00000000000E+00  0.14999999963E+04  0.15000000000E+04  0.10566000000E+00 0.  1.
        994   -1    0    0    0    0 -0.00000000000E+00 -0.00000000000E+00  0.11368683772E-12  0.17120000000E+03  0.17120000000E+03 0.  0.
         13    1    1    2    0    0  0.20280521108E+02  0.29428301902E+02  0.86845863275E+02  0.93912403980E+02  0.10566000000E+00 0.  1.
        994    1    1    2    0    0 -0.13307030613E+02 -0.41143548486E+01  0.81041798821E+01  0.17195674663E+03  0.17120000000E+03 0.  0.
        998    1    1    2    0    0 -0.69734904944E+01 -0.25313947053E+02  0.14050499531E+04  0.14053308494E+04  0.10000000000E+02 0.  1.
</event>
<event>
 5    1  0.1607440E-008  0.3736322E+03  0.7957747E-01  0.3479363E+00
         13   -1    0    0    0    0  0.00000000000E+00  0.00000000000E+00  0.14999999963E+04  0.15000000000E+04  0.10566000000E+00 0. -1.
        994   -1    0    0    0    0 -0.00000000000E+00 -0.00000000000E+00  0.11368683772E-12  0.17120000000E+03  0.17120000000E+03 0.  0.
         13    1    1    2    0    0  0.36798806886E+02 -0.47252877090E+02  0.26243214852E+03  0.26917955034E+03  0.10566000000E+00 0. -1.
        994    1    1    2    0    0 -0.10819355245E+02  0.18900258430E+02  0.90040983621E+01  0.17281432812E+03  0.17120000000E+03 0.  0.
        998    1    1    2    0    0 -0.25979451642E+02  0.28352618659E+02  0.12285637494E+04  0.12292061215E+04  0.10000000000E+02 0. -1.
</event>
<event>
 5    1  0.1607440E-008  0.3888823E+03  0.7957747E-01  0.3413372E+00
         13   -1    0    0    0    0  0.00000000000E+00  0.00000000000E+00  0.14999999963E+04  0.15000000000E+04  0.10566000000E+00 0.  1.
        994   -1    0    0    0    0 -0.00000000000E+00 -0.00000000000E+00  0.11368683772E-12  0.17120000000E+03  0.17120000000E+03 0.  0.
         13    1    1    2    0    0  0.34348209268E+02 -0.48287273367E+02  0.75335280923E+02  0.95848192288E+02  0.10566000000E+00 0.  1.
        994    1    1    2    0    0 -0.37676909024E+02  0.24518141272E+02  0.28902438307E+02  0.17934737150E+03  0.17120000000E+03 0.  0.
        998    1    1    2    0    0  0.33286997559E+01  0.23769132096E+02  0.13957622770E+04  0.13960044362E+04  0.10000000000E+02 0.  1.
</event>
<event>
 5    1  0.1607440E-008  0.3887770E+03  0.7957747E-01  0.3413810E+00
         13   -1    0    0    0    0  0.00000000000E+00  0.00000000000E+00  0.14999999963E+04  0.15000000000E+04  0.10566000000E+00 0. -1.
        994   -1    0    0    0    0 -0.00000000000E+00 -0.00000000000E+00  0.11368683772E-12  0.17120000000E+03  0.17120000000E+03 0.  0.
         13    1    1    2    0    0  0.64848840980E+02 -0.15649884943E+02  0.10188779968E+03  0.12178434203E+03  0.10566000000E+00 0. -1.
        994    1    1    2    0    0 -0.31317281400E+02  0.11291502391E+02  0.25395285154E+02  0.17624593796E+03  0.17120000000E+03 0.  0.
        998    1    1    2    0    0 -0.33531559580E+02  0.43583825527E+01  0.13727169114E+04  0.13731697200E+04  0.10000000000E+02 0. -1.
</event>
<event>
 5    1  0.1607440E-008  0.3845670E+03  0.7957747E-01  0.3431511E+00
         13   -1    0    0    0    0  0.00000000000E+00  0.00000000000E+00  0.14999999963E+04  0.15000000000E+04  0.10566000000E+00 0. -1.
        994   -1    0    0    0    0 -0.00000000000E+00 -0.00000000000E+00  0.11368683772E-12  0.17120000000E+03  0.17120000000E+03 0.  0.
         13    1    1    2    0    0 -0.86066544449E+01 -0.92374133424E+01  0.42249844794E+02  0.44096086620E+02  0.10566000000E+00 0. -1.
        994    1    1    2    0    0  0.11813967046E+02  0.49085830414E+01  0.23844483966E+01  0.17169388341E+03  0.17120000000E+03 0.  0.
        998    1    1    2    0    0 -0.32073126014E+01  0.43288303010E+01  0.14553657031E+04  0.14554100300E+04  0.10000000000E+02 0. -1.
</event>
<event>
 5    1  0.1607440E-008  0.3708374E+03  0.7957747E-01  0.3492051E+00
         13   -1    0    0    0    0  0.00000000000E+00  0.00000000000E+00  0.14999999963E+04  0.15000000000E+04  0.10566000000E+00 0. -1.
        994   -1    0    0    0    0 -0.00000000000E+00 -0.00000000000E+00  0.11368683772E-12  0.17120000000E+03  0.17120000000E+03 0.  0.
         13    1    1    2    0    0  0.14113382933E+02  0.16111569365E+02  0.15212142649E+02  0.26271480606E+02  0.10566000000E+00 0. -1.
        994    1    1    2    0    0 -0.64776311853E+01 -0.16141881819E+02  0.12443685520E+02  0.17253059254E+03  0.17120000000E+03 0.  0.
        998    1    1    2    0    0 -0.76357517480E+01  0.30312453878E-01  0.14723441681E+04  0.14723979268E+04  0.10000000000E+02 0. -1.
</event>
<event>
 5    1  0.1607440E-008  0.3772854E+03  0.7957747E-01  0.3463065E+00
         13   -1    0    0    0    0  0.00000000000E+00  0.00000000000E+00  0.14999999963E+04  0.15000000000E+04  0.10566000000E+00 0. -1.
        994   -1    0    0    0    0 -0.00000000000E+00 -0.00000000000E+00  0.11368683772E-12  0.17120000000E+03  0.17120000000E+03 0.  0.
         13    1    1    2    0    0 -0.28084571094E+02  0.51925043842E+01  0.71961152560E+02  0.77421727423E+02  0.10566000000E+00 0. -1.
        994    1    1    2    0    0  0.19964803330E+02  0.82630146470E+01  0.70862377309E+01  0.17270357711E+03  0.17120000000E+03 0.  0.
        998    1    1    2    0    0  0.81197677634E+01 -0.13455519031E+02  0.14209526060E+04  0.14210746955E+04  0.10000000000E+02 0. -1.
</event>
<event>
 5    1  0.1607440E-008  0.3775568E+03  0.7957747E-01  0.3461866E+00
         13   -1    0    0    0    0  0.00000000000E+00  0.00000000000E+00  0.14999999963E+04  0.15000000000E+04  0.10566000000E+00 0. -1.
        994   -1    0    0    0    0 -0.00000000000E+00 -0.00000000000E+00  0.11368683772E-12  0.17120000000E+03  0.17120000000E+03 0.  0.
         13    1    1    2    0    0 -0.10756568588E+02  0.10588688160E+02  0.67644899853E+00  0.15109362397E+02  0.10566000000E+00 0. -1.
        994    1    1    2    0    0  0.14352003055E+02 -0.12776430145E+02  0.16318710291E+02  0.17304611369E+03  0.17120000000E+03 0.  0.
        998    1    1    2    0    0 -0.35954344666E+01  0.21877419850E+01  0.14830048370E+04  0.14830445239E+04  0.10000000000E+02 0. -1.
</event>
<event>
 5    1  0.1607440E-008  0.4096172E+03  0.7957747E-01  0.3331538E+00
         13   -1    0    0    0    0  0.00000000000E+00  0.00000000000E+00  0.14999999963E+04  0.15000000000E+04  0.10566000000E+00 0. -1.
        994   -1    0    0    0    0 -0.00000000000E+00 -0.00000000000E+00  0.11368683772E-12  0.17120000000E+03  0.17120000000E+03 0.  0.
         13    1    1    2    0    0  0.96807196025E+02 -0.55023041965E+02  0.15709418382E+03  0.19255586749E+03  0.10566000000E+00 0. -1.
        994    1    1    2    0    0 -0.97542781092E+02  0.48199602036E+02  0.83793536887E+02  0.21947344396E+03  0.17120000000E+03 0.  0.
        998    1    1    2    0    0  0.73558506732E+00  0.68234399292E+01  0.12591122756E+04  0.12591706886E+04  0.10000000000E+02 0.  0.
</event>
<event>
 5    1  0.1607440E-008  0.3841385E+03  0.7957747E-01  0.3433334E+00
         13   -1    0    0    0    0  0.00000000000E+00  0.00000000000E+00  0.14999999963E+04  0.15000000000E+04  0.10566000000E+00 0. -1.
        994   -1    0    0    0    0 -0.00000000000E+00 -0.00000000000E+00  0.11368683772E-12  0.17120000000E+03  0.17120000000E+03 0.  0.
         13    1    1    2    0    0  0.39998822375E+01  0.18639113162E+02  0.90073382200E+02  0.92068675142E+02  0.10566000000E+00 0. -1.
        994    1    1    2    0    0 -0.24902250513E+01 -0.81568142208E+01  0.22983498709E+01  0.17142770269E+03  0.17120000000E+03 0.  0.
        998    1    1    2    0    0 -0.15096571862E+01 -0.10482298941E+02  0.14076282642E+04  0.14077036222E+04  0.10000000000E+02 0. -1.
</event>
<event>
 5    1  0.1607440E-008  0.4227284E+03  0.7957747E-01  0.3283894E+00
         13   -1    0    0    0    0  0.00000000000E+00  0.00000000000E+00  0.14999999963E+04  0.15000000000E+04  0.10566000000E+00 0.  1.
        994   -1    0    0    0    0 -0.00000000000E+00 -0.00000000000E+00  0.11368683772E-12  0.17120000000E+03  0.17120000000E+03 0.  0.
         13    1    1    2    0    0  0.38987694267E+01 -0.28929161709E+02 -0.73785221176E+01  0.30108977945E+02  0.10566000000E+00 0.  1.
        994    1    1    2    0    0 -0.16143094025E+02  0.30958836927E+02  0.47418770384E+02  0.18104427319E+03  0.17120000000E+03 0.  0.
        998    1    1    2    0    0  0.12244324599E+02 -0.20296752179E+01  0.14599597480E+04  0.14600467489E+04  0.10000000000E+02 0.  1.
</event>
<event>
 5    1  0.1607440E-008  0.3739140E+03  0.7957747E-01  0.3478094E+00
         13   -1    0    0    0    0  0.00000000000E+00  0.00000000000E+00  0.14999999963E+04  0.15000000000E+04  0.10566000000E+00 0. -1.
        994   -1    0    0    0    0 -0.00000000000E+00 -0.00000000000E+00  0.11368683772E-12  0.17120000000E+03  0.17120000000E+03 0.  0.
         13    1    1    2    0    0  0.73832308723E+02 -0.27121128125E+02  0.23606525762E+03  0.24882440078E+03  0.10566000000E+00 0. -1.
        994    1    1    2    0    0 -0.41221708044E+02  0.17660814560E+02  0.20186478271E+02  0.17812374207E+03  0.17120000000E+03 0.  0.
        998    1    1    2    0    0 -0.32610600679E+02  0.94603135651E+01  0.12437482604E+04  0.12442518571E+04  0.10000000000E+02 0. -1.
</event>
<event>
 5    1  0.1607440E-008  0.3827703E+03  0.7957747E-01  0.3439184E+00
         13   -1    0    0    0    0  0.00000000000E+00  0.00000000000E+00  0.14999999963E+04  0.15000000000E+04  0.10566000000E+00 0.  1.
        994   -1    0    0    0    0 -0.00000000000E+00 -0.00000000000E+00  0.11368683772E-12  0.17120000000E+03  0.17120000000E+03 0.  0.
         13    1    1    2    0    0 -0.19361249832E+02 -0.14249295768E+02  0.11030242954E+03  0.11289170719E+03  0.10566000000E+00 0.  1.
        994    1    1    2    0    0  0.37993767077E+01  0.60781875800E+01  0.29114314172E+01  0.17137472410E+03  0.17120000000E+03 0.  0.
        998    1    1    2    0    0  0.15561873125E+02  0.81711081877E+01  0.13867861353E+04  0.13869335687E+04  0.10000000000E+02 0.  1.
</event>
<event>
 5    1  0.1607440E-008  0.3707866E+03  0.7957747E-01  0.3492283E+00
         13   -1    0    0    0    0  0.00000000000E+00  0.00000000000E+00  0.14999999963E+04  0.15000000000E+04  0.10566000000E+00 0.  1.
        994   -1    0    0    0    0 -0.00000000000E+00 -0.00000000000E+00  0.11368683772E-12  0.17120000000E+03  0.17120000000E+03 0.  0.
         13    1    1    2    0    0 -0.34682867571E+02 -0.17815898628E+02  0.78554184513E+02  0.87698794835E+02  0.10566000000E+00 0.  1.
        994    1    1    2    0    0  0.39298247476E+02  0.97566598126E+01  0.14533323054E+02  0.17652252588E+03  0.17120000000E+03 0.  0.
        998    1    1    2    0    0 -0.46153799048E+01  0.80592388154E+01  0.14069124887E+04  0.14069786793E+04  0.10000000000E+02 0.  1.
</event>
<event>
 5    1  0.1607440E-008  0.3799307E+03  0.7957747E-01  0.3451460E+00
         13   -1    0    0    0    0  0.00000000000E+00  0.00000000000E+00  0.14999999963E+04  0.15000000000E+04  0.10566000000E+00 0. -1.
        994   -1    0    0    0    0 -0.00000000000E+00 -0.00000000000E+00  0.11368683772E-12  0.17120000000E+03  0.17120000000E+03 0.  0.
         13    1    1    2    0    0  0.28122658785E+02  0.88741635643E+01  0.12375520302E+03  0.12722026628E+03  0.10566000000E+00 0. -1.
        994    1    1    2    0    0  0.14998997731E+02 -0.21075546580E+01  0.49355722568E+01  0.17193955796E+03  0.17120000000E+03 0.  0.
        998    1    1    2    0    0 -0.43121656516E+02 -0.67666089063E+01  0.13713092210E+04  0.13720401758E+04  0.10000000000E+02 0. -1.
</event>
<event>
 5    1  0.1607440E-008  0.3795780E+03  0.7957747E-01  0.3452998E+00
         13   -1    0    0    0    0  0.00000000000E+00  0.00000000000E+00  0.14999999963E+04  0.15000000000E+04  0.10566000000E+00 0. -1.
        994   -1    0    0    0    0 -0.00000000000E+00 -0.00000000000E+00  0.11368683772E-12  0.17120000000E+03  0.17120000000E+03 0.  0.
         13    1    1    2    0    0 -0.26135802925E+01  0.11134598608E+02  0.13267530488E+02  0.17517095005E+02  0.10566000000E+00 0. -1.
        994    1    1    2    0    0  0.12150153762E+00 -0.47812505507E+01  0.44228969677E+01  0.17132389541E+03  0.17120000000E+03 0.  0.
        998    1    1    2    0    0  0.24920787549E+01 -0.63533480574E+01  0.14823095688E+04  0.14823590096E+04  0.10000000000E+02 0. -1.
</event>
<event>
 5    1  0.1607440E-008  0.3810900E+03  0.7957747E-01  0.3446426E+00
         13   -1    0    0    0    0  0.00000000000E+00  0.00000000000E+00  0.14999999963E+04  0.15000000000E+04  0.10566000000E+00 0.  1.
        994   -1    0    0    0    0 -0.00000000000E+00 -0.00000000000E+00  0.11368683772E-12  0.17120000000E+03  0.17120000000E+03 0.  0.
         13    1    1    2    0    0  0.27628231158E+02  0.13098165091E+02  0.13918308622E+03  0.14250201311E+03  0.10566000000E+00 0.  1.
        994    1    1    2    0    0  0.59752319374E+00 -0.18132896267E+02  0.46811065767E+01  0.17222227417E+03  0.17120000000E+03 0.  0.
        998    1    1    2    0    0 -0.28225754352E+02  0.50347311766E+01  0.13561358035E+04  0.13564757127E+04  0.10000000000E+02 0.  1.
</event>
<event>
 5    1  0.1607440E-008  0.3761800E+03  0.7957747E-01  0.3467962E+00
         13   -1    0    0    0    0  0.00000000000E+00  0.00000000000E+00  0.14999999963E+04  0.15000000000E+04  0.10566000000E+00 0. -1.
        994   -1    0    0    0    0 -0.00000000000E+00 -0.00000000000E+00  0.11368683772E-12  0.17120000000E+03  0.17120000000E+03 0.  0.
         13    1    1    2    0    0 -0.92080521593E+01 -0.38423017530E+02  0.14121934834E+03  0.14664253138E+03  0.10566000000E+00 0. -1.
        994    1    1    2    0    0 -0.85882618601E+01  0.46288329150E+01  0.63963777677E+01  0.17159702207E+03  0.17120000000E+03 0.  0.
        998    1    1    2    0    0  0.17796314019E+02  0.33794184615E+02  0.13523842702E+04  0.13529604465E+04  0.10000000000E+02 0. -1.
</event>
<event>
 5    1  0.1607440E-008  0.3856087E+03  0.7957747E-01  0.3427095E+00
         13   -1    0    0    0    0  0.00000000000E+00  0.00000000000E+00  0.14999999963E+04  0.15000000000E+04  0.10566000000E+00 0. -1.
        994   -1    0    0    0    0 -0.00000000000E+00 -0.00000000000E+00  0.11368683772E-12  0.17120000000E+03  0.17120000000E+03 0.  0.
         13    1    1    2    0    0  0.73718686271E+00 -0.10956122243E+02  0.46082231797E+02  0.47372600842E+02  0.10566000000E+00 0. -1.
        994    1    1    2    0    0 -0.41648661019E+00  0.57370860060E+01  0.14368335153E+01  0.17130263310E+03  0.17120000000E+03 0.  0.
        998    1    1    2    0    0 -0.32070025252E+00  0.52190362369E+01  0.14524809310E+04  0.14525247661E+04  0.10000000000E+02 0. -1.
</event>
<event>
 5    1  0.1607440E-008  0.3689413E+03  0.7957747E-01  0.3500771E+00
         13   -1    0    0    0    0  0.00000000000E+00  0.00000000000E+00  0.14999999963E+04  0.15000000000E+04  0.10566000000E+00 0. -1.
        994   -1    0    0    0    0 -0.00000000000E+00 -0.00000000000E+00  0.11368683772E-12  0.17120000000E+03  0.17120000000E+03 0.  0.
         13    1    1    2    0    0 -0.18883065066E+02  0.66085217815E+02  0.22659018717E+03  0.23678460728E+03  0.10566000000E+00 0. -1.
        994    1    1    2    0    0  0.30515087222E+02 -0.42270394247E+02  0.19315674441E+02  0.18000136682E+03  0.17120000000E+03 0.  0.
        998    1    1    2    0    0 -0.11632022156E+02 -0.23814823568E+02  0.12540941347E+04  0.12544140259E+04  0.10000000000E+02 0. -1.
</event>
<event>
 5    1  0.1607440E-008  0.3803489E+03  0.7957747E-01  0.3449641E+00
         13   -1    0    0    0    0  0.00000000000E+00  0.00000000000E+00  0.14999999963E+04  0.15000000000E+04  0.10566000000E+00 0. -1.
        994   -1    0    0    0    0 -0.00000000000E+00 -0.00000000000E+00  0.11368683772E-12  0.17120000000E+03  0.17120000000E+03 0.  0.
         13    1    1    2    0    0 -0.23106259709E+01  0.20928601245E+02  0.53904544934E+02  0.57871033091E+02  0.10566000000E+00 0. -1.
        994    1    1    2    0    0  0.10750739017E+02 -0.15702725621E+02  0.51673105682E+01  0.17233193285E+03  0.17120000000E+03 0.  0.
        998    1    1    2    0    0 -0.84401130461E+01 -0.52258756244E+01  0.14409281408E+04  0.14409970341E+04  0.10000000000E+02 0. -1.
</event>
<event>
 5    1  0.1607440E-008  0.3853647E+03  0.7957747E-01  0.3428127E+00
         13   -1    0    0    0    0  0.00000000000E+00  0.00000000000E+00  0.14999999963E+04  0.15000000000E+04  0.10566000000E+00 0. -1.
        994   -1    0    0    0    0 -0.00000000000E+00 -0.00000000000E+00  0.11368683772E-12  0.17120000000E+03  0.17120000000E+03 0.  0.
         13    1    1    2    0    0 -0.85772686810E+01  0.83544383755E+01  0.50793205327E+02  0.52185506130E+02  0.10566000000E+00 0. -1.
        994    1    1    2    0    0  0.13759662382E+01 -0.43878581821E+01  0.15186606946E+01  0.17126848196E+03  0.17120000000E+03 0.  0.
        998    1    1    2    0    0  0.72013024428E+01 -0.39665801934E+01  0.14476881303E+04  0.14477460119E+04  0.10000000000E+02 0. -1.
</event>
<event>
 5    1  0.1607440E-008  0.3777479E+03  0.7957747E-01  0.3461023E+00
         13   -1    0    0    0    0  0.00000000000E+00  0.00000000000E+00  0.14999999963E+04  0.15000000000E+04  0.10566000000E+00 0.  1.
        994   -1    0    0    0    0 -0.00000000000E+00 -0.00000000000E+00  0.11368683772E-12  0.17120000000E+03  0.17120000000E+03 0.  0.
         13    1    1    2    0    0 -0.70625369665E+01 -0.71051892409E+01  0.72842380195E+01  0.12386865225E+02  0.10566000000E+00 0.  1.
        994    1    1    2    0    0 -0.19658729646E+02  0.13659025575E+02  0.72066792820E+01  0.17301563761E+03  0.17120000000E+03 0.  0.
        998    1    1    2    0    0  0.26721266613E+02 -0.65538363345E+01  0.14855090790E+04  0.14857974972E+04  0.10000000000E+02 0.  1.
</event>
<event>
 5    1  0.1607440E-008  0.3857136E+03  0.7957747E-01  0.3426652E+00
         13   -1    0    0    0    0  0.00000000000E+00  0.00000000000E+00  0.14999999963E+04  0.15000000000E+04  0.10566000000E+00 0.  1.
        994   -1    0    0    0    0 -0.00000000000E+00 -0.00000000000E+00  0.11368683772E-12  0.17120000000E+03  0.17120000000E+03 0.  0.
         13    1    1    2    0    0  0.83808938074E+01  0.69966241904E+01  0.45054504892E+02  0.46358512769E+02  0.10566000000E+00 0.  1.
        994    1    1    2    0    0 -0.10027442733E+02 -0.10750504858E+02  0.19857126034E+01  0.17184151424E+03  0.17120000000E+03 0.  0.
        998    1    1    2    0    0  0.16465489259E+01  0.37538806675E+01  0.14529597788E+04  0.14529999730E+04  0.10000000000E+02 0.  1.
</event>
<event>
 5    1  0.1607440E-008  0.3797883E+03  0.7957747E-01  0.3452081E+00
         13   -1    0    0    0    0  0.00000000000E+00  0.00000000000E+00  0.14999999963E+04  0.15000000000E+04  0.10566000000E+00 0. -1.
        994   -1    0    0    0    0 -0.00000000000E+00 -0.00000000000E+00  0.11368683772E-12  0.17120000000E+03  0.17120000000E+03 0.  0.
         13    1    1    2    0    0  0.29087436744E+02 -0.71241312044E+01  0.14843718953E+03  0.15142801135E+03  0.10566000000E+00 0. -1.
        994    1    1    2    0    0  0.45271570976E+02  0.69202921644E+02  0.27467004906E+02  0.19210006731E+03  0.17120000000E+03 0.  0.
        998    1    1    2    0    0 -0.74359007721E+02 -0.62078790440E+02  0.13240958018E+04  0.13276719213E+04  0.10000000000E+02 0. -1.
</event>
<event>
 5    1  0.1607440E-008  0.3777748E+03  0.7957747E-01  0.3460905E+00
         13   -1    0    0    0    0  0.00000000000E+00  0.00000000000E+00  0.14999999963E+04  0.15000000000E+04  0.10566000000E+00 0. -1.
        994   -1    0    0    0    0 -0.00000000000E+00 -0.00000000000E+00  0.11368683772E-12  0.17120000000E+03  0.17120000000E+03 0.  0.
         13    1    1    2    0    0 -0.11302088163E+02  0.55154728210E+02  0.23416155811E+03  0.24083485566E+03  0.10566000000E+00 0. -1.
        994    1    1    2    0    0  0.55267680263E+02 -0.59830249120E+02  0.27938511497E+02  0.19163552806E+03  0.17120000000E+03 0.  0.
        998    1    1    2    0    0 -0.43965592100E+02  0.46755209093E+01  0.12378999267E+04  0.12387296163E+04  0.10000000000E+02 0.  1.
</event>
<event>
 5    1  0.1607440E-008  0.3793018E+03  0.7957747E-01  0.3454204E+00
         13   -1    0    0    0    0  0.00000000000E+00  0.00000000000E+00  0.14999999963E+04  0.15000000000E+04  0.10566000000E+00 0. -1.
        994   -1    0    0    0    0 -0.00000000000E+00 -0.00000000000E+00  0.11368683772E-12  0.17120000000E+03  0.17120000000E+03 0.  0.
         13    1    1    2    0    0  0.21936007036E+02 -0.38751530316E+02  0.20733865086E+03  0.21206649149E+03  0.10566000000E+00 0. -1.
        994    1    1    2    0    0 -0.11026811474E+02  0.32344595002E+02  0.84086844907E+01  0.17477960228E+03  0.17120000000E+03 0.  0.
        998    1    1    2    0    0 -0.10909195561E+02  0.64069353137E+01  0.12842526609E+04  0.12843539062E+04  0.10000000000E+02 0. -1.
</event>
<event>
 5    1  0.1607440E-008  0.3827302E+03  0.7957747E-01  0.3439356E+00
         13   -1    0    0    0    0  0.00000000000E+00  0.00000000000E+00  0.14999999963E+04  0.15000000000E+04  0.10566000000E+00 0.  1.
        994   -1    0    0    0    0 -0.00000000000E+00 -0.00000000000E+00  0.11368683772E-12  0.17120000000E+03  0.17120000000E+03 0.  0.
         13    1    1    2    0    0 -0.11411955922E+02  0.71346961278E+01  0.32361802311E+02  0.35049023377E+02  0.10566000000E+00 0.  1.
        994    1    1    2    0    0  0.35235825406E+01 -0.34467594718E+01  0.28417501161E+01  0.17129451634E+03  0.17120000000E+03 0.  0.
        998    1    1    2    0    0  0.78883733809E+01 -0.36879366560E+01  0.14647964439E+04  0.14648564603E+04  0.10000000000E+02 0.  1.
</event>
<event>
 5    1  0.1607440E-008  0.3803789E+03  0.7957747E-01  0.3449510E+00
         13   -1    0    0    0    0  0.00000000000E+00  0.00000000000E+00  0.14999999963E+04  0.15000000000E+04  0.10566000000E+00 0.  1.
        994   -1    0    0    0    0 -0.00000000000E+00 -0.00000000000E+00  0.11368683772E-12  0.17120000000E+03  0.17120000000E+03 0.  0.
         13    1    1    2    0    0 -0.19919252242E+02 -0.34686394220E+00  0.54330561128E+02  0.57868108324E+02  0.10566000000E+00 0.  1.
        994    1    1    2    0    0 -0.13633847462E+02  0.23701221119E+02  0.64421522413E+01  0.17348939738E+03  0.17120000000E+03 0.  0.
        998    1    1    2    0    0  0.33553099704E+02 -0.23354357177E+02  0.14392272829E+04  0.14398424943E+04  0.10000000000E+02 0.  1.
</event>
<event>
 5    1  0.1607440E-008  0.3688609E+03  0.7957747E-01  0.3501143E+00
         13   -1    0    0    0    0  0.00000000000E+00  0.00000000000E+00  0.14999999963E+04  0.15000000000E+04  0.10566000000E+00 0. -1.
        994   -1    0    0    0    0 -0.00000000000E+00 -0.00000000000E+00  0.11368683772E-12  0.17120000000E+03  0.17120000000E+03 0.  0.
         13    1    1    2    0    0 -0.33423435604E+02  0.41450450759E+02  0.13649711978E+03  0.14651532612E+03  0.10566000000E+00 0. -1.
        994    1    1    2    0    0  0.39789808049E+02 -0.37427944312E+01  0.15920094186E+02  0.17652231228E+03  0.17120000000E+03 0.  0.
        998    1    1    2    0    0 -0.63663724451E+01 -0.37707656328E+02  0.13475827823E+04  0.13481623616E+04  0.10000000000E+02 0. -1.
</event>
<event>
 5    1  0.1607440E-008  0.3829828E+03  0.7957747E-01  0.3438273E+00
         13   -1    0    0    0    0  0.00000000000E+00  0.00000000000E+00  0.14999999963E+04  0.15000000000E+04  0.10566000000E+00 0. -1.
        994   -1    0    0    0    0 -0.00000000000E+00 -0.00000000000E+00  0.11368683772E-12  0.17120000000E+03  0.17120000000E+03 0.  0.
         13    1    1    2    0    0 -0.13058062861E+02  0.22816042917E+02  0.14612968238E+03  0.14847552006E+03  0.10566000000E+00 0. -1.
        994    1    1    2    0    0 -0.55126167044E+01 -0.46643252468E+01  0.28076003964E+01  0.17137522427E+03  0.17120000000E+03 0.  0.
        998    1    1    2    0    0  0.18570679566E+02 -0.18151717670E+02  0.13510627135E+04  0.13513492557E+04  0.10000000000E+02 0. -1.
</event>
<event>
 5    1  0.1607440E-008  0.3822843E+03  0.7957747E-01  0.3441272E+00
         13   -1    0    0    0    0  0.00000000000E+00  0.00000000000E+00  0.14999999963E+04  0.15000000000E+04  0.10566000000E+00 0. -1.
        994   -1    0    0    0    0 -0.00000000000E+00 -0.00000000000E+00  0.11368683772E-12  0.17120000000E+03  0.17120000000E+03 0.  0.
         13    1    1    2    0    0  0.22898144145E+02  0.37101277230E+02  0.26271832435E+03  0.26631139459E+03  0.10566000000E+00 0. -1.
        994    1    1    2    0    0 -0.30551677289E+02 -0.33605326540E+02  0.98586850689E+01  0.17739604457E+03  0.17120000000E+03 0.  0.
        998    1    1    2    0    0  0.76535331438E+01 -0.34959506899E+01  0.12274229869E+04  0.12274925608E+04  0.10000000000E+02 0. -1.
</event>
<event>
 5    1  0.1607440E-008  0.3804903E+03  0.7957747E-01  0.3449026E+00
         13   -1    0    0    0    0  0.00000000000E+00  0.00000000000E+00  0.14999999963E+04  0.15000000000E+04  0.10566000000E+00 0.  1.
        994   -1    0    0    0    0 -0.00000000000E+00 -0.00000000000E+00  0.11368683772E-12  0.17120000000E+03  0.17120000000E+03 0.  0.
         13    1    1    2    0    0  0.97563266226E+01 -0.13124822249E+02  0.34724782985E+02  0.38383181025E+02  0.10566000000E+00 0.  1.
        994    1    1    2    0    0  0.54040152502E+01 -0.24001211371E+01  0.40025491702E+01  0.17134883823E+03  0.17120000000E+03 0.  0.
        998    1    1    2    0    0 -0.15160341873E+02  0.15524943386E+02  0.14612726641E+04  0.14614679807E+04  0.10000000000E+02 0.  1.
</event>
<event>
 5    1  0.1607440E-008  0.3832510E+03  0.7957747E-01  0.3437124E+00
         13   -1    0    0    0    0  0.00000000000E+00  0.00000000000E+00  0.14999999963E+04  0.15000000000E+04  0.10566000000E+00 0. -1.
        994   -1    0    0    0    0 -0.00000000000E+00 -0.00000000000E+00  0.11368683772E-12  0.17120000000E+03  0.17120000000E+03 0.  0.
         13    1    1    2    0    0 -0.11070277476E+02  0.24483158220E+02  0.15724577528E+03  0.15952498578E+03  0.10566000000E+00 0. -1.
        994    1    1    2    0    0 -0.18092266683E+02 -0.14869705621E+02  0.43169773465E+01  0.17284824139E+03  0.17120000000E+03 0.  0.
        998    1    1    2    0    0  0.29162544159E+02 -0.96134525993E+01  0.13384372436E+04  0.13388267728E+04  0.10000000000E+02 0. -1.
</event>
<event>
 5    1  0.1607440E-008  0.3823759E+03  0.7957747E-01  0.3440878E+00
         13   -1    0    0    0    0  0.00000000000E+00  0.00000000000E+00  0.14999999963E+04  0.15000000000E+04  0.10566000000E+00 0. -1.
        994   -1    0    0    0    0 -0.00000000000E+00 -0.00000000000E+00  0.11368683772E-12  0.17120000000E+03  0.17120000000E+03 0.  0.
         13    1    1    2    0    0 -0.20078461705E+02  0.34261306979E+02  0.21434769007E+03  0.21799524119E+03  0.10566000000E+00 0. -1.
        994    1    1    2    0    0  0.24750889441E+02 -0.41726622874E+02  0.10785179084E+02  0.17826799397E+03  0.17120000000E+03 0.  0.
        998    1    1    2    0    0 -0.46724277368E+01  0.74653158956E+01  0.12748671271E+04  0.12749367648E+04  0.10000000000E+02 0.  1.
</event>
<event>
 5    1  0.1607440E-008  0.3811993E+03  0.7957747E-01  0.3445953E+00
         13   -1    0    0    0    0  0.00000000000E+00  0.00000000000E+00  0.14999999963E+04  0.15000000000E+04  0.10566000000E+00 0.  1.
        994   -1    0    0    0    0 -0.00000000000E+00 -0.00000000000E+00  0.11368683772E-12  0.17120000000E+03  0.17120000000E+03 0.  0.
         13    1    1    2    0    0  0.10637418637E+02  0.44925520298E+01  0.17295435920E+02  0.20796176732E+02  0.10566000000E+00 0.  1.
        994    1    1    2    0    0 -0.12316077410E+02  0.67368311445E+00  0.40357241952E+01  0.17169119570E+03  0.17120000000E+03 0.  0.
        998    1    1    2    0    0  0.16786587736E+01 -0.51662351442E+01  0.14786688362E+04  0.14787126276E+04  0.10000000000E+02 0.  1.
</event>
<event>
 5    1  0.1607440E-008  0.3769977E+03  0.7957747E-01  0.3464336E+00
         13   -1    0    0    0    0  0.00000000000E+00  0.00000000000E+00  0.14999999963E+04  0.15000000000E+04  0.10566000000E+00 0.  1.
        994   -1    0    0    0    0 -0.00000000000E+00 -0.00000000000E+00  0.11368683772E-12  0.17120000000E+03  0.17120000000E+03 0.  0.
         13    1    1    2    0    0  0.24605983877E+02 -0.35855510355E+02  0.16280082556E+03  0.16850872984E+03  0.10566000000E+00 0.  1.
        994    1    1    2    0    0 -0.13173588455E+02  0.24973258589E+02  0.83528647809E+01  0.17371360749E+03  0.17120000000E+03 0.  0.
        998    1    1    2    0    0 -0.11432395422E+02  0.10882251766E+02  0.13288463059E+04  0.13289776627E+04  0.10000000000E+02 0.  1.
</event>
<event>
 5    1  0.1607440E-008  0.3756529E+03  0.7957747E-01  0.3470308E+00
         13   -1    0    0    0    0  0.00000000000E+00  0.00000000000E+00  0.14999999963E+04  0.15000000000E+04  0.10566000000E+00 0. -1.
        994   -1    0    0    0    0 -0.00000000000E+00 -0.00000000000E+00  0.11368683772E-12  0.17120000000E+03  0.17120000000E+03 0.  0.
         13    1    1    2    0    0  0.67371083167E+02  0.28519805009E+02  0.40408694563E+03  0.41065619796E+03  0.10566000000E+00 0. -1.
        994    1    1    2    0    0 -0.40832342000E+02 -0.21208476586E+02  0.13558422318E+02  0.17779299887E+03  0.17120000000E+03 0.  0.
        998    1    1    2    0    0 -0.26538741167E+02 -0.73113284227E+01  0.10823546283E+04  0.10827508032E+04  0.10000000000E+02 0. -1.
</event>
<event>
 5    1  0.1607440E-008  0.3848333E+03  0.7957747E-01  0.3430380E+00
         13   -1    0    0    0    0  0.00000000000E+00  0.00000000000E+00  0.14999999963E+04  0.15000000000E+04  0.10566000000E+00 0. -1.
        994   -1    0    0    0    0 -0.00000000000E+00 -0.00000000000E+00  0.11368683772E-12  0.17120000000E+03  0.17120000000E+03 0.  0.
         13    1    1    2    0    0 -0.14487715602E+02  0.34200414525E+01  0.68877433115E+02  0.70467741155E+02  0.10566000000E+00 0. -1.
        994    1    1    2    0    0  0.15382319814E+01  0.69097256253E+01  0.18778521281E+01  0.17135657791E+03  0.17120000000E+03 0.  0.
        998    1    1    2    0    0  0.12949483621E+02 -0.10329767078E+02  0.14292447110E+04  0.14293756809E+04  0.10000000000E+02 0. -1.
</event>
<event>
 5    1  0.1607440E-008  0.3839970E+03  0.7957747E-01  0.3433937E+00
         13   -1    0    0    0    0  0.00000000000E+00  0.00000000000E+00  0.14999999963E+04  0.15000000000E+04  0.10566000000E+00 0.  1.
        994   -1    0    0    0    0 -0.00000000000E+00 -0.00000000000E+00  0.11368683772E-12  0.17120000000E+03  0.17120000000E+03 0.  0.
         13    1    1    2    0    0 -0.10909515046E+02  0.18840912442E+02  0.10477075956E+03  0.10700897496E+03  0.10566000000E+00 0.  1.
        994    1    1    2    0    0  0.14360286988E+02 -0.16718454408E+02  0.37331646586E+01  0.17265312357E+03  0.17120000000E+03 0.  0.
        998    1    1    2    0    0 -0.34507719411E+01 -0.21224580348E+01  0.13914960721E+04  0.13915379015E+04  0.10000000000E+02 0.  1.
</event>
<event>
 5    1  0.1607440E-008  0.3856474E+03  0.7957747E-01  0.3426931E+00
         13   -1    0    0    0    0  0.00000000000E+00  0.00000000000E+00  0.14999999963E+04  0.15000000000E+04  0.10566000000E+00 0. -1.
        994   -1    0    0    0    0 -0.00000000000E+00 -0.00000000000E+00  0.11368683772E-12  0.17120000000E+03  0.17120000000E+03 0.  0.
         13    1    1    2    0    0  0.76672048416E+01 -0.12455019423E+02  0.85133967630E+02  0.86381231454E+02  0.10566000000E+00 0. -1.
        994    1    1    2    0    0 -0.31743205535E+01  0.42607874012E+01  0.14016899912E+01  0.17128816467E+03  0.17120000000E+03 0.  0.
        998    1    1    2    0    0 -0.44928842881E+01  0.81942320215E+01  0.14134643387E+04  0.14135306039E+04  0.10000000000E+02 0. -1.
</event>
<event>
 5    1  0.1607440E-008  0.3824571E+03  0.7957747E-01  0.3440529E+00
         13   -1    0    0    0    0  0.00000000000E+00  0.00000000000E+00  0.14999999963E+04  0.15000000000E+04  0.10566000000E+00 0. -1.
        994   -1    0    0    0    0 -0.00000000000E+00 -0.00000000000E+00  0.11368683772E-12  0.17120000000E+03  0.17120000000E+03 0.  0.
         13    1    1    2    0    0  0.14264481068E+02  0.79399437823E+01  0.47996784958E+02  0.50697343695E+02  0.10566000000E+00 0. -1.
        994    1    1    2    0    0  0.23057570909E+01  0.42985952415E+01  0.29768241960E+01  0.17129534704E+03  0.17120000000E+03 0.  0.
        998    1    1    2    0    0 -0.16570238159E+02 -0.12238539024E+02  0.14490263871E+04  0.14492073093E+04  0.10000000000E+02 0. -1.
</event>
<event>
 5    1  0.1607440E-008  0.3773211E+03  0.7957747E-01  0.3462906E+00
         13   -1    0    0    0    0  0.00000000000E+00  0.00000000000E+00  0.14999999963E+04  0.15000000000E+04  0.10566000000E+00 0. -1.
        994   -1    0    0    0    0 -0.00000000000E+00 -0.00000000000E+00  0.11368683772E-12  0.17120000000E+03  0.17120000000E+03 0.  0.
         13    1    1    2    0    0 -0.30655624271E+02  0.23985913749E+02  0.12182148748E+03  0.12788892577E+03  0.10566000000E+00 0. -1.
        994    1    1    2    0    0  0.31466683445E+02 -0.33537888916E+02  0.12658307426E+02  0.17772060912E+03  0.17120000000E+03 0.  0.
        998    1    1    2    0    0 -0.81105917421E+00  0.95519751667E+01  0.13655202014E+04  0.13655904651E+04  0.10000000000E+02 0. -1.
</event>
<event>
 5    1  0.1607440E-008  0.3813525E+03  0.7957747E-01  0.3445290E+00
         13   -1    0    0    0    0  0.00000000000E+00  0.00000000000E+00  0.14999999963E+04  0.15000000000E+04  0.10566000000E+00 0. -1.
        994   -1    0    0    0    0 -0.00000000000E+00 -0.00000000000E+00  0.11368683772E-12  0.17120000000E+03  0.17120000000E+03 0.  0.
         13    1    1    2    0    0 -0.43974408055E+01 -0.11367117848E+02  0.18658445710E+02  0.22286713848E+02  0.10566000000E+00 0. -1.
        994    1    1    2    0    0  0.99665312355E+01  0.34024243570E+02  0.76465565637E+01  0.17499968778E+03  0.17120000000E+03 0.  0.
        998    1    1    2    0    0 -0.55690904301E+01 -0.22657125722E+02  0.14736949940E+04  0.14739135984E+04  0.10000000000E+02 0. -1.
</event>
<event>
 5    1  0.1607440E-008  0.3861749E+03  0.7957747E-01  0.3424705E+00
         13   -1    0    0    0    0  0.00000000000E+00  0.00000000000E+00  0.14999999963E+04  0.15000000000E+04  0.10566000000E+00 0. -1.
        994   -1    0    0    0    0 -0.00000000000E+00 -0.00000000000E+00  0.11368683772E-12  0.17120000000E+03  0.17120000000E+03 0.  0.
         13    1    1    2    0    0 -0.92164383978E+01  0.73499234233E+01  0.68991039751E+02  0.69990991142E+02  0.10566000000E+00 0. -1.
        994    1    1    2    0    0  0.42461690433E+01 -0.22806804072E+01  0.11240627410E+01  0.17127152411E+03  0.17120000000E+03 0.  0.
        998    1    1    2    0    0  0.49702693545E+01 -0.50692430161E+01  0.14298848938E+04  0.14299374847E+04  0.10000000000E+02 0. -1.
</event>
<event>
 5    1  0.1607440E-008  0.3840596E+03  0.7957747E-01  0.3433670E+00
         13   -1    0    0    0    0  0.00000000000E+00  0.00000000000E+00  0.14999999963E+04  0.15000000000E+04  0.10566000000E+00 0.  1.
        994   -1    0    0    0    0 -0.00000000000E+00 -0.00000000000E+00  0.11368683772E-12  0.17120000000E+03  0.17120000000E+03 0.  0.
         13    1    1    2    0    0 -0.82518583384E+01  0.95820032576E+01  0.37409934617E+02  0.39489521706E+02  0.10566000000E+00 0.  1.
        994    1    1    2    0    0  0.94749979541E+01 -0.46678527913E+01  0.24658530534E+01  0.17154324489E+03  0.17120000000E+03 0.  0.
        998    1    1    2    0    0 -0.12231396157E+01 -0.49141504662E+01  0.14601242086E+04  0.14601672334E+04  0.10000000000E+02 0.  1.
</event>
<event>
 5    1  0.1607440E-008  0.3768948E+03  0.7957747E-01  0.3464792E+00
         13   -1    0    0    0    0  0.00000000000E+00  0.00000000000E+00  0.14999999963E+04  0.15000000000E+04  0.10566000000E+00 0.  1.
        994   -1    0    0    0    0 -0.00000000000E+00 -0.00000000000E+00  0.11368683772E-12  0.17120000000E+03  0.17120000000E+03 0.  0.
         13    1    1    2    0    0 -0.21261335222E+02 -0.15430690634E+02  0.56314347344E+02  0.62140707026E+02  0.10566000000E+00 0.  1.
        994    1    1    2    0    0  0.22042809422E+02  0.15127558039E+02  0.81267356094E+01  0.17346530573E+03  0.17120000000E+03 0.  0.
        998    1    1    2    0    0 -0.78147419983E+00  0.30313259546E+00  0.14355589133E+04  0.14355939872E+04  0.10000000000E+02 0.  1.
</event>
<event>
 5    1  0.1607440E-008  0.3800598E+03  0.7957747E-01  0.3450898E+00
         13   -1    0    0    0    0  0.00000000000E+00  0.00000000000E+00  0.14999999963E+04  0.15000000000E+04  0.10566000000E+00 0.  1.
        994   -1    0    0    0    0 -0.00000000000E+00 -0.00000000000E+00  0.11368683772E-12  0.17120000000E+03  0.17120000000E+03 0.  0.
         13    1    1    2    0    0 -0.11819458811E+02 -0.28852057592E+01  0.16104225003E+02  0.20183687617E+02  0.10566000000E+00 0.  1.
        994    1    1    2    0    0  0.13337301305E+02  0.10751796387E+01  0.47015975041E+01  0.17178645068E+03  0.17120000000E+03 0.  0.
        998    1    1    2    0    0 -0.15178424944E+01  0.18100261205E+01  0.14791941738E+04  0.14792298617E+04  0.10000000000E+02 0.  1.
</event>
<event>
 5    1  0.1607440E-008  0.3844520E+03  0.7957747E-01  0.3432000E+00
         13   -1    0    0    0    0  0.00000000000E+00  0.00000000000E+00  0.14999999963E+04  0.15000000000E+04  0.10566000000E+00 0.  1.
        994   -1    0    0    0    0 -0.00000000000E+00 -0.00000000000E+00  0.11368683772E-12  0.17120000000E+03  0.17120000000E+03 0.  0.
         13    1    1    2    0    0  0.15008061470E+02 -0.81039661247E+01  0.80583443484E+02  0.82368796907E+02  0.10566000000E+00 0.  1.
        994    1    1    2    0    0 -0.52964850461E+00  0.45548404747E+01  0.19717577820E+01  0.17127275010E+03  0.17120000000E+03 0.  0.
        998    1    1    2    0    0 -0.14478412966E+02  0.35491256500E+01  0.14174447950E+04  0.14175584530E+04  0.10000000000E+02 0.  1.
</event>
<event>
 5    1  0.1607440E-008  0.3708396E+03  0.7957747E-01  0.3492041E+00
         13   -1    0    0    0    0  0.00000000000E+00  0.00000000000E+00  0.14999999963E+04  0.15000000000E+04  0.10566000000E+00 0. -1.
        994   -1    0    0    0    0 -0.00000000000E+00 -0.00000000000E+00  0.11368683772E-12  0.17120000000E+03  0.17120000000E+03 0.  0.
         13    1    1    2    0    0 -0.17772103415E+02 -0.20041093875E+02  0.37036805402E+02  0.45708087051E+02  0.10566000000E+00 0. -1.
        994    1    1    2    0    0  0.29272191284E+02 -0.12187816202E+01  0.11795865784E+02  0.17408885392E+03  0.17120000000E+03 0.  0.
        998    1    1    2    0    0 -0.11500087869E+02  0.21259875495E+02  0.14511673251E+04  0.14514030590E+04  0.10000000000E+02 0. -1.
</event>
<event>
 5    1  0.1607440E-008  0.3763175E+03  0.7957747E-01  0.3467351E+00
         13   -1    0    0    0    0  0.00000000000E+00  0.00000000000E+00  0.14999999963E+04  0.15000000000E+04  0.10566000000E+00 0. -1.
        994   -1    0    0    0    0 -0.00000000000E+00 -0.00000000000E+00  0.11368683772E-12  0.17120000000E+03  0.17120000000E+03 0.  0.
         13    1    1    2    0    0  0.68083714696E+02 -0.38616952835E+02  0.37305150137E+03  0.38117462546E+03  0.10566000000E+00 0. -1.
        994    1    1    2    0    0 -0.63801539663E+02  0.51005014818E+02  0.28928165000E+02  0.19188128291E+03  0.17120000000E+03 0.  0.
        998    1    1    2    0    0 -0.42821750327E+01 -0.12388061983E+02  0.10980203299E+04  0.10981440916E+04  0.10000000000E+02 0.  0.
</event>
<event>
 5    1  0.1607440E-008  0.3828833E+03  0.7957747E-01  0.3438699E+00
         13   -1    0    0    0    0  0.00000000000E+00  0.00000000000E+00  0.14999999963E+04  0.15000000000E+04  0.10566000000E+00 0. -1.
        994   -1    0    0    0    0 -0.00000000000E+00 -0.00000000000E+00  0.11368683772E-12  0.17120000000E+03  0.17120000000E+03 0.  0.
         13    1    1    2    0    0 -0.65714645700E+01  0.11396472759E+02  0.31239940683E+02  0.33897032258E+02  0.10566000000E+00 0. -1.
        994    1    1    2    0    0  0.70018742179E+01 -0.71237447421E+01  0.30151428082E+01  0.17151765235E+03  0.17120000000E+03 0.  0.
        998    1    1    2    0    0 -0.43040964791E+00 -0.42727280165E+01  0.14657449128E+04  0.14657853154E+04  0.10000000000E+02 0. -1.
</event>
<event>
 5    1  0.1607440E-008  0.3719248E+03  0.7957747E-01  0.3487092E+00
         13   -1    0    0    0    0  0.00000000000E+00  0.00000000000E+00  0.14999999963E+04  0.15000000000E+04  0.10566000000E+00 0. -1.
        994   -1    0    0    0    0 -0.00000000000E+00 -0.00000000000E+00  0.11368683772E-12  0.17120000000E+03  0.17120000000E+03 0.  0.
         13    1    1    2    0    0  0.20231463304E+02  0.18277040192E+01  0.19778286645E+02  0.28352149761E+02  0.10566000000E+00 0. -1.
        994    1    1    2    0    0 -0.46702350347E+02 -0.74392807585E+01  0.15987760195E+02  0.17832975327E+03  0.17120000000E+03 0.  0.
        998    1    1    2    0    0  0.26470887043E+02  0.56115767393E+01  0.14642339494E+04  0.14645180970E+04  0.10000000000E+02 0. -1.
</event>
<event>
 5    1  0.1607440E-008  0.3774716E+03  0.7957747E-01  0.3462242E+00
         13   -1    0    0    0    0  0.00000000000E+00  0.00000000000E+00  0.14999999963E+04  0.15000000000E+04  0.10566000000E+00 0.  1.
        994   -1    0    0    0    0 -0.00000000000E+00 -0.00000000000E+00  0.11368683772E-12  0.17120000000E+03  0.17120000000E+03 0.  0.
         13    1    1    2    0    0  0.34540472365E+02  0.13385379954E+01  0.17086304613E+03  0.17432448942E+03  0.10566000000E+00 0.  1.
        994    1    1    2    0    0  0.49670040747E+02 -0.12916365898E+02  0.14346264732E+02  0.17930198205E+03  0.17120000000E+03 0.  0.
        998    1    1    2    0    0 -0.84210513111E+02  0.11577827902E+02  0.13147906854E+04  0.13175735285E+04  0.10000000000E+02 0.  1.
</event>
<event>
 5    1  0.1650585E-008  0.3859933E+03  0.7957747E-01  0.3425470E+00
         13   -1    0    0    0    0  0.00000000000E+00  0.00000000000E+00  0.14999999963E+04  0.15000000000E+04  0.10566000000E+00 0. -1.
        994   -1    0    0    0    0 -0.00000000000E+00 -0.00000000000E+00  0.11368683772E-12  0.17120000000E+03  0.17120000000E+03 0.  0.
         13    1    1    2    0    0  0.38366029881E+01  0.12579905023E+02  0.71411617971E+02  0.72612697775E+02  0.10566000000E+00 0. -1.
        994    1    1    2    0    0 -0.19621661498E+01 -0.18419774191E+02  0.22634319831E+01  0.17221411470E+03  0.17120000000E+03 0.  0.
        998    1    1    2    0    0 -0.18744368383E+01  0.58398691685E+01  0.14263249463E+04  0.14263731875E+04  0.10000000000E+02 0. -1.
</event>
<event>
 5    1  0.1607440E-008  0.3859250E+03  0.7957747E-01  0.3425759E+00
         13   -1    0    0    0    0  0.00000000000E+00  0.00000000000E+00  0.14999999963E+04  0.15000000000E+04  0.10566000000E+00 0. -1.
        994   -1    0    0    0    0 -0.00000000000E+00 -0.00000000000E+00  0.11368683772E-12  0.17120000000E+03  0.17120000000E+03 0.  0.
         13    1    1    2    0    0 -0.45656136235E+00 -0.11165476962E+02  0.49217371604E+02  0.50470161043E+02  0.10566000000E+00 0. -1.
        994    1    1    2    0    0 -0.59677029172E+00  0.21700194110E+02  0.27182624074E+01  0.17259224638E+03  0.17120000000E+03 0.  0.
        998    1    1    2    0    0  0.10533316541E+01 -0.10534717148E+02  0.14480643623E+04  0.14481375926E+04  0.10000000000E+02 0. -1.
</event>
<event>
 5    1  0.1607440E-008  0.3829744E+03  0.7957747E-01  0.3438309E+00
         13   -1    0    0    0    0  0.00000000000E+00  0.00000000000E+00  0.14999999963E+04  0.15000000000E+04  0.10566000000E+00 0. -1.
        994   -1    0    0    0    0 -0.00000000000E+00 -0.00000000000E+00  0.11368683772E-12  0.17120000000E+03  0.17120000000E+03 0.  0.
         13    1    1    2    0    0  0.16421550534E+02  0.23079124622E+02  0.15373599006E+03  0.15632363583E+03  0.10566000000E+00 0. -1.
        994    1    1    2    0    0  0.91210541508E+01 -0.25652885001E+02  0.50968956742E+01  0.17342630274E+03  0.17120000000E+03 0.  0.
        998    1    1    2    0    0 -0.25542604684E+02  0.25737603794E+01  0.13411671105E+04  0.13414500614E+04  0.10000000000E+02 0. -1.
</event>
<event>
 5    1  0.1607440E-008  0.3812813E+03  0.7957747E-01  0.3445598E+00
         13   -1    0    0    0    0  0.00000000000E+00  0.00000000000E+00  0.14999999963E+04  0.15000000000E+04  0.10566000000E+00 0. -1.
        994   -1    0    0    0    0 -0.00000000000E+00 -0.00000000000E+00  0.11368683772E-12  0.17120000000E+03  0.17120000000E+03 0.  0.
         13    1    1    2    0    0  0.14326068648E+02 -0.18182324265E+02  0.81042717737E+02  0.84283844364E+02  0.10566000000E+00 0. -1.
        994    1    1    2    0    0 -0.60499157490E+01 -0.36681603034E+01  0.36543995705E+01  0.17138509713E+03  0.17120000000E+03 0.  0.
        998    1    1    2    0    0 -0.82761528987E+01  0.21850484568E+02  0.14153028790E+04  0.14155310585E+04  0.10000000000E+02 0. -1.
</event>
<event>
 5    1  0.1607440E-008  0.3852955E+03  0.7957747E-01  0.3428420E+00
         13   -1    0    0    0    0  0.00000000000E+00  0.00000000000E+00  0.14999999963E+04  0.15000000000E+04  0.10566000000E+00 0.  1.
        994   -1    0    0    0    0 -0.00000000000E+00 -0.00000000000E+00  0.11368683772E-12  0.17120000000E+03  0.17120000000E+03 0.  0.
         13    1    1    2    0    0 -0.12894589140E+02 -0.36996963516E+01  0.67293631870E+02  0.68617798249E+02  0.10566000000E+00 0.  1.
        994    1    1    2    0    0 -0.58420468762E+01 -0.78398772233E+00  0.15976611100E+01  0.17130889256E+03  0.17120000000E+03 0.  0.
        998    1    1    2    0    0  0.18736636016E+02  0.44836840739E+01  0.14311087033E+04  0.14312733092E+04  0.10000000000E+02 0.  1.
</event>
<event>
 5    1  0.1607440E-008  0.3727535E+03  0.7957747E-01  0.3483331E+00
         13   -1    0    0    0    0  0.00000000000E+00  0.00000000000E+00  0.14999999963E+04  0.15000000000E+04  0.10566000000E+00 0.  1.
        994   -1    0    0    0    0 -0.00000000000E+00 -0.00000000000E+00  0.11368683772E-12  0.17120000000E+03  0.17120000000E+03 0.  0.
         13    1    1    2    0    0 -0.26422347246E+02 -0.57191111341E+01  0.44612996378E+02  0.52164923809E+02  0.10566000000E+00 0.  1.
        994    1    1    2    0    0  0.87858558927E+01  0.51575206230E+01  0.81924612003E+01  0.17169842079E+03  0.17120000000E+03 0.  0.
        998    1    1    2    0    0  0.17636491353E+02  0.56159051109E+00  0.14471945387E+04  0.14473366554E+04  0.10000000000E+02 0.  1.
</event>
<event>
 5    1  0.1607440E-008  0.3732678E+03  0.7957747E-01  0.3481006E+00
         13   -1    0    0    0    0  0.00000000000E+00  0.00000000000E+00  0.14999999963E+04  0.15000000000E+04  0.10566000000E+00 0. -1.
        994   -1    0    0    0    0 -0.00000000000E+00 -0.00000000000E+00  0.11368683772E-12  0.17120000000E+03  0.17120000000E+03 0.  0.
         13    1    1    2    0    0  0.43902529854E+02 -0.25676978367E+02  0.14980061026E+03  0.15819915722E+03  0.10566000000E+00 0. -1.
        994    1    1    2    0    0 -0.44617945664E+02  0.31130889971E+02  0.17759877047E+02  0.18051245558E+03  0.17120000000E+03 0.  0.
        998    1    1    2    0    0  0.71541581053E+00 -0.54539116033E+01  0.13324395090E+04  0.13324883872E+04  0.10000000000E+02 0. -1.
</event>
<event>
 5    1  0.1607440E-008  0.3750795E+03  0.7957747E-01  0.3472867E+00
         13   -1    0    0    0    0  0.00000000000E+00  0.00000000000E+00  0.14999999963E+04  0.15000000000E+04  0.10566000000E+00 0. -1.
        994   -1    0    0    0    0 -0.00000000000E+00 -0.00000000000E+00  0.11368683772E-12  0.17120000000E+03  0.17120000000E+03 0.  0.
         13    1    1    2    0    0  0.53688105195E+02 -0.99887405256E+01  0.20246650452E+03  0.20970189363E+03  0.10566000000E+00 0. -1.
        994    1    1    2    0    0 -0.47739086142E+02  0.26400374371E+01  0.14446299988E+02  0.17833711259E+03  0.17120000000E+03 0.  0.
        998    1    1    2    0    0 -0.59490190531E+01  0.73487030885E+01  0.12830871918E+04  0.12831609938E+04  0.10000000000E+02 0. -1.
</event>
<event>
 5    1  0.1607440E-008  0.3807027E+03  0.7957747E-01  0.3448104E+00
         13   -1    0    0    0    0  0.00000000000E+00  0.00000000000E+00  0.14999999963E+04  0.15000000000E+04  0.10566000000E+00 0. -1.
        994   -1    0    0    0    0 -0.00000000000E+00 -0.00000000000E+00  0.11368683772E-12  0.17120000000E+03  0.17120000000E+03 0.  0.
         13    1    1    2    0    0 -0.19024249284E+02 -0.33351146780E+02  0.20112731619E+03  0.20475944309E+03  0.10566000000E+00 0. -1.
        994    1    1    2    0    0  0.68804347738E+01  0.16131299256E+02  0.48052688566E+01  0.17216297455E+03  0.17120000000E+03 0.  0.
        998    1    1    2    0    0  0.12143814510E+02  0.17219847524E+02  0.12940674112E+04  0.12942775824E+04  0.10000000000E+02 0. -1.
</event>
<event>
 5    1  0.1607440E-008  0.3828830E+03  0.7957747E-01  0.3438701E+00
         13   -1    0    0    0    0  0.00000000000E+00  0.00000000000E+00  0.14999999963E+04  0.15000000000E+04  0.10566000000E+00 0.  1.
        994   -1    0    0    0    0 -0.00000000000E+00 -0.00000000000E+00  0.11368683772E-12  0.17120000000E+03  0.17120000000E+03 0.  0.
         13    1    1    2    0    0  0.29380256688E+02 -0.20464822979E+02  0.17229850599E+03  0.17597952947E+03  0.10566000000E+00 0.  1.
        994    1    1    2    0    0 -0.66246309799E+02  0.15336366611E+02  0.18149714607E+02  0.18510167434E+03  0.17120000000E+03 0.  0.
        998    1    1    2    0    0  0.36866053111E+02  0.51284563684E+01  0.13095517757E+04  0.13101187962E+04  0.10000000000E+02 0.  1.
</event>
<event>
 5    1  0.1607440E-008  0.3813689E+03  0.7957747E-01  0.3445220E+00
         13   -1    0    0    0    0  0.00000000000E+00  0.00000000000E+00  0.14999999963E+04  0.15000000000E+04  0.10566000000E+00 0.  1.
        994   -1    0    0    0    0 -0.00000000000E+00 -0.00000000000E+00  0.11368683772E-12  0.17120000000E+03  0.17120000000E+03 0.  0.
         13    1    1    2    0    0  0.71057001258E+01  0.30229742086E+02  0.13801176557E+03  0.14146231611E+03  0.10566000000E+00 0.  1.
        994    1    1    2    0    0 -0.13134249630E+02 -0.16938355406E+02  0.49740913334E+01  0.17260822107E+03  0.17120000000E+03 0.  0.
        998    1    1    2    0    0  0.60285495039E+01 -0.13291386680E+02  0.13570141394E+04  0.13571294628E+04  0.10000000000E+02 0.  1.
</event>
<event>
 5    1  0.1607440E-008  0.3783883E+03  0.7957747E-01  0.3458206E+00
         13   -1    0    0    0    0  0.00000000000E+00  0.00000000000E+00  0.14999999963E+04  0.15000000000E+04  0.10566000000E+00 0.  1.
        994   -1    0    0    0    0 -0.00000000000E+00 -0.00000000000E+00  0.11368683772E-12  0.17120000000E+03  0.17120000000E+03 0.  0.
         13    1    1    2    0    0 -0.37873906184E+02  0.30634735315E+02  0.20753029823E+03  0.21317071944E+03  0.10566000000E+00 0.  1.
        994    1    1    2    0    0  0.39481897400E+02 -0.27768451886E+02  0.12819599202E+02  0.17833588889E+03  0.17120000000E+03 0.  0.
        998    1    1    2    0    0 -0.16079912168E+01 -0.28662834284E+01  0.12796500988E+04  0.12796933917E+04  0.10000000000E+02 0.  0.
</event>
<event>
 5    1  0.1607440E-008  0.3859685E+03  0.7957747E-01  0.3425575E+00
         13   -1    0    0    0    0  0.00000000000E+00  0.00000000000E+00  0.14999999963E+04  0.15000000000E+04  0.10566000000E+00 0. -1.
        994   -1    0    0    0    0 -0.00000000000E+00 -0.00000000000E+00  0.11368683772E-12  0.17120000000E+03  0.17120000000E+03 0.  0.
         13    1    1    2    0    0 -0.12831928635E+02  0.18112735981E+01  0.73270411956E+02  0.74407684662E+02  0.10566000000E+00 0. -1.
        994    1    1    2    0    0  0.79234400240E+01 -0.13762098551E+02  0.19772239110E+01  0.17194628717E+03  0.17120000000E+03 0.  0.
        998    1    1    2    0    0  0.49084886105E+01  0.11950824952E+02  0.14247523604E+04  0.14248460282E+04  0.10000000000E+02 0. -1.
</event>
<event>
 5    1  0.1607440E-008  0.3806283E+03  0.7957747E-01  0.3448427E+00
         13   -1    0    0    0    0  0.00000000000E+00  0.00000000000E+00  0.14999999963E+04  0.15000000000E+04  0.10566000000E+00 0. -1.
        994   -1    0    0    0    0 -0.00000000000E+00 -0.00000000000E+00  0.11368683772E-12  0.17120000000E+03  0.17120000000E+03 0.  0.
         13    1    1    2    0    0  0.17325946694E+00  0.16696866436E+02  0.36015230209E+02  0.39697900935E+02  0.10566000000E+00 0. -1.
        994    1    1    2    0    0  0.16176564203E+01 -0.33908499011E+01  0.38634287520E+01  0.17128479430E+03  0.17120000000E+03 0.  0.
        998    1    1    2    0    0 -0.17909158872E+01 -0.13306016534E+02  0.14601213373E+04  0.14602173048E+04  0.10000000000E+02 0. -1.
</event>
<event>
 5    1  0.1607440E-008  0.3807405E+03  0.7957747E-01  0.3447941E+00
         13   -1    0    0    0    0  0.00000000000E+00  0.00000000000E+00  0.14999999963E+04  0.15000000000E+04  0.10566000000E+00 0. -1.
        994   -1    0    0    0    0 -0.00000000000E+00 -0.00000000000E+00  0.11368683772E-12  0.17120000000E+03  0.17120000000E+03 0.  0.
         13    1    1    2    0    0 -0.10976132954E+02  0.65935937207E+01  0.20865041189E+02  0.24480851306E+02  0.10566000000E+00 0. -1.
        994    1    1    2    0    0 -0.38479336098E+01 -0.34177711646E+01  0.38481553627E+01  0.17132056518E+03  0.17120000000E+03 0.  0.
        998    1    1    2    0    0  0.14824066564E+02 -0.31758225561E+01  0.14752867997E+04  0.14753985835E+04  0.10000000000E+02 0. -1.
</event>
<event>
 5    1  0.1607440E-008  0.3776027E+03  0.7957747E-01  0.3461664E+00
         13   -1    0    0    0    0  0.00000000000E+00  0.00000000000E+00  0.14999999963E+04  0.15000000000E+04  0.10566000000E+00 0.  1.
        994   -1    0    0    0    0 -0.00000000000E+00 -0.00000000000E+00  0.11368683772E-12  0.17120000000E+03  0.17120000000E+03 0.  0.
         13    1    1    2    0    0 -0.42554224214E+02 -0.90976719626E+01  0.23068042186E+03  0.23474901028E+03  0.10566000000E+00 0.  1.
        994    1    1    2    0    0 -0.98312655116E+01 -0.93423598415E+01  0.59682278027E+01  0.17184002215E+03  0.17120000000E+03 0.  0.
        998    1    1    2    0    0  0.52385489726E+02  0.18440031804E+02  0.12633513466E+04  0.12646109676E+04  0.10000000000E+02 0.  1.
</event>
<event>
 5    1  0.1607440E-008  0.3825723E+03  0.7957747E-01  0.3440034E+00
         13   -1    0    0    0    0  0.00000000000E+00  0.00000000000E+00  0.14999999963E+04  0.15000000000E+04  0.10566000000E+00 0. -1.
        994   -1    0    0    0    0 -0.00000000000E+00 -0.00000000000E+00  0.11368683772E-12  0.17120000000E+03  0.17120000000E+03 0.  0.
         13    1    1    2    0    0 -0.13800078216E+02 -0.60782508635E+01  0.40948442907E+02  0.43636835734E+02  0.10566000000E+00 0. -1.
        994    1    1    2    0    0 -0.67356276450E+01  0.11652632571E+02  0.34409814904E+01  0.17176272261E+03  0.17120000000E+03 0.  0.
        998    1    1    2    0    0  0.20535705861E+02 -0.55743817072E+01  0.14556105719E+04  0.14558004417E+04  0.10000000000E+02 0. -1.
</event>
<event>
 5    1  0.1607440E-008  0.3848572E+03  0.7957747E-01  0.3430278E+00
         13   -1    0    0    0    0  0.00000000000E+00  0.00000000000E+00  0.14999999963E+04  0.15000000000E+04  0.10566000000E+00 0. -1.
        994   -1    0    0    0    0 -0.00000000000E+00 -0.00000000000E+00  0.11368683772E-12  0.17120000000E+03  0.17120000000E+03 0.  0.
         13    1    1    2    0    0 -0.15776904654E+02  0.11480614883E+02  0.11037723029E+03  0.11208862284E+03  0.10566000000E+00 0. -1.
        994    1    1    2    0    0  0.80106387050E+01 -0.12841099740E+02  0.24550675068E+01  0.17188522779E+03  0.17120000000E+03 0.  0.
        998    1    1    2    0    0  0.77662659488E+01  0.13604848573E+01  0.13871676985E+04  0.13872261494E+04  0.10000000000E+02 0. -1.
</event>
<event>
 5    1  0.1607440E-008  0.3753989E+03  0.7957747E-01  0.3471441E+00
         13   -1    0    0    0    0  0.00000000000E+00  0.00000000000E+00  0.14999999963E+04  0.15000000000E+04  0.10566000000E+00 0.  1.
        994   -1    0    0    0    0 -0.00000000000E+00 -0.00000000000E+00  0.11368683772E-12  0.17120000000E+03  0.17120000000E+03 0.  0.
         13    1    1    2    0    0 -0.45677074297E+02  0.53413392262E+01  0.85229165305E+02  0.96844962717E+02  0.10566000000E+00 0.  1.
        994    1    1    2    0    0 -0.27457219857E+02 -0.82666628821E+01  0.16758020134E+02  0.17439182285E+03  0.17120000000E+03 0.  0.
        998    1    1    2    0    0  0.73134294154E+02  0.29253236560E+01  0.13980128108E+04  0.13999632144E+04  0.10000000000E+02 0.  1.
</event>
<event>
 5    1  0.1607440E-008  0.3762168E+03  0.7957747E-01  0.3467799E+00
         13   -1    0    0    0    0  0.00000000000E+00  0.00000000000E+00  0.14999999963E+04  0.15000000000E+04  0.10566000000E+00 0.  1.
        994   -1    0    0    0    0 -0.00000000000E+00 -0.00000000000E+00  0.11368683772E-12  0.17120000000E+03  0.17120000000E+03 0.  0.
         13    1    1    2    0    0  0.24882137459E+02 -0.30582160877E+02  0.12772649770E+03  0.13367295428E+03  0.10566000000E+00 0.  1.
        994    1    1    2    0    0  0.36057790915E+01  0.30728901387E+02  0.93026530726E+01  0.17422183094E+03  0.17120000000E+03 0.  0.
        998    1    1    2    0    0 -0.28487916551E+02 -0.14674051031E+00  0.13629708455E+04  0.13633052148E+04  0.10000000000E+02 0.  1.
</event>
<event>
 5    1  0.1607440E-008  0.3832607E+03  0.7957747E-01  0.3437083E+00
         13   -1    0    0    0    0  0.00000000000E+00  0.00000000000E+00  0.14999999963E+04  0.15000000000E+04  0.10566000000E+00 0.  1.
        994   -1    0    0    0    0 -0.00000000000E+00 -0.00000000000E+00  0.11368683772E-12  0.17120000000E+03  0.17120000000E+03 0.  0.
         13    1    1    2    0    0 -0.13469937038E+02 -0.73707752952E+01  0.49494887618E+02  0.51822028102E+02  0.10566000000E+00 0.  1.
        994    1    1    2    0    0  0.72770138359E+01 -0.19570408780E+02  0.39393250134E+01  0.17251351863E+03  0.17120000000E+03 0.  0.
        998    1    1    2    0    0  0.61929232025E+01  0.26941184075E+02  0.14465657836E+04  0.14468644533E+04  0.10000000000E+02 0.  1.
</event>
<event>
 5    1  0.1607440E-008  0.3738540E+03  0.7957747E-01  0.3478364E+00
         13   -1    0    0    0    0  0.00000000000E+00  0.00000000000E+00  0.14999999963E+04  0.15000000000E+04  0.10566000000E+00 0.  1.
        994   -1    0    0    0    0 -0.00000000000E+00 -0.00000000000E+00  0.11368683772E-12  0.17120000000E+03  0.17120000000E+03 0.  0.
         13    1    1    2    0    0 -0.81669665632E+02  0.17390342232E+02  0.23156758043E+03  0.24616237275E+03  0.10566000000E+00 0.  1.
        994    1    1    2    0    0  0.73690116213E+02 -0.21357349798E+02  0.34157036607E+02  0.19068957173E+03  0.17120000000E+03 0.  0.
        998    1    1    2    0    0  0.79795494185E+01  0.39670075660E+01  0.12342753792E+04  0.12343480555E+04  0.10000000000E+02 0.  1.
</event>
<event>
 5    1  0.1607440E-008  0.3818582E+03  0.7957747E-01  0.3443107E+00
         13   -1    0    0    0    0  0.00000000000E+00  0.00000000000E+00  0.14999999963E+04  0.15000000000E+04  0.10566000000E+00 0. -1.
        994   -1    0    0    0    0 -0.00000000000E+00 -0.00000000000E+00  0.11368683772E-12  0.17120000000E+03  0.17120000000E+03 0.  0.
         13    1    1    2    0    0 -0.74092775396E+01 -0.26565011022E+02  0.12900231511E+03  0.13191741990E+03  0.10566000000E+00 0. -1.
        994    1    1    2    0    0 -0.34753104047E+01  0.41724567736E+01  0.32960623799E+01  0.17131780761E+03  0.17120000000E+03 0.  0.
        998    1    1    2    0    0  0.10884587944E+02  0.22392554248E+02  0.13677016188E+04  0.13679647725E+04  0.10000000000E+02 0. -1.
</event>
<event>
 5    1  0.1607440E-008  0.3838081E+03  0.7957747E-01  0.3434743E+00
         13   -1    0    0    0    0  0.00000000000E+00  0.00000000000E+00  0.14999999963E+04  0.15000000000E+04  0.10566000000E+00 0.  1.
        994   -1    0    0    0    0 -0.00000000000E+00 -0.00000000000E+00  0.11368683772E-12  0.17120000000E+03  0.17120000000E+03 0.  0.
         13    1    1    2    0    0  0.10050057803E+02  0.76311946397E+01  0.34336919911E+02  0.36582427838E+02  0.10566000000E+00 0.  1.
        994    1    1    2    0    0 -0.13304488316E+02 -0.66765054083E+01  0.29549571140E+01  0.17187133823E+03  0.17120000000E+03 0.  0.
        998    1    1    2    0    0  0.32544305130E+01 -0.95468923144E+00  0.14627081193E+04  0.14627462339E+04  0.10000000000E+02 0.  1.
</event>
<event>
 5    1  0.1607440E-008  0.3842903E+03  0.7957747E-01  0.3432688E+00
         13   -1    0    0    0    0  0.00000000000E+00  0.00000000000E+00  0.14999999963E+04  0.15000000000E+04  0.10566000000E+00 0.  1.
        994   -1    0    0    0    0 -0.00000000000E+00 -0.00000000000E+00  0.11368683772E-12  0.17120000000E+03  0.17120000000E+03 0.  0.
         13    1    1    2    0    0 -0.33009102535E+01 -0.30867115652E+02  0.15501378033E+03  0.15809161298E+03  0.10566000000E+00 0.  1.
        994    1    1    2    0    0  0.12678156462E+02  0.71453720138E+02  0.19539462256E+02  0.18696951719E+03  0.17120000000E+03 0.  0.
        998    1    1    2    0    0 -0.93772462086E+01 -0.40586604486E+02  0.13254467537E+04  0.13261388698E+04  0.10000000000E+02 0.  1.
</event>
<event>
 5    1  0.1607440E-008  0.3781962E+03  0.7957747E-01  0.3459050E+00
         13   -1    0    0    0    0  0.00000000000E+00  0.00000000000E+00  0.14999999963E+04  0.15000000000E+04  0.10566000000E+00 0.  1.
        994   -1    0    0    0    0 -0.00000000000E+00 -0.00000000000E+00  0.11368683772E-12  0.17120000000E+03  0.17120000000E+03 0.  0.
         13    1    1    2    0    0  0.11973249615E+01 -0.15922263183E+02  0.22717275908E+02  0.27767568144E+02  0.10566000000E+00 0.  1.
        994    1    1    2    0    0  0.67785456080E+00  0.18271069132E+02  0.61714674896E+01  0.17228412134E+03  0.17120000000E+03 0.  0.
        998    1    1    2    0    0 -0.18751795223E+01 -0.23488059495E+01  0.14711112529E+04  0.14711483105E+04  0.10000000000E+02 0.  1.
</event>
<event>
 5    1  0.1607440E-008  0.3800449E+03  0.7957747E-01  0.3450963E+00
         13   -1    0    0    0    0  0.00000000000E+00  0.00000000000E+00  0.14999999963E+04  0.15000000000E+04  0.10566000000E+00 0. -1.
        994   -1    0    0    0    0 -0.00000000000E+00 -0.00000000000E+00  0.11368683772E-12  0.17120000000E+03  0.17120000000E+03 0.  0.
         13    1    1    2    0    0  0.12524378095E+02  0.38480283054E+01  0.19371093562E+02  0.23386273717E+02  0.10566000000E+00 0. -1.
        994    1    1    2    0    0 -0.37460465537E+01 -0.54001329189E+01  0.42548873147E+01  0.17137893210E+03  0.17120000000E+03 0.  0.
        998    1    1    2    0    0 -0.87783315418E+01  0.15521046134E+01  0.14763740154E+04  0.14764347942E+04  0.10000000000E+02 0. -1.
</event>
<event>
 5    1  0.1607440E-008  0.3852382E+03  0.7957747E-01  0.3428662E+00
         13   -1    0    0    0    0  0.00000000000E+00  0.00000000000E+00  0.14999999963E+04  0.15000000000E+04  0.10566000000E+00 0. -1.
        994   -1    0    0    0    0 -0.00000000000E+00 -0.00000000000E+00  0.11368683772E-12  0.17120000000E+03  0.17120000000E+03 0.  0.
         13    1    1    2    0    0  0.86492506653E+01  0.92622306808E+01  0.53367556664E+02  0.54851670190E+02  0.10566000000E+00 0. -1.
        994    1    1    2    0    0  0.49165271549E-01 -0.10996411299E+02  0.19093698903E+01  0.17156342609E+03  0.17120000000E+03 0.  0.
        998    1    1    2    0    0 -0.86984159368E+01  0.17341806180E+01  0.14447230697E+04  0.14447849037E+04  0.10000000000E+02 0. -1.
</event>
<event>
 5    1  0.1607440E-008  0.3690762E+03  0.7957747E-01  0.3500147E+00
         13   -1    0    0    0    0  0.00000000000E+00  0.00000000000E+00  0.14999999963E+04  0.15000000000E+04  0.10566000000E+00 0. -1.
        994   -1    0    0    0    0 -0.00000000000E+00 -0.00000000000E+00  0.11368683772E-12  0.17120000000E+03  0.17120000000E+03 0.  0.
         13    1    1    2    0    0 -0.11436035805E+02  0.18290910473E+02  0.19773607974E+02  0.29263408161E+02  0.10566000000E+00 0. -1.
        994    1    1    2    0    0 -0.76474048694E+01 -0.20804161090E+02  0.11458735722E+02  0.17300878170E+03  0.17120000000E+03 0.  0.
        998    1    1    2    0    0  0.19083440674E+02  0.25132506169E+01  0.14687676526E+04  0.14689278101E+04  0.10000000000E+02 0. -1.
</event>
<event>
 5    1  0.1607440E-008  0.3811687E+03  0.7957747E-01  0.3446085E+00
         13   -1    0    0    0    0  0.00000000000E+00  0.00000000000E+00  0.14999999963E+04  0.15000000000E+04  0.10566000000E+00 0.  1.
        994   -1    0    0    0    0 -0.00000000000E+00 -0.00000000000E+00  0.11368683772E-12  0.17120000000E+03  0.17120000000E+03 0.  0.
         13    1    1    2    0    0 -0.40604912300E+01  0.15119830381E+02  0.34164323493E+02  0.37580700147E+02  0.10566000000E+00 0.  1.
        994    1    1    2    0    0  0.37987985099E+01 -0.15632183853E+01  0.36005530947E+01  0.17128712300E+03  0.17120000000E+03 0.  0.
        998    1    1    2    0    0  0.26169272010E+00 -0.13556611996E+02  0.14622351197E+04  0.14623321769E+04  0.10000000000E+02 0.  1.
</event>
<event>
 5    1  0.1607440E-008  0.3738922E+03  0.7957747E-01  0.3478192E+00
         13   -1    0    0    0    0  0.00000000000E+00  0.00000000000E+00  0.14999999963E+04  0.15000000000E+04  0.10566000000E+00 0. -1.
        994   -1    0    0    0    0 -0.00000000000E+00 -0.00000000000E+00  0.11368683772E-12  0.17120000000E+03  0.17120000000E+03 0.  0.
         13    1    1    2    0    0  0.21128916204E+02  0.79944638676E+01  0.35069761012E+02  0.41716206131E+02  0.10566000000E+00 0. -1.
        994    1    1    2    0    0  0.20322391256E+02 -0.95107830256E+01  0.89683643915E+01  0.17289686562E+03  0.17120000000E+03 0.  0.
        998    1    1    2    0    0 -0.41451307460E+02  0.15163191580E+01  0.14559618709E+04  0.14565869283E+04  0.10000000000E+02 0. -1.
</event>
<event>
 5    1  0.1607440E-008  0.3768000E+03  0.7957747E-01  0.3465211E+00
         13   -1    0    0    0    0  0.00000000000E+00  0.00000000000E+00  0.14999999963E+04  0.15000000000E+04  0.10566000000E+00 0.  1.
        994   -1    0    0    0    0 -0.00000000000E+00 -0.00000000000E+00  0.11368683772E-12  0.17120000000E+03  0.17120000000E+03 0.  0.
         13    1    1    2    0    0 -0.23022948654E+01  0.31516345825E+02  0.82392729003E+02  0.88244850118E+02  0.10566000000E+00 0.  1.
        994    1    1    2    0    0 -0.32617321003E+00 -0.26272400958E+02  0.80932379770E+01  0.17339344262E+03  0.17120000000E+03 0.  0.
        998    1    1    2    0    0  0.26284680755E+01 -0.52439448672E+01  0.14095140293E+04  0.14095617073E+04  0.10000000000E+02 0.  1.
</event>
<event>
 5    1  0.1677007E-008  0.3846820E+03  0.7957747E-01  0.3431022E+00
         13   -1    0    0    0    0  0.00000000000E+00  0.00000000000E+00  0.14999999963E+04  0.15000000000E+04  0.10566000000E+00 0. -1.
        994   -1    0    0    0    0 -0.00000000000E+00 -0.00000000000E+00  0.11368683772E-12  0.17120000000E+03  0.17120000000E+03 0.  0.
         13    1    1    2    0    0 -0.13112401713E+02 -0.15351065509E+01  0.47354683790E+02  0.49160643524E+02  0.10566000000E+00 0. -1.
        994    1    1    2    0    0  0.13182574549E+02  0.37171187005E+01  0.24059422435E+01  0.17176386640E+03  0.17120000000E+03 0.  0.
        998    1    1    2    0    0 -0.70172836442E-01 -0.21820121496E+01  0.14502393702E+04  0.14502754901E+04  0.10000000000E+02 0.  0.
</event>
<event>
 5    1  0.1685290E-008  0.3860344E+03  0.7957747E-01  0.3425297E+00
         13   -1    0    0    0    0  0.00000000000E+00  0.00000000000E+00  0.14999999963E+04  0.15000000000E+04  0.10566000000E+00 0. -1.
        994   -1    0    0    0    0 -0.00000000000E+00 -0.00000000000E+00  0.11368683772E-12  0.17120000000E+03  0.17120000000E+03 0.  0.
         13    1    1    2    0    0 -0.10617209436E+02 -0.53748375166E+01  0.67806112794E+02  0.68842531264E+02  0.10566000000E+00 0. -1.
        994    1    1    2    0    0 -0.74329878054E+01  0.17939145766E+02  0.23543020555E+01  0.17231379805E+03  0.17120000000E+03 0.  0.
        998    1    1    2    0    0  0.18050197242E+02 -0.12564308249E+02  0.14298395814E+04  0.14300436707E+04  0.10000000000E+02 0. -1.
</event>
<event>
 5    1  0.1607440E-008  0.3771915E+03  0.7957747E-01  0.3463479E+00
         13   -1    0    0    0    0  0.00000000000E+00  0.00000000000E+00  0.14999999963E+04  0.15000000000E+04  0.10566000000E+00 0. -1.
        994   -1    0    0    0    0 -0.00000000000E+00 -0.00000000000E+00  0.11368683772E-12  0.17120000000E+03  0.17120000000E+03 0.  0.
         13    1    1    2    0    0 -0.51736730332E+01  0.12247001543E+02  0.13374970417E+02  0.18858868925E+02  0.10566000000E+00 0. -1.
        994    1    1    2    0    0  0.65623283936E+01 -0.10368092656E+02  0.60658208164E+01  0.17174631199E+03  0.17120000000E+03 0.  0.
        998    1    1    2    0    0 -0.13886553604E+01 -0.18789088868E+01  0.14805592050E+04  0.14805948191E+04  0.10000000000E+02 0. -1.
</event>
<event>
 5    1  0.1607440E-008  0.3840366E+03  0.7957747E-01  0.3433768E+00
         13   -1    0    0    0    0  0.00000000000E+00  0.00000000000E+00  0.14999999963E+04  0.15000000000E+04  0.10566000000E+00 0.  1.
        994   -1    0    0    0    0 -0.00000000000E+00 -0.00000000000E+00  0.11368683772E-12  0.17120000000E+03  0.17120000000E+03 0.  0.
         13    1    1    2    0    0 -0.36806047405E+01  0.10626643386E+02  0.29721400476E+02  0.31778061791E+02  0.10566000000E+00 0.  1.
        994    1    1    2    0    0  0.16219785035E+01 -0.46367615822E+01  0.21888231894E+01  0.17128444564E+03  0.17120000000E+03 0.  0.
        998    1    1    2    0    0  0.20586262370E+01 -0.59898818042E+01  0.14680897726E+04  0.14681374926E+04  0.10000000000E+02 0.  1.
</event>
<event>
 5    1  0.1607440E-008  0.3830365E+03  0.7957747E-01  0.3438043E+00
         13   -1    0    0    0    0  0.00000000000E+00  0.00000000000E+00  0.14999999963E+04  0.15000000000E+04  0.10566000000E+00 0. -1.
        994   -1    0    0    0    0 -0.00000000000E+00 -0.00000000000E+00  0.11368683772E-12  0.17120000000E+03  0.17120000000E+03 0.  0.
         13    1    1    2    0    0 -0.16909080923E+02  0.83800789492E+01  0.69225786825E+02  0.71752097296E+02  0.10566000000E+00 0. -1.
        994    1    1    2    0    0  0.64807345186E+01 -0.36855452081E+01  0.27921164576E+01  0.17138500249E+03  0.17120000000E+03 0.  0.
        998    1    1    2    0    0  0.10428346405E+02 -0.46945337411E+01  0.14279820930E+04  0.14280629002E+04  0.10000000000E+02 0. -1.
</event>
<event>
 5    1  0.1607440E-008  0.2715997E+03  0.7957747E-01  0.4122256E+00
         13   -1    0    0    0    0  0.00000000000E+00  0.00000000000E+00  0.14999999963E+04  0.15000000000E+04  0.10566000000E+00 0. -1.
        994   -1    0    0    0    0 -0.00000000000E+00 -0.00000000000E+00  0.11368683772E-12  0.17120000000E+03  0.17120000000E+03 0.  0.
         13    1    1    2    0    0 -0.27251396112E+03 -0.60864356113E+01  0.57789725954E+03  0.63895708576E+03  0.10566000000E+00 0. -1.
        994    1    1    2    0    0  0.11352769832E+03  0.29814071734E+02  0.18596727647E+03  0.27869460898E+03  0.17120000000E+03 0.  0.
        998    1    1    2    0    0  0.15898626280E+03 -0.23727636123E+02  0.73613546028E+03  0.75354830525E+03  0.10000000000E+02 0. -1.
</event>
<event>
 5    1  0.1607440E-008  0.4073220E+03  0.7957747E-01  0.3340189E+00
         13   -1    0    0    0    0  0.00000000000E+00  0.00000000000E+00  0.14999999963E+04  0.15000000000E+04  0.10566000000E+00 0. -1.
        994   -1    0    0    0    0 -0.00000000000E+00 -0.00000000000E+00  0.11368683772E-12  0.17120000000E+03  0.17120000000E+03 0.  0.
         13    1    1    2    0    0  0.58292168016E+02 -0.13390736545E+02  0.44523451830E+02  0.74562977436E+02  0.10566000000E+00 0. -1.
        994    1    1    2    0    0 -0.46972368184E+02  0.41392381412E+01  0.41254992313E+02  0.18230455577E+03  0.17120000000E+03 0.  0.
        998    1    1    2    0    0 -0.11319799833E+02  0.92514984035E+01  0.14142215521E+04  0.14143324668E+04  0.10000000000E+02 0. -1.
</event>
<event>
 5    1  0.1607440E-008  0.3857599E+03  0.7957747E-01  0.3426456E+00
         13   -1    0    0    0    0  0.00000000000E+00  0.00000000000E+00  0.14999999963E+04  0.15000000000E+04  0.10566000000E+00 0. -1.
        994   -1    0    0    0    0 -0.00000000000E+00 -0.00000000000E+00  0.11368683772E-12  0.17120000000E+03  0.17120000000E+03 0.  0.
         13    1    1    2    0    0  0.95571029310E+00  0.12327696281E+02  0.57568227982E+02  0.58881215297E+02  0.10566000000E+00 0. -1.
        994    1    1    2    0    0 -0.10017470436E+02 -0.17503891587E+02  0.25887687853E+01  0.17240324144E+03  0.17120000000E+03 0.  0.
        998    1    1    2    0    0  0.90617601430E+01  0.51761953059E+01  0.14398429995E+04  0.14399155433E+04  0.10000000000E+02 0. -1.
</event>
<event>
 5    1  0.1607440E-008  0.3845800E+03  0.7957747E-01  0.3431455E+00
         13   -1    0    0    0    0  0.00000000000E+00  0.00000000000E+00  0.14999999963E+04  0.15000000000E+04  0.10566000000E+00 0.  1.
        994   -1    0    0    0    0 -0.00000000000E+00 -0.00000000000E+00  0.11368683772E-12  0.17120000000E+03  0.17120000000E+03 0.  0.
         13    1    1    2    0    0 -0.92354170058E+01 -0.94242416928E+01  0.47148812684E+02  0.48960504085E+02  0.10566000000E+00 0.  1.
        994    1    1    2    0    0  0.18735114737E+01  0.10171315058E+02  0.21911375489E+01  0.17152611107E+03  0.17120000000E+03 0.  0.
        998    1    1    2    0    0  0.73619055322E+01 -0.74707336551E+00  0.14506600460E+04  0.14507133848E+04  0.10000000000E+02 0.  1.
</event>
<event>
 5    1  0.2609195E-008  0.3857823E+03  0.7957747E-01  0.3426361E+00
         13   -1    0    0    0    0  0.00000000000E+00  0.00000000000E+00  0.14999999963E+04  0.15000000000E+04  0.10566000000E+00 0.  1.
        994   -1    0    0    0    0 -0.00000000000E+00 -0.00000000000E+00  0.11368683772E-12  0.17120000000E+03  0.17120000000E+03 0.  0.
         13    1    1    2    0    0  0.19931455506E+01 -0.10397590792E+02  0.45142630907E+02  0.46367562074E+02  0.10566000000E+00 0.  1.
        994    1    1    2    0    0 -0.43760577522E+00  0.84036373035E+01  0.14745599829E+01  0.17141303027E+03  0.17120000000E+03 0.  0.
        998    1    1    2    0    0 -0.15555397754E+01  0.19939534889E+01  0.14533828054E+04  0.14534194077E+04  0.10000000000E+02 0.  1.
</event>
<event>
 5    1  0.1607440E-008  0.3785262E+03  0.7957747E-01  0.3457601E+00
         13   -1    0    0    0    0  0.00000000000E+00  0.00000000000E+00  0.14999999963E+04  0.15000000000E+04  0.10566000000E+00 0.  1.
        994   -1    0    0    0    0 -0.00000000000E+00 -0.00000000000E+00  0.11368683772E-12  0.17120000000E+03  0.17120000000E+03 0.  0.
         13    1    1    2    0    0 -0.21368221178E+02  0.67521119594E+01  0.47793105673E+02  0.52786210378E+02  0.10566000000E+00 0.  1.
        994    1    1    2    0    0  0.24508211307E+02 -0.65220028198E+01  0.70426396630E+01  0.17321151150E+03  0.17120000000E+03 0.  0.
        998    1    1    2    0    0 -0.31399901287E+01 -0.23010913963E+00  0.14451642509E+04  0.14452022781E+04  0.10000000000E+02 0.  1.
</event>
<event>
 5    1  0.1607440E-008  0.3773149E+03  0.7957747E-01  0.3462934E+00
         13   -1    0    0    0    0  0.00000000000E+00  0.00000000000E+00  0.14999999963E+04  0.15000000000E+04  0.10566000000E+00 0. -1.
        994   -1    0    0    0    0 -0.00000000000E+00 -0.00000000000E+00  0.11368683772E-12  0.17120000000E+03  0.17120000000E+03 0.  0.
         13    1    1    2    0    0  0.19542856571E+02  0.25406366788E+02  0.28241507582E+02  0.42720026111E+02  0.10566000000E+00 0. -1.
        994    1    1    2    0    0 -0.11144056005E+02 -0.27386487560E+02  0.18003242840E+02  0.17466472580E+03  0.17120000000E+03 0.  0.
        998    1    1    2    0    0 -0.83988005664E+01  0.19801207724E+01  0.14537552459E+04  0.14538152481E+04  0.10000000000E+02 0. -1.
</event>
<event>
 5    1  0.1607440E-008  0.3851487E+03  0.7957747E-01  0.3429042E+00
         13   -1    0    0    0    0  0.00000000000E+00  0.00000000000E+00  0.14999999963E+04  0.15000000000E+04  0.10566000000E+00 0. -1.
        994   -1    0    0    0    0 -0.00000000000E+00 -0.00000000000E+00  0.11368683772E-12  0.17120000000E+03  0.17120000000E+03 0.  0.
         13    1    1    2    0    0 -0.11917532244E+02  0.11632940936E+02  0.88693229692E+02  0.90243299179E+02  0.10566000000E+00 0. -1.
        994    1    1    2    0    0  0.87028766271E+01 -0.76957521409E+01  0.20000853187E+01  0.17160537580E+03  0.17120000000E+03 0.  0.
        998    1    1    2    0    0  0.32146556166E+01 -0.39371887955E+01  0.14093066813E+04  0.14093513250E+04  0.10000000000E+02 0. -1.
</event>
<event>
 5    1  0.1607440E-008  0.3858459E+03  0.7957747E-01  0.3426092E+00
         13   -1    0    0    0    0  0.00000000000E+00  0.00000000000E+00  0.14999999963E+04  0.15000000000E+04  0.10566000000E+00 0. -1.
        994   -1    0    0    0    0 -0.00000000000E+00 -0.00000000000E+00  0.11368683772E-12  0.17120000000E+03  0.17120000000E+03 0.  0.
         13    1    1    2    0    0  0.40454142383E+01 -0.96320637365E+01  0.46762969483E+02  0.47915848183E+02  0.10566000000E+00 0. -1.
        994    1    1    2    0    0  0.22490980008E+01  0.37484318598E+01  0.12734092819E+01  0.17126053473E+03  0.17120000000E+03 0.  0.
        998    1    1    2    0    0 -0.62945122390E+01  0.58836318767E+01  0.14519636175E+04  0.14520236171E+04  0.10000000000E+02 0. -1.
</event>
<event>
 5    1  0.1607440E-008  0.3797660E+03  0.7957747E-01  0.3452178E+00
         13   -1    0    0    0    0  0.00000000000E+00  0.00000000000E+00  0.14999999963E+04  0.15000000000E+04  0.10566000000E+00 0. -1.
        994   -1    0    0    0    0 -0.00000000000E+00 -0.00000000000E+00  0.11368683772E-12  0.17120000000E+03  0.17120000000E+03 0.  0.
         13    1    1    2    0    0  0.61451186099E+02 -0.11394340514E+02  0.30759520610E+03  0.31388039322E+03  0.10566000000E+00 0. -1.
        994    1    1    2    0    0 -0.83576765513E+02 -0.35690914413E+01  0.28029647622E+02  0.19259521098E+03  0.17120000000E+03 0.  0.
        998    1    1    2    0    0  0.22125579414E+02  0.14963431955E+02  0.11643751426E+04  0.11647243958E+04  0.10000000000E+02 0. -1.
</event>
<event>
 5    1  0.1607440E-008  0.3813942E+03  0.7957747E-01  0.3445110E+00
         13   -1    0    0    0    0  0.00000000000E+00  0.00000000000E+00  0.14999999963E+04  0.15000000000E+04  0.10566000000E+00 0.  1.
        994   -1    0    0    0    0 -0.00000000000E+00 -0.00000000000E+00  0.11368683772E-12  0.17120000000E+03  0.17120000000E+03 0.  0.
         13    1    1    2    0    0 -0.31227802877E+02 -0.17845985782E+02  0.31910971060E+02  0.48083012791E+02  0.10566000000E+00 0.  1.
        994    1    1    2    0    0  0.13875798203E+02  0.83095415124E+01  0.18048532181E+02  0.17290684130E+03  0.17120000000E+03 0.  0.
        998    1    1    2    0    0  0.17352004674E+02  0.95364442698E+01  0.14500404930E+04  0.14502101459E+04  0.10000000000E+02 0.  1.
</event>
<event>
 5    1  0.1607440E-008  0.3726022E+03  0.7957747E-01  0.3484016E+00
         13   -1    0    0    0    0  0.00000000000E+00  0.00000000000E+00  0.14999999963E+04  0.15000000000E+04  0.10566000000E+00 0.  1.
        994   -1    0    0    0    0 -0.00000000000E+00 -0.00000000000E+00  0.11368683772E-12  0.17120000000E+03  0.17120000000E+03 0.  0.
         13    1    1    2    0    0 -0.12640291536E+03  0.46489899053E+02  0.78530453802E+03  0.79676987664E+03  0.10566000000E+00 0.  1.
        994    1    1    2    0    0  0.10832927903E+03 -0.23708001846E+02  0.51309331078E+02  0.21033161793E+03  0.17120000000E+03 0.  0.
        998    1    1    2    0    0  0.18073636332E+02 -0.22781897207E+02  0.66338612719E+03  0.66409850543E+03  0.10000000000E+02 0. -1.
</event>
<event>
 5    1  0.1607440E-008  0.3783154E+03  0.7957747E-01  0.3458527E+00
         13   -1    0    0    0    0  0.00000000000E+00  0.00000000000E+00  0.14999999963E+04  0.15000000000E+04  0.10566000000E+00 0. -1.
        994   -1    0    0    0    0 -0.00000000000E+00 -0.00000000000E+00  0.11368683772E-12  0.17120000000E+03  0.17120000000E+03 0.  0.
         13    1    1    2    0    0  0.57484655706E+02 -0.15271313591E+02  0.30285009935E+03  0.30863553344E+03  0.10566000000E+00 0. -1.
        994    1    1    2    0    0 -0.50212029242E+02  0.13629912026E+02  0.14140507778E+02  0.17948932097E+03  0.17120000000E+03 0.  0.
        998    1    1    2    0    0 -0.72726264631E+01  0.16414015650E+01  0.11830093891E+04  0.11830751456E+04  0.10000000000E+02 0. -1.
</event>
<event>
 5    1  0.1607440E-008  0.3820470E+03  0.7957747E-01  0.3442293E+00
         13   -1    0    0    0    0  0.00000000000E+00  0.00000000000E+00  0.14999999963E+04  0.15000000000E+04  0.10566000000E+00 0.  1.
        994   -1    0    0    0    0 -0.00000000000E+00 -0.00000000000E+00  0.11368683772E-12  0.17120000000E+03  0.17120000000E+03 0.  0.
         13    1    1    2    0    0  0.50343055273E+02 -0.16030700892E+03  0.97861329341E+03  0.99293340639E+03  0.10566000000E+00 0.  1.
        994    1    1    2    0    0 -0.31931972290E+02  0.17954074146E+03  0.12276394343E+03  0.27863049816E+03  0.17120000000E+03 0.  0.
        998    1    1    2    0    0 -0.18411082983E+02 -0.19233732542E+02  0.39862275944E+03  0.39963609545E+03  0.10000000000E+02 0.  1.
</event>
<event>
 5    1  0.1607440E-008  0.3831472E+03  0.7957747E-01  0.3437568E+00
         13   -1    0    0    0    0  0.00000000000E+00  0.00000000000E+00  0.14999999963E+04  0.15000000000E+04  0.10566000000E+00 0. -1.
        994   -1    0    0    0    0 -0.00000000000E+00 -0.00000000000E+00  0.11368683772E-12  0.17120000000E+03  0.17120000000E+03 0.  0.
         13    1    1    2    0    0 -0.10679854900E+02 -0.16708071522E+02  0.75624707983E+02  0.78181369751E+02  0.10566000000E+00 0. -1.
        994    1    1    2    0    0  0.13147591826E+02  0.85692935878E+01  0.33680883588E+01  0.17195079524E+03  0.17120000000E+03 0.  0.
        998    1    1    2    0    0 -0.24677369260E+01  0.81387779343E+01  0.14210071999E+04  0.14210678350E+04  0.10000000000E+02 0. -1.
</event>
<event>
 5    1  0.1607440E-008  0.3853185E+03  0.7957747E-01  0.3428322E+00
         13   -1    0    0    0    0  0.00000000000E+00  0.00000000000E+00  0.14999999963E+04  0.15000000000E+04  0.10566000000E+00 0.  1.
        994   -1    0    0    0    0 -0.00000000000E+00 -0.00000000000E+00  0.11368683772E-12  0.17120000000E+03  0.17120000000E+03 0.  0.
         13    1    1    2    0    0 -0.59890897994E+00  0.13353463495E+02  0.58072131041E+02  0.59590747998E+02  0.10566000000E+00 0.  1.
        994    1    1    2    0    0 -0.84380246657E+01 -0.16920042090E+02  0.26473863694E+01  0.17226124561E+03  0.17120000000E+03 0.  0.
        998    1    1    2    0    0  0.90369336456E+01  0.35665785947E+01  0.14392804789E+04  0.14393480064E+04  0.10000000000E+02 0.  1.
</event>
<event>
 5    1  0.1607440E-008  0.3836643E+03  0.7957747E-01  0.3435357E+00
         13   -1    0    0    0    0  0.00000000000E+00  0.00000000000E+00  0.14999999963E+04  0.15000000000E+04  0.10566000000E+00 0. -1.
        994   -1    0    0    0    0 -0.00000000000E+00 -0.00000000000E+00  0.11368683772E-12  0.17120000000E+03  0.17120000000E+03 0.  0.
         13    1    1    2    0    0  0.56024622723E+01 -0.13943226957E+02  0.55425532308E+02  0.57426491771E+02  0.10566000000E+00 0. -1.
        994    1    1    2    0    0  0.53193683829E+00 -0.16651416670E+02  0.32120419962E+01  0.17203868707E+03  0.17120000000E+03 0.  0.
        998    1    1    2    0    0 -0.61343991106E+01  0.30594643626E+02  0.14413624220E+04  0.14417348212E+04  0.10000000000E+02 0. -1.
</event>
<event>
 5    1  0.1607440E-008  0.3818593E+03  0.7957747E-01  0.3443102E+00
         13   -1    0    0    0    0  0.00000000000E+00  0.00000000000E+00  0.14999999963E+04  0.15000000000E+04  0.10566000000E+00 0. -1.
        994   -1    0    0    0    0 -0.00000000000E+00 -0.00000000000E+00  0.11368683772E-12  0.17120000000E+03  0.17120000000E+03 0.  0.
         13    1    1    2    0    0  0.56546969955E+01  0.21698401850E+02  0.80608374278E+02  0.83669094705E+02  0.10566000000E+00 0. -1.
        994    1    1    2    0    0 -0.49814226149E+01 -0.56604639758E+01  0.33864324088E+01  0.17139942634E+03  0.17120000000E+03 0.  0.
        998    1    1    2    0    0 -0.67327438059E+00 -0.16037937874E+02  0.14160051896E+04  0.14161314790E+04  0.10000000000E+02 0. -1.
</event>
<event>
 5    1  0.1607440E-008  0.3703248E+03  0.7957747E-01  0.3494399E+00
         13   -1    0    0    0    0  0.00000000000E+00  0.00000000000E+00  0.14999999963E+04  0.15000000000E+04  0.10566000000E+00 0. -1.
        994   -1    0    0    0    0 -0.00000000000E+00 -0.00000000000E+00  0.11368683772E-12  0.17120000000E+03  0.17120000000E+03 0.  0.
         13    1    1    2    0    0 -0.31335580630E+02  0.48506596557E+02  0.17044361229E+03  0.17996067530E+03  0.10566000000E+00 0. -1.
        994    1    1    2    0    0  0.28632442075E+02 -0.36211894569E+02  0.16496010578E+02  0.17808053350E+03  0.17120000000E+03 0.  0.
        998    1    1    2    0    0  0.27031385554E+01 -0.12294701988E+02  0.13130603734E+04  0.13131587912E+04  0.10000000000E+02 0.  0.
</event>
<event>
 5    1  0.1607440E-008  0.3784007E+03  0.7957747E-01  0.3458152E+00
         13   -1    0    0    0    0  0.00000000000E+00  0.00000000000E+00  0.14999999963E+04  0.15000000000E+04  0.10566000000E+00 0. -1.
        994   -1    0    0    0    0 -0.00000000000E+00 -0.00000000000E+00  0.11368683772E-12  0.17120000000E+03  0.17120000000E+03 0.  0.
         13    1    1    2    0    0  0.22446766973E+02  0.51272300942E+02  0.32854101118E+03  0.33327453156E+03  0.10566000000E+00 0. -1.
        994    1    1    2    0    0 -0.27408813574E+02 -0.18502585759E+02  0.86266417472E+01  0.17457791295E+03  0.17120000000E+03 0.  0.
        998    1    1    2    0    0  0.49620466010E+01 -0.32769715183E+02  0.11628323433E+04  0.11633475555E+04  0.10000000000E+02 0. -1.
</event>
<event>
 5    1  0.1607440E-008  0.3822351E+03  0.7957747E-01  0.3441484E+00
         13   -1    0    0    0    0  0.00000000000E+00  0.00000000000E+00  0.14999999963E+04  0.15000000000E+04  0.10566000000E+00 0.  1.
        994   -1    0    0    0    0 -0.00000000000E+00 -0.00000000000E+00  0.11368683772E-12  0.17120000000E+03  0.17120000000E+03 0.  0.
         13    1    1    2    0    0 -0.25647680016E+02  0.17405556377E+02  0.15356976693E+03  0.15666665683E+03  0.10566000000E+00 0.  1.
        994    1    1    2    0    0  0.20519581535E+02 -0.10355812907E+02  0.47641908695E+01  0.17280171759E+03  0.17120000000E+03 0.  0.
        998    1    1    2    0    0  0.51280984808E+01 -0.70497434706E+01  0.13416660385E+04  0.13417316256E+04  0.10000000000E+02 0.  1.
</event>
<event>
 5    1  0.1607440E-008  0.3797859E+03  0.7957747E-01  0.3452091E+00
         13   -1    0    0    0    0  0.00000000000E+00  0.00000000000E+00  0.14999999963E+04  0.15000000000E+04  0.10566000000E+00 0.  1.
        994   -1    0    0    0    0 -0.00000000000E+00 -0.00000000000E+00  0.11368683772E-12  0.17120000000E+03  0.17120000000E+03 0.  0.
         13    1    1    2    0    0  0.26535567114E+01  0.16166064877E+02  0.29265433368E+02  0.33538929187E+02  0.10566000000E+00 0.  1.
        994    1    1    2    0    0 -0.22418353642E+01 -0.18652943832E+02  0.54228863233E+01  0.17231310407E+03  0.17120000000E+03 0.  0.
        998    1    1    2    0    0 -0.41172134727E+00  0.24868789552E+01  0.14653116766E+04  0.14653479667E+04  0.10000000000E+02 0.  1.
</event>
