<event>
 5    1  0.1364103E-008  0.3833996E+03  0.7957747E-01  0.3436488E+00
         13   -1    0    0    0    0  0.00000000000E+00  0.00000000000E+00  0.14999999963E+04  0.15000000000E+04  0.10566000000E+00 0. -1.
        994   -1    0    0    0    0 -0.00000000000E+00 -0.00000000000E+00  0.11368683772E-12  0.17120000000E+03  0.17120000000E+03 0.  0.
         13    1    1    2    0    0  0.49489593102E+00  0.22094450886E+02  0.95661227907E+02  0.98180911437E+02  0.10566000000E+00 0. -1.
        994    1    1    2    0    0  0.51158062990E+01 -0.20938101138E+02  0.39641165429E+01  0.17259701554E+03  0.17120000000E+03 0.  0.
        998    1    1    2    0    0 -0.56107022300E+01 -0.11563497480E+01  0.14003746518E+04  0.14004220730E+04  0.10000000000E+02 0. -1.
</event>
<event>
 5    1  0.1364103E-008  0.3718919E+03  0.7957747E-01  0.3487241E+00
         13   -1    0    0    0    0  0.00000000000E+00  0.00000000000E+00  0.14999999963E+04  0.15000000000E+04  0.10566000000E+00 0.  1.
        994   -1    0    0    0    0 -0.00000000000E+00 -0.00000000000E+00  0.11368683772E-12  0.17120000000E+03  0.17120000000E+03 0.  0.
         13    1    1    2    0    0 -0.64151998466E+02 -0.10280964706E+02  0.20054132395E+03  0.21080325168E+03  0.10566000000E+00 0.  1.
        994    1    1    2    0    0  0.82212784529E+02 -0.34093144413E+01  0.31913618278E+02  0.19260966849E+03  0.17120000000E+03 0.  0.
        998    1    1    2    0    0 -0.18060786062E+02  0.13690279147E+02  0.12675450540E+04  0.12677870798E+04  0.10000000000E+02 0.  1.
</event>
<event>
 5    1  0.1364103E-008  0.3847593E+03  0.7957747E-01  0.3430694E+00
         13   -1    0    0    0    0  0.00000000000E+00  0.00000000000E+00  0.14999999963E+04  0.15000000000E+04  0.10566000000E+00 0.  1.
        994   -1    0    0    0    0 -0.00000000000E+00 -0.00000000000E+00  0.11368683772E-12  0.17120000000E+03  0.17120000000E+03 0.  0.
         13    1    1    2    0    0 -0.11416666522E+02  0.13870116439E+02  0.94641768963E+02  0.96331697800E+02  0.10566000000E+00 0.  1.
        994    1    1    2    0    0  0.51328559984E+01 -0.59885990104E+01  0.19544850840E+01  0.17139273480E+03  0.17120000000E+03 0.  0.
        998    1    1    2    0    0  0.62838105239E+01 -0.78815174286E+01  0.14034037422E+04  0.14034755674E+04  0.10000000000E+02 0.  1.
</event>
<event>
 5    1  0.1364103E-008  0.3729666E+03  0.7957747E-01  0.3482367E+00
         13   -1    0    0    0    0  0.00000000000E+00  0.00000000000E+00  0.14999999963E+04  0.15000000000E+04  0.10566000000E+00 0. -1.
        994   -1    0    0    0    0 -0.00000000000E+00 -0.00000000000E+00  0.11368683772E-12  0.17120000000E+03  0.17120000000E+03 0.  0.
         13    1    1    2    0    0 -0.99259337591E+01 -0.27779923141E+02  0.50546994909E+02  0.58525705029E+02  0.10566000000E+00 0. -1.
        994    1    1    2    0    0  0.15008842036E+02  0.33884990481E+02  0.12442133601E+02  0.17560667586E+03  0.17120000000E+03 0.  0.
        998    1    1    2    0    0 -0.50829082773E+01 -0.61050673400E+01  0.14370108678E+04  0.14370676191E+04  0.10000000000E+02 0. -1.
</event>
<event>
 5    1  0.1364103E-008  0.3804332E+03  0.7957747E-01  0.3449274E+00
         13   -1    0    0    0    0  0.00000000000E+00  0.00000000000E+00  0.14999999963E+04  0.15000000000E+04  0.10566000000E+00 0.  1.
        994   -1    0    0    0    0 -0.00000000000E+00 -0.00000000000E+00  0.11368683772E-12  0.17120000000E+03  0.17120000000E+03 0.  0.
         13    1    1    2    0    0  0.28616472414E+02  0.74380654858E+01  0.10991027859E+03  0.11381787125E+03  0.10566000000E+00 0.  1.
        994    1    1    2    0    0 -0.20298176168E+02  0.40845053774E+01  0.53469895676E+01  0.17253037251E+03  0.17120000000E+03 0.  0.
        998    1    1    2    0    0 -0.83182962469E+01 -0.11522570863E+02  0.13847427281E+04  0.13848517562E+04  0.10000000000E+02 0.  1.
</event>
<event>
 5    1  0.1364103E-008  0.3706706E+03  0.7957747E-01  0.3492815E+00
         13   -1    0    0    0    0  0.00000000000E+00  0.00000000000E+00  0.14999999963E+04  0.15000000000E+04  0.10566000000E+00 0.  1.
        994   -1    0    0    0    0 -0.00000000000E+00 -0.00000000000E+00  0.11368683772E-12  0.17120000000E+03  0.17120000000E+03 0.  0.
         13    1    1    2    0    0  0.34774520781E+02  0.12859249376E+02  0.55206479329E+02  0.66501083555E+02  0.10566000000E+00 0.  1.
        994    1    1    2    0    0 -0.42398711740E+02  0.18383747921E+02  0.18815175512E+02  0.17832291994E+03  0.17120000000E+03 0.  0.
        998    1    1    2    0    0  0.76241909591E+01 -0.31242997297E+02  0.14259783414E+04  0.14263759965E+04  0.10000000000E+02 0.  1.
</event>
<event>
 5    1  0.1364103E-008  0.3832487E+03  0.7957747E-01  0.3437134E+00
         13   -1    0    0    0    0  0.00000000000E+00  0.00000000000E+00  0.14999999963E+04  0.15000000000E+04  0.10566000000E+00 0. -1.
        994   -1    0    0    0    0 -0.00000000000E+00 -0.00000000000E+00  0.11368683772E-12  0.17120000000E+03  0.17120000000E+03 0.  0.
         13    1    1    2    0    0 -0.38369964942E+01  0.11488025713E+02  0.29286875009E+02  0.31692735583E+02  0.10566000000E+00 0. -1.
        994    1    1    2    0    0 -0.25707191778E+02 -0.95362544287E+01  0.49926319804E+01  0.17345364289E+03  0.17120000000E+03 0.  0.
        998    1    1    2    0    0  0.29544188272E+02 -0.19517712846E+01  0.14657204893E+04  0.14660536215E+04  0.10000000000E+02 0. -1.
</event>
<event>
 5    1  0.1364103E-008  0.3801820E+03  0.7957747E-01  0.3450366E+00
         13   -1    0    0    0    0  0.00000000000E+00  0.00000000000E+00  0.14999999963E+04  0.15000000000E+04  0.10566000000E+00 0. -1.
        994   -1    0    0    0    0 -0.00000000000E+00 -0.00000000000E+00  0.11368683772E-12  0.17120000000E+03  0.17120000000E+03 0.  0.
         13    1    1    2    0    0 -0.63800810288E+01 -0.85134967115E+01  0.12119834572E+02  0.16127201068E+02  0.10566000000E+00 0. -1.
        994    1    1    2    0    0  0.97132516310E+01  0.75017004820E+01  0.45446553559E+01  0.17169949522E+03  0.17120000000E+03 0.  0.
        998    1    1    2    0    0 -0.33331706022E+01  0.10117962296E+01  0.14833355064E+04  0.14833733037E+04  0.10000000000E+02 0. -1.
</event>
<event>
 5    1  0.1364103E-008  0.3785025E+03  0.7957747E-01  0.3457705E+00
         13   -1    0    0    0    0  0.00000000000E+00  0.00000000000E+00  0.14999999963E+04  0.15000000000E+04  0.10566000000E+00 0. -1.
        994   -1    0    0    0    0 -0.00000000000E+00 -0.00000000000E+00  0.11368683772E-12  0.17120000000E+03  0.17120000000E+03 0.  0.
         13    1    1    2    0    0  0.13028000853E+02  0.16732630902E+02  0.76339584961E+01  0.22538816062E+02  0.10566000000E+00 0. -1.
        994    1    1    2    0    0 -0.62690575566E+01 -0.19131730870E+02  0.16969090292E+02  0.17321291590E+03  0.17120000000E+03 0.  0.
        998    1    1    2    0    0 -0.67589432968E+01  0.23990999684E+01  0.14753969475E+04  0.14754482680E+04  0.10000000000E+02 0. -1.
</event>
<event>
 5    1  0.1364103E-008  0.3122219E+03  0.7957747E-01  0.3812453E+00
         13   -1    0    0    0    0  0.00000000000E+00  0.00000000000E+00  0.14999999963E+04  0.15000000000E+04  0.10566000000E+00 0.  1.
        994   -1    0    0    0    0 -0.00000000000E+00 -0.00000000000E+00  0.11368683772E-12  0.17120000000E+03  0.17120000000E+03 0.  0.
         13    1    1    2    0    0  0.41282245123E+02  0.19677655649E+03  0.75726760812E+03  0.78350461289E+03  0.10566000000E+00 0.  1.
        994    1    1    2    0    0 -0.13400332984E+03 -0.16398397639E+03  0.20474690741E+03  0.34070276343E+03  0.17120000000E+03 0.  0.
        998    1    1    2    0    0  0.92721084713E+02 -0.32792580100E+02  0.53798548075E+03  0.54699262367E+03  0.10000000000E+02 0.  1.
</event>
<event>
 5    1  0.1364103E-008  0.3695531E+03  0.7957747E-01  0.3497947E+00
         13   -1    0    0    0    0  0.00000000000E+00  0.00000000000E+00  0.14999999963E+04  0.15000000000E+04  0.10566000000E+00 0. -1.
        994   -1    0    0    0    0 -0.00000000000E+00 -0.00000000000E+00  0.11368683772E-12  0.17120000000E+03  0.17120000000E+03 0.  0.
         13    1    1    2    0    0  0.17455443498E+02 -0.26622367009E+02  0.43564255802E+02  0.53956449851E+02  0.10566000000E+00 0. -1.
        994    1    1    2    0    0 -0.16824482006E+02  0.10910481959E+02  0.12107459819E+02  0.17279505894E+03  0.17120000000E+03 0.  0.
        998    1    1    2    0    0 -0.63096149269E+00  0.15711885051E+02  0.14443282807E+04  0.14444484912E+04  0.10000000000E+02 0. -1.
</event>
<event>
 5    1  0.1364103E-008  0.3855479E+03  0.7957747E-01  0.3427352E+00
         13   -1    0    0    0    0  0.00000000000E+00  0.00000000000E+00  0.14999999963E+04  0.15000000000E+04  0.10566000000E+00 0. -1.
        994   -1    0    0    0    0 -0.00000000000E+00 -0.00000000000E+00  0.11368683772E-12  0.17120000000E+03  0.17120000000E+03 0.  0.
         13    1    1    2    0    0  0.67126013728E+01 -0.82504200025E+01  0.43126508824E+02  0.44418862826E+02  0.10566000000E+00 0. -1.
        994    1    1    2    0    0  0.12420813808E+01  0.32492222695E+01  0.13980748678E+01  0.17124104305E+03  0.17120000000E+03 0.  0.
        998    1    1    2    0    0 -0.79546827537E+01  0.50011977330E+01  0.14554754126E+04  0.14555400941E+04  0.10000000000E+02 0. -1.
</event>
<event>
 5    1  0.1364103E-008  0.3832947E+03  0.7957747E-01  0.3436937E+00
         13   -1    0    0    0    0  0.00000000000E+00  0.00000000000E+00  0.14999999963E+04  0.15000000000E+04  0.10566000000E+00 0.  1.
        994   -1    0    0    0    0 -0.00000000000E+00 -0.00000000000E+00  0.11368683772E-12  0.17120000000E+03  0.17120000000E+03 0.  0.
         13    1    1    2    0    0 -0.10569380876E+02  0.10693820378E+02  0.44728557640E+02  0.47188183255E+02  0.10566000000E+00 0.  1.
        994    1    1    2    0    0  0.10125708499E+02 -0.51182715101E+01  0.29049499448E+01  0.17160013231E+03  0.17120000000E+03 0.  0.
        998    1    1    2    0    0  0.44367237667E+00 -0.55755488676E+01  0.14523664887E+04  0.14524116844E+04  0.10000000000E+02 0.  1.
</event>
<event>
 5    1  0.1364103E-008  0.3816394E+03  0.7957747E-01  0.3444051E+00
         13   -1    0    0    0    0  0.00000000000E+00  0.00000000000E+00  0.14999999963E+04  0.15000000000E+04  0.10566000000E+00 0.  1.
        994   -1    0    0    0    0 -0.00000000000E+00 -0.00000000000E+00  0.11368683772E-12  0.17120000000E+03  0.17120000000E+03 0.  0.
         13    1    1    2    0    0  0.10419807511E+01  0.20777003736E+02  0.62878016134E+02  0.66230096520E+02  0.10566000000E+00 0.  1.
        994    1    1    2    0    0  0.24556849431E+02 -0.19858359554E+02  0.66311740469E+01  0.17421482649E+03  0.17120000000E+03 0.  0.
        998    1    1    2    0    0 -0.25598830182E+02 -0.91864418246E+00  0.14304908061E+04  0.14307550770E+04  0.10000000000E+02 0.  1.
</event>
<event>
 5    1  0.1364103E-008  0.3811318E+03  0.7957747E-01  0.3446245E+00
         13   -1    0    0    0    0  0.00000000000E+00  0.00000000000E+00  0.14999999963E+04  0.15000000000E+04  0.10566000000E+00 0. -1.
        994   -1    0    0    0    0 -0.00000000000E+00 -0.00000000000E+00  0.11368683772E-12  0.17120000000E+03  0.17120000000E+03 0.  0.
         13    1    1    2    0    0 -0.58792748105E+01  0.24613025177E+02  0.84777899816E+02  0.88474122443E+02  0.10566000000E+00 0. -1.
        994    1    1    2    0    0  0.70247137759E+01 -0.23573849871E+02  0.55806714834E+01  0.17304813462E+03  0.17120000000E+03 0.  0.
        998    1    1    2    0    0 -0.11454389654E+01 -0.10391753067E+01  0.14096414250E+04  0.14096777429E+04  0.10000000000E+02 0. -1.
</event>
<event>
 5    1  0.1364103E-008  0.3780230E+03  0.7957747E-01  0.3459812E+00
         13   -1    0    0    0    0  0.00000000000E+00  0.00000000000E+00  0.14999999963E+04  0.15000000000E+04  0.10566000000E+00 0.  1.
        994   -1    0    0    0    0 -0.00000000000E+00 -0.00000000000E+00  0.11368683772E-12  0.17120000000E+03  0.17120000000E+03 0.  0.
         13    1    1    2    0    0 -0.98496677652E+01  0.11482869154E+02  0.20037451558E+02  0.25107426552E+02  0.10566000000E+00 0.  1.
        994    1    1    2    0    0  0.46521391265E+01 -0.11817255696E+02  0.56773486428E+01  0.17176426351E+03  0.17120000000E+03 0.  0.
        998    1    1    2    0    0  0.51975286387E+01  0.33438654247E+00  0.14742851961E+04  0.14743283099E+04  0.10000000000E+02 0.  1.
</event>
<event>
 5    1  0.1364103E-008  0.3840026E+03  0.7957747E-01  0.3433913E+00
         13   -1    0    0    0    0  0.00000000000E+00  0.00000000000E+00  0.14999999963E+04  0.15000000000E+04  0.10566000000E+00 0. -1.
        994   -1    0    0    0    0 -0.00000000000E+00 -0.00000000000E+00  0.11368683772E-12  0.17120000000E+03  0.17120000000E+03 0.  0.
         13    1    1    2    0    0 -0.21435158447E+02 -0.11547732073E+02  0.14507929257E+03  0.14710822013E+03  0.10566000000E+00 0. -1.
        994    1    1    2    0    0 -0.10517262332E+01  0.24321153220E+02  0.40838162831E+01  0.17297035057E+03  0.17120000000E+03 0.  0.
        998    1    1    2    0    0  0.22486884680E+02 -0.12773421147E+02  0.13508368874E+04  0.13511214293E+04  0.10000000000E+02 0. -1.
</event>
<event>
 5    1  0.1364103E-008  0.3800332E+03  0.7957747E-01  0.3451014E+00
         13   -1    0    0    0    0  0.00000000000E+00  0.00000000000E+00  0.14999999963E+04  0.15000000000E+04  0.10566000000E+00 0. -1.
        994   -1    0    0    0    0 -0.00000000000E+00 -0.00000000000E+00  0.11368683772E-12  0.17120000000E+03  0.17120000000E+03 0.  0.
         13    1    1    2    0    0 -0.40230880026E+02  0.98701343394E+01  0.18236159571E+03  0.18700723519E+03  0.10566000000E+00 0. -1.
        994    1    1    2    0    0  0.38336086648E+02 -0.22484053607E+02  0.10746942115E+02  0.17720080409E+03  0.17120000000E+03 0.  0.
        998    1    1    2    0    0  0.18947933777E+01  0.12613919267E+02  0.13068914585E+04  0.13069919607E+04  0.10000000000E+02 0.  0.
</event>
<event>
 5    1  0.1364103E-008  0.3862471E+03  0.7957747E-01  0.3424400E+00
         13   -1    0    0    0    0  0.00000000000E+00  0.00000000000E+00  0.14999999963E+04  0.15000000000E+04  0.10566000000E+00 0. -1.
        994   -1    0    0    0    0 -0.00000000000E+00 -0.00000000000E+00  0.11368683772E-12  0.17120000000E+03  0.17120000000E+03 0.  0.
         13    1    1    2    0    0  0.23185463156E+01  0.11265427123E+02  0.61397404727E+02  0.62465494287E+02  0.10566000000E+00 0. -1.
        994    1    1    2    0    0  0.23184396823E+01 -0.18854562470E+02  0.21951304642E+01  0.17226470412E+03  0.17120000000E+03 0.  0.
        998    1    1    2    0    0 -0.46369859979E+01  0.75891353470E+01  0.14364074611E+04  0.14364698016E+04  0.10000000000E+02 0. -1.
</event>
<event>
 5    1  0.1364103E-008  0.3804041E+03  0.7957747E-01  0.3449401E+00
         13   -1    0    0    0    0  0.00000000000E+00  0.00000000000E+00  0.14999999963E+04  0.15000000000E+04  0.10566000000E+00 0.  1.
        994   -1    0    0    0    0 -0.00000000000E+00 -0.00000000000E+00  0.11368683772E-12  0.17120000000E+03  0.17120000000E+03 0.  0.
         13    1    1    2    0    0  0.11570022246E+01 -0.26824802679E+02  0.92805126271E+02  0.96611134551E+02  0.10566000000E+00 0.  1.
        994    1    1    2    0    0  0.14499839848E+02  0.12105834567E+02  0.51213470508E+01  0.17231501612E+03  0.17120000000E+03 0.  0.
        998    1    1    2    0    0 -0.15656842072E+02  0.14718968112E+02  0.14020735230E+04  0.14022738493E+04  0.10000000000E+02 0.  1.
</event>
<event>
 5    1  0.1364103E-008  0.3738486E+03  0.7957747E-01  0.3478388E+00
         13   -1    0    0    0    0  0.00000000000E+00  0.00000000000E+00  0.14999999963E+04  0.15000000000E+04  0.10566000000E+00 0.  1.
        994   -1    0    0    0    0 -0.00000000000E+00 -0.00000000000E+00  0.11368683772E-12  0.17120000000E+03  0.17120000000E+03 0.  0.
         13    1    1    2    0    0 -0.44844682280E+02  0.75233178999E+02  0.50769134953E+03  0.51519083290E+03  0.10566000000E+00 0.  1.
        994    1    1    2    0    0  0.22740615684E+02 -0.49167505007E+02  0.17352209119E+02  0.18040265605E+03  0.17120000000E+03 0.  0.
        998    1    1    2    0    0  0.22104066596E+02 -0.26065673992E+02  0.97495643763E+03  0.97560651105E+03  0.10000000000E+02 0.  1.
</event>
<event>
 5    1  0.1364103E-008  0.3782745E+03  0.7957747E-01  0.3458707E+00
         13   -1    0    0    0    0  0.00000000000E+00  0.00000000000E+00  0.14999999963E+04  0.15000000000E+04  0.10566000000E+00 0. -1.
        994   -1    0    0    0    0 -0.00000000000E+00 -0.00000000000E+00  0.11368683772E-12  0.17120000000E+03  0.17120000000E+03 0.  0.
         13    1    1    2    0    0  0.62263363214E+02  0.34865214359E+02  0.40669446077E+03  0.41290762303E+03  0.10566000000E+00 0. -1.
        994    1    1    2    0    0 -0.58433953978E+02 -0.24045971309E+02  0.18550192612E+02  0.18342923802E+03  0.17120000000E+03 0.  0.
        998    1    1    2    0    0 -0.38294092365E+01 -0.10819243050E+02  0.10747553429E+04  0.10748631389E+04  0.10000000000E+02 0. -1.
</event>
<event>
 5    1  0.1364103E-008  0.3796325E+03  0.7957747E-01  0.3452760E+00
         13   -1    0    0    0    0  0.00000000000E+00  0.00000000000E+00  0.14999999963E+04  0.15000000000E+04  0.10566000000E+00 0. -1.
        994   -1    0    0    0    0 -0.00000000000E+00 -0.00000000000E+00  0.11368683772E-12  0.17120000000E+03  0.17120000000E+03 0.  0.
         13    1    1    2    0    0  0.18622709104E+02 -0.81706540423E+01  0.45475993695E+02  0.49816082227E+02  0.10566000000E+00 0. -1.
        994    1    1    2    0    0 -0.17559326997E+02  0.49554050713E+01  0.54337389024E+01  0.17225519302E+03  0.17120000000E+03 0.  0.
        998    1    1    2    0    0 -0.10633821069E+01  0.32152489709E+01  0.14490902637E+04  0.14491287248E+04  0.10000000000E+02 0. -1.
</event>
<event>
 5    1  0.1364103E-008  0.3782373E+03  0.7957747E-01  0.3458870E+00
         13   -1    0    0    0    0  0.00000000000E+00  0.00000000000E+00  0.14999999963E+04  0.15000000000E+04  0.10566000000E+00 0. -1.
        994   -1    0    0    0    0 -0.00000000000E+00 -0.00000000000E+00  0.11368683772E-12  0.17120000000E+03  0.17120000000E+03 0.  0.
         13    1    1    2    0    0  0.46796582391E+01  0.48080508073E+02  0.27906038286E+03  0.28321077470E+03  0.10566000000E+00 0. -1.
        994    1    1    2    0    0  0.16228310398E+02 -0.71600191963E+01  0.60842201718E+01  0.17222392885E+03  0.17120000000E+03 0.  0.
        998    1    1    2    0    0 -0.20907968637E+02 -0.40920488877E+02  0.12148553932E+04  0.12157652965E+04  0.10000000000E+02 0. -1.
</event>
<event>
 5    1  0.1364103E-008  0.3784564E+03  0.7957747E-01  0.3457907E+00
         13   -1    0    0    0    0  0.00000000000E+00  0.00000000000E+00  0.14999999963E+04  0.15000000000E+04  0.10566000000E+00 0. -1.
        994   -1    0    0    0    0 -0.00000000000E+00 -0.00000000000E+00  0.11368683772E-12  0.17120000000E+03  0.17120000000E+03 0.  0.
         13    1    1    2    0    0 -0.75763370547E+02  0.46202559769E+02  0.39637891655E+03  0.40619086830E+03  0.10566000000E+00 0. -1.
        994    1    1    2    0    0  0.10351595703E+03 -0.72906986860E+02  0.60819271248E+02  0.22144842706E+03  0.17120000000E+03 0.  0.
        998    1    1    2    0    0 -0.27752586483E+02  0.26704427091E+02  0.10428018085E+04  0.10435607046E+04  0.10000000000E+02 0. -1.
</event>
<event>
 5    1  0.1364103E-008  0.3791039E+03  0.7957747E-01  0.3455070E+00
         13   -1    0    0    0    0  0.00000000000E+00  0.00000000000E+00  0.14999999963E+04  0.15000000000E+04  0.10566000000E+00 0.  1.
        994   -1    0    0    0    0 -0.00000000000E+00 -0.00000000000E+00  0.11368683772E-12  0.17120000000E+03  0.17120000000E+03 0.  0.
         13    1    1    2    0    0 -0.28729282411E+02  0.41862440670E+01  0.10339011665E+03  0.10738912278E+03  0.10566000000E+00 0.  1.
        994    1    1    2    0    0 -0.94685190629E+01 -0.33017336020E+01  0.49233898808E+01  0.17156408151E+03  0.17120000000E+03 0.  0.
        998    1    1    2    0    0  0.38197801473E+02 -0.88451046493E+00  0.13916864898E+04  0.13922467957E+04  0.10000000000E+02 0.  1.
</event>
<event>
 5    1  0.1364103E-008  0.3838149E+03  0.7957747E-01  0.3434714E+00
         13   -1    0    0    0    0  0.00000000000E+00  0.00000000000E+00  0.14999999963E+04  0.15000000000E+04  0.10566000000E+00 0.  1.
        994   -1    0    0    0    0 -0.00000000000E+00 -0.00000000000E+00  0.11368683772E-12  0.17120000000E+03  0.17120000000E+03 0.  0.
         13    1    1    2    0    0 -0.46994515963E+01 -0.14428409586E+02  0.55028971282E+02  0.57082945727E+02  0.10566000000E+00 0.  1.
        994    1    1    2    0    0  0.84627616772E+00 -0.39460804169E+01  0.22734283784E+01  0.17126265270E+03  0.17120000000E+03 0.  0.
        998    1    1    2    0    0  0.38531754285E+01  0.18374490003E+02  0.14426975966E+04  0.14428544016E+04  0.10000000000E+02 0.  1.
</event>
<event>
 5    1  0.1612410E-008  0.3857199E+03  0.7957747E-01  0.3426625E+00
         13   -1    0    0    0    0  0.00000000000E+00  0.00000000000E+00  0.14999999963E+04  0.15000000000E+04  0.10566000000E+00 0.  1.
        994   -1    0    0    0    0 -0.00000000000E+00 -0.00000000000E+00  0.11368683772E-12  0.17120000000E+03  0.17120000000E+03 0.  0.
         13    1    1    2    0    0  0.93327061302E+01  0.59666301631E+01  0.47079244546E+02  0.48364930583E+02  0.10566000000E+00 0.  1.
        994    1    1    2    0    0 -0.11480961359E+02 -0.52316425624E+01  0.17955774203E+01  0.17167366326E+03  0.17120000000E+03 0.  0.
        998    1    1    2    0    0  0.21482552292E+01 -0.73498760069E+00  0.14511251743E+04  0.14511614062E+04  0.10000000000E+02 0.  1.
</event>
<event>
 5    1  0.1364103E-008  0.3803877E+03  0.7957747E-01  0.3449472E+00
         13   -1    0    0    0    0  0.00000000000E+00  0.00000000000E+00  0.14999999963E+04  0.15000000000E+04  0.10566000000E+00 0. -1.
        994   -1    0    0    0    0 -0.00000000000E+00 -0.00000000000E+00  0.11368683772E-12  0.17120000000E+03  0.17120000000E+03 0.  0.
         13    1    1    2    0    0  0.93051775374E+01  0.98907906974E+01  0.21678556856E+02  0.25580951136E+02  0.10566000000E+00 0. -1.
        994    1    1    2    0    0 -0.21468563179E+02  0.45218672404E+01  0.55462449611E+01  0.17268916388E+03  0.17120000000E+03 0.  0.
        998    1    1    2    0    0  0.12163385641E+02 -0.14412657938E+02  0.14727751945E+04  0.14729298850E+04  0.10000000000E+02 0. -1.
</event>
<event>
 5    1  0.1364103E-008  0.3853339E+03  0.7957747E-01  0.3428257E+00
         13   -1    0    0    0    0  0.00000000000E+00  0.00000000000E+00  0.14999999963E+04  0.15000000000E+04  0.10566000000E+00 0.  1.
        994   -1    0    0    0    0 -0.00000000000E+00 -0.00000000000E+00  0.11368683772E-12  0.17120000000E+03  0.17120000000E+03 0.  0.
         13    1    1    2    0    0  0.51108184144E+01 -0.16463357191E+02  0.10373700396E+03  0.10515959181E+03  0.10566000000E+00 0.  1.
        994    1    1    2    0    0 -0.13235335221E+01  0.87834840982E+01  0.17236730716E+01  0.17143894652E+03  0.17120000000E+03 0.  0.
        998    1    1    2    0    0 -0.37872848923E+01  0.76798730924E+01  0.13945393192E+04  0.13946014617E+04  0.10000000000E+02 0.  1.
</event>
<event>
 5    1  0.1364103E-008  0.4027477E+03  0.7957747E-01  0.3357721E+00
         13   -1    0    0    0    0  0.00000000000E+00  0.00000000000E+00  0.14999999963E+04  0.15000000000E+04  0.10566000000E+00 0. -1.
        994   -1    0    0    0    0 -0.00000000000E+00 -0.00000000000E+00  0.11368683772E-12  0.17120000000E+03  0.17120000000E+03 0.  0.
         13    1    1    2    0    0  0.13602084580E+02  0.47526425295E+02  0.30052707049E+02  0.57852866578E+02  0.10566000000E+00 0. -1.
        994    1    1    2    0    0 -0.12440031077E+02 -0.45680133739E+02  0.38356570660E+02  0.18171982694E+03  0.17120000000E+03 0.  0.
        998    1    1    2    0    0 -0.11620535023E+01 -0.18462915554E+01  0.14315907186E+04  0.14316273065E+04  0.10000000000E+02 0. -1.
</event>
<event>
 5    1  0.1364103E-008  0.3825020E+03  0.7957747E-01  0.3440336E+00
         13   -1    0    0    0    0  0.00000000000E+00  0.00000000000E+00  0.14999999963E+04  0.15000000000E+04  0.10566000000E+00 0. -1.
        994   -1    0    0    0    0 -0.00000000000E+00 -0.00000000000E+00  0.11368683772E-12  0.17120000000E+03  0.17120000000E+03 0.  0.
         13    1    1    2    0    0 -0.17640263754E+02  0.10068799360E+02  0.69708952544E+02  0.72607911791E+02  0.10566000000E+00 0. -1.
        994    1    1    2    0    0  0.18232257342E+02 -0.76395936248E+00  0.39802825866E+01  0.17221579919E+03  0.17120000000E+03 0.  0.
        998    1    1    2    0    0 -0.59199358760E+00 -0.93048399973E+01  0.14263107611E+04  0.14263762890E+04  0.10000000000E+02 0. -1.
</event>
<event>
 5    1  0.1364103E-008  0.3788310E+03  0.7957747E-01  0.3456264E+00
         13   -1    0    0    0    0  0.00000000000E+00  0.00000000000E+00  0.14999999963E+04  0.15000000000E+04  0.10566000000E+00 0. -1.
        994   -1    0    0    0    0 -0.00000000000E+00 -0.00000000000E+00  0.11368683772E-12  0.17120000000E+03  0.17120000000E+03 0.  0.
         13    1    1    2    0    0 -0.31738659029E+01 -0.16814539393E+02  0.28839159300E+02  0.33533720833E+02  0.10566000000E+00 0. -1.
        994    1    1    2    0    0  0.20752358382E+00  0.14666555327E+02  0.54467653945E+01  0.17191351943E+03  0.17120000000E+03 0.  0.
        998    1    1    2    0    0  0.29663423191E+01  0.21479840660E+01  0.14657140716E+04  0.14657527597E+04  0.10000000000E+02 0. -1.
</event>
<event>
 5    1  0.1364103E-008  0.3849278E+03  0.7957747E-01  0.3429979E+00
         13   -1    0    0    0    0  0.00000000000E+00  0.00000000000E+00  0.14999999963E+04  0.15000000000E+04  0.10566000000E+00 0.  1.
        994   -1    0    0    0    0 -0.00000000000E+00 -0.00000000000E+00  0.11368683772E-12  0.17120000000E+03  0.17120000000E+03 0.  0.
         13    1    1    2    0    0  0.93949883503E+01 -0.74174835878E+01  0.42707719517E+02  0.44353639526E+02  0.10566000000E+00 0.  1.
        994    1    1    2    0    0 -0.82757158388E+01  0.36712133442E+01  0.19356682993E+01  0.17145014462E+03  0.17120000000E+03 0.  0.
        998    1    1    2    0    0 -0.11192725116E+01  0.37462702436E+01  0.14553566085E+04  0.14553962158E+04  0.10000000000E+02 0.  1.
</event>
<event>
 5    1  0.1364103E-008  0.3818328E+03  0.7957747E-01  0.3443217E+00
         13   -1    0    0    0    0  0.00000000000E+00  0.00000000000E+00  0.14999999963E+04  0.15000000000E+04  0.10566000000E+00 0. -1.
        994   -1    0    0    0    0 -0.00000000000E+00 -0.00000000000E+00  0.11368683772E-12  0.17120000000E+03  0.17120000000E+03 0.  0.
         13    1    1    2    0    0 -0.62156395635E+02  0.79618292607E+02  0.18861336469E+03  0.21395677727E+03  0.10566000000E+00 0. -1.
        994    1    1    2    0    0  0.16784096136E+03 -0.71743150425E+02  0.15161992722E+03  0.29260162384E+03  0.17120000000E+03 0.  0.
        998    1    1    2    0    0 -0.10568456573E+03 -0.78751421812E+01  0.11597667044E+04  0.11646415989E+04  0.10000000000E+02 0. -1.
</event>
<event>
 5    1  0.1364103E-008  0.3794132E+03  0.7957747E-01  0.3453718E+00
         13   -1    0    0    0    0  0.00000000000E+00  0.00000000000E+00  0.14999999963E+04  0.15000000000E+04  0.10566000000E+00 0.  1.
        994   -1    0    0    0    0 -0.00000000000E+00 -0.00000000000E+00  0.11368683772E-12  0.17120000000E+03  0.17120000000E+03 0.  0.
         13    1    1    2    0    0 -0.33506266044E+02  0.11879139164E+02  0.16313000120E+03  0.16695865436E+03  0.10566000000E+00 0.  1.
        994    1    1    2    0    0 -0.12336210661E+00  0.32111774752E+01  0.44642621417E+01  0.17128834320E+03  0.17120000000E+03 0.  0.
        998    1    1    2    0    0  0.33629628151E+02 -0.15090316639E+02  0.13324057329E+04  0.13329530024E+04  0.10000000000E+02 0.  1.
</event>
<event>
 5    1  0.1364103E-008  0.3843445E+03  0.7957747E-01  0.3432457E+00
         13   -1    0    0    0    0  0.00000000000E+00  0.00000000000E+00  0.14999999963E+04  0.15000000000E+04  0.10566000000E+00 0.  1.
        994   -1    0    0    0    0 -0.00000000000E+00 -0.00000000000E+00  0.11368683772E-12  0.17120000000E+03  0.17120000000E+03 0.  0.
         13    1    1    2    0    0  0.14171356337E+02 -0.12563062505E+02  0.85706869606E+02  0.87774350135E+02  0.10566000000E+00 0.  1.
        994    1    1    2    0    0 -0.15464098920E+02  0.15476889977E+02  0.35350487324E+01  0.17262852907E+03  0.17120000000E+03 0.  0.
        998    1    1    2    0    0  0.12927425831E+01 -0.29138274723E+01  0.14107580779E+04  0.14107971208E+04  0.10000000000E+02 0.  1.
</event>
<event>
 5    1  0.1364103E-008  0.3816137E+03  0.7957747E-01  0.3444162E+00
         13   -1    0    0    0    0  0.00000000000E+00  0.00000000000E+00  0.14999999963E+04  0.15000000000E+04  0.10566000000E+00 0.  1.
        994   -1    0    0    0    0 -0.00000000000E+00 -0.00000000000E+00  0.11368683772E-12  0.17120000000E+03  0.17120000000E+03 0.  0.
         13    1    1    2    0    0  0.49549628680E+01  0.51560147727E+02  0.30624542062E+03  0.31059502460E+03  0.10566000000E+00 0.  1.
        994    1    1    2    0    0  0.33718789890E+02 -0.64118829564E+02  0.20973053727E+02  0.18707616117E+03  0.17120000000E+03 0.  0.
        998    1    1    2    0    0 -0.38673752758E+02  0.12558681837E+02  0.11727815219E+04  0.11735288142E+04  0.10000000000E+02 0.  1.
</event>
<event>
 5    1  0.1364103E-008  0.3796139E+03  0.7957747E-01  0.3452841E+00
         13   -1    0    0    0    0  0.00000000000E+00  0.00000000000E+00  0.14999999963E+04  0.15000000000E+04  0.10566000000E+00 0. -1.
        994   -1    0    0    0    0 -0.00000000000E+00 -0.00000000000E+00  0.11368683772E-12  0.17120000000E+03  0.17120000000E+03 0.  0.
         13    1    1    2    0    0  0.27107929331E+02  0.42718855851E+02  0.30247670673E+03  0.30667883813E+03  0.10566000000E+00 0. -1.
        994    1    1    2    0    0 -0.13501161986E+02 -0.21992783352E+02  0.65604617221E+01  0.17325831453E+03  0.17120000000E+03 0.  0.
        998    1    1    2    0    0 -0.13606767345E+02 -0.20726072499E+02  0.11909628278E+04  0.11912628473E+04  0.10000000000E+02 0. -1.
</event>
<event>
 5    1  0.1364103E-008  0.3840746E+03  0.7957747E-01  0.3433607E+00
         13   -1    0    0    0    0  0.00000000000E+00  0.00000000000E+00  0.14999999963E+04  0.15000000000E+04  0.10566000000E+00 0. -1.
        994   -1    0    0    0    0 -0.00000000000E+00 -0.00000000000E+00  0.11368683772E-12  0.17120000000E+03  0.17120000000E+03 0.  0.
         13    1    1    2    0    0 -0.15155951083E+02 -0.12488152607E+02  0.95147272347E+02  0.97152825013E+02  0.10566000000E+00 0. -1.
        994    1    1    2    0    0  0.40943614352E+01  0.65138511301E+01  0.22855714267E+01  0.17138803310E+03  0.17120000000E+03 0.  0.
        998    1    1    2    0    0  0.11061589648E+02  0.59743014769E+01  0.14025671525E+04  0.14026591419E+04  0.10000000000E+02 0. -1.
</event>
<event>
 5    1  0.1364103E-008  0.3807057E+03  0.7957747E-01  0.3448091E+00
         13   -1    0    0    0    0  0.00000000000E+00  0.00000000000E+00  0.14999999963E+04  0.15000000000E+04  0.10566000000E+00 0.  1.
        994   -1    0    0    0    0 -0.00000000000E+00 -0.00000000000E+00  0.11368683772E-12  0.17120000000E+03  0.17120000000E+03 0.  0.
         13    1    1    2    0    0  0.34807235588E+01  0.18728676292E+02  0.47036400805E+02  0.50747540994E+02  0.10566000000E+00 0.  1.
        994    1    1    2    0    0 -0.76334734312E+01 -0.90774841656E+01  0.42466277939E+01  0.17166288033E+03  0.17120000000E+03 0.  0.
        998    1    1    2    0    0  0.41527498724E+01 -0.96511921261E+01  0.14487169677E+04  0.14487895787E+04  0.10000000000E+02 0.  1.
</event>
<event>
 5    1  0.1364103E-008  0.3700753E+03  0.7957747E-01  0.3495545E+00
         13   -1    0    0    0    0  0.00000000000E+00  0.00000000000E+00  0.14999999963E+04  0.15000000000E+04  0.10566000000E+00 0. -1.
        994   -1    0    0    0    0 -0.00000000000E+00 -0.00000000000E+00  0.11368683772E-12  0.17120000000E+03  0.17120000000E+03 0.  0.
         13    1    1    2    0    0 -0.44387281972E+02  0.81167220156E+02  0.49789164279E+03  0.50641331692E+03  0.10566000000E+00 0. -1.
        994    1    1    2    0    0  0.49348278312E+02 -0.26571260122E+02  0.20167914284E+02  0.18126629362E+03  0.17120000000E+03 0.  0.
        998    1    1    2    0    0 -0.49609963407E+01 -0.54595960034E+02  0.98194043920E+03  0.98352038946E+03  0.10000000000E+02 0. -1.
</event>
<event>
 5    1  0.1364103E-008  0.3746175E+03  0.7957747E-01  0.3474935E+00
         13   -1    0    0    0    0  0.00000000000E+00  0.00000000000E+00  0.14999999963E+04  0.15000000000E+04  0.10566000000E+00 0. -1.
        994   -1    0    0    0    0 -0.00000000000E+00 -0.00000000000E+00  0.11368683772E-12  0.17120000000E+03  0.17120000000E+03 0.  0.
         13    1    1    2    0    0  0.15030659660E+02 -0.10394364805E+02  0.19296352119E+02  0.26576755232E+02  0.10566000000E+00 0. -1.
        994    1    1    2    0    0 -0.82814339091E+02 -0.34073162307E+02  0.34679491384E+02  0.19629391807E+03  0.17120000000E+03 0.  0.
        998    1    1    2    0    0  0.67783679431E+02  0.44467527112E+02  0.14460241528E+04  0.14483293267E+04  0.10000000000E+02 0. -1.
</event>
<event>
 5    1  0.1364103E-008  0.4221278E+03  0.7957747E-01  0.3286014E+00
         13   -1    0    0    0    0  0.00000000000E+00  0.00000000000E+00  0.14999999963E+04  0.15000000000E+04  0.10566000000E+00 0. -1.
        994   -1    0    0    0    0 -0.00000000000E+00 -0.00000000000E+00  0.11368683772E-12  0.17120000000E+03  0.17120000000E+03 0.  0.
         13    1    1    2    0    0  0.75437143777E+02  0.91667322068E+01  0.55820109032E+02  0.94290441599E+02  0.10566000000E+00 0. -1.
        994    1    1    2    0    0 -0.59548624007E+02 -0.33046993307E+02  0.62006828873E+02  0.19440275002E+03  0.17120000000E+03 0.  0.
        998    1    1    2    0    0 -0.15888519770E+02  0.23880261100E+02  0.13821730584E+04  0.13825068084E+04  0.10000000000E+02 0. -1.
</event>
<event>
 5    1  0.1364103E-008  0.3907320E+03  0.7957747E-01  0.3405720E+00
         13   -1    0    0    0    0  0.00000000000E+00  0.00000000000E+00  0.14999999963E+04  0.15000000000E+04  0.10566000000E+00 0.  1.
        994   -1    0    0    0    0 -0.00000000000E+00 -0.00000000000E+00  0.11368683772E-12  0.17120000000E+03  0.17120000000E+03 0.  0.
         13    1    1    2    0    0  0.74346237208E+02  0.59818533040E+02  0.23245251975E+03  0.25127635182E+03  0.10566000000E+00 0.  1.
        994    1    1    2    0    0 -0.48239327883E+02  0.24957951907E+02  0.33567150730E+02  0.18271870656E+03  0.17120000000E+03 0.  0.
        998    1    1    2    0    0 -0.26106909325E+02 -0.84776484947E+02  0.12339803258E+04  0.12372049416E+04  0.10000000000E+02 0.  1.
</event>
<event>
 5    1  0.1364103E-008  0.3824859E+03  0.7957747E-01  0.3440405E+00
         13   -1    0    0    0    0  0.00000000000E+00  0.00000000000E+00  0.14999999963E+04  0.15000000000E+04  0.10566000000E+00 0. -1.
        994   -1    0    0    0    0 -0.00000000000E+00 -0.00000000000E+00  0.11368683772E-12  0.17120000000E+03  0.17120000000E+03 0.  0.
         13    1    1    2    0    0 -0.37313782672E+01 -0.11871803362E+02  0.26309972844E+02  0.29104788849E+02  0.10566000000E+00 0. -1.
        994    1    1    2    0    0  0.43089562145E+01  0.13974010237E+01  0.29515705267E+01  0.17128535139E+03  0.17120000000E+03 0.  0.
        998    1    1    2    0    0 -0.57757794727E+00  0.10474402338E+02  0.14707384529E+04  0.14708098598E+04  0.10000000000E+02 0. -1.
</event>
<event>
 5    1  0.1364103E-008  0.3853507E+03  0.7957747E-01  0.3428186E+00
         13   -1    0    0    0    0  0.00000000000E+00  0.00000000000E+00  0.14999999963E+04  0.15000000000E+04  0.10566000000E+00 0. -1.
        994   -1    0    0    0    0 -0.00000000000E+00 -0.00000000000E+00  0.11368683772E-12  0.17120000000E+03  0.17120000000E+03 0.  0.
         13    1    1    2    0    0  0.16403813639E+02  0.24319566096E+01  0.99667000194E+02  0.10103722881E+03  0.10566000000E+00 0. -1.
        994    1    1    2    0    0 -0.46436069419E+01 -0.17725658703E+00  0.15270845351E+01  0.17126986452E+03  0.17120000000E+03 0.  0.
        998    1    1    2    0    0 -0.11760206698E+02 -0.22547000226E+01  0.13988059115E+04  0.13988929067E+04  0.10000000000E+02 0. -1.
</event>
<event>
 5    1  0.1364103E-008  0.4056095E+03  0.7957747E-01  0.3346707E+00
         13   -1    0    0    0    0  0.00000000000E+00  0.00000000000E+00  0.14999999963E+04  0.15000000000E+04  0.10566000000E+00 0. -1.
        994   -1    0    0    0    0 -0.00000000000E+00 -0.00000000000E+00  0.11368683772E-12  0.17120000000E+03  0.17120000000E+03 0.  0.
         13    1    1    2    0    0 -0.97448332457E+01 -0.12791131479E+02 -0.97749483311E+01  0.18818490864E+02  0.10566000000E+00 0. -1.
        994    1    1    2    0    0  0.31988856281E+02  0.72510376140E+01  0.35496912297E+02  0.17789135801E+03  0.17120000000E+03 0.  0.
        998    1    1    2    0    0 -0.22244023035E+02  0.55400938651E+01  0.14742780323E+04  0.14744901511E+04  0.10000000000E+02 0. -1.
</event>
<event>
 5    1  0.1364103E-008  0.3817336E+03  0.7957747E-01  0.3443645E+00
         13   -1    0    0    0    0  0.00000000000E+00  0.00000000000E+00  0.14999999963E+04  0.15000000000E+04  0.10566000000E+00 0. -1.
        994   -1    0    0    0    0 -0.00000000000E+00 -0.00000000000E+00  0.11368683772E-12  0.17120000000E+03  0.17120000000E+03 0.  0.
         13    1    1    2    0    0  0.15245271322E+02  0.12836385753E+02  0.58474535347E+02  0.61777613623E+02  0.10566000000E+00 0. -1.
        994    1    1    2    0    0 -0.60546996834E+00 -0.27478369033E+02  0.57755860300E+01  0.17348839948E+03  0.17120000000E+03 0.  0.
        998    1    1    2    0    0 -0.14639801354E+02  0.14641983280E+02  0.14357498749E+04  0.14359339869E+04  0.10000000000E+02 0. -1.
</event>
<event>
 5    1  0.1364103E-008  0.3853134E+03  0.7957747E-01  0.3428344E+00
         13   -1    0    0    0    0  0.00000000000E+00  0.00000000000E+00  0.14999999963E+04  0.15000000000E+04  0.10566000000E+00 0. -1.
        994   -1    0    0    0    0 -0.00000000000E+00 -0.00000000000E+00  0.11368683772E-12  0.17120000000E+03  0.17120000000E+03 0.  0.
         13    1    1    2    0    0 -0.19621314819E+02  0.17324683773E+01  0.10512871729E+03  0.10695819653E+03  0.10566000000E+00 0. -1.
        994    1    1    2    0    0  0.39196901839E+02 -0.32524337342E+02  0.10044353581E+02  0.17889817962E+03  0.17120000000E+03 0.  0.
        998    1    1    2    0    0 -0.19575587021E+02  0.30791868965E+02  0.13848269254E+04  0.13853436238E+04  0.10000000000E+02 0. -1.
</event>
<event>
 5    1  0.1364103E-008  0.3756786E+03  0.7957747E-01  0.3470193E+00
         13   -1    0    0    0    0  0.00000000000E+00  0.00000000000E+00  0.14999999963E+04  0.15000000000E+04  0.10566000000E+00 0. -1.
        994   -1    0    0    0    0 -0.00000000000E+00 -0.00000000000E+00  0.11368683772E-12  0.17120000000E+03  0.17120000000E+03 0.  0.
         13    1    1    2    0    0 -0.21012090620E+02  0.44438923873E+02  0.17164128045E+03  0.17854149721E+03  0.10566000000E+00 0. -1.
        994    1    1    2    0    0  0.10858904234E+02 -0.45508401162E+02  0.13790680154E+02  0.17801278953E+03  0.17120000000E+03 0.  0.
        998    1    1    2    0    0  0.10153186386E+02  0.10694772895E+01  0.13145680357E+04  0.13146457133E+04  0.10000000000E+02 0. -1.
</event>
<event>
 5    1  0.1364103E-008  0.3763459E+03  0.7957747E-01  0.3467225E+00
         13   -1    0    0    0    0  0.00000000000E+00  0.00000000000E+00  0.14999999963E+04  0.15000000000E+04  0.10566000000E+00 0.  1.
        994   -1    0    0    0    0 -0.00000000000E+00 -0.00000000000E+00  0.11368683772E-12  0.17120000000E+03  0.17120000000E+03 0.  0.
         13    1    1    2    0    0  0.12326599496E+02 -0.19517583181E+01  0.10269116360E+02  0.16162312042E+02  0.10566000000E+00 0.  1.
        994    1    1    2    0    0 -0.10820909508E+02  0.28731128013E+01  0.64134752132E+01  0.17168552509E+03  0.17120000000E+03 0.  0.
        998    1    1    2    0    0 -0.15056899887E+01 -0.92135448318E+00  0.14833174047E+04  0.14833521629E+04  0.10000000000E+02 0.  1.
</event>
<event>
 5    1  0.1364103E-008  0.3783534E+03  0.7957747E-01  0.3458360E+00
         13   -1    0    0    0    0  0.00000000000E+00  0.00000000000E+00  0.14999999963E+04  0.15000000000E+04  0.10566000000E+00 0.  1.
        994   -1    0    0    0    0 -0.00000000000E+00 -0.00000000000E+00  0.11368683772E-12  0.17120000000E+03  0.17120000000E+03 0.  0.
         13    1    1    2    0    0  0.27947318380E+02  0.27857393357E+02  0.15127052033E+03  0.15633255724E+03  0.10566000000E+00 0.  1.
        994    1    1    2    0    0 -0.23840574269E+02 -0.14948073089E+02  0.76326845730E+01  0.17366495255E+03  0.17120000000E+03 0.  0.
        998    1    1    2    0    0 -0.41067441111E+01 -0.12909320268E+02  0.13410967914E+04  0.13412024902E+04  0.10000000000E+02 0.  1.
</event>
<event>
 5    1  0.1364103E-008  0.3833790E+03  0.7957747E-01  0.3436576E+00
         13   -1    0    0    0    0  0.00000000000E+00  0.00000000000E+00  0.14999999963E+04  0.15000000000E+04  0.10566000000E+00 0. -1.
        994   -1    0    0    0    0 -0.00000000000E+00 -0.00000000000E+00  0.11368683772E-12  0.17120000000E+03  0.17120000000E+03 0.  0.
         13    1    1    2    0    0 -0.73045243817E+01 -0.93814378386E+01  0.28348320278E+02  0.30740947920E+02  0.10566000000E+00 0. -1.
        994    1    1    2    0    0  0.22791422113E+01  0.68583300187E+01  0.26097705604E+01  0.17137234923E+03  0.17120000000E+03 0.  0.
        998    1    1    2    0    0  0.50253821704E+01  0.25231078199E+01  0.14690419054E+04  0.14690867028E+04  0.10000000000E+02 0. -1.
</event>
<event>
 5    1  0.1364103E-008  0.3702954E+03  0.7957747E-01  0.3494534E+00
         13   -1    0    0    0    0  0.00000000000E+00  0.00000000000E+00  0.14999999963E+04  0.15000000000E+04  0.10566000000E+00 0. -1.
        994   -1    0    0    0    0 -0.00000000000E+00 -0.00000000000E+00  0.11368683772E-12  0.17120000000E+03  0.17120000000E+03 0.  0.
         13    1    1    2    0    0 -0.44961927334E+01 -0.15365147734E+02  0.65794292834E+01  0.17309060278E+02  0.10566000000E+00 0. -1.
        994    1    1    2    0    0  0.10266684477E+02  0.76422437884E+01  0.11668565137E+02  0.17207383332E+03  0.17120000000E+03 0.  0.
        998    1    1    2    0    0 -0.57704917438E+01  0.77229039455E+01  0.14817520019E+04  0.14818171064E+04  0.10000000000E+02 0. -1.
</event>
<event>
 5    1  0.1364103E-008  0.3844462E+03  0.7957747E-01  0.3432025E+00
         13   -1    0    0    0    0  0.00000000000E+00  0.00000000000E+00  0.14999999963E+04  0.15000000000E+04  0.10566000000E+00 0.  1.
        994   -1    0    0    0    0 -0.00000000000E+00 -0.00000000000E+00  0.11368683772E-12  0.17120000000E+03  0.17120000000E+03 0.  0.
         13    1    1    2    0    0  0.20432000346E+02 -0.25302137148E+01  0.11742834930E+03  0.11921953281E+03  0.10566000000E+00 0.  1.
        994    1    1    2    0    0 -0.59252839077E+01 -0.36947803761E+00  0.20214881232E+01  0.17131483274E+03  0.17120000000E+03 0.  0.
        998    1    1    2    0    0 -0.14506716438E+02  0.28996917524E+01  0.13805501589E+04  0.13806656344E+04  0.10000000000E+02 0.  1.
</event>
<event>
 5    1  0.1364103E-008  0.3852577E+03  0.7957747E-01  0.3428580E+00
         13   -1    0    0    0    0  0.00000000000E+00  0.00000000000E+00  0.14999999963E+04  0.15000000000E+04  0.10566000000E+00 0. -1.
        994   -1    0    0    0    0 -0.00000000000E+00 -0.00000000000E+00  0.11368683772E-12  0.17120000000E+03  0.17120000000E+03 0.  0.
         13    1    1    2    0    0  0.56669785724E+01  0.98339793763E+01  0.41314819303E+02  0.42845621183E+02  0.10566000000E+00 0. -1.
        994    1    1    2    0    0 -0.51566315094E+01 -0.14080978909E+02  0.22415031719E+01  0.17187009383E+03  0.17120000000E+03 0.  0.
        998    1    1    2    0    0 -0.51034706297E+00  0.42469995332E+01  0.14564436738E+04  0.14564842850E+04  0.10000000000E+02 0. -1.
</event>
<event>
 5    1  0.1364103E-008  0.3843490E+03  0.7957747E-01  0.3432438E+00
         13   -1    0    0    0    0  0.00000000000E+00  0.00000000000E+00  0.14999999963E+04  0.15000000000E+04  0.10566000000E+00 0.  1.
        994   -1    0    0    0    0 -0.00000000000E+00 -0.00000000000E+00  0.11368683772E-12  0.17120000000E+03  0.17120000000E+03 0.  0.
         13    1    1    2    0    0 -0.14384443782E+02  0.14757086787E+02  0.10258309822E+03  0.10463262894E+03  0.10566000000E+00 0.  1.
        994    1    1    2    0    0  0.10414523005E+02 -0.18625109773E+02  0.34557945331E+01  0.17255937969E+03  0.17120000000E+03 0.  0.
        998    1    1    2    0    0  0.39699207774E+01  0.38680229857E+01  0.13939611035E+04  0.13940079914E+04  0.10000000000E+02 0.  1.
</event>
<event>
 5    1  0.1364103E-008  0.3844627E+03  0.7957747E-01  0.3431954E+00
         13   -1    0    0    0    0  0.00000000000E+00  0.00000000000E+00  0.14999999963E+04  0.15000000000E+04  0.10566000000E+00 0.  1.
        994   -1    0    0    0    0 -0.00000000000E+00 -0.00000000000E+00  0.11368683772E-12  0.17120000000E+03  0.17120000000E+03 0.  0.
         13    1    1    2    0    0 -0.10440908622E+02  0.32026178767E+01  0.30117042705E+02  0.32036178915E+02  0.10566000000E+00 0.  1.
        994    1    1    2    0    0  0.14555920142E+02 -0.19832854437E+01  0.26084077838E+01  0.17184892209E+03  0.17120000000E+03 0.  0.
        998    1    1    2    0    0 -0.41150115206E+01 -0.12193324330E+01  0.14672745458E+04  0.14673148990E+04  0.10000000000E+02 0.  1.
</event>
<event>
 5    1  0.1364103E-008  0.3854498E+03  0.7957747E-01  0.3427767E+00
         13   -1    0    0    0    0  0.00000000000E+00  0.00000000000E+00  0.14999999963E+04  0.15000000000E+04  0.10566000000E+00 0.  1.
        994   -1    0    0    0    0 -0.00000000000E+00 -0.00000000000E+00  0.11368683772E-12  0.17120000000E+03  0.17120000000E+03 0.  0.
         13    1    1    2    0    0 -0.54253516744E+01 -0.15802087071E+02  0.98539836512E+02  0.99946240251E+02  0.10566000000E+00 0.  1.
        994    1    1    2    0    0  0.10940479714E+02  0.90733105355E+01  0.20706480191E+01  0.17180147451E+03  0.17120000000E+03 0.  0.
        998    1    1    2    0    0 -0.55151280400E+01  0.67287765355E+01  0.13993895117E+04  0.13994522852E+04  0.10000000000E+02 0.  1.
</event>
<event>
 5    1  0.1364103E-008  0.3855492E+03  0.7957747E-01  0.3427346E+00
         13   -1    0    0    0    0  0.00000000000E+00  0.00000000000E+00  0.14999999963E+04  0.15000000000E+04  0.10566000000E+00 0.  1.
        994   -1    0    0    0    0 -0.00000000000E+00 -0.00000000000E+00  0.11368683772E-12  0.17120000000E+03  0.17120000000E+03 0.  0.
         13    1    1    2    0    0 -0.83865104454E+00 -0.16349421632E+02  0.96610058947E+02  0.97987354169E+02  0.10566000000E+00 0.  1.
        994    1    1    2    0    0  0.25017196046E+01  0.13599589988E+02  0.19856567768E+01  0.17176900268E+03  0.17120000000E+03 0.  0.
        998    1    1    2    0    0 -0.16630685600E+01  0.27498316432E+01  0.14014042806E+04  0.14014436432E+04  0.10000000000E+02 0.  1.
</event>
<event>
 5    1  0.1364103E-008  0.3789314E+03  0.7957747E-01  0.3455825E+00
         13   -1    0    0    0    0  0.00000000000E+00  0.00000000000E+00  0.14999999963E+04  0.15000000000E+04  0.10566000000E+00 0.  1.
        994   -1    0    0    0    0 -0.00000000000E+00 -0.00000000000E+00  0.11368683772E-12  0.17120000000E+03  0.17120000000E+03 0.  0.
         13    1    1    2    0    0  0.17382703875E+03  0.67527480206E+02  0.10839045622E+04  0.10998294919E+04  0.10566000000E+00 0.  1.
        994    1    1    2    0    0 -0.16295395594E+03 -0.70309603545E+02  0.11883624742E+03  0.27373148487E+03  0.17120000000E+03 0.  0.
        998    1    1    2    0    0 -0.10873082806E+02  0.27821233393E+01  0.29725918662E+03  0.29763902326E+03  0.10000000000E+02 0.  1.
</event>
<event>
 5    1  0.1364103E-008  0.3757314E+03  0.7957747E-01  0.3469958E+00
         13   -1    0    0    0    0  0.00000000000E+00  0.00000000000E+00  0.14999999963E+04  0.15000000000E+04  0.10566000000E+00 0. -1.
        994   -1    0    0    0    0 -0.00000000000E+00 -0.00000000000E+00  0.11368683772E-12  0.17120000000E+03  0.17120000000E+03 0.  0.
         13    1    1    2    0    0 -0.17294796094E+02 -0.28390853557E+01  0.21368908687E+02  0.27637145296E+02  0.10566000000E+00 0. -1.
        994    1    1    2    0    0  0.18187325854E+02  0.13427252563E+01  0.74321767887E+01  0.17232892672E+03  0.17120000000E+03 0.  0.
        998    1    1    2    0    0 -0.89252975965E+00  0.14963600994E+01  0.14711989108E+04  0.14712339280E+04  0.10000000000E+02 0. -1.
</event>
<event>
 5    1  0.1364103E-008  0.3815184E+03  0.7957747E-01  0.3444574E+00
         13   -1    0    0    0    0  0.00000000000E+00  0.00000000000E+00  0.14999999963E+04  0.15000000000E+04  0.10566000000E+00 0. -1.
        994   -1    0    0    0    0 -0.00000000000E+00 -0.00000000000E+00  0.11368683772E-12  0.17120000000E+03  0.17120000000E+03 0.  0.
         13    1    1    2    0    0 -0.14635970934E+02 -0.47709285161E+00  0.31598254239E+02  0.34826715288E+02  0.10566000000E+00 0. -1.
        994    1    1    2    0    0  0.39526729238E+00 -0.11053986911E+02  0.37757055152E+01  0.17159849304E+03  0.17120000000E+03 0.  0.
        998    1    1    2    0    0  0.14240703641E+02  0.11531079763E+02  0.14646260365E+04  0.14647747917E+04  0.10000000000E+02 0. -1.
</event>
<event>
 5    1  0.1364103E-008  0.3718993E+03  0.7957747E-01  0.3487207E+00
         13   -1    0    0    0    0  0.00000000000E+00  0.00000000000E+00  0.14999999963E+04  0.15000000000E+04  0.10566000000E+00 0.  1.
        994   -1    0    0    0    0 -0.00000000000E+00 -0.00000000000E+00  0.11368683772E-12  0.17120000000E+03  0.17120000000E+03 0.  0.
         13    1    1    2    0    0  0.26424501276E+02 -0.39233937638E+02  0.15874909722E+03  0.16564674209E+03  0.10566000000E+00 0.  1.
        994    1    1    2    0    0  0.18495690698E+02  0.23796022491E+01  0.94751556704E+01  0.17247310415E+03  0.17120000000E+03 0.  0.
        998    1    1    2    0    0 -0.44920191974E+02  0.36854335389E+02  0.13317757434E+04  0.13330801538E+04  0.10000000000E+02 0.  1.
</event>
<event>
 5    1  0.1364103E-008  0.3853859E+03  0.7957747E-01  0.3428037E+00
         13   -1    0    0    0    0  0.00000000000E+00  0.00000000000E+00  0.14999999963E+04  0.15000000000E+04  0.10566000000E+00 0. -1.
        994   -1    0    0    0    0 -0.00000000000E+00 -0.00000000000E+00  0.11368683772E-12  0.17120000000E+03  0.17120000000E+03 0.  0.
         13    1    1    2    0    0  0.17645578904E+01 -0.10702791964E+02  0.44207853315E+02  0.45519324238E+02  0.10566000000E+00 0. -1.
        994    1    1    2    0    0  0.72188917352E+01 -0.50229390043E+01  0.16927214057E+01  0.17143409118E+03  0.17120000000E+03 0.  0.
        998    1    1    2    0    0 -0.89834496255E+01  0.15725730968E+02  0.14540994216E+04  0.14542465846E+04  0.10000000000E+02 0. -1.
</event>
<event>
 5    1  0.1364103E-008  0.3844269E+03  0.7957747E-01  0.3432106E+00
         13   -1    0    0    0    0  0.00000000000E+00  0.00000000000E+00  0.14999999963E+04  0.15000000000E+04  0.10566000000E+00 0.  1.
        994   -1    0    0    0    0 -0.00000000000E+00 -0.00000000000E+00  0.11368683772E-12  0.17120000000E+03  0.17120000000E+03 0.  0.
         13    1    1    2    0    0  0.56206167327E+01 -0.13725494912E+02  0.55309690873E+02  0.57263894485E+02  0.10566000000E+00 0.  1.
        994    1    1    2    0    0  0.12639991771E+00  0.17241292676E+02  0.28949992725E+01  0.17209038082E+03  0.17120000000E+03 0.  0.
        998    1    1    2    0    0 -0.57470166504E+01 -0.35157977645E+01  0.14417953061E+04  0.14418457247E+04  0.10000000000E+02 0.  1.
</event>
<event>
 5    1  0.1364103E-008  0.3826632E+03  0.7957747E-01  0.3439644E+00
         13   -1    0    0    0    0  0.00000000000E+00  0.00000000000E+00  0.14999999963E+04  0.15000000000E+04  0.10566000000E+00 0. -1.
        994   -1    0    0    0    0 -0.00000000000E+00 -0.00000000000E+00  0.11368683772E-12  0.17120000000E+03  0.17120000000E+03 0.  0.
         13    1    1    2    0    0 -0.56520343026E+01 -0.13361840357E+02  0.38034377821E+02  0.40707607762E+02  0.10566000000E+00 0. -1.
        994    1    1    2    0    0  0.46983984540E+01 -0.11430010238E+01  0.28722541571E+01  0.17129235606E+03  0.17120000000E+03 0.  0.
        998    1    1    2    0    0  0.95363584856E+00  0.14504841381E+02  0.14590933643E+04  0.14592000362E+04  0.10000000000E+02 0. -1.
</event>
<event>
 5    1  0.1364103E-008  0.3802933E+03  0.7957747E-01  0.3449882E+00
         13   -1    0    0    0    0  0.00000000000E+00  0.00000000000E+00  0.14999999963E+04  0.15000000000E+04  0.10566000000E+00 0.  1.
        994   -1    0    0    0    0 -0.00000000000E+00 -0.00000000000E+00  0.11368683772E-12  0.17120000000E+03  0.17120000000E+03 0.  0.
         13    1    1    2    0    0  0.21708400021E+02 -0.13436392743E+02  0.83051899720E+02  0.86887401231E+02  0.10566000000E+00 0.  1.
        994    1    1    2    0    0 -0.11820346767E+02 -0.18043850833E+01  0.44628027594E+01  0.17167507976E+03  0.17120000000E+03 0.  0.
        998    1    1    2    0    0 -0.98880532540E+01  0.15240777826E+02  0.14124852938E+04  0.14126375190E+04  0.10000000000E+02 0.  1.
</event>
<event>
 5    1  0.1364103E-008  0.3693616E+03  0.7957747E-01  0.3498830E+00
         13   -1    0    0    0    0  0.00000000000E+00  0.00000000000E+00  0.14999999963E+04  0.15000000000E+04  0.10566000000E+00 0.  1.
        994   -1    0    0    0    0 -0.00000000000E+00 -0.00000000000E+00  0.11368683772E-12  0.17120000000E+03  0.17120000000E+03 0.  0.
         13    1    1    2    0    0  0.43229818180E+02  0.51827255282E+01  0.82487851276E+02  0.93273439928E+02  0.10566000000E+00 0.  1.
        994    1    1    2    0    0 -0.38226179776E+02 -0.11286542149E+02  0.16163536047E+02  0.17652004632E+03  0.17120000000E+03 0.  0.
        998    1    1    2    0    0 -0.50036384042E+01  0.61038166212E+01  0.14013486090E+04  0.14014065138E+04  0.10000000000E+02 0.  1.
</event>
<event>
 5    1  0.1364103E-008  0.3856011E+03  0.7957747E-01  0.3427127E+00
         13   -1    0    0    0    0  0.00000000000E+00  0.00000000000E+00  0.14999999963E+04  0.15000000000E+04  0.10566000000E+00 0. -1.
        994   -1    0    0    0    0 -0.00000000000E+00 -0.00000000000E+00  0.11368683772E-12  0.17120000000E+03  0.17120000000E+03 0.  0.
         13    1    1    2    0    0  0.10421739999E+02 -0.10834720416E+00  0.42333595855E+02  0.43597808498E+02  0.10566000000E+00 0. -1.
        994    1    1    2    0    0 -0.13429481203E+01 -0.52303972210E+01  0.14277230687E+01  0.17129109422E+03  0.17120000000E+03 0.  0.
        998    1    1    2    0    0 -0.90787918789E+01  0.53387444252E+01  0.14562386774E+04  0.14563110973E+04  0.10000000000E+02 0. -1.
</event>
<event>
 5    1  0.1364103E-008  0.3829308E+03  0.7957747E-01  0.3438496E+00
         13   -1    0    0    0    0  0.00000000000E+00  0.00000000000E+00  0.14999999963E+04  0.15000000000E+04  0.10566000000E+00 0. -1.
        994   -1    0    0    0    0 -0.00000000000E+00 -0.00000000000E+00  0.11368683772E-12  0.17120000000E+03  0.17120000000E+03 0.  0.
         13    1    1    2    0    0 -0.19307374056E+02 -0.71808227677E+00  0.69229230873E+02  0.71874807175E+02  0.10566000000E+00 0. -1.
        994    1    1    2    0    0  0.12698717585E+02  0.22821615838E+01  0.32122837245E+01  0.17171553353E+03  0.17120000000E+03 0.  0.
        998    1    1    2    0    0  0.66086564712E+01 -0.15640793070E+01  0.14275584817E+04  0.14276096593E+04  0.10000000000E+02 0. -1.
</event>
<event>
 5    1  0.1364103E-008  0.3810740E+03  0.7957747E-01  0.3446495E+00
         13   -1    0    0    0    0  0.00000000000E+00  0.00000000000E+00  0.14999999963E+04  0.15000000000E+04  0.10566000000E+00 0.  1.
        994   -1    0    0    0    0 -0.00000000000E+00 -0.00000000000E+00  0.11368683772E-12  0.17120000000E+03  0.17120000000E+03 0.  0.
         13    1    1    2    0    0  0.24109433708E+02  0.14312247232E+01  0.74439377585E+02  0.78259474169E+02  0.10566000000E+00 0.  1.
        994    1    1    2    0    0 -0.29639899806E+02 -0.13974614644E+02  0.71772133353E+01  0.17445562733E+03  0.17120000000E+03 0.  0.
        998    1    1    2    0    0  0.55304660982E+01  0.12543389921E+02  0.14183834054E+04  0.14184848985E+04  0.10000000000E+02 0.  1.
</event>
<event>
 5    1  0.1364103E-008  0.3803968E+03  0.7957747E-01  0.3449433E+00
         13   -1    0    0    0    0  0.00000000000E+00  0.00000000000E+00  0.14999999963E+04  0.15000000000E+04  0.10566000000E+00 0. -1.
        994   -1    0    0    0    0 -0.00000000000E+00 -0.00000000000E+00  0.11368683772E-12  0.17120000000E+03  0.17120000000E+03 0.  0.
         13    1    1    2    0    0  0.21648724256E+02 -0.18397375405E+02  0.95529405592E+02  0.99664483044E+02  0.10566000000E+00 0. -1.
        994    1    1    2    0    0 -0.19354990361E+02  0.21629229110E+02  0.67505985250E+01  0.17377413439E+03  0.17120000000E+03 0.  0.
        998    1    1    2    0    0 -0.22937338959E+01 -0.32318537046E+01  0.13977199922E+04  0.13977613826E+04  0.10000000000E+02 0. -1.
</event>
<event>
 5    1  0.1364103E-008  0.3790546E+03  0.7957747E-01  0.3455285E+00
         13   -1    0    0    0    0  0.00000000000E+00  0.00000000000E+00  0.14999999963E+04  0.15000000000E+04  0.10566000000E+00 0. -1.
        994   -1    0    0    0    0 -0.00000000000E+00 -0.00000000000E+00  0.11368683772E-12  0.17120000000E+03  0.17120000000E+03 0.  0.
         13    1    1    2    0    0 -0.40419975587E+02 -0.43794769646E+02  0.99849102056E+02  0.11628246050E+03  0.10566000000E+00 0. -1.
        994    1    1    2    0    0  0.44931165957E+02  0.41547124420E+02  0.29459031370E+02  0.18417993308E+03  0.17120000000E+03 0.  0.
        998    1    1    2    0    0 -0.45111903696E+01  0.22476452263E+01  0.13706918629E+04  0.13707376064E+04  0.10000000000E+02 0. -1.
</event>
<event>
 5    1  0.1364103E-008  0.3791965E+03  0.7957747E-01  0.3454665E+00
         13   -1    0    0    0    0  0.00000000000E+00  0.00000000000E+00  0.14999999963E+04  0.15000000000E+04  0.10566000000E+00 0. -1.
        994   -1    0    0    0    0 -0.00000000000E+00 -0.00000000000E+00  0.11368683772E-12  0.17120000000E+03  0.17120000000E+03 0.  0.
         13    1    1    2    0    0 -0.14541478771E+01  0.17867660365E+02  0.33009533403E+02  0.37563390322E+02  0.10566000000E+00 0. -1.
        994    1    1    2    0    0  0.10979877937E+02 -0.16957558158E+02  0.59084405830E+01  0.17248903202E+03  0.17120000000E+03 0.  0.
        998    1    1    2    0    0 -0.95257300602E+01 -0.91010220761E+00  0.14610820223E+04  0.14611475777E+04  0.10000000000E+02 0. -1.
</event>
<event>
 5    1  0.1364103E-008  0.3858328E+03  0.7957747E-01  0.3426148E+00
         13   -1    0    0    0    0  0.00000000000E+00  0.00000000000E+00  0.14999999963E+04  0.15000000000E+04  0.10566000000E+00 0. -1.
        994   -1    0    0    0    0 -0.00000000000E+00 -0.00000000000E+00  0.11368683772E-12  0.17120000000E+03  0.17120000000E+03 0.  0.
         13    1    1    2    0    0  0.85698970823E+01 -0.89533049530E+01  0.69551718411E+02  0.70647416822E+02  0.10566000000E+00 0. -1.
        994    1    1    2    0    0  0.29263367704E+01 -0.17236109202E+01  0.12550756234E+01  0.17123828280E+03  0.17120000000E+03 0.  0.
        998    1    1    2    0    0 -0.11496233853E+02  0.10676915873E+02  0.14291932022E+04  0.14293143004E+04  0.10000000000E+02 0. -1.
</event>
<event>
 5    1  0.1364103E-008  0.3812164E+03  0.7957747E-01  0.3445879E+00
         13   -1    0    0    0    0  0.00000000000E+00  0.00000000000E+00  0.14999999963E+04  0.15000000000E+04  0.10566000000E+00 0.  1.
        994   -1    0    0    0    0 -0.00000000000E+00 -0.00000000000E+00  0.11368683772E-12  0.17120000000E+03  0.17120000000E+03 0.  0.
         13    1    1    2    0    0  0.29091413037E+02  0.65594544271E+01  0.11628327268E+03  0.12004643862E+03  0.10566000000E+00 0.  1.
        994    1    1    2    0    0 -0.29637978428E+02 -0.66631494587E+01  0.65989898399E+01  0.17399940802E+03  0.17120000000E+03 0.  0.
        998    1    1    2    0    0  0.54656539061E+00  0.10369503164E+00  0.13771177338E+04  0.13771541534E+04  0.10000000000E+02 0.  1.
</event>
<event>
 5    1  0.1364103E-008  0.3838727E+03  0.7957747E-01  0.3434467E+00
         13   -1    0    0    0    0  0.00000000000E+00  0.00000000000E+00  0.14999999963E+04  0.15000000000E+04  0.10566000000E+00 0. -1.
        994   -1    0    0    0    0 -0.00000000000E+00 -0.00000000000E+00  0.11368683772E-12  0.17120000000E+03  0.17120000000E+03 0.  0.
         13    1    1    2    0    0 -0.31725928961E+01  0.10157033050E+02  0.25801469521E+02  0.27909812961E+02  0.10566000000E+00 0. -1.
        994    1    1    2    0    0  0.30869671541E+01  0.39386684949E+00  0.22228313062E+01  0.17124270926E+03  0.17120000000E+03 0.  0.
        998    1    1    2    0    0  0.85625741957E-01 -0.10550899899E+02  0.14719756955E+04  0.14720474778E+04  0.10000000000E+02 0. -1.
</event>
<event>
 5    1  0.1364103E-008  0.3701812E+03  0.7957747E-01  0.3495058E+00
         13   -1    0    0    0    0  0.00000000000E+00  0.00000000000E+00  0.14999999963E+04  0.15000000000E+04  0.10566000000E+00 0.  1.
        994   -1    0    0    0    0 -0.00000000000E+00 -0.00000000000E+00  0.11368683772E-12  0.17120000000E+03  0.17120000000E+03 0.  0.
         13    1    1    2    0    0 -0.48457035091E+02  0.16024314305E+02  0.16880313473E+03  0.17635014136E+03  0.10566000000E+00 0.  1.
        994    1    1    2    0    0 -0.83425361560E+01  0.42305367748E+01  0.94767762803E+01  0.17171704819E+03  0.17120000000E+03 0.  0.
        998    1    1    2    0    0  0.56799571247E+02 -0.20254851080E+02  0.13217200853E+04  0.13231328104E+04  0.10000000000E+02 0.  1.
</event>
<event>
 5    1  0.1364103E-008  0.3782342E+03  0.7957747E-01  0.3458883E+00
         13   -1    0    0    0    0  0.00000000000E+00  0.00000000000E+00  0.14999999963E+04  0.15000000000E+04  0.10566000000E+00 0. -1.
        994   -1    0    0    0    0 -0.00000000000E+00 -0.00000000000E+00  0.11368683772E-12  0.17120000000E+03  0.17120000000E+03 0.  0.
         13    1    1    2    0    0 -0.18798085562E+02  0.35730160134E+02  0.46096815417E+02  0.61277564570E+02  0.10566000000E+00 0. -1.
        994    1    1    2    0    0  0.16939954190E+02 -0.34405213183E+02  0.20673992638E+02  0.17665654450E+03  0.17120000000E+03 0.  0.
        998    1    1    2    0    0  0.18581313713E+01 -0.13249469511E+01  0.14332291882E+04  0.14332658909E+04  0.10000000000E+02 0.  0.
</event>
<event>
 5    1  0.1364103E-008  0.3819816E+03  0.7957747E-01  0.3442575E+00
         13   -1    0    0    0    0  0.00000000000E+00  0.00000000000E+00  0.14999999963E+04  0.15000000000E+04  0.10566000000E+00 0. -1.
        994   -1    0    0    0    0 -0.00000000000E+00 -0.00000000000E+00  0.11368683772E-12  0.17120000000E+03  0.17120000000E+03 0.  0.
         13    1    1    2    0    0 -0.23888574211E+01 -0.13787609227E+02  0.29341003916E+02  0.32507083579E+02  0.10566000000E+00 0. -1.
        994    1    1    2    0    0  0.62303427102E+01  0.15900753606E+02  0.41053721713E+01  0.17209864966E+03  0.17120000000E+03 0.  0.
        998    1    1    2    0    0 -0.38414852890E+01 -0.21131443793E+01  0.14665536202E+04  0.14665942668E+04  0.10000000000E+02 0. -1.
</event>
<event>
 5    1  0.1364103E-008  0.3844509E+03  0.7957747E-01  0.3432004E+00
         13   -1    0    0    0    0  0.00000000000E+00  0.00000000000E+00  0.14999999963E+04  0.15000000000E+04  0.10566000000E+00 0.  1.
        994   -1    0    0    0    0 -0.00000000000E+00 -0.00000000000E+00  0.11368683772E-12  0.17120000000E+03  0.17120000000E+03 0.  0.
         13    1    1    2    0    0 -0.12188591380E+02 -0.49853683635E+01  0.44537472526E+02  0.46443657055E+02  0.10566000000E+00 0.  1.
        994    1    1    2    0    0  0.10703269210E+02  0.55340995981E+01  0.23814762479E+01  0.17164002348E+03  0.17120000000E+03 0.  0.
        998    1    1    2    0    0  0.14853221700E+01 -0.54873123464E+00  0.14530810475E+04  0.14531163195E+04  0.10000000000E+02 0.  1.
</event>
<event>
 5    1  0.1364103E-008  0.3783299E+03  0.7957747E-01  0.3458463E+00
         13   -1    0    0    0    0  0.00000000000E+00  0.00000000000E+00  0.14999999963E+04  0.15000000000E+04  0.10566000000E+00 0. -1.
        994   -1    0    0    0    0 -0.00000000000E+00 -0.00000000000E+00  0.11368683772E-12  0.17120000000E+03  0.17120000000E+03 0.  0.
         13    1    1    2    0    0  0.83795787341E+02  0.65902898783E+01  0.50068678111E+03  0.50769324383E+03  0.10566000000E+00 0. -1.
        994    1    1    2    0    0 -0.85113079840E+02  0.30671861333E+02  0.33004698434E+02  0.19642746640E+03  0.17120000000E+03 0.  0.
        998    1    1    2    0    0  0.13172924996E+01 -0.37262151211E+02  0.96630851674E+03  0.96707928977E+03  0.10000000000E+02 0. -1.
</event>
<event>
 5    1  0.1364103E-008  0.2685650E+03  0.7957747E-01  0.4149602E+00
         13   -1    0    0    0    0  0.00000000000E+00  0.00000000000E+00  0.14999999963E+04  0.15000000000E+04  0.10566000000E+00 0. -1.
        994   -1    0    0    0    0 -0.00000000000E+00 -0.00000000000E+00  0.11368683772E-12  0.17120000000E+03  0.17120000000E+03 0.  0.
         13    1    1    2    0    0 -0.85149065327E+02 -0.11186717749E+03  0.58522391549E+03  0.60187346773E+03  0.10566000000E+00 0. -1.
        994    1    1    2    0    0  0.21572600546E+02  0.50702086672E+02  0.32704874722E+02  0.18279805119E+03  0.17120000000E+03 0.  0.
        998    1    1    2    0    0  0.63576464781E+02  0.61165090819E+02  0.88207120606E+03  0.88652848108E+03  0.10000000000E+02 0. -1.
</event>
<event>
 5    1  0.1364103E-008  0.3749068E+03  0.7957747E-01  0.3473640E+00
         13   -1    0    0    0    0  0.00000000000E+00  0.00000000000E+00  0.14999999963E+04  0.15000000000E+04  0.10566000000E+00 0.  1.
        994   -1    0    0    0    0 -0.00000000000E+00 -0.00000000000E+00  0.11368683772E-12  0.17120000000E+03  0.17120000000E+03 0.  0.
         13    1    1    2    0    0  0.23363245792E+02  0.22688178460E+02  0.79028910162E+02  0.85476163351E+02  0.10566000000E+00 0.  1.
        994    1    1    2    0    0 -0.23999648984E+02  0.80936339621E+01  0.89108884954E+01  0.17329262534E+03  0.17120000000E+03 0.  0.
        998    1    1    2    0    0  0.63640319119E+00 -0.30781812422E+02  0.14120601976E+04  0.14124312113E+04  0.10000000000E+02 0.  1.
</event>
<event>
 5    1  0.1364103E-008  0.3837738E+03  0.7957747E-01  0.3434889E+00
         13   -1    0    0    0    0  0.00000000000E+00  0.00000000000E+00  0.14999999963E+04  0.15000000000E+04  0.10566000000E+00 0.  1.
        994   -1    0    0    0    0 -0.00000000000E+00 -0.00000000000E+00  0.11368683772E-12  0.17120000000E+03  0.17120000000E+03 0.  0.
         13    1    1    2    0    0  0.22957108326E+01 -0.11965398144E+02  0.32254839326E+02  0.34479368686E+02  0.10566000000E+00 0.  1.
        994    1    1    2    0    0 -0.10782938673E+01  0.10094863671E+02  0.25805189778E+01  0.17152016811E+03  0.17120000000E+03 0.  0.
        998    1    1    2    0    0 -0.12174169653E+01  0.18705344734E+01  0.14651646380E+04  0.14652004632E+04  0.10000000000E+02 0.  1.
</event>
<event>
 5    1  0.1364103E-008  0.3853635E+03  0.7957747E-01  0.3428132E+00
         13   -1    0    0    0    0  0.00000000000E+00  0.00000000000E+00  0.14999999963E+04  0.15000000000E+04  0.10566000000E+00 0. -1.
        994   -1    0    0    0    0 -0.00000000000E+00 -0.00000000000E+00  0.11368683772E-12  0.17120000000E+03  0.17120000000E+03 0.  0.
         13    1    1    2    0    0  0.50739219913E+01  0.14334358101E+02  0.84715947907E+02  0.86069864066E+02  0.10566000000E+00 0. -1.
        994    1    1    2    0    0 -0.46524554588E+01 -0.10959284070E+01  0.15248199290E+01  0.17127349905E+03  0.17120000000E+03 0.  0.
        998    1    1    2    0    0 -0.42146653255E+00 -0.13238429694E+02  0.14137592284E+04  0.14138566369E+04  0.10000000000E+02 0. -1.
</event>
<event>
 5    1  0.1364103E-008  0.3778417E+03  0.7957747E-01  0.3460610E+00
         13   -1    0    0    0    0  0.00000000000E+00  0.00000000000E+00  0.14999999963E+04  0.15000000000E+04  0.10566000000E+00 0. -1.
        994   -1    0    0    0    0 -0.00000000000E+00 -0.00000000000E+00  0.11368683772E-12  0.17120000000E+03  0.17120000000E+03 0.  0.
         13    1    1    2    0    0  0.11198621275E+03  0.79607291094E+01  0.64310589237E+03  0.65283189645E+03  0.10566000000E+00 0. -1.
        994    1    1    2    0    0 -0.11497992321E+03  0.14520381959E+01  0.51123354892E+02  0.21247477161E+03  0.17120000000E+03 0.  0.
        998    1    1    2    0    0  0.29937104622E+01 -0.94127673053E+01  0.80577074901E+03  0.80589333193E+03  0.10000000000E+02 0.  1.
</event>
<event>
 5    1  0.1364103E-008  0.3812774E+03  0.7957747E-01  0.3445615E+00
         13   -1    0    0    0    0  0.00000000000E+00  0.00000000000E+00  0.14999999963E+04  0.15000000000E+04  0.10566000000E+00 0. -1.
        994   -1    0    0    0    0 -0.00000000000E+00 -0.00000000000E+00  0.11368683772E-12  0.17120000000E+03  0.17120000000E+03 0.  0.
         13    1    1    2    0    0  0.44889025243E+02 -0.33810868954E+02  0.80773995393E+02  0.98400451943E+02  0.10566000000E+00 0. -1.
        994    1    1    2    0    0 -0.59278773940E+02  0.25758733408E+02  0.32401228072E+02  0.18584069782E+03  0.17120000000E+03 0.  0.
        998    1    1    2    0    0  0.14389748697E+02  0.80521355460E+01  0.13868247728E+04  0.13869588502E+04  0.10000000000E+02 0. -1.
</event>
<event>
 5    1  0.1364103E-008  0.3827199E+03  0.7957747E-01  0.3439400E+00
         13   -1    0    0    0    0  0.00000000000E+00  0.00000000000E+00  0.14999999963E+04  0.15000000000E+04  0.10566000000E+00 0.  1.
        994   -1    0    0    0    0 -0.00000000000E+00 -0.00000000000E+00  0.11368683772E-12  0.17120000000E+03  0.17120000000E+03 0.  0.
         13    1    1    2    0    0 -0.13029727958E+02  0.77911900330E+01  0.40129141716E+02  0.42904960455E+02  0.10566000000E+00 0.  1.
        994    1    1    2    0    0  0.85012920529E+01 -0.13098679890E+02  0.35747184791E+01  0.17194785836E+03  0.17120000000E+03 0.  0.
        998    1    1    2    0    0  0.45284359049E+01  0.53074898569E+01  0.14562961361E+04  0.14563471812E+04  0.10000000000E+02 0.  1.
</event>
<event>
 5    1  0.1364103E-008  0.3832311E+03  0.7957747E-01  0.3437209E+00
         13   -1    0    0    0    0  0.00000000000E+00  0.00000000000E+00  0.14999999963E+04  0.15000000000E+04  0.10566000000E+00 0. -1.
        994   -1    0    0    0    0 -0.00000000000E+00 -0.00000000000E+00  0.11368683772E-12  0.17120000000E+03  0.17120000000E+03 0.  0.
         13    1    1    2    0    0 -0.16538694918E+02 -0.95039441308E+01  0.80313890553E+02  0.82548080314E+02  0.10566000000E+00 0. -1.
        994    1    1    2    0    0 -0.43607313878E+01 -0.63980695551E+01  0.27092163278E+01  0.17139641515E+03  0.17120000000E+03 0.  0.
        998    1    1    2    0    0  0.20899426306E+02  0.15902013686E+02  0.14169768894E+04  0.14172555045E+04  0.10000000000E+02 0. -1.
</event>
<event>
 5    1  0.1364103E-008  0.3834251E+03  0.7957747E-01  0.3436379E+00
         13   -1    0    0    0    0  0.00000000000E+00  0.00000000000E+00  0.14999999963E+04  0.15000000000E+04  0.10566000000E+00 0. -1.
        994   -1    0    0    0    0 -0.00000000000E+00 -0.00000000000E+00  0.11368683772E-12  0.17120000000E+03  0.17120000000E+03 0.  0.
         13    1    1    2    0    0 -0.22931989208E+02 -0.88657128144E-01  0.12445444197E+03  0.12654960797E+03  0.10566000000E+00 0. -1.
        994    1    1    2    0    0 -0.40878252836E+01  0.15561232454E+02  0.32702325586E+01  0.17198545489E+03  0.17120000000E+03 0.  0.
        998    1    1    2    0    0  0.27019814492E+02 -0.15472575326E+02  0.13722753218E+04  0.13726649371E+04  0.10000000000E+02 0. -1.
</event>
<event>
 5    1  0.1364103E-008  0.3723352E+03  0.7957747E-01  0.3485227E+00
         13   -1    0    0    0    0  0.00000000000E+00  0.00000000000E+00  0.14999999963E+04  0.15000000000E+04  0.10566000000E+00 0.  1.
        994   -1    0    0    0    0 -0.00000000000E+00 -0.00000000000E+00  0.11368683772E-12  0.17120000000E+03  0.17120000000E+03 0.  0.
         13    1    1    2    0    0  0.17781064328E+02 -0.56764499610E+00  0.15715693773E+02  0.23737789794E+02  0.10566000000E+00 0.  1.
        994    1    1    2    0    0 -0.24197035945E+02 -0.49443019428E+00  0.10065303733E+02  0.17319495186E+03  0.17120000000E+03 0.  0.
        998    1    1    2    0    0  0.64159716165E+01  0.10620751904E+01  0.14742189988E+04  0.14742672583E+04  0.10000000000E+02 0.  1.
</event>
<event>
 5    1  0.1364103E-008  0.3848530E+03  0.7957747E-01  0.3430296E+00
         13   -1    0    0    0    0  0.00000000000E+00  0.00000000000E+00  0.14999999963E+04  0.15000000000E+04  0.10566000000E+00 0.  1.
        994   -1    0    0    0    0 -0.00000000000E+00 -0.00000000000E+00  0.11368683772E-12  0.17120000000E+03  0.17120000000E+03 0.  0.
         13    1    1    2    0    0 -0.29033377182E+01  0.17613185124E+02  0.95859434901E+02  0.97507415532E+02  0.10566000000E+00 0.  1.
        994    1    1    2    0    0 -0.10151535220E+02 -0.10160634294E+02  0.23821912224E+01  0.17181794723E+03  0.17120000000E+03 0.  0.
        998    1    1    2    0    0  0.13054872938E+02 -0.74525508298E+01  0.14017583702E+04  0.14018746372E+04  0.10000000000E+02 0.  1.
</event>
<event>
 5    1  0.1364103E-008  0.3796956E+03  0.7957747E-01  0.3452485E+00
         13   -1    0    0    0    0  0.00000000000E+00  0.00000000000E+00  0.14999999963E+04  0.15000000000E+04  0.10566000000E+00 0.  1.
        994   -1    0    0    0    0 -0.00000000000E+00 -0.00000000000E+00  0.11368683772E-12  0.17120000000E+03  0.17120000000E+03 0.  0.
         13    1    1    2    0    0  0.17613169325E+02  0.55632952756E+01  0.38493327273E+02  0.42695683582E+02  0.10566000000E+00 0.  1.
        994    1    1    2    0    0 -0.98450306369E+01 -0.39911855498E+00  0.46118420393E+01  0.17154530892E+03  0.17120000000E+03 0.  0.
        998    1    1    2    0    0 -0.77681386884E+01 -0.51641767207E+01  0.14568948270E+04  0.14569590075E+04  0.10000000000E+02 0.  1.
</event>
<event>
 5    1  0.1364103E-008  0.3842382E+03  0.7957747E-01  0.3432910E+00
         13   -1    0    0    0    0  0.00000000000E+00  0.00000000000E+00  0.14999999963E+04  0.15000000000E+04  0.10566000000E+00 0. -1.
        994   -1    0    0    0    0 -0.00000000000E+00 -0.00000000000E+00  0.11368683772E-12  0.17120000000E+03  0.17120000000E+03 0.  0.
         13    1    1    2    0    0  0.28273322412E+01  0.20470804251E+02  0.99222259598E+02  0.10135144596E+03  0.10566000000E+00 0. -1.
        994    1    1    2    0    0 -0.63550661505E+01 -0.21702812192E+02  0.36966425785E+01  0.17272667452E+03  0.17120000000E+03 0.  0.
        998    1    1    2    0    0  0.35277339093E+01  0.12320079412E+01  0.13970810941E+04  0.13971218795E+04  0.10000000000E+02 0. -1.
</event>
<event>
 5    1  0.1364103E-008  0.3805547E+03  0.7957747E-01  0.3448747E+00
         13   -1    0    0    0    0  0.00000000000E+00  0.00000000000E+00  0.14999999963E+04  0.15000000000E+04  0.10566000000E+00 0. -1.
        994   -1    0    0    0    0 -0.00000000000E+00 -0.00000000000E+00  0.11368683772E-12  0.17120000000E+03  0.17120000000E+03 0.  0.
         13    1    1    2    0    0  0.29530803707E+02 -0.18761411418E+02  0.12631946035E+03  0.13107507830E+03  0.10566000000E+00 0. -1.
        994    1    1    2    0    0 -0.42986647452E+02  0.42292874950E+02  0.16084579567E+02  0.18222154875E+03  0.17120000000E+03 0.  0.
        998    1    1    2    0    0  0.13455843745E+02 -0.23531463533E+02  0.13575959564E+04  0.13579033729E+04  0.10000000000E+02 0. -1.
</event>
<event>
 5    1  0.1364103E-008  0.3859244E+03  0.7957747E-01  0.3425761E+00
         13   -1    0    0    0    0  0.00000000000E+00  0.00000000000E+00  0.14999999963E+04  0.15000000000E+04  0.10566000000E+00 0.  1.
        994   -1    0    0    0    0 -0.00000000000E+00 -0.00000000000E+00  0.11368683772E-12  0.17120000000E+03  0.17120000000E+03 0.  0.
         13    1    1    2    0    0 -0.64680036856E+01 -0.11328516742E+02  0.74317626402E+02  0.75453900637E+02  0.10566000000E+00 0.  1.
        994    1    1    2    0    0 -0.12645931739E+01  0.88270137333E+01  0.14326214895E+01  0.17143805812E+03  0.17120000000E+03 0.  0.
        998    1    1    2    0    0  0.77325968595E+01  0.25015030084E+01  0.14242497484E+04  0.14243080412E+04  0.10000000000E+02 0.  1.
</event>
<event>
 5    1  0.1364103E-008  0.3778768E+03  0.7957747E-01  0.3460456E+00
         13   -1    0    0    0    0  0.00000000000E+00  0.00000000000E+00  0.14999999963E+04  0.15000000000E+04  0.10566000000E+00 0. -1.
        994   -1    0    0    0    0 -0.00000000000E+00 -0.00000000000E+00  0.11368683772E-12  0.17120000000E+03  0.17120000000E+03 0.  0.
         13    1    1    2    0    0 -0.31113719719E+02 -0.31074162690E+02  0.20846631135E+03  0.21305370514E+03  0.10566000000E+00 0. -1.
        994    1    1    2    0    0  0.74038413905E+01  0.29794490645E+01  0.54232588205E+01  0.17147170531E+03  0.17120000000E+03 0.  0.
        998    1    1    2    0    0  0.23709878328E+02  0.28094713626E+02  0.12861104261E+04  0.12866745896E+04  0.10000000000E+02 0. -1.
</event>
<event>
 5    1  0.1364103E-008  0.3802591E+03  0.7957747E-01  0.3450031E+00
         13   -1    0    0    0    0  0.00000000000E+00  0.00000000000E+00  0.14999999963E+04  0.15000000000E+04  0.10566000000E+00 0.  1.
        994   -1    0    0    0    0 -0.00000000000E+00 -0.00000000000E+00  0.11368683772E-12  0.17120000000E+03  0.17120000000E+03 0.  0.
         13    1    1    2    0    0  0.14945280494E+02  0.66232308897E+01  0.31336247091E+02  0.35344025553E+02  0.10566000000E+00 0.  1.
        994    1    1    2    0    0 -0.16053980815E+02 -0.29764450398E+01  0.48933254378E+01  0.17204643024E+03  0.17120000000E+03 0.  0.
        998    1    1    2    0    0  0.11087003212E+01 -0.36467858499E+01  0.14637704237E+04  0.14638095442E+04  0.10000000000E+02 0.  1.
</event>
<event>
 5    1  0.1364103E-008  0.3846239E+03  0.7957747E-01  0.3431269E+00
         13   -1    0    0    0    0  0.00000000000E+00  0.00000000000E+00  0.14999999963E+04  0.15000000000E+04  0.10566000000E+00 0.  1.
        994   -1    0    0    0    0 -0.00000000000E+00 -0.00000000000E+00  0.11368683772E-12  0.17120000000E+03  0.17120000000E+03 0.  0.
         13    1    1    2    0    0 -0.30806733433E+01  0.14231120976E+02  0.57103204383E+02  0.58930488436E+02  0.10566000000E+00 0.  1.
        994    1    1    2    0    0 -0.57938270266E+01 -0.14473385749E+02  0.26176530209E+01  0.17192829736E+03  0.17120000000E+03 0.  0.
        998    1    1    2    0    0  0.88745003698E+01  0.24226477301E+00  0.14402791389E+04  0.14403412142E+04  0.10000000000E+02 0.  1.
</event>
<event>
 5    1  0.1364103E-008  0.3714863E+03  0.7957747E-01  0.3489088E+00
         13   -1    0    0    0    0  0.00000000000E+00  0.00000000000E+00  0.14999999963E+04  0.15000000000E+04  0.10566000000E+00 0.  1.
        994   -1    0    0    0    0 -0.00000000000E+00 -0.00000000000E+00  0.11368683772E-12  0.17120000000E+03  0.17120000000E+03 0.  0.
         13    1    1    2    0    0 -0.11448237078E+02 -0.36011709152E+02  0.76280276565E+02  0.85126946880E+02  0.10566000000E+00 0.  1.
        994    1    1    2    0    0  0.10864321183E+02  0.39859872128E+02  0.14388730855E+02  0.17670121238E+03  0.17120000000E+03 0.  0.
        998    1    1    2    0    0  0.58391589516E+00 -0.38481629761E+01  0.14093309889E+04  0.14093718407E+04  0.10000000000E+02 0.  1.
</event>
<event>
 5    1  0.1364103E-008  0.3829763E+03  0.7957747E-01  0.3438301E+00
         13   -1    0    0    0    0  0.00000000000E+00  0.00000000000E+00  0.14999999963E+04  0.15000000000E+04  0.10566000000E+00 0. -1.
        994   -1    0    0    0    0 -0.00000000000E+00 -0.00000000000E+00  0.11368683772E-12  0.17120000000E+03  0.17120000000E+03 0.  0.
         13    1    1    2    0    0 -0.14721081607E+02  0.12038776661E+02  0.70814902996E+02  0.73323966324E+02  0.10566000000E+00 0. -1.
        994    1    1    2    0    0  0.12162163147E+01 -0.48217574893E+01  0.27200954794E+01  0.17129380446E+03  0.17120000000E+03 0.  0.
        998    1    1    2    0    0  0.13504865292E+02 -0.72170191714E+01  0.14264649978E+04  0.14265822292E+04  0.10000000000E+02 0. -1.
</event>
<event>
 5    1  0.1364103E-008  0.3859733E+03  0.7957747E-01  0.3425555E+00
         13   -1    0    0    0    0  0.00000000000E+00  0.00000000000E+00  0.14999999963E+04  0.15000000000E+04  0.10566000000E+00 0. -1.
        994   -1    0    0    0    0 -0.00000000000E+00 -0.00000000000E+00  0.11368683772E-12  0.17120000000E+03  0.17120000000E+03 0.  0.
         13    1    1    2    0    0 -0.11431910250E+02 -0.15587986592E+01  0.60695104088E+02  0.61782078708E+02  0.10566000000E+00 0. -1.
        994    1    1    2    0    0  0.34001818956E+01 -0.24307866393E+01  0.12049535946E+01  0.17125525357E+03  0.17120000000E+03 0.  0.
        998    1    1    2    0    0  0.80317283549E+01  0.39895852986E+01  0.14380999386E+04  0.14381626677E+04  0.10000000000E+02 0. -1.
</event>
<event>
 5    1  0.1364103E-008  0.3693882E+03  0.7957747E-01  0.3498707E+00
         13   -1    0    0    0    0  0.00000000000E+00  0.00000000000E+00  0.14999999963E+04  0.15000000000E+04  0.10566000000E+00 0. -1.
        994   -1    0    0    0    0 -0.00000000000E+00 -0.00000000000E+00  0.11368683772E-12  0.17120000000E+03  0.17120000000E+03 0.  0.
         13    1    1    2    0    0 -0.37226323816E+02  0.31667884315E+02  0.12936674196E+03  0.13829106685E+03  0.10566000000E+00 0. -1.
        994    1    1    2    0    0 -0.14119596318E+02  0.25360730226E+01  0.11333882205E+02  0.17217343451E+03  0.17120000000E+03 0.  0.
        998    1    1    2    0    0  0.51345920134E+02 -0.34203957338E+02  0.13592993721E+04  0.13607354986E+04  0.10000000000E+02 0. -1.
</event>
<event>
 5    1  0.2575599E-008  0.3860882E+03  0.7957747E-01  0.3425070E+00
         13   -1    0    0    0    0  0.00000000000E+00  0.00000000000E+00  0.14999999963E+04  0.15000000000E+04  0.10566000000E+00 0.  1.
        994   -1    0    0    0    0 -0.00000000000E+00 -0.00000000000E+00  0.11368683772E-12  0.17120000000E+03  0.17120000000E+03 0.  0.
         13    1    1    2    0    0 -0.10077627966E+02 -0.16610101923E+01  0.48736734180E+02  0.49795561678E+02  0.10566000000E+00 0.  1.
        994    1    1    2    0    0  0.57989247354E+01  0.17107273466E+01  0.12106211101E+01  0.17131100291E+03  0.17120000000E+03 0.  0.
        998    1    1    2    0    0  0.42787032305E+01 -0.49717154270E-01  0.14500526410E+04  0.14500934354E+04  0.10000000000E+02 0.  1.
</event>
<event>
 5    1  0.1364103E-008  0.3722652E+03  0.7957747E-01  0.3485545E+00
         13   -1    0    0    0    0  0.00000000000E+00  0.00000000000E+00  0.14999999963E+04  0.15000000000E+04  0.10566000000E+00 0. -1.
        994   -1    0    0    0    0 -0.00000000000E+00 -0.00000000000E+00  0.11368683772E-12  0.17120000000E+03  0.17120000000E+03 0.  0.
         13    1    1    2    0    0  0.24538443261E+02  0.30638214192E+02  0.56048591735E+02  0.68427269170E+02  0.10566000000E+00 0. -1.
        994    1    1    2    0    0 -0.29194220359E+02 -0.33340746848E+02  0.19094529801E+02  0.17787059614E+03  0.17120000000E+03 0.  0.
        998    1    1    2    0    0  0.46557770983E+01  0.27025326563E+01  0.14248568747E+04  0.14249021347E+04  0.10000000000E+02 0. -1.
</event>
<event>
 5    1  0.1364103E-008  0.3771447E+03  0.7957747E-01  0.3463686E+00
         13   -1    0    0    0    0  0.00000000000E+00  0.00000000000E+00  0.14999999963E+04  0.15000000000E+04  0.10566000000E+00 0. -1.
        994   -1    0    0    0    0 -0.00000000000E+00 -0.00000000000E+00  0.11368683772E-12  0.17120000000E+03  0.17120000000E+03 0.  0.
         13    1    1    2    0    0 -0.31322848063E+02  0.20909005894E+02  0.14452315373E+03  0.14934945754E+03  0.10566000000E+00 0. -1.
        994    1    1    2    0    0 -0.13018720460E+02 -0.13512698292E+02  0.67705693045E+01  0.17235823365E+03  0.17120000000E+03 0.  0.
        998    1    1    2    0    0  0.44341568522E+02 -0.73963076018E+01  0.13487062732E+04  0.13494923088E+04  0.10000000000E+02 0. -1.
</event>
<event>
 5    1  0.1364103E-008  0.3854168E+03  0.7957747E-01  0.3427906E+00
         13   -1    0    0    0    0  0.00000000000E+00  0.00000000000E+00  0.14999999963E+04  0.15000000000E+04  0.10566000000E+00 0. -1.
        994   -1    0    0    0    0 -0.00000000000E+00 -0.00000000000E+00  0.11368683772E-12  0.17120000000E+03  0.17120000000E+03 0.  0.
         13    1    1    2    0    0  0.91749084758E+01 -0.66994679654E+01  0.52407745748E+02  0.53625038881E+02  0.10566000000E+00 0. -1.
        994    1    1    2    0    0  0.18191709471E+02 -0.50380043967E+00  0.25118121864E+01  0.17218287171E+03  0.17120000000E+03 0.  0.
        998    1    1    2    0    0 -0.27366617947E+02  0.72032684051E+01  0.14450804383E+04  0.14453920894E+04  0.10000000000E+02 0. -1.
</event>
<event>
 5    1  0.1364103E-008  0.4297621E+03  0.7957747E-01  0.3259512E+00
         13   -1    0    0    0    0  0.00000000000E+00  0.00000000000E+00  0.14999999963E+04  0.15000000000E+04  0.10566000000E+00 0.  1.
        994   -1    0    0    0    0 -0.00000000000E+00 -0.00000000000E+00  0.11368683772E-12  0.17120000000E+03  0.17120000000E+03 0.  0.
         13    1    1    2    0    0  0.57070762466E+02 -0.94510546504E+01  0.19206862611E+02  0.60953335412E+02  0.10566000000E+00 0.  1.
        994    1    1    2    0    0 -0.49781876516E+02  0.84105335186E+01  0.58401492652E+02  0.18780081642E+03  0.17120000000E+03 0.  0.
        998    1    1    2    0    0 -0.72888859502E+01  0.10405211318E+01  0.14223916410E+04  0.14224458482E+04  0.10000000000E+02 0.  1.
</event>
<event>
 5    1  0.1364103E-008  0.3797433E+03  0.7957747E-01  0.3452277E+00
         13   -1    0    0    0    0  0.00000000000E+00  0.00000000000E+00  0.14999999963E+04  0.15000000000E+04  0.10566000000E+00 0.  1.
        994   -1    0    0    0    0 -0.00000000000E+00 -0.00000000000E+00  0.11368683772E-12  0.17120000000E+03  0.17120000000E+03 0.  0.
         13    1    1    2    0    0 -0.11260363978E+03 -0.72298153648E+02  0.80658198430E+03  0.81760694180E+03  0.10566000000E+00 0.  1.
        994    1    1    2    0    0  0.10454580216E+03  0.10130452238E+03  0.78776661418E+02  0.23813364606E+03  0.17120000000E+03 0.  0.
        998    1    1    2    0    0  0.80578376268E+01 -0.29006368729E+02  0.61464135056E+03  0.61545941214E+03  0.10000000000E+02 0. -1.
</event>
<event>
 5    1  0.1364103E-008  0.3833395E+03  0.7957747E-01  0.3436745E+00
         13   -1    0    0    0    0  0.00000000000E+00  0.00000000000E+00  0.14999999963E+04  0.15000000000E+04  0.10566000000E+00 0. -1.
        994   -1    0    0    0    0 -0.00000000000E+00 -0.00000000000E+00  0.11368683772E-12  0.17120000000E+03  0.17120000000E+03 0.  0.
         13    1    1    2    0    0 -0.23200116763E+02  0.63666786445E+01  0.13316717289E+03  0.13532289944E+03  0.10566000000E+00 0. -1.
        994    1    1    2    0    0 -0.62585252499E+01 -0.17459659894E+02  0.35950560073E+01  0.17223929078E+03  0.17120000000E+03 0.  0.
        998    1    1    2    0    0  0.29458642012E+02  0.11092981250E+02  0.13632377674E+04  0.13636378098E+04  0.10000000000E+02 0. -1.
</event>
<event>
 5    1  0.1364103E-008  0.3802872E+03  0.7957747E-01  0.3449909E+00
         13   -1    0    0    0    0  0.00000000000E+00  0.00000000000E+00  0.14999999963E+04  0.15000000000E+04  0.10566000000E+00 0. -1.
        994   -1    0    0    0    0 -0.00000000000E+00 -0.00000000000E+00  0.11368683772E-12  0.17120000000E+03  0.17120000000E+03 0.  0.
         13    1    1    2    0    0 -0.12173349142E+02  0.11665591244E+02  0.35700267193E+02  0.39481599386E+02  0.10566000000E+00 0. -1.
        994    1    1    2    0    0  0.15855785406E+01  0.52711063980E+01  0.40894441354E+01  0.17133727608E+03  0.17120000000E+03 0.  0.
        998    1    1    2    0    0  0.10587770602E+02 -0.16936697642E+02  0.14602102850E+04  0.14603811245E+04  0.10000000000E+02 0. -1.
</event>
<event>
 5    1  0.2108646E-008  0.3856660E+03  0.7957747E-01  0.3426852E+00
         13   -1    0    0    0    0  0.00000000000E+00  0.00000000000E+00  0.14999999963E+04  0.15000000000E+04  0.10566000000E+00 0.  1.
        994   -1    0    0    0    0 -0.00000000000E+00 -0.00000000000E+00  0.11368683772E-12  0.17120000000E+03  0.17120000000E+03 0.  0.
         13    1    1    2    0    0  0.10559984043E+02  0.40918987617E+01  0.48183308961E+02  0.49496457701E+02  0.10566000000E+00 0.  1.
        994    1    1    2    0    0 -0.10615855530E+02 -0.74766655619E+01  0.18532733463E+01  0.17170169346E+03  0.17120000000E+03 0.  0.
        998    1    1    2    0    0  0.55871487121E-01  0.33847668002E+01  0.14499634140E+04  0.14500018488E+04  0.10000000000E+02 0.  1.
</event>
<event>
 5    1  0.1364103E-008  0.3848964E+03  0.7957747E-01  0.3430112E+00
         13   -1    0    0    0    0  0.00000000000E+00  0.00000000000E+00  0.14999999963E+04  0.15000000000E+04  0.10566000000E+00 0. -1.
        994   -1    0    0    0    0 -0.00000000000E+00 -0.00000000000E+00  0.11368683772E-12  0.17120000000E+03  0.17120000000E+03 0.  0.
         13    1    1    2    0    0 -0.10052108414E+02  0.68797060709E+01  0.44082032272E+02  0.45734144492E+02  0.10566000000E+00 0. -1.
        994    1    1    2    0    0  0.42207780571E+01 -0.75030790989E+01  0.19254459451E+01  0.17142712302E+03  0.17120000000E+03 0.  0.
        998    1    1    2    0    0  0.58313303566E+01  0.62337302798E+00  0.14539925181E+04  0.14540387325E+04  0.10000000000E+02 0. -1.
</event>
<event>
 5    1  0.1364103E-008  0.3835597E+03  0.7957747E-01  0.3435804E+00
         13   -1    0    0    0    0  0.00000000000E+00  0.00000000000E+00  0.14999999963E+04  0.15000000000E+04  0.10566000000E+00 0. -1.
        994   -1    0    0    0    0 -0.00000000000E+00 -0.00000000000E+00  0.11368683772E-12  0.17120000000E+03  0.17120000000E+03 0.  0.
         13    1    1    2    0    0 -0.14223605990E+02  0.15982177453E+02  0.94539115672E+02  0.96929853603E+02  0.10566000000E+00 0. -1.
        994    1    1    2    0    0  0.90658138589E+01 -0.15124172858E+02  0.33749243748E+01  0.17213878035E+03  0.17120000000E+03 0.  0.
        998    1    1    2    0    0  0.51577921309E+01 -0.85800459556E+00  0.14020859562E+04  0.14021313660E+04  0.10000000000E+02 0. -1.
</event>
<event>
 5    1  0.1364103E-008  0.3840409E+03  0.7957747E-01  0.3433750E+00
         13   -1    0    0    0    0  0.00000000000E+00  0.00000000000E+00  0.14999999963E+04  0.15000000000E+04  0.10566000000E+00 0.  1.
        994   -1    0    0    0    0 -0.00000000000E+00 -0.00000000000E+00  0.11368683772E-12  0.17120000000E+03  0.17120000000E+03 0.  0.
         13    1    1    2    0    0 -0.14374185995E+01 -0.20669175463E+02  0.98916776783E+02  0.10106344977E+03  0.10566000000E+00 0.  1.
        994    1    1    2    0    0 -0.75455913919E+00  0.16782875130E+02  0.30386967830E+01  0.17204914395E+03  0.17120000000E+03 0.  0.
        998    1    1    2    0    0  0.21919777387E+01  0.38863003335E+01  0.13980445227E+04  0.13980874063E+04  0.10000000000E+02 0.  1.
</event>
<event>
 5    1  0.1364103E-008  0.3825376E+03  0.7957747E-01  0.3440183E+00
         13   -1    0    0    0    0  0.00000000000E+00  0.00000000000E+00  0.14999999963E+04  0.15000000000E+04  0.10566000000E+00 0.  1.
        994   -1    0    0    0    0 -0.00000000000E+00 -0.00000000000E+00  0.11368683772E-12  0.17120000000E+03  0.17120000000E+03 0.  0.
         13    1    1    2    0    0 -0.15502153305E+02 -0.37877170181E+01  0.43110256119E+02  0.45969216917E+02  0.10566000000E+00 0.  1.
        994    1    1    2    0    0  0.97152749868E+01  0.17365792651E+02  0.41713612221E+01  0.17240300919E+03  0.17120000000E+03 0.  0.
        998    1    1    2    0    0  0.57868783179E+01 -0.13578075633E+02  0.14527183789E+04  0.14528277739E+04  0.10000000000E+02 0.  1.
</event>
<event>
 5    1  0.1364103E-008  0.3833067E+03  0.7957747E-01  0.3436886E+00
         13   -1    0    0    0    0  0.00000000000E+00  0.00000000000E+00  0.14999999963E+04  0.15000000000E+04  0.10566000000E+00 0. -1.
        994   -1    0    0    0    0 -0.00000000000E+00 -0.00000000000E+00  0.11368683772E-12  0.17120000000E+03  0.17120000000E+03 0.  0.
         13    1    1    2    0    0  0.33765555320E+01  0.13964895249E+02  0.40684119143E+02  0.43146588985E+02  0.10566000000E+00 0. -1.
        994    1    1    2    0    0 -0.54182969766E+01 -0.10472883570E+02  0.29330710124E+01  0.17163065617E+03  0.17120000000E+03 0.  0.
        998    1    1    2    0    0  0.20417414446E+01 -0.34920116789E+01  0.14563828061E+04  0.14564227548E+04  0.10000000000E+02 0. -1.
</event>
<event>
 5    1  0.1364103E-008  0.3769078E+03  0.7957747E-01  0.3464734E+00
         13   -1    0    0    0    0  0.00000000000E+00  0.00000000000E+00  0.14999999963E+04  0.15000000000E+04  0.10566000000E+00 0. -1.
        994   -1    0    0    0    0 -0.00000000000E+00 -0.00000000000E+00  0.11368683772E-12  0.17120000000E+03  0.17120000000E+03 0.  0.
         13    1    1    2    0    0  0.24119177457E+00  0.38973796322E+02  0.12469975007E+03  0.13064858899E+03  0.10566000000E+00 0. -1.
        994    1    1    2    0    0 -0.41773451911E+01 -0.33479648507E+02  0.95565816960E+01  0.17475441434E+03  0.17120000000E+03 0.  0.
        998    1    1    2    0    0  0.39361534165E+01 -0.54941478155E+01  0.13657436645E+04  0.13657969967E+04  0.10000000000E+02 0. -1.
</event>
<event>
 5    1  0.1364103E-008  0.3933090E+03  0.7957747E-01  0.3395180E+00
         13   -1    0    0    0    0  0.00000000000E+00  0.00000000000E+00  0.14999999963E+04  0.15000000000E+04  0.10566000000E+00 0. -1.
        994   -1    0    0    0    0 -0.00000000000E+00 -0.00000000000E+00  0.11368683772E-12  0.17120000000E+03  0.17120000000E+03 0.  0.
         13    1    1    2    0    0 -0.10798613013E+03 -0.95430382024E+02  0.37256584522E+03  0.39946624676E+03  0.10566000000E+00 0. -1.
        994    1    1    2    0    0  0.76509823713E+02  0.84717836698E+02  0.75431004571E+02  0.21915780029E+03  0.17120000000E+03 0.  0.
        998    1    1    2    0    0  0.31476306418E+02  0.10712545326E+02  0.10520031465E+04  0.10525759529E+04  0.10000000000E+02 0. -1.
</event>
<event>
 5    1  0.1364103E-008  0.3813366E+03  0.7957747E-01  0.3445359E+00
         13   -1    0    0    0    0  0.00000000000E+00  0.00000000000E+00  0.14999999963E+04  0.15000000000E+04  0.10566000000E+00 0. -1.
        994   -1    0    0    0    0 -0.00000000000E+00 -0.00000000000E+00  0.11368683772E-12  0.17120000000E+03  0.17120000000E+03 0.  0.
         13    1    1    2    0    0  0.51562571783E+01  0.10978657042E+02  0.19470385528E+02  0.22939594050E+02  0.10566000000E+00 0. -1.
        994    1    1    2    0    0 -0.31969452091E+01 -0.15610436194E+02  0.43054879238E+01  0.17199384699E+03  0.17120000000E+03 0.  0.
        998    1    1    2    0    0 -0.19593119692E+01  0.46317791521E+01  0.14762241228E+04  0.14762665590E+04  0.10000000000E+02 0. -1.
</event>
<event>
 5    1  0.1364103E-008  0.3845162E+03  0.7957747E-01  0.3431727E+00
         13   -1    0    0    0    0  0.00000000000E+00  0.00000000000E+00  0.14999999963E+04  0.15000000000E+04  0.10566000000E+00 0. -1.
        994   -1    0    0    0    0 -0.00000000000E+00 -0.00000000000E+00  0.11368683772E-12  0.17120000000E+03  0.17120000000E+03 0.  0.
         13    1    1    2    0    0 -0.18855141564E+02  0.69649574037E+01  0.96139977414E+02  0.98218803781E+02  0.10566000000E+00 0. -1.
        994    1    1    2    0    0  0.29307158380E+02 -0.41398814709E+01  0.47613964903E+01  0.17380494541E+03  0.17120000000E+03 0.  0.
        998    1    1    2    0    0 -0.10452016817E+02 -0.28250759328E+01  0.13990986224E+04  0.13991762508E+04  0.10000000000E+02 0. -1.
</event>
<event>
 5    1  0.1364103E-008  0.3865841E+03  0.7957747E-01  0.3422982E+00
         13   -1    0    0    0    0  0.00000000000E+00  0.00000000000E+00  0.14999999963E+04  0.15000000000E+04  0.10566000000E+00 0.  1.
        994   -1    0    0    0    0 -0.00000000000E+00 -0.00000000000E+00  0.11368683772E-12  0.17120000000E+03  0.17120000000E+03 0.  0.
         13    1    1    2    0    0  0.23885844006E+02 -0.12301950570E+03  0.33622974480E+03  0.35882416972E+03  0.10566000000E+00 0.  1.
        994    1    1    2    0    0 -0.36303360063E+02  0.96847851486E+02  0.60904361176E+02  0.20908424498E+03  0.17120000000E+03 0.  0.
        998    1    1    2    0    0  0.12417516058E+02  0.26171654209E+02  0.11028658903E+04  0.11032915853E+04  0.10000000000E+02 0.  1.
</event>
<event>
 5    1  0.1364103E-008  0.3798545E+03  0.7957747E-01  0.3451792E+00
         13   -1    0    0    0    0  0.00000000000E+00  0.00000000000E+00  0.14999999963E+04  0.15000000000E+04  0.10566000000E+00 0. -1.
        994   -1    0    0    0    0 -0.00000000000E+00 -0.00000000000E+00  0.11368683772E-12  0.17120000000E+03  0.17120000000E+03 0.  0.
         13    1    1    2    0    0 -0.34161559027E+02  0.23579427130E+02  0.21714249771E+03  0.22107436978E+03  0.10566000000E+00 0. -1.
        994    1    1    2    0    0  0.22365016004E+02  0.44611457879E+01  0.59480171854E+01  0.17281468303E+03  0.17120000000E+03 0.  0.
        998    1    1    2    0    0  0.11796543023E+02 -0.28040572918E+02  0.12769094814E+04  0.12773109472E+04  0.10000000000E+02 0. -1.
</event>
<event>
 5    1  0.1364103E-008  0.3835937E+03  0.7957747E-01  0.3435658E+00
         13   -1    0    0    0    0  0.00000000000E+00  0.00000000000E+00  0.14999999963E+04  0.15000000000E+04  0.10566000000E+00 0. -1.
        994   -1    0    0    0    0 -0.00000000000E+00 -0.00000000000E+00  0.11368683772E-12  0.17120000000E+03  0.17120000000E+03 0.  0.
         13    1    1    2    0    0 -0.26554583137E+02 -0.86278221622E+01  0.14494283358E+03  0.14760766028E+03  0.10566000000E+00 0. -1.
        994    1    1    2    0    0  0.35210611104E+02  0.35740904732E+01  0.64790779681E+01  0.17493993171E+03  0.17120000000E+03 0.  0.
        998    1    1    2    0    0 -0.86560279670E+01  0.50537316889E+01  0.13485780847E+04  0.13486524080E+04  0.10000000000E+02 0. -1.
</event>
<event>
 5    1  0.1364103E-008  0.3856997E+03  0.7957747E-01  0.3426710E+00
         13   -1    0    0    0    0  0.00000000000E+00  0.00000000000E+00  0.14999999963E+04  0.15000000000E+04  0.10566000000E+00 0. -1.
        994   -1    0    0    0    0 -0.00000000000E+00 -0.00000000000E+00  0.11368683772E-12  0.17120000000E+03  0.17120000000E+03 0.  0.
         13    1    1    2    0    0 -0.42253681631E+00 -0.11857719933E+02  0.55143168523E+02  0.56405356644E+02  0.10566000000E+00 0. -1.
        994    1    1    2    0    0  0.27440192998E+01  0.81808828822E+01  0.15274986110E+01  0.17142412239E+03  0.17120000000E+03 0.  0.
        998    1    1    2    0    0 -0.23214824835E+01  0.36768370504E+01  0.14433293291E+04  0.14433705210E+04  0.10000000000E+02 0. -1.
</event>
<event>
 5    1  0.1364103E-008  0.3854771E+03  0.7957747E-01  0.3427651E+00
         13   -1    0    0    0    0  0.00000000000E+00  0.00000000000E+00  0.14999999963E+04  0.15000000000E+04  0.10566000000E+00 0.  1.
        994   -1    0    0    0    0 -0.00000000000E+00 -0.00000000000E+00  0.11368683772E-12  0.17120000000E+03  0.17120000000E+03 0.  0.
         13    1    1    2    0    0  0.55583363946E+01  0.12593929428E+02  0.70977939499E+02  0.72300630851E+02  0.10566000000E+00 0.  1.
        994    1    1    2    0    0  0.25515729020E+01 -0.52945709539E+01  0.15068932440E+01  0.17130748300E+03  0.17120000000E+03 0.  0.
        998    1    1    2    0    0 -0.81099092966E+01 -0.72993584737E+01  0.14275151635E+04  0.14275918861E+04  0.10000000000E+02 0.  1.
</event>
<event>
 5    1  0.1364103E-008  0.3857201E+03  0.7957747E-01  0.3426624E+00
         13   -1    0    0    0    0  0.00000000000E+00  0.00000000000E+00  0.14999999963E+04  0.15000000000E+04  0.10566000000E+00 0.  1.
        994   -1    0    0    0    0 -0.00000000000E+00 -0.00000000000E+00  0.11368683772E-12  0.17120000000E+03  0.17120000000E+03 0.  0.
         13    1    1    2    0    0 -0.12806212817E+02 -0.32790629373E+01  0.67958026630E+02  0.69231899353E+02  0.10566000000E+00 0.  1.
        994    1    1    2    0    0  0.10451874959E+02  0.42535308764E+01  0.16909109126E+01  0.17157981640E+03  0.17120000000E+03 0.  0.
        998    1    1    2    0    0  0.23543378576E+01 -0.97446793918E+00  0.14303510587E+04  0.14303882843E+04  0.10000000000E+02 0.  1.
</event>
<event>
 5    1  0.1364103E-008  0.3691780E+03  0.7957747E-01  0.3499677E+00
         13   -1    0    0    0    0  0.00000000000E+00  0.00000000000E+00  0.14999999963E+04  0.15000000000E+04  0.10566000000E+00 0. -1.
        994   -1    0    0    0    0 -0.00000000000E+00 -0.00000000000E+00  0.11368683772E-12  0.17120000000E+03  0.17120000000E+03 0.  0.
         13    1    1    2    0    0 -0.43922714907E+02  0.25681610829E+02  0.13010043931E+03  0.13969568888E+03  0.10566000000E+00 0. -1.
        994    1    1    2    0    0  0.87975967569E+01 -0.62657099750E+01  0.10911575058E+02  0.17188705391E+03  0.17120000000E+03 0.  0.
        998    1    1    2    0    0  0.35125118150E+02 -0.19415900854E+02  0.13589879819E+04  0.13596172572E+04  0.10000000000E+02 0. -1.
</event>
<event>
 5    1  0.1364103E-008  0.3693941E+03  0.7957747E-01  0.3498680E+00
         13   -1    0    0    0    0  0.00000000000E+00  0.00000000000E+00  0.14999999963E+04  0.15000000000E+04  0.10566000000E+00 0.  1.
        994   -1    0    0    0    0 -0.00000000000E+00 -0.00000000000E+00  0.11368683772E-12  0.17120000000E+03  0.17120000000E+03 0.  0.
         13    1    1    2    0    0 -0.51116217553E+02  0.22348170010E+02  0.21331577757E+03  0.22049022773E+03  0.10566000000E+00 0.  1.
        994    1    1    2    0    0 -0.20613584853E+02  0.25450049864E+01  0.11082262554E+02  0.17281103401E+03  0.17120000000E+03 0.  0.
        998    1    1    2    0    0  0.71729802406E+02 -0.24893174997E+02  0.12756019561E+04  0.12778987383E+04  0.10000000000E+02 0.  1.
</event>
<event>
 5    1  0.1364103E-008  0.3827266E+03  0.7957747E-01  0.3439372E+00
         13   -1    0    0    0    0  0.00000000000E+00  0.00000000000E+00  0.14999999963E+04  0.15000000000E+04  0.10566000000E+00 0.  1.
        994   -1    0    0    0    0 -0.00000000000E+00 -0.00000000000E+00  0.11368683772E-12  0.17120000000E+03  0.17120000000E+03 0.  0.
         13    1    1    2    0    0  0.20686251811E+00  0.14005912044E+02  0.37258354581E+02  0.39804579063E+02  0.10566000000E+00 0.  1.
        994    1    1    2    0    0 -0.23455221943E+02  0.98187275116E+01  0.49080886884E+01  0.17314757919E+03  0.17120000000E+03 0.  0.
        998    1    1    2    0    0  0.23248359425E+02 -0.23824639556E+02  0.14578335530E+04  0.14582478417E+04  0.10000000000E+02 0.  1.
</event>
<event>
 5    1  0.1364103E-008  0.3837065E+03  0.7957747E-01  0.3435177E+00
         13   -1    0    0    0    0  0.00000000000E+00  0.00000000000E+00  0.14999999963E+04  0.15000000000E+04  0.10566000000E+00 0.  1.
        994   -1    0    0    0    0 -0.00000000000E+00 -0.00000000000E+00  0.11368683772E-12  0.17120000000E+03  0.17120000000E+03 0.  0.
         13    1    1    2    0    0 -0.11896367612E+02  0.13558140860E+02  0.73901884856E+02  0.76071325053E+02  0.10566000000E+00 0.  1.
        994    1    1    2    0    0  0.12465340041E+01 -0.52664502856E+01  0.23704506164E+01  0.17130192171E+03  0.17120000000E+03 0.  0.
        998    1    1    2    0    0  0.10649833608E+02 -0.82916905740E+01  0.14237276608E+04  0.14238267532E+04  0.10000000000E+02 0.  1.
</event>
<event>
 5    1  0.1364103E-008  0.3701802E+03  0.7957747E-01  0.3495063E+00
         13   -1    0    0    0    0  0.00000000000E+00  0.00000000000E+00  0.14999999963E+04  0.15000000000E+04  0.10566000000E+00 0. -1.
        994   -1    0    0    0    0 -0.00000000000E+00 -0.00000000000E+00  0.11368683772E-12  0.17120000000E+03  0.17120000000E+03 0.  0.
         13    1    1    2    0    0 -0.11244835941E+03 -0.45500588249E+02  0.38367953886E+03  0.40239897710E+03  0.10566000000E+00 0. -1.
        994    1    1    2    0    0  0.14413166815E+03  0.42649225345E+02  0.94834591426E+02  0.24677101515E+03  0.17120000000E+03 0.  0.
        998    1    1    2    0    0 -0.31683308739E+02  0.28513629038E+01  0.10214858660E+04  0.10220300078E+04  0.10000000000E+02 0. -1.
</event>
<event>
 5    1  0.1781277E-008  0.3861697E+03  0.7957747E-01  0.3424726E+00
         13   -1    0    0    0    0  0.00000000000E+00  0.00000000000E+00  0.14999999963E+04  0.15000000000E+04  0.10566000000E+00 0.  1.
        994   -1    0    0    0    0 -0.00000000000E+00 -0.00000000000E+00  0.11368683772E-12  0.17120000000E+03  0.17120000000E+03 0.  0.
         13    1    1    2    0    0  0.54913267834E+00  0.10109844761E+02  0.46386773906E+02  0.47478989724E+02  0.10566000000E+00 0.  1.
        994    1    1    2    0    0  0.12300951556E+01 -0.16891103123E+02  0.19907460072E+01  0.17204716088E+03  0.17120000000E+03 0.  0.
        998    1    1    2    0    0 -0.17792278340E+01  0.67812583624E+01  0.14516224764E+04  0.14516738494E+04  0.10000000000E+02 0.  1.
</event>
<event>
 5    1  0.1364103E-008  0.3802374E+03  0.7957747E-01  0.3450126E+00
         13   -1    0    0    0    0  0.00000000000E+00  0.00000000000E+00  0.14999999963E+04  0.15000000000E+04  0.10566000000E+00 0.  1.
        994   -1    0    0    0    0 -0.00000000000E+00 -0.00000000000E+00  0.11368683772E-12  0.17120000000E+03  0.17120000000E+03 0.  0.
         13    1    1    2    0    0  0.10577233349E+02 -0.81578113429E+01  0.20151839607E+02  0.24177170116E+02  0.10566000000E+00 0.  1.
        994    1    1    2    0    0 -0.13760450186E+02  0.97152473329E+01  0.49616962878E+01  0.17209821164E+03  0.17120000000E+03 0.  0.
        998    1    1    2    0    0  0.31832168371E+01 -0.15574359899E+01  0.14748864604E+04  0.14749246182E+04  0.10000000000E+02 0.  1.
</event>
<event>
 5    1  0.1364103E-008  0.3771701E+03  0.7957747E-01  0.3463574E+00
         13   -1    0    0    0    0  0.00000000000E+00  0.00000000000E+00  0.14999999963E+04  0.15000000000E+04  0.10566000000E+00 0.  1.
        994   -1    0    0    0    0 -0.00000000000E+00 -0.00000000000E+00  0.11368683772E-12  0.17120000000E+03  0.17120000000E+03 0.  0.
         13    1    1    2    0    0  0.19201997395E+02  0.39887463606E+02  0.20732974470E+03  0.21200320908E+03  0.10566000000E+00 0.  1.
        994    1    1    2    0    0  0.55602590350E+01 -0.25808040906E+01  0.56953515827E+01  0.17140435835E+03  0.17120000000E+03 0.  0.
        998    1    1    2    0    0 -0.24762256430E+02 -0.37306659516E+02  0.12869749000E+04  0.12877924326E+04  0.10000000000E+02 0.  1.
</event>
<event>
 5    1  0.1364103E-008  0.3841607E+03  0.7957747E-01  0.3433240E+00
         13   -1    0    0    0    0  0.00000000000E+00  0.00000000000E+00  0.14999999963E+04  0.15000000000E+04  0.10566000000E+00 0.  1.
        994   -1    0    0    0    0 -0.00000000000E+00 -0.00000000000E+00  0.11368683772E-12  0.17120000000E+03  0.17120000000E+03 0.  0.
         13    1    1    2    0    0  0.20155864961E+02  0.22314609248E+01  0.10604616881E+03  0.10796777017E+03  0.10566000000E+00 0.  1.
        994    1    1    2    0    0 -0.60809912316E+01  0.95109911026E+01  0.24677828810E+01  0.17158953161E+03  0.17120000000E+03 0.  0.
        998    1    1    2    0    0 -0.14074873729E+02 -0.11742452027E+02  0.13914860446E+04  0.13916426982E+04  0.10000000000E+02 0.  1.
</event>
<event>
 5    1  0.1364103E-008  0.3794609E+03  0.7957747E-01  0.3453509E+00
         13   -1    0    0    0    0  0.00000000000E+00  0.00000000000E+00  0.14999999963E+04  0.15000000000E+04  0.10566000000E+00 0. -1.
        994   -1    0    0    0    0 -0.00000000000E+00 -0.00000000000E+00  0.11368683772E-12  0.17120000000E+03  0.17120000000E+03 0.  0.
         13    1    1    2    0    0  0.77144075541E+01 -0.15885482512E+02  0.34110907025E+02  0.38411271531E+02  0.10566000000E+00 0. -1.
        994    1    1    2    0    0 -0.97695587399E+01  0.37482542162E+01  0.47722982573E+01  0.17158586340E+03  0.17120000000E+03 0.  0.
        998    1    1    2    0    0  0.20551511858E+01  0.12137228296E+02  0.14611167910E+04  0.14612028651E+04  0.10000000000E+02 0. -1.
</event>
<event>
 5    1  0.1364103E-008  0.3807363E+03  0.7957747E-01  0.3447959E+00
         13   -1    0    0    0    0  0.00000000000E+00  0.00000000000E+00  0.14999999963E+04  0.15000000000E+04  0.10566000000E+00 0. -1.
        994   -1    0    0    0    0 -0.00000000000E+00 -0.00000000000E+00  0.11368683772E-12  0.17120000000E+03  0.17120000000E+03 0.  0.
         13    1    1    2    0    0 -0.16314539641E+02 -0.11760676053E+02  0.49557249551E+02  0.53482799590E+02  0.10566000000E+00 0. -1.
        994    1    1    2    0    0  0.23726006184E+02  0.14078322446E+02  0.63042612081E+01  0.17352321528E+03  0.17120000000E+03 0.  0.
        998    1    1    2    0    0 -0.74114665437E+01 -0.23176463929E+01  0.14441384855E+04  0.14441939851E+04  0.10000000000E+02 0. -1.
</event>
<event>
 5    1  0.1364103E-008  0.3748742E+03  0.7957747E-01  0.3473785E+00
         13   -1    0    0    0    0  0.00000000000E+00  0.00000000000E+00  0.14999999963E+04  0.15000000000E+04  0.10566000000E+00 0.  1.
        994   -1    0    0    0    0 -0.00000000000E+00 -0.00000000000E+00  0.11368683772E-12  0.17120000000E+03  0.17120000000E+03 0.  0.
         13    1    1    2    0    0 -0.19904875415E+02 -0.57774826691E+02  0.35650303766E+03  0.36170231087E+03  0.10566000000E+00 0.  1.
        994    1    1    2    0    0 -0.21642818224E+02  0.14105602879E+02  0.90161688904E+01  0.17337275136E+03  0.17120000000E+03 0.  0.
        998    1    1    2    0    0  0.41547693639E+02  0.43669223812E+02  0.11344807897E+04  0.11361249378E+04  0.10000000000E+02 0.  1.
</event>
<event>
 5    1  0.1364103E-008  0.3751944E+03  0.7957747E-01  0.3472354E+00
         13   -1    0    0    0    0  0.00000000000E+00  0.00000000000E+00  0.14999999963E+04  0.15000000000E+04  0.10566000000E+00 0. -1.
        994   -1    0    0    0    0 -0.00000000000E+00 -0.00000000000E+00  0.11368683772E-12  0.17120000000E+03  0.17120000000E+03 0.  0.
         13    1    1    2    0    0  0.12468912904E+01 -0.33167527371E+02  0.77238755619E+02  0.84068282625E+02  0.10566000000E+00 0. -1.
        994    1    1    2    0    0 -0.45700218961E+01  0.34254660205E+02  0.10646560935E+02  0.17497730169E+03  0.17120000000E+03 0.  0.
        998    1    1    2    0    0  0.33231306058E+01 -0.10871328336E+01  0.14121146797E+04  0.14121544157E+04  0.10000000000E+02 0. -1.
</event>
<event>
 5    1  0.1364103E-008  0.3841558E+03  0.7957747E-01  0.3433261E+00
         13   -1    0    0    0    0  0.00000000000E+00  0.00000000000E+00  0.14999999963E+04  0.15000000000E+04  0.10566000000E+00 0.  1.
        994   -1    0    0    0    0 -0.00000000000E+00 -0.00000000000E+00  0.11368683772E-12  0.17120000000E+03  0.17120000000E+03 0.  0.
         13    1    1    2    0    0 -0.29468862656E+02 -0.23522351479E+01  0.16687148715E+03  0.16946991257E+03  0.10566000000E+00 0.  1.
        994    1    1    2    0    0  0.45815156503E+02 -0.54067477790E+01  0.90999821385E+01  0.17754016774E+03  0.17120000000E+03 0.  0.
        998    1    1    2    0    0 -0.16346293847E+02  0.77589829270E+01  0.13240285270E+04  0.13241899197E+04  0.10000000000E+02 0.  1.
</event>
<event>
 5    1  0.1364103E-008  0.3770081E+03  0.7957747E-01  0.3464290E+00
         13   -1    0    0    0    0  0.00000000000E+00  0.00000000000E+00  0.14999999963E+04  0.15000000000E+04  0.10566000000E+00 0. -1.
        994   -1    0    0    0    0 -0.00000000000E+00 -0.00000000000E+00  0.11368683772E-12  0.17120000000E+03  0.17120000000E+03 0.  0.
         13    1    1    2    0    0  0.43688373860E+02 -0.10323831242E+02  0.19364084300E+03  0.19877636365E+03  0.10566000000E+00 0. -1.
        994    1    1    2    0    0 -0.13678694760E+02 -0.74557491387E+01  0.64709744673E+01  0.17202909171E+03  0.17120000000E+03 0.  0.
        998    1    1    2    0    0 -0.30009679100E+02  0.17779580381E+02  0.12998881788E+04  0.13003945446E+04  0.10000000000E+02 0. -1.
</event>
<event>
 5    1  0.1364103E-008  0.3686493E+03  0.7957747E-01  0.3502121E+00
         13   -1    0    0    0    0  0.00000000000E+00  0.00000000000E+00  0.14999999963E+04  0.15000000000E+04  0.10566000000E+00 0.  1.
        994   -1    0    0    0    0 -0.00000000000E+00 -0.00000000000E+00  0.11368683772E-12  0.17120000000E+03  0.17120000000E+03 0.  0.
         13    1    1    2    0    0  0.28784228190E+02  0.33257048672E+02  0.88468833419E+02  0.98799335673E+02  0.10566000000E+00 0.  1.
        994    1    1    2    0    0 -0.32081393934E+02 -0.20031934225E+02  0.15220303350E+02  0.17598747643E+03  0.17120000000E+03 0.  0.
        998    1    1    2    0    0  0.32971657440E+01 -0.13225114447E+02  0.13963108595E+04  0.13964131879E+04  0.10000000000E+02 0.  1.
</event>
<event>
 5    1  0.1364103E-008  0.3817552E+03  0.7957747E-01  0.3443551E+00
         13   -1    0    0    0    0  0.00000000000E+00  0.00000000000E+00  0.14999999963E+04  0.15000000000E+04  0.10566000000E+00 0. -1.
        994   -1    0    0    0    0 -0.00000000000E+00 -0.00000000000E+00  0.11368683772E-12  0.17120000000E+03  0.17120000000E+03 0.  0.
         13    1    1    2    0    0 -0.26208260002E+02 -0.94705602289E+01  0.13710790182E+03  0.13991123010E+03  0.10566000000E+00 0. -1.
        994    1    1    2    0    0 -0.17615534187E+01 -0.82328570653E+01  0.34853738740E+01  0.17144232510E+03  0.17120000000E+03 0.  0.
        998    1    1    2    0    0  0.27969813420E+02  0.17703417294E+02  0.13594067206E+04  0.13598464448E+04  0.10000000000E+02 0. -1.
</event>
<event>
 5    1  0.1855034E-008  0.3865099E+03  0.7957747E-01  0.3423294E+00
         13   -1    0    0    0    0  0.00000000000E+00  0.00000000000E+00  0.14999999963E+04  0.15000000000E+04  0.10566000000E+00 0.  1.
        994   -1    0    0    0    0 -0.00000000000E+00 -0.00000000000E+00  0.11368683772E-12  0.17120000000E+03  0.17120000000E+03 0.  0.
         13    1    1    2    0    0 -0.11103842744E+00  0.10176412631E+02  0.52660107167E+02  0.53634594754E+02  0.10566000000E+00 0.  1.
        994    1    1    2    0    0 -0.37840872935E+01 -0.24349088832E+02  0.28719839381E+01  0.17298810865E+03  0.17120000000E+03 0.  0.
        998    1    1    2    0    0  0.38951257209E+01  0.14172676200E+02  0.14444679052E+04  0.14445772966E+04  0.10000000000E+02 0.  1.
</event>
<event>
 5    1  0.1364103E-008  0.3723669E+03  0.7957747E-01  0.3485083E+00
         13   -1    0    0    0    0  0.00000000000E+00  0.00000000000E+00  0.14999999963E+04  0.15000000000E+04  0.10566000000E+00 0.  1.
        994   -1    0    0    0    0 -0.00000000000E+00 -0.00000000000E+00  0.11368683772E-12  0.17120000000E+03  0.17120000000E+03 0.  0.
         13    1    1    2    0    0  0.23697394252E+01 -0.12392973144E+02  0.62083666077E+01  0.14062589671E+02  0.10566000000E+00 0.  1.
        994    1    1    2    0    0  0.25383096870E+01  0.11376384748E+02  0.85032372894E+01  0.17180689797E+03  0.17120000000E+03 0.  0.
        998    1    1    2    0    0 -0.49080491122E+01  0.10165883962E+01  0.14852883924E+04  0.14853305124E+04  0.10000000000E+02 0.  1.
</event>
<event>
 5    1  0.1364103E-008  0.3747616E+03  0.7957747E-01  0.3474290E+00
         13   -1    0    0    0    0  0.00000000000E+00  0.00000000000E+00  0.14999999963E+04  0.15000000000E+04  0.10566000000E+00 0.  1.
        994   -1    0    0    0    0 -0.00000000000E+00 -0.00000000000E+00  0.11368683772E-12  0.17120000000E+03  0.17120000000E+03 0.  0.
         13    1    1    2    0    0  0.17050969921E+02  0.18688279491E+02  0.43749074519E+02  0.50536917703E+02  0.10566000000E+00 0.  1.
        994    1    1    2    0    0 -0.17801036336E+02 -0.12849585457E+02  0.84426361286E+01  0.17280829507E+03  0.17120000000E+03 0.  0.
        998    1    1    2    0    0  0.75006641497E+00 -0.58386940342E+01  0.14478082856E+04  0.14478547872E+04  0.10000000000E+02 0.  1.
</event>
<event>
 5    1  0.2224833E-008  0.3863177E+03  0.7957747E-01  0.3424103E+00
         13   -1    0    0    0    0  0.00000000000E+00  0.00000000000E+00  0.14999999963E+04  0.15000000000E+04  0.10566000000E+00 0.  1.
        994   -1    0    0    0    0 -0.00000000000E+00 -0.00000000000E+00  0.11368683772E-12  0.17120000000E+03  0.17120000000E+03 0.  0.
         13    1    1    2    0    0  0.58322533956E+01  0.82703116428E+01  0.53907899093E+02  0.54849667119E+02  0.10566000000E+00 0.  1.
        994    1    1    2    0    0 -0.56820930654E+00 -0.61826429301E+01  0.11035614134E+01  0.17131609902E+03  0.17120000000E+03 0.  0.
        998    1    1    2    0    0 -0.52640440890E+01 -0.20876687127E+01  0.14449885358E+04  0.14450342339E+04  0.10000000000E+02 0.  1.
</event>
<event>
 5    1  0.1364103E-008  0.3827917E+03  0.7957747E-01  0.3439092E+00
         13   -1    0    0    0    0  0.00000000000E+00  0.00000000000E+00  0.14999999963E+04  0.15000000000E+04  0.10566000000E+00 0.  1.
        994   -1    0    0    0    0 -0.00000000000E+00 -0.00000000000E+00  0.11368683772E-12  0.17120000000E+03  0.17120000000E+03 0.  0.
         13    1    1    2    0    0 -0.93873986505E+01 -0.37399901687E+01  0.17829346616E+02  0.20494085602E+02  0.10566000000E+00 0.  1.
        994    1    1    2    0    0  0.37448245975E+01  0.20872090552E+00  0.27771041022E+01  0.17126359678E+03  0.17120000000E+03 0.  0.
        998    1    1    2    0    0  0.56425740531E+01  0.35312692632E+01  0.14793935456E+04  0.14794423176E+04  0.10000000000E+02 0.  1.
</event>
<event>
 5    1  0.1364103E-008  0.3837207E+03  0.7957747E-01  0.3435116E+00
         13   -1    0    0    0    0  0.00000000000E+00  0.00000000000E+00  0.14999999963E+04  0.15000000000E+04  0.10566000000E+00 0. -1.
        994   -1    0    0    0    0 -0.00000000000E+00 -0.00000000000E+00  0.11368683772E-12  0.17120000000E+03  0.17120000000E+03 0.  0.
         13    1    1    2    0    0 -0.77065286841E+01 -0.22937030188E+02  0.13106634859E+03  0.13328126963E+03  0.10566000000E+00 0. -1.
        994    1    1    2    0    0  0.71999588260E+01  0.10607856096E+02  0.28096013805E+01  0.17170235839E+03  0.17120000000E+03 0.  0.
        998    1    1    2    0    0  0.50656985807E+00  0.12329174092E+02  0.13661240463E+04  0.13662163720E+04  0.10000000000E+02 0.  0.
</event>
<event>
 5    1  0.1364103E-008  0.3724874E+03  0.7957747E-01  0.3484537E+00
         13   -1    0    0    0    0  0.00000000000E+00  0.00000000000E+00  0.14999999963E+04  0.15000000000E+04  0.10566000000E+00 0.  1.
        994   -1    0    0    0    0 -0.00000000000E+00 -0.00000000000E+00  0.11368683772E-12  0.17120000000E+03  0.17120000000E+03 0.  0.
         13    1    1    2    0    0  0.14902801239E+02 -0.35856998576E+02  0.58059948457E+02  0.69848311436E+02  0.10566000000E+00 0.  1.
        994    1    1    2    0    0 -0.10887031829E+02  0.16386542607E+02  0.13626285537E+02  0.17286457676E+03  0.17120000000E+03 0.  0.
        998    1    1    2    0    0 -0.40157694099E+01  0.19470455968E+02  0.14283137623E+04  0.14284871118E+04  0.10000000000E+02 0.  1.
</event>
<event>
 5    1  0.1364103E-008  0.3815329E+03  0.7957747E-01  0.3444511E+00
         13   -1    0    0    0    0  0.00000000000E+00  0.00000000000E+00  0.14999999963E+04  0.15000000000E+04  0.10566000000E+00 0.  1.
        994   -1    0    0    0    0 -0.00000000000E+00 -0.00000000000E+00  0.11368683772E-12  0.17120000000E+03  0.17120000000E+03 0.  0.
         13    1    1    2    0    0 -0.10894746729E+02  0.72183817483E+01  0.24363620637E+02  0.27647743414E+02  0.10566000000E+00 0.  1.
        994    1    1    2    0    0  0.42271345836E+01 -0.33449413163E+01  0.34580216445E+01  0.17131974554E+03  0.17120000000E+03 0.  0.
        998    1    1    2    0    0  0.66676121450E+01 -0.38734404320E+01  0.14721783540E+04  0.14722325110E+04  0.10000000000E+02 0.  1.
</event>
<event>
 5    1  0.1364103E-008  0.3825823E+03  0.7957747E-01  0.3439991E+00
         13   -1    0    0    0    0  0.00000000000E+00  0.00000000000E+00  0.14999999963E+04  0.15000000000E+04  0.10566000000E+00 0.  1.
        994   -1    0    0    0    0 -0.00000000000E+00 -0.00000000000E+00  0.11368683772E-12  0.17120000000E+03  0.17120000000E+03 0.  0.
         13    1    1    2    0    0  0.10343092678E+02  0.85862600681E+01  0.31071551284E+02  0.33854924181E+02  0.10566000000E+00 0.  1.
        994    1    1    2    0    0 -0.44798719390E+01 -0.61149457392E+01  0.30257341020E+01  0.17139444822E+03  0.17120000000E+03 0.  0.
        998    1    1    2    0    0 -0.58632207395E+01 -0.24713143289E+01  0.14659027109E+04  0.14659506276E+04  0.10000000000E+02 0.  1.
</event>
<event>
 5    1  0.1364103E-008  0.3464220E+03  0.7957747E-01  0.3611804E+00
         13   -1    0    0    0    0  0.00000000000E+00  0.00000000000E+00  0.14999999963E+04  0.15000000000E+04  0.10566000000E+00 0. -1.
        994   -1    0    0    0    0 -0.00000000000E+00 -0.00000000000E+00  0.11368683772E-12  0.17120000000E+03  0.17120000000E+03 0.  0.
         13    1    1    2    0    0 -0.17660606439E+03  0.14877046956E+03  0.95367973336E+03  0.98123768761E+03  0.10566000000E+00 0. -1.
        994    1    1    2    0    0  0.18560349312E+03 -0.11709332032E+03  0.20195564198E+03  0.34388228168E+03  0.17120000000E+03 0.  0.
        998    1    1    2    0    0 -0.89974287348E+01 -0.31677149238E+02  0.34436462094E+03  0.34608003071E+03  0.10000000000E+02 0. -1.
</event>
<event>
 5    1  0.1364103E-008  0.3842316E+03  0.7957747E-01  0.3432937E+00
         13   -1    0    0    0    0  0.00000000000E+00  0.00000000000E+00  0.14999999963E+04  0.15000000000E+04  0.10566000000E+00 0. -1.
        994   -1    0    0    0    0 -0.00000000000E+00 -0.00000000000E+00  0.11368683772E-12  0.17120000000E+03  0.17120000000E+03 0.  0.
         13    1    1    2    0    0 -0.21981828146E+02  0.86984965014E+01  0.13443212220E+03  0.13649494955E+03  0.10566000000E+00 0. -1.
        994    1    1    2    0    0  0.17040794587E+02 -0.60940467335E+01  0.30926482627E+01  0.17218167893E+03  0.17120000000E+03 0.  0.
        998    1    1    2    0    0  0.49410335591E+01 -0.26044497678E+01  0.13624752258E+04  0.13625233715E+04  0.10000000000E+02 0. -1.
</event>
<event>
 5    1  0.1364103E-008  0.3697224E+03  0.7957747E-01  0.3497168E+00
         13   -1    0    0    0    0  0.00000000000E+00  0.00000000000E+00  0.14999999963E+04  0.15000000000E+04  0.10566000000E+00 0.  1.
        994   -1    0    0    0    0 -0.00000000000E+00 -0.00000000000E+00  0.11368683772E-12  0.17120000000E+03  0.17120000000E+03 0.  0.
         13    1    1    2    0    0 -0.10127281332E+02  0.45723562699E+01  0.21888733930E+01  0.11325661120E+02  0.10566000000E+00 0.  1.
        994    1    1    2    0    0  0.76552967043E+01 -0.99154466239E+00  0.96205037494E+01  0.17164376138E+03  0.17120000000E+03 0.  0.
        998    1    1    2    0    0  0.24719846277E+01 -0.35808116075E+01  0.14881906191E+04  0.14882305775E+04  0.10000000000E+02 0.  1.
</event>
<event>
 5    1  0.1364103E-008  0.3816229E+03  0.7957747E-01  0.3444122E+00
         13   -1    0    0    0    0  0.00000000000E+00  0.00000000000E+00  0.14999999963E+04  0.15000000000E+04  0.10566000000E+00 0.  1.
        994   -1    0    0    0    0 -0.00000000000E+00 -0.00000000000E+00  0.11368683772E-12  0.17120000000E+03  0.17120000000E+03 0.  0.
         13    1    1    2    0    0  0.11483210492E+02  0.13015475130E+02  0.46848736468E+02  0.49960804524E+02  0.10566000000E+00 0.  1.
        994    1    1    2    0    0  0.23453248439E+01  0.16713632165E+01  0.33437484831E+01  0.17125686748E+03  0.17120000000E+03 0.  0.
        998    1    1    2    0    0 -0.13828535336E+02 -0.14686838346E+02  0.14498075113E+04  0.14499823280E+04  0.10000000000E+02 0.  1.
</event>
<event>
 5    1  0.1364103E-008  0.3823110E+03  0.7957747E-01  0.3441157E+00
         13   -1    0    0    0    0  0.00000000000E+00  0.00000000000E+00  0.14999999963E+04  0.15000000000E+04  0.10566000000E+00 0.  1.
        994   -1    0    0    0    0 -0.00000000000E+00 -0.00000000000E+00  0.11368683772E-12  0.17120000000E+03  0.17120000000E+03 0.  0.
         13    1    1    2    0    0  0.31970790658E+02  0.41933751139E+01  0.16047551950E+03  0.16368298437E+03  0.10566000000E+00 0.  1.
        994    1    1    2    0    0 -0.29325927265E+02 -0.54096921789E+01  0.59269489387E+01  0.17387881844E+03  0.17120000000E+03 0.  0.
        998    1    1    2    0    0 -0.26448633927E+01  0.12163170650E+01  0.13335975278E+04  0.13336381972E+04  0.10000000000E+02 0.  1.
</event>
<event>
 5    1  0.1364103E-008  0.3842591E+03  0.7957747E-01  0.3432821E+00
         13   -1    0    0    0    0  0.00000000000E+00  0.00000000000E+00  0.14999999963E+04  0.15000000000E+04  0.10566000000E+00 0.  1.
        994   -1    0    0    0    0 -0.00000000000E+00 -0.00000000000E+00  0.11368683772E-12  0.17120000000E+03  0.17120000000E+03 0.  0.
         13    1    1    2    0    0 -0.11804904628E+02 -0.90554266662E+01  0.56824322112E+02  0.58739861022E+02  0.10566000000E+00 0.  1.
        994    1    1    2    0    0  0.65017864702E+01 -0.19995370406E+01  0.21509792116E+01  0.17134858648E+03  0.17120000000E+03 0.  0.
        998    1    1    2    0    0  0.53031181574E+01  0.11054963707E+02  0.14410246950E+04  0.14411115525E+04  0.10000000000E+02 0.  1.
</event>
<event>
 5    1  0.1364103E-008  0.3829674E+03  0.7957747E-01  0.3438339E+00
         13   -1    0    0    0    0  0.00000000000E+00  0.00000000000E+00  0.14999999963E+04  0.15000000000E+04  0.10566000000E+00 0.  1.
        994   -1    0    0    0    0 -0.00000000000E+00 -0.00000000000E+00  0.11368683772E-12  0.17120000000E+03  0.17120000000E+03 0.  0.
         13    1    1    2    0    0 -0.23617696988E+02 -0.26824666606E+01  0.13668059239E+03  0.13873206817E+03  0.10566000000E+00 0.  1.
        994    1    1    2    0    0 -0.20012824545E+02  0.33800071578E+02  0.77674001011E+01  0.17582016520E+03  0.17120000000E+03 0.  0.
        998    1    1    2    0    0  0.43630521532E+02 -0.31117604917E+02  0.13555520038E+04  0.13566477666E+04  0.10000000000E+02 0.  1.
</event>
<event>
 5    1  0.1364103E-008  0.3779292E+03  0.7957747E-01  0.3460225E+00
         13   -1    0    0    0    0  0.00000000000E+00  0.00000000000E+00  0.14999999963E+04  0.15000000000E+04  0.10566000000E+00 0.  1.
        994   -1    0    0    0    0 -0.00000000000E+00 -0.00000000000E+00  0.11368683772E-12  0.17120000000E+03  0.17120000000E+03 0.  0.
         13    1    1    2    0    0 -0.67912293446E+02 -0.43677725941E+02  0.30695413099E+03  0.31739671240E+03  0.10566000000E+00 0.  1.
        994    1    1    2    0    0  0.12761900901E+03  0.57022242808E+02  0.74047800448E+02  0.23308939141E+03  0.17120000000E+03 0.  0.
        998    1    1    2    0    0 -0.59706715561E+02 -0.13344516867E+02  0.11189980648E+04  0.11207138962E+04  0.10000000000E+02 0.  1.
</event>
<event>
 5    1  0.1364103E-008  0.3770241E+03  0.7957747E-01  0.3464219E+00
         13   -1    0    0    0    0  0.00000000000E+00  0.00000000000E+00  0.14999999963E+04  0.15000000000E+04  0.10566000000E+00 0.  1.
        994   -1    0    0    0    0 -0.00000000000E+00 -0.00000000000E+00  0.11368683772E-12  0.17120000000E+03  0.17120000000E+03 0.  0.
         13    1    1    2    0    0 -0.17137289770E+02 -0.43577263614E+00  0.26027733551E+02  0.31166178404E+02  0.10566000000E+00 0.  1.
        994    1    1    2    0    0 -0.24368264106E+02  0.12167960588E+02  0.81516728284E+01  0.17354469548E+03  0.17120000000E+03 0.  0.
        998    1    1    2    0    0  0.41505553875E+02 -0.11732187952E+02  0.14658205899E+04  0.14664891261E+04  0.10000000000E+02 0.  1.
</event>
<event>
 5    1  0.1364103E-008  0.3831810E+03  0.7957747E-01  0.3437424E+00
         13   -1    0    0    0    0  0.00000000000E+00  0.00000000000E+00  0.14999999963E+04  0.15000000000E+04  0.10566000000E+00 0. -1.
        994   -1    0    0    0    0 -0.00000000000E+00 -0.00000000000E+00  0.11368683772E-12  0.17120000000E+03  0.17120000000E+03 0.  0.
         13    1    1    2    0    0  0.16173652580E+01  0.22606451883E+02  0.85904359916E+02  0.88843895422E+02  0.10566000000E+00 0. -1.
        994    1    1    2    0    0 -0.72396799668E+01 -0.40991422546E+02  0.82892630449E+01  0.17638271335E+03  0.17120000000E+03 0.  0.
        998    1    1    2    0    0  0.56223147088E+01  0.18384970662E+02  0.14058063733E+04  0.14059733912E+04  0.10000000000E+02 0. -1.
</event>
<event>
 5    1  0.1364103E-008  0.3818112E+03  0.7957747E-01  0.3443310E+00
         13   -1    0    0    0    0  0.00000000000E+00  0.00000000000E+00  0.14999999963E+04  0.15000000000E+04  0.10566000000E+00 0.  1.
        994   -1    0    0    0    0 -0.00000000000E+00 -0.00000000000E+00  0.11368683772E-12  0.17120000000E+03  0.17120000000E+03 0.  0.
         13    1    1    2    0    0 -0.16482685844E+02 -0.32673485485E+02  0.19321238833E+03  0.19664758772E+03  0.10566000000E+00 0.  1.
        994    1    1    2    0    0 -0.31628184774E+01  0.35514103040E+02  0.74575988319E+01  0.17503231335E+03  0.17120000000E+03 0.  0.
        998    1    1    2    0    0  0.19645504321E+02 -0.28406175553E+01  0.12993300091E+04  0.12995200989E+04  0.10000000000E+02 0.  1.
</event>
<event>
 5    1  0.1364103E-008  0.3743442E+03  0.7957747E-01  0.3476161E+00
         13   -1    0    0    0    0  0.00000000000E+00  0.00000000000E+00  0.14999999963E+04  0.15000000000E+04  0.10566000000E+00 0.  1.
        994   -1    0    0    0    0 -0.00000000000E+00 -0.00000000000E+00  0.11368683772E-12  0.17120000000E+03  0.17120000000E+03 0.  0.
         13    1    1    2    0    0  0.10694682454E+02  0.77390312706E+02  0.24654441512E+03  0.25862675137E+03  0.10566000000E+00 0.  1.
        994    1    1    2    0    0 -0.58763480674E+02 -0.24072949409E+02  0.27712525249E+02  0.18468913777E+03  0.17120000000E+03 0.  0.
        998    1    1    2    0    0  0.48068798220E+02 -0.53317363297E+02  0.12257430559E+04  0.12278841109E+04  0.10000000000E+02 0.  1.
</event>
<event>
 5    1  0.1364103E-008  0.3740917E+03  0.7957747E-01  0.3477295E+00
         13   -1    0    0    0    0  0.00000000000E+00  0.00000000000E+00  0.14999999963E+04  0.15000000000E+04  0.10566000000E+00 0.  1.
        994   -1    0    0    0    0 -0.00000000000E+00 -0.00000000000E+00  0.11368683772E-12  0.17120000000E+03  0.17120000000E+03 0.  0.
         13    1    1    2    0    0 -0.32142238826E+02 -0.62556230578E+02  0.28484533415E+03  0.29339952462E+03  0.10566000000E+00 0.  1.
        994    1    1    2    0    0  0.36572374537E+02  0.57034156274E+02  0.22962718418E+02  0.18554557391E+03  0.17120000000E+03 0.  0.
        998    1    1    2    0    0 -0.44301357110E+01  0.55220743042E+01  0.11921919437E+04  0.11922549015E+04  0.10000000000E+02 0.  1.
</event>
<event>
 5    1  0.1364103E-008  0.3834233E+03  0.7957747E-01  0.3436387E+00
         13   -1    0    0    0    0  0.00000000000E+00  0.00000000000E+00  0.14999999963E+04  0.15000000000E+04  0.10566000000E+00 0. -1.
        994   -1    0    0    0    0 -0.00000000000E+00 -0.00000000000E+00  0.11368683772E-12  0.17120000000E+03  0.17120000000E+03 0.  0.
         13    1    1    2    0    0 -0.45047265884E+01  0.20284844784E+02  0.11488391345E+03  0.11674798595E+03  0.10566000000E+00 0. -1.
        994    1    1    2    0    0 -0.35752514334E+01  0.21698595364E+02  0.40151807541E+01  0.17265333226E+03  0.17120000000E+03 0.  0.
        998    1    1    2    0    0  0.80799780218E+01 -0.41983440148E+02  0.13811009021E+04  0.13817986818E+04  0.10000000000E+02 0. -1.
</event>
<event>
 5    1  0.1859708E-008  0.3855862E+03  0.7957747E-01  0.3427190E+00
         13   -1    0    0    0    0  0.00000000000E+00  0.00000000000E+00  0.14999999963E+04  0.15000000000E+04  0.10566000000E+00 0.  1.
        994   -1    0    0    0    0 -0.00000000000E+00 -0.00000000000E+00  0.11368683772E-12  0.17120000000E+03  0.17120000000E+03 0.  0.
         13    1    1    2    0    0 -0.25014470826E+01  0.11163505468E+02  0.47806231573E+02  0.49156159666E+02  0.10566000000E+00 0.  1.
        994    1    1    2    0    0  0.10274076634E+01 -0.12326721905E+02  0.18417694387E+01  0.17165615560E+03  0.17120000000E+03 0.  0.
        998    1    1    2    0    0  0.14740394192E+01  0.11632164368E+01  0.14503519953E+04  0.14503876847E+04  0.10000000000E+02 0.  1.
</event>
<event>
 5    1  0.1364103E-008  0.3817422E+03  0.7957747E-01  0.3443607E+00
         13   -1    0    0    0    0  0.00000000000E+00  0.00000000000E+00  0.14999999963E+04  0.15000000000E+04  0.10566000000E+00 0. -1.
        994   -1    0    0    0    0 -0.00000000000E+00 -0.00000000000E+00  0.11368683772E-12  0.17120000000E+03  0.17120000000E+03 0.  0.
         13    1    1    2    0    0  0.24664499996E+02 -0.13408710423E+02  0.13400256010E+03  0.13691175389E+03  0.10566000000E+00 0. -1.
        994    1    1    2    0    0  0.20581772037E+01  0.48488411277E+01  0.33485037576E+01  0.17131374677E+03  0.17120000000E+03 0.  0.
        998    1    1    2    0    0 -0.26722677199E+02  0.85598692957E+01  0.13626489324E+04  0.13629744993E+04  0.10000000000E+02 0. -1.
</event>
<event>
 5    1  0.1364103E-008  0.3721281E+03  0.7957747E-01  0.3486167E+00
         13   -1    0    0    0    0  0.00000000000E+00  0.00000000000E+00  0.14999999963E+04  0.15000000000E+04  0.10566000000E+00 0. -1.
        994   -1    0    0    0    0 -0.00000000000E+00 -0.00000000000E+00  0.11368683772E-12  0.17120000000E+03  0.17120000000E+03 0.  0.
         13    1    1    2    0    0 -0.94294578119E+01 -0.17984667830E+02  0.21710424839E+02  0.29727372274E+02  0.10566000000E+00 0. -1.
        994    1    1    2    0    0  0.14354953859E+02  0.10534989012E+02  0.92499686965E+01  0.17237184403E+03  0.17120000000E+03 0.  0.
        998    1    1    2    0    0 -0.49254960476E+01  0.74496788178E+01  0.14690396027E+04  0.14691007837E+04  0.10000000000E+02 0. -1.
</event>
<event>
 5    1  0.1364103E-008  0.3847801E+03  0.7957747E-01  0.3430605E+00
         13   -1    0    0    0    0  0.00000000000E+00  0.00000000000E+00  0.14999999963E+04  0.15000000000E+04  0.10566000000E+00 0.  1.
        994   -1    0    0    0    0 -0.00000000000E+00 -0.00000000000E+00  0.11368683772E-12  0.17120000000E+03  0.17120000000E+03 0.  0.
         13    1    1    2    0    0  0.65448225873E+01 -0.86232501177E+01  0.33945449042E+02  0.35630040977E+02  0.10566000000E+00 0.  1.
        994    1    1    2    0    0 -0.16326663851E+01  0.35648454406E+01  0.17899594872E+01  0.17125424864E+03  0.17120000000E+03 0.  0.
        998    1    1    2    0    0 -0.49121562022E+01  0.50584046771E+01  0.14642645877E+04  0.14643157104E+04  0.10000000000E+02 0.  1.
</event>
<event>
 5    1  0.1364103E-008  0.3856720E+03  0.7957747E-01  0.3426827E+00
         13   -1    0    0    0    0  0.00000000000E+00  0.00000000000E+00  0.14999999963E+04  0.15000000000E+04  0.10566000000E+00 0.  1.
        994   -1    0    0    0    0 -0.00000000000E+00 -0.00000000000E+00  0.11368683772E-12  0.17120000000E+03  0.17120000000E+03 0.  0.
         13    1    1    2    0    0  0.22870430854E+01  0.12050478446E+02  0.59895709161E+02  0.61138790769E+02  0.10566000000E+00 0.  1.
        994    1    1    2    0    0  0.74907556415E+01 -0.61043564257E+01  0.16033393424E+01  0.17147998508E+03  0.17120000000E+03 0.  0.
        998    1    1    2    0    0 -0.97777987269E+01 -0.59461220202E+01  0.14385009478E+04  0.14385812241E+04  0.10000000000E+02 0.  1.
</event>
<event>
 5    1  0.1364103E-008  0.3778170E+03  0.7957747E-01  0.3460719E+00
         13   -1    0    0    0    0  0.00000000000E+00  0.00000000000E+00  0.14999999963E+04  0.15000000000E+04  0.10566000000E+00 0.  1.
        994   -1    0    0    0    0 -0.00000000000E+00 -0.00000000000E+00  0.11368683772E-12  0.17120000000E+03  0.17120000000E+03 0.  0.
         13    1    1    2    0    0 -0.60004912097E+02 -0.59584302834E+02  0.47945255037E+03  0.48685278867E+03  0.10566000000E+00 0.  1.
        994    1    1    2    0    0  0.62975612323E+02  0.51764047442E+02  0.27952878943E+02  0.19166702324E+03  0.17120000000E+03 0.  0.
        998    1    1    2    0    0 -0.29707002255E+01  0.78202553917E+01  0.99259456697E+03  0.99268018809E+03  0.10000000000E+02 0. -1.
</event>
<event>
 5    1  0.1364103E-008  0.3845919E+03  0.7957747E-01  0.3431405E+00
         13   -1    0    0    0    0  0.00000000000E+00  0.00000000000E+00  0.14999999963E+04  0.15000000000E+04  0.10566000000E+00 0.  1.
        994   -1    0    0    0    0 -0.00000000000E+00 -0.00000000000E+00  0.11368683772E-12  0.17120000000E+03  0.17120000000E+03 0.  0.
         13    1    1    2    0    0 -0.11254844087E+02 -0.12357395842E+02  0.76116938954E+02  0.77930586467E+02  0.10566000000E+00 0.  1.
        994    1    1    2    0    0  0.13646859524E+02  0.21507214191E+01  0.24616356455E+01  0.17177415995E+03  0.17120000000E+03 0.  0.
        998    1    1    2    0    0 -0.23920154373E+01  0.10206674423E+02  0.14214214217E+04  0.14214952536E+04  0.10000000000E+02 0.  1.
</event>
<event>
 5    1  0.1364103E-008  0.3757083E+03  0.7957747E-01  0.3470061E+00
         13   -1    0    0    0    0  0.00000000000E+00  0.00000000000E+00  0.14999999963E+04  0.15000000000E+04  0.10566000000E+00 0.  1.
        994   -1    0    0    0    0 -0.00000000000E+00 -0.00000000000E+00  0.11368683772E-12  0.17120000000E+03  0.17120000000E+03 0.  0.
         13    1    1    2    0    0  0.40527648788E+02 -0.28674663075E+02  0.18046350616E+03  0.18716787876E+03  0.10566000000E+00 0.  1.
        994    1    1    2    0    0 -0.33395475876E+02  0.23100062170E+02  0.11927491532E+02  0.17635355323E+03  0.17120000000E+03 0.  0.
        998    1    1    2    0    0 -0.71321729121E+01  0.55746009047E+01  0.13076089986E+04  0.13076785680E+04  0.10000000000E+02 0.  1.
</event>
<event>
 5    1  0.1364103E-008  0.3850654E+03  0.7957747E-01  0.3429395E+00
         13   -1    0    0    0    0  0.00000000000E+00  0.00000000000E+00  0.14999999963E+04  0.15000000000E+04  0.10566000000E+00 0.  1.
        994   -1    0    0    0    0 -0.00000000000E+00 -0.00000000000E+00  0.11368683772E-12  0.17120000000E+03  0.17120000000E+03 0.  0.
         13    1    1    2    0    0  0.47419234888E+01 -0.10553444630E+02  0.39573165893E+02  0.41229936391E+02  0.10566000000E+00 0.  1.
        994    1    1    2    0    0 -0.73255458146E+01  0.17267367165E+02  0.27553204755E+01  0.17224650180E+03  0.17120000000E+03 0.  0.
        998    1    1    2    0    0  0.25836223257E+01 -0.67139225347E+01  0.14576715099E+04  0.14577235618E+04  0.10000000000E+02 0.  1.
</event>
<event>
 5    1  0.1364103E-008  0.3850187E+03  0.7957747E-01  0.3429593E+00
         13   -1    0    0    0    0  0.00000000000E+00  0.00000000000E+00  0.14999999963E+04  0.15000000000E+04  0.10566000000E+00 0.  1.
        994   -1    0    0    0    0 -0.00000000000E+00 -0.00000000000E+00  0.11368683772E-12  0.17120000000E+03  0.17120000000E+03 0.  0.
         13    1    1    2    0    0 -0.48191076541E+01 -0.19874401900E+02  0.11704455647E+03  0.11881773863E+03  0.10566000000E+00 0.  1.
        994    1    1    2    0    0  0.62284104392E+01  0.23679718797E+02  0.35948305365E+01  0.17297943515E+03  0.17120000000E+03 0.  0.
        998    1    1    2    0    0 -0.14093027851E+01 -0.38053168971E+01  0.13793606093E+04  0.13794028262E+04  0.10000000000E+02 0.  1.
</event>
<event>
 5    1  0.1364103E-008  0.3799533E+03  0.7957747E-01  0.3451362E+00
         13   -1    0    0    0    0  0.00000000000E+00  0.00000000000E+00  0.14999999963E+04  0.15000000000E+04  0.10566000000E+00 0.  1.
        994   -1    0    0    0    0 -0.00000000000E+00 -0.00000000000E+00  0.11368683772E-12  0.17120000000E+03  0.17120000000E+03 0.  0.
         13    1    1    2    0    0 -0.13958633196E+02 -0.17986648376E+02  0.59154331520E+02  0.63384612187E+02  0.10566000000E+00 0.  1.
        994    1    1    2    0    0  0.23302775235E+02  0.92762684793E+01  0.62627860145E+01  0.17314078370E+03  0.17120000000E+03 0.  0.
        998    1    1    2    0    0 -0.93441420387E+01  0.87103798970E+01  0.14345828787E+04  0.14346746041E+04  0.10000000000E+02 0.  1.
</event>
<event>
 5    1  0.1364103E-008  0.3810564E+03  0.7957747E-01  0.3446571E+00
         13   -1    0    0    0    0  0.00000000000E+00  0.00000000000E+00  0.14999999963E+04  0.15000000000E+04  0.10566000000E+00 0. -1.
        994   -1    0    0    0    0 -0.00000000000E+00 -0.00000000000E+00  0.11368683772E-12  0.17120000000E+03  0.17120000000E+03 0.  0.
         13    1    1    2    0    0  0.13722392361E+02  0.18114531401E+02  0.68868590069E+02  0.72521266964E+02  0.10566000000E+00 0. -1.
        994    1    1    2    0    0 -0.10941752017E+02 -0.16058187516E+02  0.48596794444E+01  0.17236775745E+03  0.17120000000E+03 0.  0.
        998    1    1    2    0    0 -0.27806403436E+01 -0.20563438843E+01  0.14262717268E+04  0.14263109756E+04  0.10000000000E+02 0. -1.
</event>
<event>
 5    1  0.1364103E-008  0.3768296E+03  0.7957747E-01  0.3465081E+00
         13   -1    0    0    0    0  0.00000000000E+00  0.00000000000E+00  0.14999999963E+04  0.15000000000E+04  0.10566000000E+00 0.  1.
        994   -1    0    0    0    0 -0.00000000000E+00 -0.00000000000E+00  0.11368683772E-12  0.17120000000E+03  0.17120000000E+03 0.  0.
         13    1    1    2    0    0 -0.18749046839E+03 -0.14402512830E+03  0.98222616900E+03  0.10102792542E+04  0.10566000000E+00 0.  1.
        994    1    1    2    0    0  0.19513588756E+03  0.13498290047E+03  0.22852419131E+03  0.37125617038E+03  0.17120000000E+03 0.  0.
        998    1    1    2    0    0 -0.76454191656E+01  0.90422278310E+01  0.28924963597E+03  0.28966457537E+03  0.10000000000E+02 0.  0.
</event>
<event>
 5    1  0.1364103E-008  0.3940305E+03  0.7957747E-01  0.3392253E+00
         13   -1    0    0    0    0  0.00000000000E+00  0.00000000000E+00  0.14999999963E+04  0.15000000000E+04  0.10566000000E+00 0. -1.
        994   -1    0    0    0    0 -0.00000000000E+00 -0.00000000000E+00  0.11368683772E-12  0.17120000000E+03  0.17120000000E+03 0.  0.
         13    1    1    2    0    0  0.59252584615E+02  0.11607207942E+03  0.25591658007E+03  0.28718792370E+03  0.10566000000E+00 0. -1.
        994    1    1    2    0    0 -0.61523434686E+02 -0.13213546906E+03  0.11096622839E+03  0.25073463870E+03  0.17120000000E+03 0.  0.
        998    1    1    2    0    0  0.22708500705E+01  0.16063389639E+02  0.11331171878E+04  0.11332774376E+04  0.10000000000E+02 0. -1.
</event>
<event>
 5    1  0.1364103E-008  0.3858208E+03  0.7957747E-01  0.3426199E+00
         13   -1    0    0    0    0  0.00000000000E+00  0.00000000000E+00  0.14999999963E+04  0.15000000000E+04  0.10566000000E+00 0. -1.
        994   -1    0    0    0    0 -0.00000000000E+00 -0.00000000000E+00  0.11368683772E-12  0.17120000000E+03  0.17120000000E+03 0.  0.
         13    1    1    2    0    0 -0.66755463430E+01  0.79040105395E+01  0.47769008256E+02  0.48876636703E+02  0.10566000000E+00 0. -1.
        994    1    1    2    0    0  0.11429357998E+02  0.16324942895E+02  0.25268305212E+01  0.17237447275E+03  0.17120000000E+03 0.  0.
        998    1    1    2    0    0 -0.47538116553E+01 -0.24228953435E+02  0.14497041575E+04  0.14499488905E+04  0.10000000000E+02 0. -1.
</event>
<event>
 5    1  0.1364103E-008  0.3814340E+03  0.7957747E-01  0.3444938E+00
         13   -1    0    0    0    0  0.00000000000E+00  0.00000000000E+00  0.14999999963E+04  0.15000000000E+04  0.10566000000E+00 0. -1.
        994   -1    0    0    0    0 -0.00000000000E+00 -0.00000000000E+00  0.11368683772E-12  0.17120000000E+03  0.17120000000E+03 0.  0.
         13    1    1    2    0    0 -0.15844034719E+02 -0.18703080535E+02  0.93717513072E+02  0.96870129958E+02  0.10566000000E+00 0. -1.
        994    1    1    2    0    0 -0.25924636482E+02  0.25456291269E+02  0.78156987257E+01  0.17518742731E+03  0.17120000000E+03 0.  0.
        998    1    1    2    0    0  0.41768671201E+02 -0.67532107337E+01  0.13984667845E+04  0.13991424427E+04  0.10000000000E+02 0. -1.
</event>
<event>
 5    1  0.1364103E-008  0.3818993E+03  0.7957747E-01  0.3442930E+00
         13   -1    0    0    0    0  0.00000000000E+00  0.00000000000E+00  0.14999999963E+04  0.15000000000E+04  0.10566000000E+00 0. -1.
        994   -1    0    0    0    0 -0.00000000000E+00 -0.00000000000E+00  0.11368683772E-12  0.17120000000E+03  0.17120000000E+03 0.  0.
         13    1    1    2    0    0 -0.21313684706E+02 -0.91570071918E+01  0.85732878945E+02  0.88815886150E+02  0.10566000000E+00 0. -1.
        994    1    1    2    0    0  0.12520020029E+02 -0.39327717775E+01  0.37497704926E+01  0.17174317563E+03  0.17120000000E+03 0.  0.
        998    1    1    2    0    0  0.87936646772E+01  0.13089778969E+02  0.14105173468E+04  0.14106409382E+04  0.10000000000E+02 0. -1.
</event>
<event>
 5    1  0.1364103E-008  0.3718034E+03  0.7957747E-01  0.3487643E+00
         13   -1    0    0    0    0  0.00000000000E+00  0.00000000000E+00  0.14999999963E+04  0.15000000000E+04  0.10566000000E+00 0. -1.
        994   -1    0    0    0    0 -0.00000000000E+00 -0.00000000000E+00  0.11368683772E-12  0.17120000000E+03  0.17120000000E+03 0.  0.
         13    1    1    2    0    0  0.44179137198E+02 -0.36787621066E+01  0.75842354162E+02  0.87848752428E+02  0.10566000000E+00 0. -1.
        994    1    1    2    0    0 -0.39443547126E+02  0.34355871618E+01  0.17431005991E+02  0.17658107667E+03  0.17120000000E+03 0.  0.
        998    1    1    2    0    0 -0.47355900718E+01  0.24317494476E+00  0.14067266361E+04  0.14067701709E+04  0.10000000000E+02 0. -1.
</event>
<event>
 5    1  0.1364103E-008  0.3758026E+03  0.7957747E-01  0.3469641E+00
         13   -1    0    0    0    0  0.00000000000E+00  0.00000000000E+00  0.14999999963E+04  0.15000000000E+04  0.10566000000E+00 0.  1.
        994   -1    0    0    0    0 -0.00000000000E+00 -0.00000000000E+00  0.11368683772E-12  0.17120000000E+03  0.17120000000E+03 0.  0.
         13    1    1    2    0    0  0.89606560692E+02 -0.20388789037E+02  0.25142173057E+03  0.26769000020E+03  0.10566000000E+00 0.  1.
        994    1    1    2    0    0 -0.78577007337E+02  0.51287334541E+02  0.46171315303E+02  0.20061397539E+03  0.17120000000E+03 0.  0.
        998    1    1    2    0    0 -0.11029553355E+02 -0.30898545504E+02  0.12024069504E+04  0.12028960244E+04  0.10000000000E+02 0.  1.
</event>
<event>
 5    1  0.1364103E-008  0.3849923E+03  0.7957747E-01  0.3429705E+00
         13   -1    0    0    0    0  0.00000000000E+00  0.00000000000E+00  0.14999999963E+04  0.15000000000E+04  0.10566000000E+00 0. -1.
        994   -1    0    0    0    0 -0.00000000000E+00 -0.00000000000E+00  0.11368683772E-12  0.17120000000E+03  0.17120000000E+03 0.  0.
         13    1    1    2    0    0 -0.19636816674E+02 -0.46012692029E+01  0.11070173402E+03  0.11252404777E+03  0.10566000000E+00 0. -1.
        994    1    1    2    0    0  0.29734503039E+02 -0.62632032073E+01  0.46765816452E+01  0.17393872140E+03  0.17120000000E+03 0.  0.
        998    1    1    2    0    0 -0.10097686365E+02  0.10864472410E+02  0.13846216806E+04  0.13847372308E+04  0.10000000000E+02 0. -1.
</event>
<event>
 5    1  0.1364103E-008  0.3767140E+03  0.7957747E-01  0.3465592E+00
         13   -1    0    0    0    0  0.00000000000E+00  0.00000000000E+00  0.14999999963E+04  0.15000000000E+04  0.10566000000E+00 0. -1.
        994   -1    0    0    0    0 -0.00000000000E+00 -0.00000000000E+00  0.11368683772E-12  0.17120000000E+03  0.17120000000E+03 0.  0.
         13    1    1    2    0    0 -0.27660018294E+02 -0.15100108265E+02  0.76475204136E+02  0.82713710431E+02  0.10566000000E+00 0. -1.
        994    1    1    2    0    0  0.32641041773E+02  0.27597235580E+02  0.12000999677E+02  0.17686296677E+03  0.17120000000E+03 0.  0.
        998    1    1    2    0    0 -0.49810234791E+01 -0.12497127316E+02  0.14115237925E+04  0.14116233228E+04  0.10000000000E+02 0. -1.
</event>
<event>
 5    1  0.1364103E-008  0.3852497E+03  0.7957747E-01  0.3428614E+00
         13   -1    0    0    0    0  0.00000000000E+00  0.00000000000E+00  0.14999999963E+04  0.15000000000E+04  0.10566000000E+00 0.  1.
        994   -1    0    0    0    0 -0.00000000000E+00 -0.00000000000E+00  0.11368683772E-12  0.17120000000E+03  0.17120000000E+03 0.  0.
         13    1    1    2    0    0 -0.90027500635E+01  0.10611348707E+02  0.77844126872E+02  0.79078249112E+02  0.10566000000E+00 0.  1.
        994    1    1    2    0    0 -0.86514887395E+01  0.13804161091E+02  0.23788160330E+01  0.17198983076E+03  0.17120000000E+03 0.  0.
        998    1    1    2    0    0  0.17654238803E+02 -0.24415509798E+02  0.14197770534E+04  0.14201319201E+04  0.10000000000E+02 0.  1.
</event>
<event>
 5    1  0.1364103E-008  0.3845782E+03  0.7957747E-01  0.3431463E+00
         13   -1    0    0    0    0  0.00000000000E+00  0.00000000000E+00  0.14999999963E+04  0.15000000000E+04  0.10566000000E+00 0.  1.
        994   -1    0    0    0    0 -0.00000000000E+00 -0.00000000000E+00  0.11368683772E-12  0.17120000000E+03  0.17120000000E+03 0.  0.
         13    1    1    2    0    0  0.78284770365E+01 -0.14729292195E+02  0.77841441416E+02  0.79608656985E+02  0.10566000000E+00 0.  1.
        994    1    1    2    0    0 -0.16933304362E+01  0.59589881932E+01  0.19660752402E+01  0.17132332696E+03  0.17120000000E+03 0.  0.
        998    1    1    2    0    0 -0.61351466003E+01  0.87703040013E+01  0.14201924796E+04  0.14202680161E+04  0.10000000000E+02 0.  1.
</event>
<event>
 5    1  0.1364103E-008  0.3852980E+03  0.7957747E-01  0.3428409E+00
         13   -1    0    0    0    0  0.00000000000E+00  0.00000000000E+00  0.14999999963E+04  0.15000000000E+04  0.10566000000E+00 0. -1.
        994   -1    0    0    0    0 -0.00000000000E+00 -0.00000000000E+00  0.11368683772E-12  0.17120000000E+03  0.17120000000E+03 0.  0.
         13    1    1    2    0    0 -0.14887673974E+02  0.47142956649E+00  0.72343018517E+02  0.73860602316E+02  0.10566000000E+00 0. -1.
        994    1    1    2    0    0  0.15047940644E+02 -0.21875725578E+01  0.22423083242E+01  0.17188860910E+03  0.17120000000E+03 0.  0.
        998    1    1    2    0    0 -0.16026666975E+00  0.17161429913E+01  0.14254146694E+04  0.14254507886E+04  0.10000000000E+02 0. -1.
</event>
<event>
 5    1  0.1364103E-008  0.3688432E+03  0.7957747E-01  0.3501224E+00
         13   -1    0    0    0    0  0.00000000000E+00  0.00000000000E+00  0.14999999963E+04  0.15000000000E+04  0.10566000000E+00 0.  1.
        994   -1    0    0    0    0 -0.00000000000E+00 -0.00000000000E+00  0.11368683772E-12  0.17120000000E+03  0.17120000000E+03 0.  0.
         13    1    1    2    0    0 -0.67923302013E+02  0.59148431192E+02  0.31111354575E+03  0.32388850147E+03  0.10566000000E+00 0.  1.
        994    1    1    2    0    0  0.49263774023E+02 -0.88930350475E+02  0.46664961329E+02  0.20450570966E+03  0.17120000000E+03 0.  0.
        998    1    1    2    0    0  0.18659527990E+02  0.29781919283E+02  0.11422214892E+04  0.11428057889E+04  0.10000000000E+02 0. -1.
</event>
<event>
 5    1  0.1364103E-008  0.3798907E+03  0.7957747E-01  0.3451635E+00
         13   -1    0    0    0    0  0.00000000000E+00  0.00000000000E+00  0.14999999963E+04  0.15000000000E+04  0.10566000000E+00 0. -1.
        994   -1    0    0    0    0 -0.00000000000E+00 -0.00000000000E+00  0.11368683772E-12  0.17120000000E+03  0.17120000000E+03 0.  0.
         13    1    1    2    0    0 -0.35378526351E+02  0.48005248862E+01  0.17140106422E+03  0.17508004211E+03  0.10566000000E+00 0. -1.
        994    1    1    2    0    0  0.24029588944E+01  0.87860528130E+00  0.42102218597E+01  0.17127087355E+03  0.17120000000E+03 0.  0.
        998    1    1    2    0    0  0.32975567457E+02 -0.56791301675E+01  0.13243887102E+04  0.13248490843E+04  0.10000000000E+02 0. -1.
</event>
<event>
 5    1  0.1364103E-008  0.3853781E+03  0.7957747E-01  0.3428070E+00
         13   -1    0    0    0    0  0.00000000000E+00  0.00000000000E+00  0.14999999963E+04  0.15000000000E+04  0.10566000000E+00 0.  1.
        994   -1    0    0    0    0 -0.00000000000E+00 -0.00000000000E+00  0.11368683772E-12  0.17120000000E+03  0.17120000000E+03 0.  0.
         13    1    1    2    0    0 -0.88074779616E+01 -0.73166873430E+01  0.48914303292E+02  0.50236697864E+02  0.10566000000E+00 0.  1.
        994    1    1    2    0    0 -0.46993081620E+01 -0.11140422644E+01  0.15191671234E+01  0.17127484478E+03  0.17120000000E+03 0.  0.
        998    1    1    2    0    0  0.13506786124E+02  0.84307296074E+01  0.14495665259E+04  0.14496884574E+04  0.10000000000E+02 0.  1.
</event>
<event>
 5    1  0.1364103E-008  0.3853903E+03  0.7957747E-01  0.3428019E+00
         13   -1    0    0    0    0  0.00000000000E+00  0.00000000000E+00  0.14999999963E+04  0.15000000000E+04  0.10566000000E+00 0.  1.
        994   -1    0    0    0    0 -0.00000000000E+00 -0.00000000000E+00  0.11368683772E-12  0.17120000000E+03  0.17120000000E+03 0.  0.
         13    1    1    2    0    0  0.35677377475E+01 -0.18257710722E+02  0.11105409873E+03  0.11260149538E+03  0.10566000000E+00 0.  1.
        994    1    1    2    0    0 -0.73065436082E+01  0.20526683534E+02  0.29973043372E+01  0.17260693540E+03  0.17120000000E+03 0.  0.
        998    1    1    2    0    0  0.37388058607E+01 -0.22689728127E+01  0.13859485932E+04  0.13859915692E+04  0.10000000000E+02 0.  1.
</event>
<event>
 5    1  0.1364103E-008  0.3805835E+03  0.7957747E-01  0.3448622E+00
         13   -1    0    0    0    0  0.00000000000E+00  0.00000000000E+00  0.14999999963E+04  0.15000000000E+04  0.10566000000E+00 0. -1.
        994   -1    0    0    0    0 -0.00000000000E+00 -0.00000000000E+00  0.11368683772E-12  0.17120000000E+03  0.17120000000E+03 0.  0.
         13    1    1    2    0    0  0.26205872634E+02  0.25282571357E+02  0.16328295831E+03  0.16729402802E+03  0.10566000000E+00 0. -1.
        994    1    1    2    0    0 -0.20661712175E+02 -0.19532189895E+02  0.65408121106E+01  0.17366817502E+03  0.17120000000E+03 0.  0.
        998    1    1    2    0    0 -0.55441604589E+01 -0.57503814614E+01  0.13301762259E+04  0.13302377970E+04  0.10000000000E+02 0. -1.
</event>
<event>
 5    1  0.1364103E-008  0.3838130E+03  0.7957747E-01  0.3434722E+00
         13   -1    0    0    0    0  0.00000000000E+00  0.00000000000E+00  0.14999999963E+04  0.15000000000E+04  0.10566000000E+00 0.  1.
        994   -1    0    0    0    0 -0.00000000000E+00 -0.00000000000E+00  0.11368683772E-12  0.17120000000E+03  0.17120000000E+03 0.  0.
         13    1    1    2    0    0  0.12461963051E+02 -0.41428345643E+01  0.36115067281E+02  0.38428802350E+02  0.10566000000E+00 0.  1.
        994    1    1    2    0    0 -0.23642563440E+02  0.42069730372E+00  0.40687382980E+01  0.17287319753E+03  0.17120000000E+03 0.  0.
        998    1    1    2    0    0  0.11180600389E+02  0.37221372606E+01  0.14598161907E+04  0.14598980001E+04  0.10000000000E+02 0.  1.
</event>
<event>
 5    1  0.1364103E-008  0.3843470E+03  0.7957747E-01  0.3432446E+00
         13   -1    0    0    0    0  0.00000000000E+00  0.00000000000E+00  0.14999999963E+04  0.15000000000E+04  0.10566000000E+00 0. -1.
        994   -1    0    0    0    0 -0.00000000000E+00 -0.00000000000E+00  0.11368683772E-12  0.17120000000E+03  0.17120000000E+03 0.  0.
         13    1    1    2    0    0  0.10584602768E+02  0.54880778966E+01  0.36133547422E+02  0.38049930724E+02  0.10566000000E+00 0. -1.
        994    1    1    2    0    0 -0.74812489824E+01 -0.46608056796E+00  0.21398834502E+01  0.17137737721E+03  0.17120000000E+03 0.  0.
        998    1    1    2    0    0 -0.31033537856E+01 -0.50219973286E+01  0.14617265654E+04  0.14617726921E+04  0.10000000000E+02 0. -1.
</event>
<event>
 5    1  0.1364103E-008  0.3845360E+03  0.7957747E-01  0.3431643E+00
         13   -1    0    0    0    0  0.00000000000E+00  0.00000000000E+00  0.14999999963E+04  0.15000000000E+04  0.10566000000E+00 0.  1.
        994   -1    0    0    0    0 -0.00000000000E+00 -0.00000000000E+00  0.11368683772E-12  0.17120000000E+03  0.17120000000E+03 0.  0.
         13    1    1    2    0    0 -0.18336717405E+02 -0.77277895066E+01  0.11224637905E+03  0.11399655569E+03  0.10566000000E+00 0.  1.
        994    1    1    2    0    0  0.86041434079E+01 -0.58772097664E+01  0.22183780373E+01  0.17153114609E+03  0.17120000000E+03 0.  0.
        998    1    1    2    0    0  0.97325739975E+01  0.13604999273E+02  0.13855352392E+04  0.13856722982E+04  0.10000000000E+02 0.  1.
</event>
<event>
 5    1  0.1364103E-008  0.3765646E+03  0.7957747E-01  0.3466255E+00
         13   -1    0    0    0    0  0.00000000000E+00  0.00000000000E+00  0.14999999963E+04  0.15000000000E+04  0.10566000000E+00 0.  1.
        994   -1    0    0    0    0 -0.00000000000E+00 -0.00000000000E+00  0.11368683772E-12  0.17120000000E+03  0.17120000000E+03 0.  0.
         13    1    1    2    0    0  0.16945369038E+02 -0.21686331104E+02  0.59491718578E+02  0.65549357220E+02  0.10566000000E+00 0.  1.
        994    1    1    2    0    0  0.12768945118E+01  0.39517524376E+02  0.11181711787E+02  0.17606173880E+03  0.17120000000E+03 0.  0.
        998    1    1    2    0    0 -0.18222263550E+02 -0.17831193272E+02  0.14293265659E+04  0.14295889040E+04  0.10000000000E+02 0.  1.
</event>
<event>
 5    1  0.1364103E-008  0.3815036E+03  0.7957747E-01  0.3444638E+00
         13   -1    0    0    0    0  0.00000000000E+00  0.00000000000E+00  0.14999999963E+04  0.15000000000E+04  0.10566000000E+00 0. -1.
        994   -1    0    0    0    0 -0.00000000000E+00 -0.00000000000E+00  0.11368683772E-12  0.17120000000E+03  0.17120000000E+03 0.  0.
         13    1    1    2    0    0  0.17007169960E+02  0.21822556307E+02  0.10273637395E+03  0.10639662349E+03  0.10566000000E+00 0. -1.
        994    1    1    2    0    0 -0.28244135135E+02 -0.19391695109E+02  0.72903151154E+01  0.17474655276E+03  0.17120000000E+03 0.  0.
        998    1    1    2    0    0  0.11236965175E+02 -0.24308611980E+01  0.13899733072E+04  0.13900568237E+04  0.10000000000E+02 0. -1.
</event>
<event>
 5    1  0.1364103E-008  0.3782312E+03  0.7957747E-01  0.3458897E+00
         13   -1    0    0    0    0  0.00000000000E+00  0.00000000000E+00  0.14999999963E+04  0.15000000000E+04  0.10566000000E+00 0.  1.
        994   -1    0    0    0    0 -0.00000000000E+00 -0.00000000000E+00  0.11368683772E-12  0.17120000000E+03  0.17120000000E+03 0.  0.
         13    1    1    2    0    0 -0.74811968579E+01  0.75476413914E+01  0.89469786589E+01  0.13892256410E+02  0.10566000000E+00 0.  1.
        994    1    1    2    0    0  0.86845084603E+01 -0.34701959615E+01  0.53228647582E+01  0.17153785540E+03  0.17120000000E+03 0.  0.
        998    1    1    2    0    0 -0.12033116024E+01 -0.40774454299E+01  0.14857301529E+04  0.14857698882E+04  0.10000000000E+02 0.  1.
</event>
<event>
 5    1  0.1364103E-008  0.3828079E+03  0.7957747E-01  0.3439022E+00
         13   -1    0    0    0    0  0.00000000000E+00  0.00000000000E+00  0.14999999963E+04  0.15000000000E+04  0.10566000000E+00 0. -1.
        994   -1    0    0    0    0 -0.00000000000E+00 -0.00000000000E+00  0.11368683772E-12  0.17120000000E+03  0.17120000000E+03 0.  0.
         13    1    1    2    0    0 -0.35160728612E+01 -0.99958335362E+01  0.19858691187E+02  0.22509070086E+02  0.10566000000E+00 0. -1.
        994    1    1    2    0    0  0.22644734469E+00  0.30938283723E+01  0.27542549110E+01  0.17125025247E+03  0.17120000000E+03 0.  0.
        998    1    1    2    0    0  0.32896255165E+01  0.69020051639E+01  0.14773870502E+04  0.14774406774E+04  0.10000000000E+02 0. -1.
</event>
<event>
 5    1  0.1364103E-008  0.3740190E+03  0.7957747E-01  0.3477622E+00
         13   -1    0    0    0    0  0.00000000000E+00  0.00000000000E+00  0.14999999963E+04  0.15000000000E+04  0.10566000000E+00 0.  1.
        994   -1    0    0    0    0 -0.00000000000E+00 -0.00000000000E+00  0.11368683772E-12  0.17120000000E+03  0.17120000000E+03 0.  0.
         13    1    1    2    0    0 -0.13167576263E+02  0.25754012566E+02  0.55365961477E+02  0.62466431642E+02  0.10566000000E+00 0.  1.
        994    1    1    2    0    0  0.37695346557E+02 -0.25590384182E+01  0.12067372071E+02  0.17573431452E+03  0.17120000000E+03 0.  0.
        998    1    1    2    0    0 -0.24527770294E+02 -0.23194974148E+02  0.14325666627E+04  0.14329992538E+04  0.10000000000E+02 0.  1.
</event>
<event>
 5    1  0.1364103E-008  0.3967968E+03  0.7957747E-01  0.3381131E+00
         13   -1    0    0    0    0  0.00000000000E+00  0.00000000000E+00  0.14999999963E+04  0.15000000000E+04  0.10566000000E+00 0. -1.
        994   -1    0    0    0    0 -0.00000000000E+00 -0.00000000000E+00  0.11368683772E-12  0.17120000000E+03  0.17120000000E+03 0.  0.
         13    1    1    2    0    0  0.80119308212E+02  0.89956671239E+02  0.32560877011E+03  0.34717774783E+03  0.10566000000E+00 0. -1.
        994    1    1    2    0    0 -0.36058379932E+02 -0.19883495897E+02  0.32457580725E+02  0.17904886126E+03  0.17120000000E+03 0.  0.
        998    1    1    2    0    0 -0.44060928280E+02 -0.70073175342E+02  0.11419336454E+04  0.11449733909E+04  0.10000000000E+02 0. -1.
</event>
<event>
 5    1  0.1364103E-008  0.3701850E+03  0.7957747E-01  0.3495041E+00
         13   -1    0    0    0    0  0.00000000000E+00  0.00000000000E+00  0.14999999963E+04  0.15000000000E+04  0.10566000000E+00 0. -1.
        994   -1    0    0    0    0 -0.00000000000E+00 -0.00000000000E+00  0.11368683772E-12  0.17120000000E+03  0.17120000000E+03 0.  0.
         13    1    1    2    0    0  0.19278248364E+02  0.11208794340E+02  0.18032408416E+02  0.28678682812E+02  0.10566000000E+00 0. -1.
        994    1    1    2    0    0 -0.76567619023E+01 -0.85563676906E+01  0.11498007649E+02  0.17196942057E+03  0.17120000000E+03 0.  0.
        998    1    1    2    0    0 -0.11621486462E+02 -0.26524266494E+01  0.14704695802E+04  0.14705518966E+04  0.10000000000E+02 0. -1.
</event>
<event>
 5    1  0.1364103E-008  0.3692315E+03  0.7957747E-01  0.3499430E+00
         13   -1    0    0    0    0  0.00000000000E+00  0.00000000000E+00  0.14999999963E+04  0.15000000000E+04  0.10566000000E+00 0. -1.
        994   -1    0    0    0    0 -0.00000000000E+00 -0.00000000000E+00  0.11368683772E-12  0.17120000000E+03  0.17120000000E+03 0.  0.
         13    1    1    2    0    0 -0.17169866278E+02 -0.37086531666E+02  0.81547072995E+02  0.91214864014E+02  0.10566000000E+00 0. -1.
        994    1    1    2    0    0  0.47398927574E+02  0.12082026056E+02  0.18012394369E+02  0.17895954861E+03  0.17120000000E+03 0.  0.
        998    1    1    2    0    0 -0.30229061296E+02  0.25004505610E+02  0.14004405289E+04  0.14010255874E+04  0.10000000000E+02 0. -1.
</event>
<event>
 5    1  0.1364103E-008  0.3853028E+03  0.7957747E-01  0.3428389E+00
         13   -1    0    0    0    0  0.00000000000E+00  0.00000000000E+00  0.14999999963E+04  0.15000000000E+04  0.10566000000E+00 0. -1.
        994   -1    0    0    0    0 -0.00000000000E+00 -0.00000000000E+00  0.11368683772E-12  0.17120000000E+03  0.17120000000E+03 0.  0.
         13    1    1    2    0    0  0.32782109286E+01 -0.13394253150E+02  0.63735428096E+02  0.65210188184E+02  0.10566000000E+00 0. -1.
        994    1    1    2    0    0  0.35835600357E+01  0.12048045389E+02  0.19991229860E+01  0.17167246079E+03  0.17120000000E+03 0.  0.
        998    1    1    2    0    0 -0.68617709643E+01  0.13462077617E+01  0.14342654452E+04  0.14343173510E+04  0.10000000000E+02 0. -1.
</event>
<event>
 5    1  0.1364103E-008  0.3817789E+03  0.7957747E-01  0.3443449E+00
         13   -1    0    0    0    0  0.00000000000E+00  0.00000000000E+00  0.14999999963E+04  0.15000000000E+04  0.10566000000E+00 0. -1.
        994   -1    0    0    0    0 -0.00000000000E+00 -0.00000000000E+00  0.11368683772E-12  0.17120000000E+03  0.17120000000E+03 0.  0.
         13    1    1    2    0    0  0.10762097741E+02 -0.65866622365E+01  0.24230756095E+02  0.27319362587E+02  0.10566000000E+00 0. -1.
        994    1    1    2    0    0 -0.47731954355E+01 -0.14686372772E+02  0.40308088507E+01  0.17194231695E+03  0.17120000000E+03 0.  0.
        998    1    1    2    0    0 -0.59889023057E+01  0.21273035008E+02  0.14717384313E+04  0.14719383205E+04  0.10000000000E+02 0. -1.
</event>
<event>
 5    1  0.1364103E-008  0.3833593E+03  0.7957747E-01  0.3436660E+00
         13   -1    0    0    0    0  0.00000000000E+00  0.00000000000E+00  0.14999999963E+04  0.15000000000E+04  0.10566000000E+00 0.  1.
        994   -1    0    0    0    0 -0.00000000000E+00 -0.00000000000E+00  0.11368683772E-12  0.17120000000E+03  0.17120000000E+03 0.  0.
         13    1    1    2    0    0  0.44776533222E+01 -0.23182777485E+02  0.10545465871E+03  0.10806565948E+03  0.10566000000E+00 0.  1.
        994    1    1    2    0    0 -0.89581794842E+01  0.24155178644E+02  0.46444051587E+01  0.17318987307E+03  0.17120000000E+03 0.  0.
        998    1    1    2    0    0  0.44805261620E+01 -0.97240115898E+00  0.13899009324E+04  0.13899444674E+04  0.10000000000E+02 0.  1.
</event>
<event>
 5    1  0.1364103E-008  0.3850734E+03  0.7957747E-01  0.3429361E+00
         13   -1    0    0    0    0  0.00000000000E+00  0.00000000000E+00  0.14999999963E+04  0.15000000000E+04  0.10566000000E+00 0. -1.
        994   -1    0    0    0    0 -0.00000000000E+00 -0.00000000000E+00  0.11368683772E-12  0.17120000000E+03  0.17120000000E+03 0.  0.
         13    1    1    2    0    0  0.70946166747E+01  0.10607288200E+02  0.51937241039E+02  0.53482112145E+02  0.10566000000E+00 0. -1.
        994    1    1    2    0    0 -0.10128635015E+02 -0.92004930660E-01  0.19311060897E+01  0.17151025300E+03  0.17120000000E+03 0.  0.
        998    1    1    2    0    0  0.30340183400E+01 -0.10515283270E+02  0.14461316492E+04  0.14462076349E+04  0.10000000000E+02 0. -1.
</event>
<event>
 5    1  0.1364103E-008  0.3821342E+03  0.7957747E-01  0.3441918E+00
         13   -1    0    0    0    0  0.00000000000E+00  0.00000000000E+00  0.14999999963E+04  0.15000000000E+04  0.10566000000E+00 0. -1.
        994   -1    0    0    0    0 -0.00000000000E+00 -0.00000000000E+00  0.11368683772E-12  0.17120000000E+03  0.17120000000E+03 0.  0.
         13    1    1    2    0    0 -0.61922743403E+01  0.16818311788E+02  0.50003638203E+02  0.53118498383E+02  0.10566000000E+00 0. -1.
        994    1    1    2    0    0  0.74938746119E+01 -0.17022003162E+02  0.42087410216E+01  0.17225870152E+03  0.17120000000E+03 0.  0.
        998    1    1    2    0    0 -0.13016002716E+01  0.20369137375E+00  0.14457876171E+04  0.14458228001E+04  0.10000000000E+02 0. -1.
</event>
<event>
 5    1  0.1364103E-008  0.3754023E+03  0.7957747E-01  0.3471425E+00
         13   -1    0    0    0    0  0.00000000000E+00  0.00000000000E+00  0.14999999963E+04  0.15000000000E+04  0.10566000000E+00 0.  1.
        994   -1    0    0    0    0 -0.00000000000E+00 -0.00000000000E+00  0.11368683772E-12  0.17120000000E+03  0.17120000000E+03 0.  0.
         13    1    1    2    0    0 -0.60824415411E+01 -0.79174490764E+02  0.40503500822E+03  0.41274564217E+03  0.10566000000E+00 0.  1.
        994    1    1    2    0    0  0.16040187134E+02  0.64535320509E+02  0.21634525904E+02  0.18493130592E+03  0.17120000000E+03 0.  0.
        998    1    1    2    0    0 -0.99577455926E+01  0.14639170254E+02  0.10733304622E+04  0.10735230519E+04  0.10000000000E+02 0.  1.
</event>
<event>
 5    1  0.1364103E-008  0.3711510E+03  0.7957747E-01  0.3490618E+00
         13   -1    0    0    0    0  0.00000000000E+00  0.00000000000E+00  0.14999999963E+04  0.15000000000E+04  0.10566000000E+00 0. -1.
        994   -1    0    0    0    0 -0.00000000000E+00 -0.00000000000E+00  0.11368683772E-12  0.17120000000E+03  0.17120000000E+03 0.  0.
         13    1    1    2    0    0 -0.22372154231E+02  0.12020557465E+02  0.34281965570E+02  0.42664638919E+02  0.10566000000E+00 0. -1.
        994    1    1    2    0    0  0.18755131041E+02  0.12588868717E+02  0.10427888109E+02  0.17299831041E+03  0.17120000000E+03 0.  0.
        998    1    1    2    0    0  0.36170231901E+01 -0.24609426182E+02  0.14552901426E+04  0.14555370507E+04  0.10000000000E+02 0. -1.
</event>
<event>
 5    1  0.1364103E-008  0.3806527E+03  0.7957747E-01  0.3448321E+00
         13   -1    0    0    0    0  0.00000000000E+00  0.00000000000E+00  0.14999999963E+04  0.15000000000E+04  0.10566000000E+00 0. -1.
        994   -1    0    0    0    0 -0.00000000000E+00 -0.00000000000E+00  0.11368683772E-12  0.17120000000E+03  0.17120000000E+03 0.  0.
         13    1    1    2    0    0  0.10899467258E+02  0.38281348296E+01  0.15739561296E+02  0.19524291449E+02  0.10566000000E+00 0. -1.
        994    1    1    2    0    0 -0.11455176932E+02 -0.64858596770E+01  0.43822671387E+01  0.17176126373E+03  0.17120000000E+03 0.  0.
        998    1    1    2    0    0  0.55570967403E+00  0.26577248474E+01  0.14798781678E+04  0.14799144448E+04  0.10000000000E+02 0. -1.
</event>
<event>
 5    1  0.1364103E-008  0.3696598E+03  0.7957747E-01  0.3497456E+00
         13   -1    0    0    0    0  0.00000000000E+00  0.00000000000E+00  0.14999999963E+04  0.15000000000E+04  0.10566000000E+00 0.  1.
        994   -1    0    0    0    0 -0.00000000000E+00 -0.00000000000E+00  0.11368683772E-12  0.17120000000E+03  0.17120000000E+03 0.  0.
         13    1    1    2    0    0  0.18146401450E+02 -0.66981167345E+01  0.12886149791E+02  0.23242647737E+02  0.10566000000E+00 0.  1.
        994    1    1    2    0    0 -0.10423699570E+02 -0.78450386343E+01  0.11353562243E+02  0.17207132684E+03  0.17120000000E+03 0.  0.
        998    1    1    2    0    0 -0.77227018804E+01  0.14543155369E+02  0.14757602842E+04  0.14758860254E+04  0.10000000000E+02 0.  1.
</event>
<event>
 5    1  0.1364103E-008  0.3825640E+03  0.7957747E-01  0.3440070E+00
         13   -1    0    0    0    0  0.00000000000E+00  0.00000000000E+00  0.14999999963E+04  0.15000000000E+04  0.10566000000E+00 0. -1.
        994   -1    0    0    0    0 -0.00000000000E+00 -0.00000000000E+00  0.11368683772E-12  0.17120000000E+03  0.17120000000E+03 0.  0.
         13    1    1    2    0    0 -0.58284222761E+01  0.12051374902E+02  0.31745669828E+02  0.34452936887E+02  0.10566000000E+00 0. -1.
        994    1    1    2    0    0  0.33156330333E+01  0.38220515159E+01  0.29293135238E+01  0.17129980262E+03  0.17120000000E+03 0.  0.
        998    1    1    2    0    0  0.25127892428E+01 -0.15873426418E+02  0.14653250129E+04  0.14654472605E+04  0.10000000000E+02 0. -1.
</event>
<event>
 5    1  0.1364103E-008  0.3995723E+03  0.7957747E-01  0.3370127E+00
         13   -1    0    0    0    0  0.00000000000E+00  0.00000000000E+00  0.14999999963E+04  0.15000000000E+04  0.10566000000E+00 0. -1.
        994   -1    0    0    0    0 -0.00000000000E+00 -0.00000000000E+00  0.11368683772E-12  0.17120000000E+03  0.17120000000E+03 0.  0.
         13    1    1    2    0    0  0.92106214125E+01 -0.17345802120E+02 -0.51686360295E+01  0.20308578494E+02  0.10566000000E+00 0. -1.
        994    1    1    2    0    0 -0.14178994085E+02  0.16715334392E+02  0.29403761488E+02  0.17508417252E+03  0.17120000000E+03 0.  0.
        998    1    1    2    0    0  0.49683726720E+01  0.63046772812E+00  0.14757648708E+04  0.14758072490E+04  0.10000000000E+02 0. -1.
</event>
<event>
 5    1  0.1364103E-008  0.3269858E+03  0.7957747E-01  0.3720404E+00
         13   -1    0    0    0    0  0.00000000000E+00  0.00000000000E+00  0.14999999963E+04  0.15000000000E+04  0.10566000000E+00 0.  1.
        994   -1    0    0    0    0 -0.00000000000E+00 -0.00000000000E+00  0.11368683772E-12  0.17120000000E+03  0.17120000000E+03 0.  0.
         13    1    1    2    0    0  0.12917301361E+03 -0.11152604188E+03  0.10231242641E+04  0.10372593680E+04  0.10566000000E+00 0.  1.
        994    1    1    2    0    0 -0.70411551505E+02  0.47054430051E+02  0.49051042525E+02  0.19719875949E+03  0.17120000000E+03 0.  0.
        998    1    1    2    0    0 -0.58761462100E+02  0.64471611831E+02  0.42782468965E+03  0.43674187254E+03  0.10000000000E+02 0.  1.
</event>
<event>
 5    1  0.1364103E-008  0.3750175E+03  0.7957747E-01  0.3473145E+00
         13   -1    0    0    0    0  0.00000000000E+00  0.00000000000E+00  0.14999999963E+04  0.15000000000E+04  0.10566000000E+00 0. -1.
        994   -1    0    0    0    0 -0.00000000000E+00 -0.00000000000E+00  0.11368683772E-12  0.17120000000E+03  0.17120000000E+03 0.  0.
         13    1    1    2    0    0  0.23745124889E+02 -0.25082645541E+02  0.82472516811E+02  0.89413070949E+02  0.10566000000E+00 0. -1.
        994    1    1    2    0    0 -0.22237418641E+02  0.27634597677E+02  0.10958264078E+02  0.17517904363E+03  0.17120000000E+03 0.  0.
        998    1    1    2    0    0 -0.15077062481E+01 -0.25519521355E+01  0.14065692154E+04  0.14066078854E+04  0.10000000000E+02 0. -1.
</event>
<event>
 5    1  0.1364103E-008  0.3802829E+03  0.7957747E-01  0.3449927E+00
         13   -1    0    0    0    0  0.00000000000E+00  0.00000000000E+00  0.14999999963E+04  0.15000000000E+04  0.10566000000E+00 0.  1.
        994   -1    0    0    0    0 -0.00000000000E+00 -0.00000000000E+00  0.11368683772E-12  0.17120000000E+03  0.17120000000E+03 0.  0.
         13    1    1    2    0    0  0.66818799200E+01  0.18651991351E+02  0.49613704369E+02  0.53423544677E+02  0.10566000000E+00 0.  1.
        994    1    1    2    0    0  0.43419739619E+01 -0.43743509991E+01  0.41172682824E+01  0.17136037927E+03  0.17120000000E+03 0.  0.
        998    1    1    2    0    0 -0.11023853882E+02 -0.14277640352E+02  0.14462690236E+04  0.14464160761E+04  0.10000000000E+02 0.  1.
</event>
<event>
 5    1  0.1364103E-008  0.2896136E+03  0.7957747E-01  0.3973077E+00
         13   -1    0    0    0    0  0.00000000000E+00  0.00000000000E+00  0.14999999963E+04  0.15000000000E+04  0.10566000000E+00 0.  1.
        994   -1    0    0    0    0 -0.00000000000E+00 -0.00000000000E+00  0.11368683772E-12  0.17120000000E+03  0.17120000000E+03 0.  0.
         13    1    1    2    0    0 -0.16191230485E+03  0.88000796529E+02  0.58199306340E+03  0.61047167966E+03  0.10566000000E+00 0.  1.
        994    1    1    2    0    0  0.16016656060E+03 -0.63214707226E+02  0.13608678006E+03  0.27834956090E+03  0.17120000000E+03 0.  0.
        998    1    1    2    0    0  0.17457442459E+01 -0.24786089303E+02  0.78192015282E+03  0.78237875944E+03  0.10000000000E+02 0.  1.
</event>
<event>
 5    1  0.1364103E-008  0.3855153E+03  0.7957747E-01  0.3427490E+00
         13   -1    0    0    0    0  0.00000000000E+00  0.00000000000E+00  0.14999999963E+04  0.15000000000E+04  0.10566000000E+00 0. -1.
        994   -1    0    0    0    0 -0.00000000000E+00 -0.00000000000E+00  0.11368683772E-12  0.17120000000E+03  0.17120000000E+03 0.  0.
         13    1    1    2    0    0  0.60487947865E+01  0.11311832470E+02  0.60541408526E+02  0.61885529671E+02  0.10566000000E+00 0. -1.
        994    1    1    2    0    0  0.15648699649E+02 -0.17708674454E+02  0.32102405549E+01  0.17285318798E+03  0.17120000000E+03 0.  0.
        998    1    1    2    0    0 -0.21697494436E+02  0.63968419834E+01  0.14362483472E+04  0.14364612823E+04  0.10000000000E+02 0. -1.
</event>
<event>
 5    1  0.1364103E-008  0.3804311E+03  0.7957747E-01  0.3449283E+00
         13   -1    0    0    0    0  0.00000000000E+00  0.00000000000E+00  0.14999999963E+04  0.15000000000E+04  0.10566000000E+00 0. -1.
        994   -1    0    0    0    0 -0.00000000000E+00 -0.00000000000E+00  0.11368683772E-12  0.17120000000E+03  0.17120000000E+03 0.  0.
         13    1    1    2    0    0  0.62656922556E+02  0.66657072646E+02  0.44466640576E+03  0.45397938153E+03  0.10566000000E+00 0. -1.
        994    1    1    2    0    0  0.11820478787E+02  0.24701111030E+02  0.19290354156E+02  0.17444605575E+03  0.17120000000E+03 0.  0.
        998    1    1    2    0    0 -0.74477401342E+02 -0.91358183676E+02  0.10360432364E+04  0.10427745627E+04  0.10000000000E+02 0. -1.
</event>
<event>
 5    1  0.1364103E-008  0.3131193E+03  0.7957747E-01  0.3806593E+00
         13   -1    0    0    0    0  0.00000000000E+00  0.00000000000E+00  0.14999999963E+04  0.15000000000E+04  0.10566000000E+00 0.  1.
        994   -1    0    0    0    0 -0.00000000000E+00 -0.00000000000E+00  0.11368683772E-12  0.17120000000E+03  0.17120000000E+03 0.  0.
         13    1    1    2    0    0  0.75398762680E+02  0.17236870226E+03  0.87525352677E+03  0.89524560330E+03  0.10566000000E+00 0.  1.
        994    1    1    2    0    0 -0.46726083738E+02 -0.94107611779E+02  0.66738320183E+02  0.21166722202E+03  0.17120000000E+03 0.  0.
        998    1    1    2    0    0 -0.28672678942E+02 -0.78261090480E+02  0.55800814932E+03  0.56428717468E+03  0.10000000000E+02 0. -1.
</event>
<event>
 5    1  0.1364103E-008  0.3837444E+03  0.7957747E-01  0.3435015E+00
         13   -1    0    0    0    0  0.00000000000E+00  0.00000000000E+00  0.14999999963E+04  0.15000000000E+04  0.10566000000E+00 0.  1.
        994   -1    0    0    0    0 -0.00000000000E+00 -0.00000000000E+00  0.11368683772E-12  0.17120000000E+03  0.17120000000E+03 0.  0.
         13    1    1    2    0    0 -0.14383039995E+02 -0.44048632008E+01  0.50512287930E+02  0.52704620816E+02  0.10566000000E+00 0.  1.
        994    1    1    2    0    0  0.58664031320E+01  0.23285037581E+01  0.23863561977E+01  0.17133292536E+03  0.17120000000E+03 0.  0.
        998    1    1    2    0    0  0.85166368630E+01  0.20763594427E+01  0.14471013522E+04  0.14471624538E+04  0.10000000000E+02 0.  1.
</event>
<event>
 5    1  0.1364103E-008  0.3839421E+03  0.7957747E-01  0.3434171E+00
         13   -1    0    0    0    0  0.00000000000E+00  0.00000000000E+00  0.14999999963E+04  0.15000000000E+04  0.10566000000E+00 0. -1.
        994   -1    0    0    0    0 -0.00000000000E+00 -0.00000000000E+00  0.11368683772E-12  0.17120000000E+03  0.17120000000E+03 0.  0.
         13    1    1    2    0    0 -0.19034139845E+02  0.11128330861E+02  0.11374273466E+03  0.11586008407E+03  0.10566000000E+00 0. -1.
        994    1    1    2    0    0  0.90888319531E+01 -0.80643376702E+01  0.26436263380E+01  0.17165100981E+03  0.17120000000E+03 0.  0.
        998    1    1    2    0    0  0.99453078915E+01 -0.30639931913E+01  0.13836136353E+04  0.13836889061E+04  0.10000000000E+02 0. -1.
</event>
<event>
 5    1  0.1364103E-008  0.3819293E+03  0.7957747E-01  0.3442801E+00
         13   -1    0    0    0    0  0.00000000000E+00  0.00000000000E+00  0.14999999963E+04  0.15000000000E+04  0.10566000000E+00 0. -1.
        994   -1    0    0    0    0 -0.00000000000E+00 -0.00000000000E+00  0.11368683772E-12  0.17120000000E+03  0.17120000000E+03 0.  0.
         13    1    1    2    0    0 -0.63559345997E+01 -0.22827903679E+02  0.87072997232E+02  0.90239842099E+02  0.10566000000E+00 0. -1.
        994    1    1    2    0    0  0.16308530975E+02  0.12397696484E+02  0.45576728487E+01  0.17248154522E+03  0.17120000000E+03 0.  0.
        998    1    1    2    0    0 -0.99525963751E+01  0.10430207195E+02  0.14083693262E+04  0.14084786127E+04  0.10000000000E+02 0. -1.
</event>
<event>
 5    1  0.1364103E-008  0.3835722E+03  0.7957747E-01  0.3435750E+00
         13   -1    0    0    0    0  0.00000000000E+00  0.00000000000E+00  0.14999999963E+04  0.15000000000E+04  0.10566000000E+00 0.  1.
        994   -1    0    0    0    0 -0.00000000000E+00 -0.00000000000E+00  0.11368683772E-12  0.17120000000E+03  0.17120000000E+03 0.  0.
         13    1    1    2    0    0  0.48974920441E+01  0.13654771564E+02  0.53182480264E+02  0.55125543860E+02  0.10566000000E+00 0.  1.
        994    1    1    2    0    0  0.18255377454E+02  0.21736616681E+02  0.50073371872E+01  0.17360948343E+03  0.17120000000E+03 0.  0.
        998    1    1    2    0    0 -0.23152869498E+02 -0.35391388245E+02  0.14418101788E+04  0.14424649727E+04  0.10000000000E+02 0.  1.
</event>
<event>
 5    1  0.1364103E-008  0.4101588E+03  0.7957747E-01  0.3329510E+00
         13   -1    0    0    0    0  0.00000000000E+00  0.00000000000E+00  0.14999999963E+04  0.15000000000E+04  0.10566000000E+00 0.  1.
        994   -1    0    0    0    0 -0.00000000000E+00 -0.00000000000E+00  0.11368683772E-12  0.17120000000E+03  0.17120000000E+03 0.  0.
         13    1    1    2    0    0  0.26420282452E+02  0.25147724626E+02  0.57277425898E+01  0.36922318155E+02  0.10566000000E+00 0.  1.
        994    1    1    2    0    0 -0.25900883287E+02 -0.26290377423E+02  0.39578815670E+02  0.17954933124E+03  0.17120000000E+03 0.  0.
        998    1    1    2    0    0 -0.51939916481E+00  0.11426527968E+01  0.14546934380E+04  0.14547283506E+04  0.10000000000E+02 0.  1.
</event>
<event>
 5    1  0.1364103E-008  0.3804779E+03  0.7957747E-01  0.3449080E+00
         13   -1    0    0    0    0  0.00000000000E+00  0.00000000000E+00  0.14999999963E+04  0.15000000000E+04  0.10566000000E+00 0.  1.
        994   -1    0    0    0    0 -0.00000000000E+00 -0.00000000000E+00  0.11368683772E-12  0.17120000000E+03  0.17120000000E+03 0.  0.
         13    1    1    2    0    0 -0.13698022471E+02  0.99840947287E+01  0.10338035690E+01  0.16982281385E+02  0.10566000000E+00 0.  1.
        994    1    1    2    0    0  0.19987679040E+02 -0.12833000758E+02  0.18640530061E+02  0.17384217723E+03  0.17120000000E+03 0.  0.
        998    1    1    2    0    0 -0.62896565688E+01  0.28489060291E+01  0.14803256626E+04  0.14803755414E+04  0.10000000000E+02 0.  1.
</event>
<event>
 5    1  0.1364103E-008  0.3850571E+03  0.7957747E-01  0.3429430E+00
         13   -1    0    0    0    0  0.00000000000E+00  0.00000000000E+00  0.14999999963E+04  0.15000000000E+04  0.10566000000E+00 0.  1.
        994   -1    0    0    0    0 -0.00000000000E+00 -0.00000000000E+00  0.11368683772E-12  0.17120000000E+03  0.17120000000E+03 0.  0.
         13    1    1    2    0    0 -0.34229929473E+01 -0.10911673593E+02  0.40118319493E+02  0.41716570140E+02  0.10566000000E+00 0.  1.
        994    1    1    2    0    0  0.50108608137E+01  0.96221767483E+01  0.19888979932E+01  0.17155492044E+03  0.17120000000E+03 0.  0.
        998    1    1    2    0    0 -0.15878678664E+01  0.12894968449E+01  0.14578927788E+04  0.14579285094E+04  0.10000000000E+02 0.  1.
</event>
<event>
 5    1  0.1364103E-008  0.3833402E+03  0.7957747E-01  0.3436742E+00
         13   -1    0    0    0    0  0.00000000000E+00  0.00000000000E+00  0.14999999963E+04  0.15000000000E+04  0.10566000000E+00 0. -1.
        994   -1    0    0    0    0 -0.00000000000E+00 -0.00000000000E+00  0.11368683772E-12  0.17120000000E+03  0.17120000000E+03 0.  0.
         13    1    1    2    0    0  0.58673323032E+01  0.15112695201E+02  0.54940604071E+02  0.57282635103E+02  0.10566000000E+00 0. -1.
        994    1    1    2    0    0 -0.27276099658E+01 -0.17146090593E+01  0.24907458530E+01  0.17124842643E+03  0.17120000000E+03 0.  0.
        998    1    1    2    0    0 -0.31397223373E+01 -0.13398086142E+02  0.14425686464E+04  0.14426689385E+04  0.10000000000E+02 0. -1.
</event>
<event>
 5    1  0.1364103E-008  0.3827977E+03  0.7957747E-01  0.3439066E+00
         13   -1    0    0    0    0  0.00000000000E+00  0.00000000000E+00  0.14999999963E+04  0.15000000000E+04  0.10566000000E+00 0.  1.
        994   -1    0    0    0    0 -0.00000000000E+00 -0.00000000000E+00  0.11368683772E-12  0.17120000000E+03  0.17120000000E+03 0.  0.
         13    1    1    2    0    0 -0.11612505850E+01  0.13793934398E+02  0.33355409322E+02  0.36113925626E+02  0.10566000000E+00 0.  1.
        994    1    1    2    0    0 -0.99677174230E+00 -0.16311682613E+02  0.36125942887E+01  0.17201614861E+03  0.17120000000E+03 0.  0.
        998    1    1    2    0    0  0.21580223273E+01  0.25177482157E+01  0.14630319927E+04  0.14630699258E+04  0.10000000000E+02 0.  1.
</event>
<event>
 5    1  0.1364103E-008  0.3853889E+03  0.7957747E-01  0.3428025E+00
         13   -1    0    0    0    0  0.00000000000E+00  0.00000000000E+00  0.14999999963E+04  0.15000000000E+04  0.10566000000E+00 0.  1.
        994   -1    0    0    0    0 -0.00000000000E+00 -0.00000000000E+00  0.11368683772E-12  0.17120000000E+03  0.17120000000E+03 0.  0.
         13    1    1    2    0    0 -0.77147623649E+02 -0.49085735815E+02  0.48690433697E+03  0.49541599673E+03  0.10566000000E+00 0.  1.
        994    1    1    2    0    0 -0.42693719762E+02 -0.34773236907E+02  0.30614482254E+02  0.18242428083E+03  0.17120000000E+03 0.  0.
        998    1    1    2    0    0  0.11984134341E+03  0.83858972722E+02  0.98248117705E+03  0.99335972244E+03  0.10000000000E+02 0.  1.
</event>
<event>
 5    1  0.1364103E-008  0.3804933E+03  0.7957747E-01  0.3449014E+00
         13   -1    0    0    0    0  0.00000000000E+00  0.00000000000E+00  0.14999999963E+04  0.15000000000E+04  0.10566000000E+00 0.  1.
        994   -1    0    0    0    0 -0.00000000000E+00 -0.00000000000E+00  0.11368683772E-12  0.17120000000E+03  0.17120000000E+03 0.  0.
         13    1    1    2    0    0  0.58300216261E+01  0.10674425990E+02  0.16994610089E+02  0.20898814763E+02  0.10566000000E+00 0.  1.
        994    1    1    2    0    0 -0.93861793219E+01 -0.15165627577E+02  0.49467098704E+01  0.17219758001E+03  0.17120000000E+03 0.  0.
        998    1    1    2    0    0  0.35561576958E+01  0.44912015871E+01  0.14780586763E+04  0.14781036052E+04  0.10000000000E+02 0.  1.
</event>
<event>
 5    1  0.1364103E-008  0.3825813E+03  0.7957747E-01  0.3439995E+00
         13   -1    0    0    0    0  0.00000000000E+00  0.00000000000E+00  0.14999999963E+04  0.15000000000E+04  0.10566000000E+00 0. -1.
        994   -1    0    0    0    0 -0.00000000000E+00 -0.00000000000E+00  0.11368683772E-12  0.17120000000E+03  0.17120000000E+03 0.  0.
         13    1    1    2    0    0 -0.14339718314E+02  0.15114873453E+02  0.73934205782E+02  0.76813832540E+02  0.10566000000E+00 0. -1.
        994    1    1    2    0    0  0.10875067169E+02 -0.14035844329E+02  0.38814778562E+01  0.17216206865E+03  0.17120000000E+03 0.  0.
        998    1    1    2    0    0  0.34646511454E+01 -0.10790291241E+01  0.14221843126E+04  0.14222240988E+04  0.10000000000E+02 0. -1.
</event>
<event>
 5    1  0.1364103E-008  0.3847133E+03  0.7957747E-01  0.3430889E+00
         13   -1    0    0    0    0  0.00000000000E+00  0.00000000000E+00  0.14999999963E+04  0.15000000000E+04  0.10566000000E+00 0. -1.
        994   -1    0    0    0    0 -0.00000000000E+00 -0.00000000000E+00  0.11368683772E-12  0.17120000000E+03  0.17120000000E+03 0.  0.
         13    1    1    2    0    0  0.56290687096E+01  0.14869840110E+02  0.70123583085E+02  0.71903592596E+02  0.10566000000E+00 0. -1.
        994    1    1    2    0    0 -0.19459057115E+01 -0.12935414759E+02  0.23359969212E+01  0.17171490438E+03  0.17120000000E+03 0.  0.
        998    1    1    2    0    0 -0.36831629981E+01 -0.19344253515E+01  0.14275404163E+04  0.14275815030E+04  0.10000000000E+02 0. -1.
</event>
<event>
 5    1  0.1364103E-008  0.3764259E+03  0.7957747E-01  0.3466870E+00
         13   -1    0    0    0    0  0.00000000000E+00  0.00000000000E+00  0.14999999963E+04  0.15000000000E+04  0.10566000000E+00 0.  1.
        994   -1    0    0    0    0 -0.00000000000E+00 -0.00000000000E+00  0.11368683772E-12  0.17120000000E+03  0.17120000000E+03 0.  0.
         13    1    1    2    0    0  0.21922442487E+02 -0.35143202045E+02  0.14684759326E+03  0.15257740641E+03  0.10566000000E+00 0.  1.
        994    1    1    2    0    0 -0.13189434194E+02  0.13527498376E+02  0.71568081604E+01  0.17238797606E+03  0.17120000000E+03 0.  0.
        998    1    1    2    0    0 -0.87330082927E+01  0.21615703669E+02  0.13459955949E+04  0.13462346175E+04  0.10000000000E+02 0.  1.
</event>
<event>
 5    1  0.1364103E-008  0.3754280E+03  0.7957747E-01  0.3471311E+00
         13   -1    0    0    0    0  0.00000000000E+00  0.00000000000E+00  0.14999999963E+04  0.15000000000E+04  0.10566000000E+00 0.  1.
        994   -1    0    0    0    0 -0.00000000000E+00 -0.00000000000E+00  0.11368683772E-12  0.17120000000E+03  0.17120000000E+03 0.  0.
         13    1    1    2    0    0  0.16747102757E+02 -0.21043768784E+01  0.19339977400E+02  0.25669821634E+02  0.10566000000E+00 0.  1.
        994    1    1    2    0    0 -0.10339678680E+02  0.32317748529E+01  0.68575329167E+01  0.17167940786E+03  0.17120000000E+03 0.  0.
        998    1    1    2    0    0 -0.64074240775E+01 -0.11273979745E+01  0.14738024860E+04  0.14738507705E+04  0.10000000000E+02 0.  1.
</event>
<event>
 5    1  0.1364103E-008  0.3811341E+03  0.7957747E-01  0.3446235E+00
         13   -1    0    0    0    0  0.00000000000E+00  0.00000000000E+00  0.14999999963E+04  0.15000000000E+04  0.10566000000E+00 0. -1.
        994   -1    0    0    0    0 -0.00000000000E+00 -0.00000000000E+00  0.11368683772E-12  0.17120000000E+03  0.17120000000E+03 0.  0.
         13    1    1    2    0    0 -0.32055741391E+02 -0.74073193359E+01  0.13296022130E+03  0.13697032725E+03  0.10566000000E+00 0. -1.
        994    1    1    2    0    0  0.33847982342E+02  0.32691938838E+02  0.10972241827E+02  0.17788838878E+03  0.17120000000E+03 0.  0.
        998    1    1    2    0    0 -0.17922409507E+01 -0.25284619502E+02  0.13560675332E+04  0.13563412840E+04  0.10000000000E+02 0. -1.
</event>
<event>
 5    1  0.1364103E-008  0.3848207E+03  0.7957747E-01  0.3430433E+00
         13   -1    0    0    0    0  0.00000000000E+00  0.00000000000E+00  0.14999999963E+04  0.15000000000E+04  0.10566000000E+00 0.  1.
        994   -1    0    0    0    0 -0.00000000000E+00 -0.00000000000E+00  0.11368683772E-12  0.17120000000E+03  0.17120000000E+03 0.  0.
         13    1    1    2    0    0 -0.98119345715E+01  0.12926203020E+02  0.70757661323E+02  0.72594893653E+02  0.10566000000E+00 0.  1.
        994    1    1    2    0    0  0.65995476086E+01 -0.23914450056E+02  0.37469831761E+01  0.17302871101E+03  0.17120000000E+03 0.  0.
        998    1    1    2    0    0  0.32123869629E+01  0.10988247037E+02  0.14254953518E+04  0.14255763953E+04  0.10000000000E+02 0.  1.
</event>
<event>
 5    1  0.1364103E-008  0.3800387E+03  0.7957747E-01  0.3450990E+00
         13   -1    0    0    0    0  0.00000000000E+00  0.00000000000E+00  0.14999999963E+04  0.15000000000E+04  0.10566000000E+00 0. -1.
        994   -1    0    0    0    0 -0.00000000000E+00 -0.00000000000E+00  0.11368683772E-12  0.17120000000E+03  0.17120000000E+03 0.  0.
         13    1    1    2    0    0  0.20885615017E+01  0.11600377105E+02  0.15077174984E+02  0.19138004276E+02  0.10566000000E+00 0. -1.
        994    1    1    2    0    0  0.67628661052E+01 -0.10987126288E+02  0.46701488528E+01  0.17174895514E+03  0.17120000000E+03 0.  0.
        998    1    1    2    0    0 -0.88514276069E+01 -0.61325081713E+00  0.14802526724E+04  0.14803130406E+04  0.10000000000E+02 0. -1.
</event>
<event>
 5    1  0.1364103E-008  0.3797115E+03  0.7957747E-01  0.3452416E+00
         13   -1    0    0    0    0  0.00000000000E+00  0.00000000000E+00  0.14999999963E+04  0.15000000000E+04  0.10566000000E+00 0.  1.
        994   -1    0    0    0    0 -0.00000000000E+00 -0.00000000000E+00  0.11368683772E-12  0.17120000000E+03  0.17120000000E+03 0.  0.
         13    1    1    2    0    0 -0.38364007723E+02 -0.19650827579E+02  0.19135056480E+03  0.19614535918E+03  0.10566000000E+00 0.  1.
        994    1    1    2    0    0  0.35254486025E+02  0.23468936691E+02  0.10304136370E+02  0.17666149835E+03  0.17120000000E+03 0.  0.
        998    1    1    2    0    0  0.31095216975E+01 -0.38181091117E+01  0.12983452951E+04  0.12983931425E+04  0.10000000000E+02 0.  1.
</event>
<event>
 5    1  0.1364103E-008  0.3848116E+03  0.7957747E-01  0.3430471E+00
         13   -1    0    0    0    0  0.00000000000E+00  0.00000000000E+00  0.14999999963E+04  0.15000000000E+04  0.10566000000E+00 0. -1.
        994   -1    0    0    0    0 -0.00000000000E+00 -0.00000000000E+00  0.11368683772E-12  0.17120000000E+03  0.17120000000E+03 0.  0.
         13    1    1    2    0    0 -0.18007330998E+02  0.97187139865E+01  0.10885586511E+03  0.11076248419E+03  0.10566000000E+00 0. -1.
        994    1    1    2    0    0  0.27716477690E+02 -0.52706761768E+01  0.43473875144E+01  0.17356359912E+03  0.17120000000E+03 0.  0.
        998    1    1    2    0    0 -0.97091466926E+01 -0.44480378097E+01  0.13867967437E+04  0.13868739167E+04  0.10000000000E+02 0. -1.
</event>
<event>
 5    1  0.1364103E-008  0.3791643E+03  0.7957747E-01  0.3454806E+00
         13   -1    0    0    0    0  0.00000000000E+00  0.00000000000E+00  0.14999999963E+04  0.15000000000E+04  0.10566000000E+00 0.  1.
        994   -1    0    0    0    0 -0.00000000000E+00 -0.00000000000E+00  0.11368683772E-12  0.17120000000E+03  0.17120000000E+03 0.  0.
         13    1    1    2    0    0 -0.14304407553E+02 -0.34046783251E+02  0.16335487755E+03  0.16747724236E+03  0.10566000000E+00 0.  1.
        994    1    1    2    0    0 -0.52523650659E+01  0.92671542133E+01  0.49360606134E+01  0.17160207511E+03  0.17120000000E+03 0.  0.
        998    1    1    2    0    0  0.19556772619E+02  0.24779629038E+02  0.13317090581E+04  0.13321206825E+04  0.10000000000E+02 0.  1.
</event>
<event>
 5    1  0.1364103E-008  0.3814848E+03  0.7957747E-01  0.3444719E+00
         13   -1    0    0    0    0  0.00000000000E+00  0.00000000000E+00  0.14999999963E+04  0.15000000000E+04  0.10566000000E+00 0.  1.
        994   -1    0    0    0    0 -0.00000000000E+00 -0.00000000000E+00  0.11368683772E-12  0.17120000000E+03  0.17120000000E+03 0.  0.
         13    1    1    2    0    0  0.14450305912E+02  0.17653980608E+02  0.75066068693E+02  0.78456358604E+02  0.10566000000E+00 0.  1.
        994    1    1    2    0    0 -0.18408247359E+02 -0.59113183015E+01  0.46300136975E+01  0.17235046934E+03  0.17120000000E+03 0.  0.
        998    1    1    2    0    0  0.39579414471E+01 -0.11742662307E+02  0.14203039139E+04  0.14203931721E+04  0.10000000000E+02 0.  1.
</event>
<event>
 5    1  0.1664122E-008  0.3854505E+03  0.7957747E-01  0.3427764E+00
         13   -1    0    0    0    0  0.00000000000E+00  0.00000000000E+00  0.14999999963E+04  0.15000000000E+04  0.10566000000E+00 0. -1.
        994   -1    0    0    0    0 -0.00000000000E+00 -0.00000000000E+00  0.11368683772E-12  0.17120000000E+03  0.17120000000E+03 0.  0.
         13    1    1    2    0    0 -0.33776551176E+01  0.16239696341E+02  0.91608361039E+02  0.93098008935E+02  0.10566000000E+00 0. -1.
        994    1    1    2    0    0  0.18423975787E+01 -0.19481242280E+02  0.26650890727E+01  0.17233530088E+03  0.17120000000E+03 0.  0.
        998    1    1    2    0    0  0.15352575389E+01  0.32415459388E+01  0.14057265462E+04  0.14057666902E+04  0.10000000000E+02 0. -1.
</event>
<event>
 5    1  0.1364103E-008  0.3909920E+03  0.7957747E-01  0.3404650E+00
         13   -1    0    0    0    0  0.00000000000E+00  0.00000000000E+00  0.14999999963E+04  0.15000000000E+04  0.10566000000E+00 0.  1.
        994   -1    0    0    0    0 -0.00000000000E+00 -0.00000000000E+00  0.11368683772E-12  0.17120000000E+03  0.17120000000E+03 0.  0.
         13    1    1    2    0    0  0.22463073358E+02 -0.17866546311E+02  0.87524605729E+01  0.30006997049E+02  0.10566000000E+00 0.  1.
        994    1    1    2    0    0 -0.17635904065E+02  0.19513543413E+02  0.25117948384E+02  0.17502044115E+03  0.17120000000E+03 0.  0.
        998    1    1    2    0    0 -0.48271692933E+01 -0.16469971020E+01  0.14661295873E+04  0.14661725618E+04  0.10000000000E+02 0.  1.
</event>
<event>
 5    1  0.1364103E-008  0.3814718E+03  0.7957747E-01  0.3444775E+00
         13   -1    0    0    0    0  0.00000000000E+00  0.00000000000E+00  0.14999999963E+04  0.15000000000E+04  0.10566000000E+00 0.  1.
        994   -1    0    0    0    0 -0.00000000000E+00 -0.00000000000E+00  0.11368683772E-12  0.17120000000E+03  0.17120000000E+03 0.  0.
         13    1    1    2    0    0 -0.26332698316E+02 -0.43744324099E+01  0.12160611325E+03  0.12450142411E+03  0.10566000000E+00 0.  1.
        994    1    1    2    0    0 -0.86197086071E+01 -0.28371559241E+00  0.36395317241E+01  0.17145572624E+03  0.17120000000E+03 0.  0.
        998    1    1    2    0    0  0.34952406923E+02  0.46581480023E+01  0.13747543513E+04  0.13752428496E+04  0.10000000000E+02 0.  1.
</event>
<event>
 5    1  0.1364103E-008  0.3850030E+03  0.7957747E-01  0.3429660E+00
         13   -1    0    0    0    0  0.00000000000E+00  0.00000000000E+00  0.14999999963E+04  0.15000000000E+04  0.10566000000E+00 0.  1.
        994   -1    0    0    0    0 -0.00000000000E+00 -0.00000000000E+00  0.11368683772E-12  0.17120000000E+03  0.17120000000E+03 0.  0.
         13    1    1    2    0    0 -0.29394461565E+01  0.13808071583E+02  0.63800980193E+02  0.65344314383E+02  0.10566000000E+00 0.  1.
        994    1    1    2    0    0  0.91466955429E+01 -0.93238259110E+00  0.19067149200E+01  0.17145730354E+03  0.17120000000E+03 0.  0.
        998    1    1    2    0    0 -0.62072493864E+01 -0.12875688992E+02  0.14342923012E+04  0.14343983821E+04  0.10000000000E+02 0.  1.
</event>
<event>
 5    1  0.1364103E-008  0.3766785E+03  0.7957747E-01  0.3465750E+00
         13   -1    0    0    0    0  0.00000000000E+00  0.00000000000E+00  0.14999999963E+04  0.15000000000E+04  0.10566000000E+00 0. -1.
        994   -1    0    0    0    0 -0.00000000000E+00 -0.00000000000E+00  0.11368683772E-12  0.17120000000E+03  0.17120000000E+03 0.  0.
         13    1    1    2    0    0  0.39122090271E+02  0.16182611510E+02  0.18297538066E+03  0.18780952040E+03  0.10566000000E+00 0. -1.
        994    1    1    2    0    0  0.81828839484E+01 -0.67550524845E+01  0.61999496675E+01  0.17164052464E+03  0.17120000000E+03 0.  0.
        998    1    1    2    0    0 -0.47304974220E+02 -0.94275590258E+01  0.13108246660E+04  0.13117499550E+04  0.10000000000E+02 0. -1.
</event>
<event>
 5    1  0.1364103E-008  0.3783573E+03  0.7957747E-01  0.3458343E+00
         13   -1    0    0    0    0  0.00000000000E+00  0.00000000000E+00  0.14999999963E+04  0.15000000000E+04  0.10566000000E+00 0.  1.
        994   -1    0    0    0    0 -0.00000000000E+00 -0.00000000000E+00  0.11368683772E-12  0.17120000000E+03  0.17120000000E+03 0.  0.
         13    1    1    2    0    0 -0.56999242529E+02 -0.33906273491E+02  0.33088852532E+03  0.33746966735E+03  0.10566000000E+00 0.  1.
        994    1    1    2    0    0  0.65145509178E+02  0.29026010257E+02  0.22255948298E+02  0.18679189991E+03  0.17120000000E+03 0.  0.
        998    1    1    2    0    0 -0.81462666496E+01  0.48802632342E+01  0.11468555227E+04  0.11469384327E+04  0.10000000000E+02 0.  1.
</event>
<event>
 5    1  0.1364103E-008  0.3847195E+03  0.7957747E-01  0.3430863E+00
         13   -1    0    0    0    0  0.00000000000E+00  0.00000000000E+00  0.14999999963E+04  0.15000000000E+04  0.10566000000E+00 0.  1.
        994   -1    0    0    0    0 -0.00000000000E+00 -0.00000000000E+00  0.11368683772E-12  0.17120000000E+03  0.17120000000E+03 0.  0.
         13    1    1    2    0    0  0.17987941905E+02  0.81395521206E+01  0.10848545975E+03  0.11026751337E+03  0.10566000000E+00 0.  1.
        994    1    1    2    0    0 -0.13268282403E+02 -0.52591869176E+01  0.24402862241E+01  0.17181123759E+03  0.17120000000E+03 0.  0.
        998    1    1    2    0    0 -0.47196595023E+01 -0.28803652031E+01  0.13890742503E+04  0.13891212490E+04  0.10000000000E+02 0.  1.
</event>
<event>
 5    1  0.1725379E-008  0.3854139E+03  0.7957747E-01  0.3427919E+00
         13   -1    0    0    0    0  0.00000000000E+00  0.00000000000E+00  0.14999999963E+04  0.15000000000E+04  0.10566000000E+00 0.  1.
        994   -1    0    0    0    0 -0.00000000000E+00 -0.00000000000E+00  0.11368683772E-12  0.17120000000E+03  0.17120000000E+03 0.  0.
         13    1    1    2    0    0 -0.69469435453E+01  0.10348265044E+02  0.52480134024E+02  0.53939987442E+02  0.10566000000E+00 0.  1.
        994    1    1    2    0    0  0.85168544658E+01 -0.12648381886E+02  0.21888050002E+01  0.17189167880E+03  0.17120000000E+03 0.  0.
        998    1    1    2    0    0 -0.15699109205E+01  0.23001168420E+01  0.14453310573E+04  0.14453683338E+04  0.10000000000E+02 0.  1.
</event>
<event>
 5    1  0.1364103E-008  0.3830790E+03  0.7957747E-01  0.3437861E+00
         13   -1    0    0    0    0  0.00000000000E+00  0.00000000000E+00  0.14999999963E+04  0.15000000000E+04  0.10566000000E+00 0.  1.
        994   -1    0    0    0    0 -0.00000000000E+00 -0.00000000000E+00  0.11368683772E-12  0.17120000000E+03  0.17120000000E+03 0.  0.
         13    1    1    2    0    0 -0.14839837940E+02 -0.18776826576E+02  0.13339133886E+03  0.13552140220E+03  0.10566000000E+00 0.  1.
        994    1    1    2    0    0 -0.86842802332E-02 -0.13474000558E+02  0.31879247509E+01  0.17175899287E+03  0.17120000000E+03 0.  0.
        998    1    1    2    0    0  0.14848522220E+02  0.32250827133E+02  0.13634207327E+04  0.13639196049E+04  0.10000000000E+02 0.  1.
</event>
<event>
 5    1  0.1364103E-008  0.3855047E+03  0.7957747E-01  0.3427535E+00
         13   -1    0    0    0    0  0.00000000000E+00  0.00000000000E+00  0.14999999963E+04  0.15000000000E+04  0.10566000000E+00 0.  1.
        994   -1    0    0    0    0 -0.00000000000E+00 -0.00000000000E+00  0.11368683772E-12  0.17120000000E+03  0.17120000000E+03 0.  0.
         13    1    1    2    0    0 -0.64275281448E+01  0.85132367090E+01  0.41582032588E+02  0.42928602534E+02  0.10566000000E+00 0.  1.
        994    1    1    2    0    0  0.24245399453E+01 -0.60421172796E+01  0.15189584525E+01  0.17133047835E+03  0.17120000000E+03 0.  0.
        998    1    1    2    0    0  0.40029881996E+01 -0.24711194294E+01  0.14568990052E+04  0.14569409191E+04  0.10000000000E+02 0.  1.
</event>
<event>
 5    1  0.1364103E-008  0.3852240E+03  0.7957747E-01  0.3428723E+00
         13   -1    0    0    0    0  0.00000000000E+00  0.00000000000E+00  0.14999999963E+04  0.15000000000E+04  0.10566000000E+00 0. -1.
        994   -1    0    0    0    0 -0.00000000000E+00 -0.00000000000E+00  0.11368683772E-12  0.17120000000E+03  0.17120000000E+03 0.  0.
         13    1    1    2    0    0  0.36437658670E+01 -0.13196931753E+02  0.57180080137E+02  0.58796332928E+02  0.10566000000E+00 0. -1.
        994    1    1    2    0    0 -0.28926260419E+01  0.21989610145E+02  0.31372032024E+01  0.17265917955E+03  0.17120000000E+03 0.  0.
        998    1    1    2    0    0 -0.75113982510E+00 -0.87926783924E+01  0.14396827129E+04  0.14397444875E+04  0.10000000000E+02 0. -1.
</event>
<event>
 5    1  0.1364103E-008  0.3731962E+03  0.7957747E-01  0.3481330E+00
         13   -1    0    0    0    0  0.00000000000E+00  0.00000000000E+00  0.14999999963E+04  0.15000000000E+04  0.10566000000E+00 0. -1.
        994   -1    0    0    0    0 -0.00000000000E+00 -0.00000000000E+00  0.11368683772E-12  0.17120000000E+03  0.17120000000E+03 0.  0.
         13    1    1    2    0    0 -0.27680157959E-01  0.22353030625E+02  0.29226878041E+02  0.36795112561E+02  0.10566000000E+00 0. -1.
        994    1    1    2    0    0 -0.38088893365E+01 -0.21596083928E+02  0.92543734760E+01  0.17284670060E+03  0.17120000000E+03 0.  0.
        998    1    1    2    0    0  0.38365694945E+01 -0.75694669648E+00  0.14615187448E+04  0.14615581868E+04  0.10000000000E+02 0. -1.
</event>
<event>
 5    1  0.1364103E-008  0.3846650E+03  0.7957747E-01  0.3431094E+00
         13   -1    0    0    0    0  0.00000000000E+00  0.00000000000E+00  0.14999999963E+04  0.15000000000E+04  0.10566000000E+00 0.  1.
        994   -1    0    0    0    0 -0.00000000000E+00 -0.00000000000E+00  0.11368683772E-12  0.17120000000E+03  0.17120000000E+03 0.  0.
         13    1    1    2    0    0  0.12195979499E+02 -0.43353024034E+01  0.44897870341E+02  0.46726509478E+02  0.10566000000E+00 0.  1.
        994    1    1    2    0    0 -0.10909921170E+02  0.14834198903E+02  0.29136917686E+01  0.17221210595E+03  0.17120000000E+03 0.  0.
        998    1    1    2    0    0 -0.12860583298E+01 -0.10498896499E+02  0.14521884342E+04  0.14522613846E+04  0.10000000000E+02 0.  1.
</event>
<event>
 5    1  0.1364103E-008  0.3787010E+03  0.7957747E-01  0.3456834E+00
         13   -1    0    0    0    0  0.00000000000E+00  0.00000000000E+00  0.14999999963E+04  0.15000000000E+04  0.10566000000E+00 0.  1.
        994   -1    0    0    0    0 -0.00000000000E+00 -0.00000000000E+00  0.11368683772E-12  0.17120000000E+03  0.17120000000E+03 0.  0.
         13    1    1    2    0    0  0.34669481804E+02  0.68754171837E+01  0.11999776004E+03  0.12509483566E+03  0.10566000000E+00 0.  1.
        994    1    1    2    0    0 -0.31919937966E+02 -0.16832101132E+02  0.91746774223E+01  0.17520221681E+03  0.17120000000E+03 0.  0.
        998    1    1    2    0    0 -0.27495438378E+01  0.99566839487E+01  0.13708275588E+04  0.13709029475E+04  0.10000000000E+02 0.  1.
</event>
<event>
 5    1  0.1364103E-008  0.3848576E+03  0.7957747E-01  0.3430276E+00
         13   -1    0    0    0    0  0.00000000000E+00  0.00000000000E+00  0.14999999963E+04  0.15000000000E+04  0.10566000000E+00 0.  1.
        994   -1    0    0    0    0 -0.00000000000E+00 -0.00000000000E+00  0.11368683772E-12  0.17120000000E+03  0.17120000000E+03 0.  0.
         13    1    1    2    0    0  0.41235169634E+02  0.24095730061E+03  0.10296878504E+04  0.10583089532E+04  0.10566000000E+00 0.  1.
        994    1    1    2    0    0 -0.42496630331E+02 -0.25811682393E+03  0.27441221471E+03  0.41598288663E+03  0.17120000000E+03 0.  0.
        998    1    1    2    0    0  0.12614606970E+01  0.17159523315E+02  0.19589993113E+03  0.19690816017E+03  0.10000000000E+02 0. -1.
</event>
<event>
 5    1  0.1364103E-008  0.3733119E+03  0.7957747E-01  0.3480807E+00
         13   -1    0    0    0    0  0.00000000000E+00  0.00000000000E+00  0.14999999963E+04  0.15000000000E+04  0.10566000000E+00 0. -1.
        994   -1    0    0    0    0 -0.00000000000E+00 -0.00000000000E+00  0.11368683772E-12  0.17120000000E+03  0.17120000000E+03 0.  0.
         13    1    1    2    0    0  0.11654769664E+02 -0.16439823191E+02  0.12206522207E+02  0.23560810489E+02  0.10566000000E+00 0. -1.
        994    1    1    2    0    0 -0.25762160730E+02 -0.10441805275E+03  0.54826702428E+02  0.20948084868E+03  0.17120000000E+03 0.  0.
        998    1    1    2    0    0  0.14107391066E+02  0.12085787594E+03  0.14329667716E+04  0.14381583408E+04  0.10000000000E+02 0. -1.
</event>
<event>
 5    1  0.1364103E-008  0.3801782E+03  0.7957747E-01  0.3450383E+00
         13   -1    0    0    0    0  0.00000000000E+00  0.00000000000E+00  0.14999999963E+04  0.15000000000E+04  0.10566000000E+00 0.  1.
        994   -1    0    0    0    0 -0.00000000000E+00 -0.00000000000E+00  0.11368683772E-12  0.17120000000E+03  0.17120000000E+03 0.  0.
         13    1    1    2    0    0 -0.56147219980E+02  0.28628950957E+02  0.37274806676E+03  0.37803870117E+03  0.10566000000E+00 0.  1.
        994    1    1    2    0    0  0.58385052351E+02 -0.22873419304E+02  0.17293549764E+02  0.18314069595E+03  0.17120000000E+03 0.  0.
        998    1    1    2    0    0 -0.22378323705E+01 -0.57555316525E+01  0.11099583798E+04  0.11100206029E+04  0.10000000000E+02 0.  1.
</event>
<event>
 5    1  0.1364103E-008  0.3698096E+03  0.7957747E-01  0.3496767E+00
         13   -1    0    0    0    0  0.00000000000E+00  0.00000000000E+00  0.14999999963E+04  0.15000000000E+04  0.10566000000E+00 0. -1.
        994   -1    0    0    0    0 -0.00000000000E+00 -0.00000000000E+00  0.11368683772E-12  0.17120000000E+03  0.17120000000E+03 0.  0.
         13    1    1    2    0    0  0.34050654554E+02  0.31115910013E+02  0.86786897701E+02  0.98283384700E+02  0.10566000000E+00 0. -1.
        994    1    1    2    0    0 -0.31385717472E+02 -0.46047965786E+02  0.21767637366E+02  0.18135255292E+03  0.17120000000E+03 0.  0.
        998    1    1    2    0    0 -0.26649370823E+01  0.14932055773E+02  0.13914454612E+04  0.13915640624E+04  0.10000000000E+02 0. -1.
</event>
<event>
 5    1  0.1364103E-008  0.3779526E+03  0.7957747E-01  0.3460122E+00
         13   -1    0    0    0    0  0.00000000000E+00  0.00000000000E+00  0.14999999963E+04  0.15000000000E+04  0.10566000000E+00 0.  1.
        994   -1    0    0    0    0 -0.00000000000E+00 -0.00000000000E+00  0.11368683772E-12  0.17120000000E+03  0.17120000000E+03 0.  0.
         13    1    1    2    0    0  0.54429008656E+02 -0.44132764137E+01  0.22411492767E+03  0.23067185776E+03  0.10566000000E+00 0.  1.
        994    1    1    2    0    0 -0.66414353820E+02  0.11274308470E+02  0.20598987126E+02  0.18512626690E+03  0.17120000000E+03 0.  0.
        998    1    1    2    0    0  0.11985345164E+02 -0.68610320563E+01  0.12552860815E+04  0.12554018753E+04  0.10000000000E+02 0.  1.
</event>
<event>
 5    1  0.1364103E-008  0.3849535E+03  0.7957747E-01  0.3429869E+00
         13   -1    0    0    0    0  0.00000000000E+00  0.00000000000E+00  0.14999999963E+04  0.15000000000E+04  0.10566000000E+00 0. -1.
        994   -1    0    0    0    0 -0.00000000000E+00 -0.00000000000E+00  0.11368683772E-12  0.17120000000E+03  0.17120000000E+03 0.  0.
         13    1    1    2    0    0  0.77780607424E+01  0.97619889689E+01  0.46970605474E+02  0.48600860077E+02  0.10566000000E+00 0. -1.
        994    1    1    2    0    0 -0.91470295969E+01 -0.36970943008E+01  0.19734246863E+01  0.17149539662E+03  0.17120000000E+03 0.  0.
        998    1    1    2    0    0  0.13689688545E+01 -0.60648946681E+01  0.14510559661E+04  0.14511037433E+04  0.10000000000E+02 0. -1.
</event>
<event>
 5    1  0.1364103E-008  0.3842576E+03  0.7957747E-01  0.3432827E+00
         13   -1    0    0    0    0  0.00000000000E+00  0.00000000000E+00  0.14999999963E+04  0.15000000000E+04  0.10566000000E+00 0. -1.
        994   -1    0    0    0    0 -0.00000000000E+00 -0.00000000000E+00  0.11368683772E-12  0.17120000000E+03  0.17120000000E+03 0.  0.
         13    1    1    2    0    0 -0.23411343852E+02 -0.22574121268E+01  0.13204810944E+03  0.13412643775E+03  0.10566000000E+00 0. -1.
        994    1    1    2    0    0  0.19526248159E+02  0.38702111467E+01  0.33065570647E+01  0.17238511021E+03  0.17120000000E+03 0.  0.
        998    1    1    2    0    0  0.38850956938E+01 -0.16127990199E+01  0.13646453298E+04  0.13646884520E+04  0.10000000000E+02 0. -1.
</event>
<event>
 5    1  0.1364103E-008  0.3839455E+03  0.7957747E-01  0.3434157E+00
         13   -1    0    0    0    0  0.00000000000E+00  0.00000000000E+00  0.14999999963E+04  0.15000000000E+04  0.10566000000E+00 0. -1.
        994   -1    0    0    0    0 -0.00000000000E+00 -0.00000000000E+00  0.11368683772E-12  0.17120000000E+03  0.17120000000E+03 0.  0.
         13    1    1    2    0    0 -0.21912875719E+02  0.10383253785E+02  0.11940083379E+03  0.12183823848E+03  0.10566000000E+00 0. -1.
        994    1    1    2    0    0  0.28937854035E+02 -0.14775056821E+02  0.56461381432E+01  0.17434741345E+03  0.17120000000E+03 0.  0.
        998    1    1    2    0    0 -0.70249783165E+01  0.43918030358E+01  0.13749530243E+04  0.13750143481E+04  0.10000000000E+02 0. -1.
</event>
<event>
 5    1  0.1364103E-008  0.3730659E+03  0.7957747E-01  0.3481918E+00
         13   -1    0    0    0    0  0.00000000000E+00  0.00000000000E+00  0.14999999963E+04  0.15000000000E+04  0.10566000000E+00 0.  1.
        994   -1    0    0    0    0 -0.00000000000E+00 -0.00000000000E+00  0.11368683772E-12  0.17120000000E+03  0.17120000000E+03 0.  0.
         13    1    1    2    0    0  0.47223721210E+02  0.56124200452E+02  0.18594092147E+03  0.19988507489E+03  0.10566000000E+00 0.  1.
        994    1    1    2    0    0 -0.36098809195E+02 -0.63190540331E+02  0.31529766541E+02  0.18867891931E+03  0.17120000000E+03 0.  0.
        998    1    1    2    0    0 -0.11124912015E+02  0.70663398785E+01  0.12825293083E+04  0.12826360058E+04  0.10000000000E+02 0.  1.
</event>
<event>
 5    1  0.1364103E-008  0.3794731E+03  0.7957747E-01  0.3453456E+00
         13   -1    0    0    0    0  0.00000000000E+00  0.00000000000E+00  0.14999999963E+04  0.15000000000E+04  0.10566000000E+00 0. -1.
        994   -1    0    0    0    0 -0.00000000000E+00 -0.00000000000E+00  0.11368683772E-12  0.17120000000E+03  0.17120000000E+03 0.  0.
         13    1    1    2    0    0  0.53286030393E+01 -0.38748124452E+02  0.17299320907E+03  0.17735972685E+03  0.10566000000E+00 0. -1.
        994    1    1    2    0    0  0.15325411457E+02  0.24972792797E+02  0.72795992225E+01  0.17384171301E+03  0.17120000000E+03 0.  0.
        998    1    1    2    0    0 -0.20654014497E+02  0.13775331654E+02  0.13197271880E+04  0.13199985601E+04  0.10000000000E+02 0. -1.
</event>
<event>
 5    1  0.1364103E-008  0.3785309E+03  0.7957747E-01  0.3457580E+00
         13   -1    0    0    0    0  0.00000000000E+00  0.00000000000E+00  0.14999999963E+04  0.15000000000E+04  0.10566000000E+00 0.  1.
        994   -1    0    0    0    0 -0.00000000000E+00 -0.00000000000E+00  0.11368683772E-12  0.17120000000E+03  0.17120000000E+03 0.  0.
         13    1    1    2    0    0  0.43933772979E+01  0.16981452770E+02  0.28795616308E+02  0.33717505614E+02  0.10566000000E+00 0.  1.
        994    1    1    2    0    0 -0.36120654714E+01 -0.20844677014E+02  0.63814552118E+01  0.17262013367E+03  0.17120000000E+03 0.  0.
        998    1    1    2    0    0 -0.78131182648E+00  0.38632242445E+01  0.14648229248E+04  0.14648623607E+04  0.10000000000E+02 0.  1.
</event>
<event>
 5    1  0.1364103E-008  0.3845569E+03  0.7957747E-01  0.3431554E+00
         13   -1    0    0    0    0  0.00000000000E+00  0.00000000000E+00  0.14999999963E+04  0.15000000000E+04  0.10566000000E+00 0.  1.
        994   -1    0    0    0    0 -0.00000000000E+00 -0.00000000000E+00  0.11368683772E-12  0.17120000000E+03  0.17120000000E+03 0.  0.
         13    1    1    2    0    0  0.23824007566E+01  0.14972146588E+02  0.60095323526E+02  0.61978222631E+02  0.10566000000E+00 0.  1.
        994    1    1    2    0    0 -0.67572009501E+01 -0.14277306826E+02  0.26724180960E+01  0.17194790802E+03  0.17120000000E+03 0.  0.
        998    1    1    2    0    0  0.43748001935E+01 -0.69483976261E+00  0.14372322547E+04  0.14372738693E+04  0.10000000000E+02 0.  1.
</event>
<event>
 5    1  0.1364103E-008  0.3799954E+03  0.7957747E-01  0.3451179E+00
         13   -1    0    0    0    0  0.00000000000E+00  0.00000000000E+00  0.14999999963E+04  0.15000000000E+04  0.10566000000E+00 0.  1.
        994   -1    0    0    0    0 -0.00000000000E+00 -0.00000000000E+00  0.11368683772E-12  0.17120000000E+03  0.17120000000E+03 0.  0.
         13    1    1    2    0    0  0.63354965985E+02 -0.28621352760E+02  0.39444650198E+03  0.40052601369E+03  0.10566000000E+00 0.  1.
        994    1    1    2    0    0 -0.69072175687E+02  0.34646353657E+02  0.24362836007E+02  0.18940518223E+03  0.17120000000E+03 0.  0.
        998    1    1    2    0    0  0.57172097014E+01 -0.60250008966E+01  0.10811906583E+04  0.10812688041E+04  0.10000000000E+02 0. -1.
</event>
<event>
 5    1  0.1364103E-008  0.3850716E+03  0.7957747E-01  0.3429369E+00
         13   -1    0    0    0    0  0.00000000000E+00  0.00000000000E+00  0.14999999963E+04  0.15000000000E+04  0.10566000000E+00 0. -1.
        994   -1    0    0    0    0 -0.00000000000E+00 -0.00000000000E+00  0.11368683772E-12  0.17120000000E+03  0.17120000000E+03 0.  0.
         13    1    1    2    0    0  0.45368747559E+01 -0.11165779544E+02  0.46469277552E+02  0.48006903521E+02  0.10566000000E+00 0. -1.
        994    1    1    2    0    0 -0.70923589595E+00  0.42697537694E+01  0.16561948531E+01  0.17126271280E+03  0.17120000000E+03 0.  0.
        998    1    1    2    0    0 -0.38276388599E+01  0.68960257748E+01  0.14518745239E+04  0.14519303837E+04  0.10000000000E+02 0. -1.
</event>
<event>
 5    1  0.1364103E-008  0.3794486E+03  0.7957747E-01  0.3453563E+00
         13   -1    0    0    0    0  0.00000000000E+00  0.00000000000E+00  0.14999999963E+04  0.15000000000E+04  0.10566000000E+00 0. -1.
        994   -1    0    0    0    0 -0.00000000000E+00 -0.00000000000E+00  0.11368683772E-12  0.17120000000E+03  0.17120000000E+03 0.  0.
         13    1    1    2    0    0  0.51479186826E+01 -0.30373700568E+02  0.10664233654E+03  0.11100298131E+03  0.10566000000E+00 0. -1.
        994    1    1    2    0    0 -0.44514710119E+02  0.11630170847E+02  0.11533864290E+02  0.17764934651E+03  0.17120000000E+03 0.  0.
        998    1    1    2    0    0  0.39366791437E+02  0.18743529721E+02  0.13818237954E+04  0.13825476722E+04  0.10000000000E+02 0. -1.
</event>
<event>
 5    1  0.1364103E-008  0.3762278E+03  0.7957747E-01  0.3467750E+00
         13   -1    0    0    0    0  0.00000000000E+00  0.00000000000E+00  0.14999999963E+04  0.15000000000E+04  0.10566000000E+00 0. -1.
        994   -1    0    0    0    0 -0.00000000000E+00 -0.00000000000E+00  0.11368683772E-12  0.17120000000E+03  0.17120000000E+03 0.  0.
         13    1    1    2    0    0 -0.29242867848E+02 -0.24529347741E+02  0.96365920350E+02  0.10364958268E+03  0.10566000000E+00 0. -1.
        994    1    1    2    0    0  0.80248371025E+02  0.15549887650E+02  0.29014166414E+02  0.19191889410E+03  0.17120000000E+03 0.  0.
        998    1    1    2    0    0 -0.51005503177E+02  0.89794600913E+01  0.13746199095E+04  0.13756315232E+04  0.10000000000E+02 0. -1.
</event>
<event>
 5    1  0.1364103E-008  0.3795767E+03  0.7957747E-01  0.3453004E+00
         13   -1    0    0    0    0  0.00000000000E+00  0.00000000000E+00  0.14999999963E+04  0.15000000000E+04  0.10566000000E+00 0. -1.
        994   -1    0    0    0    0 -0.00000000000E+00 -0.00000000000E+00  0.11368683772E-12  0.17120000000E+03  0.17120000000E+03 0.  0.
         13    1    1    2    0    0  0.10735275413E+02 -0.84059555279E+01  0.17976526882E+02  0.22562644111E+02  0.10566000000E+00 0. -1.
        994    1    1    2    0    0 -0.64765758444E+02 -0.18113878061E+02  0.19639008326E+02  0.18498066573E+03  0.17120000000E+03 0.  0.
        998    1    1    2    0    0  0.54030483031E+02  0.26519833589E+02  0.14623844611E+04  0.14636566902E+04  0.10000000000E+02 0. -1.
</event>
<event>
 5    1  0.1364103E-008  0.3836843E+03  0.7957747E-01  0.3435272E+00
         13   -1    0    0    0    0  0.00000000000E+00  0.00000000000E+00  0.14999999963E+04  0.15000000000E+04  0.10566000000E+00 0.  1.
        994   -1    0    0    0    0 -0.00000000000E+00 -0.00000000000E+00  0.11368683772E-12  0.17120000000E+03  0.17120000000E+03 0.  0.
         13    1    1    2    0    0 -0.16083956130E+02  0.51254849333E+01  0.64901566878E+02  0.67061082513E+02  0.10566000000E+00 0.  1.
        994    1    1    2    0    0 -0.28144652507E+00 -0.78671898644E+01  0.24894831439E+01  0.17139897729E+03  0.17120000000E+03 0.  0.
        998    1    1    2    0    0  0.16365402655E+02  0.27417049312E+01  0.14326089463E+04  0.14327399402E+04  0.10000000000E+02 0.  1.
</event>
<event>
 5    1  0.1364103E-008  0.3708977E+03  0.7957747E-01  0.3491775E+00
         13   -1    0    0    0    0  0.00000000000E+00  0.00000000000E+00  0.14999999963E+04  0.15000000000E+04  0.10566000000E+00 0. -1.
        994   -1    0    0    0    0 -0.00000000000E+00 -0.00000000000E+00  0.11368683772E-12  0.17120000000E+03  0.17120000000E+03 0.  0.
         13    1    1    2    0    0 -0.53746409354E+02 -0.13993433037E+02  0.13884392438E+03  0.14953975788E+03  0.10566000000E+00 0. -1.
        994    1    1    2    0    0  0.82764829852E+02  0.87598695385E+01  0.33070025159E+02  0.19320926204E+03  0.17120000000E+03 0.  0.
        998    1    1    2    0    0 -0.29018420499E+02  0.52335634989E+01  0.13280860467E+04  0.13284509801E+04  0.10000000000E+02 0. -1.
</event>
<event>
 5    1  0.1364103E-008  0.3786398E+03  0.7957747E-01  0.3457102E+00
         13   -1    0    0    0    0  0.00000000000E+00  0.00000000000E+00  0.14999999963E+04  0.15000000000E+04  0.10566000000E+00 0. -1.
        994   -1    0    0    0    0 -0.00000000000E+00 -0.00000000000E+00  0.11368683772E-12  0.17120000000E+03  0.17120000000E+03 0.  0.
         13    1    1    2    0    0 -0.10312432082E+02  0.19040224516E+02  0.51651828618E+02  0.56007133194E+02  0.10566000000E+00 0. -1.
        994    1    1    2    0    0 -0.14035182736E+02  0.75877631371E+01  0.56766055133E+01  0.17203553224E+03  0.17120000000E+03 0.  0.
        998    1    1    2    0    0  0.24347614818E+02 -0.26627987653E+02  0.14426715621E+04  0.14431573346E+04  0.10000000000E+02 0. -1.
</event>
<event>
 5    1  0.1487286E-008  0.3857236E+03  0.7957747E-01  0.3426609E+00
         13   -1    0    0    0    0  0.00000000000E+00  0.00000000000E+00  0.14999999963E+04  0.15000000000E+04  0.10566000000E+00 0.  1.
        994   -1    0    0    0    0 -0.00000000000E+00 -0.00000000000E+00  0.11368683772E-12  0.17120000000E+03  0.17120000000E+03 0.  0.
         13    1    1    2    0    0 -0.12667741956E+02 -0.49668138601E+00  0.63785653738E+02  0.65033369630E+02  0.10566000000E+00 0.  1.
        994    1    1    2    0    0  0.82594734048E+01 -0.26720062466E+00  0.14953904327E+01  0.17140585314E+03  0.17120000000E+03 0.  0.
        998    1    1    2    0    0  0.44082685511E+01  0.76388201067E+00  0.14347189521E+04  0.14347607772E+04  0.10000000000E+02 0.  1.
</event>
<event>
 5    1  0.1364103E-008  0.3793314E+03  0.7957747E-01  0.3454075E+00
         13   -1    0    0    0    0  0.00000000000E+00  0.00000000000E+00  0.14999999963E+04  0.15000000000E+04  0.10566000000E+00 0.  1.
        994   -1    0    0    0    0 -0.00000000000E+00 -0.00000000000E+00  0.11368683772E-12  0.17120000000E+03  0.17120000000E+03 0.  0.
         13    1    1    2    0    0  0.38474699069E+01 -0.23409466947E+02  0.98659455696E+01  0.25693466357E+02  0.10566000000E+00 0.  1.
        994    1    1    2    0    0 -0.47651500628E+02  0.37169862282E+02  0.29283073883E+02  0.18389997985E+03  0.17120000000E+03 0.  0.
        998    1    1    2    0    0  0.43804030721E+02 -0.13760395335E+02  0.14608509768E+04  0.14616065538E+04  0.10000000000E+02 0.  1.
</event>
<event>
 5    1  0.1364103E-008  0.3807332E+03  0.7957747E-01  0.3447972E+00
         13   -1    0    0    0    0  0.00000000000E+00  0.00000000000E+00  0.14999999963E+04  0.15000000000E+04  0.10566000000E+00 0. -1.
        994   -1    0    0    0    0 -0.00000000000E+00 -0.00000000000E+00  0.11368683772E-12  0.17120000000E+03  0.17120000000E+03 0.  0.
         13    1    1    2    0    0 -0.10122533121E+02  0.28103612489E+02  0.11292447712E+03  0.11680850743E+03  0.10566000000E+00 0. -1.
        994    1    1    2    0    0  0.83822465185E+01 -0.23185742893E+02  0.57931901001E+01  0.17306311502E+03  0.17120000000E+03 0.  0.
        998    1    1    2    0    0  0.17402866024E+01 -0.49178695957E+01  0.13812823291E+04  0.13813283775E+04  0.10000000000E+02 0. -1.
</event>
<event>
 5    1  0.1364103E-008  0.3840087E+03  0.7957747E-01  0.3433887E+00
         13   -1    0    0    0    0  0.00000000000E+00  0.00000000000E+00  0.14999999963E+04  0.15000000000E+04  0.10566000000E+00 0. -1.
        994   -1    0    0    0    0 -0.00000000000E+00 -0.00000000000E+00  0.11368683772E-12  0.17120000000E+03  0.17120000000E+03 0.  0.
         13    1    1    2    0    0 -0.15726341218E+02 -0.16712942677E+02  0.13666462757E+03  0.13857803525E+03  0.10566000000E+00 0. -1.
        994    1    1    2    0    0 -0.65487012491E+00  0.33823734428E+01  0.21622823591E+01  0.17124831319E+03  0.17120000000E+03 0.  0.
        998    1    1    2    0    0  0.16381211343E+02  0.13330569235E+02  0.13611730863E+04  0.13613736516E+04  0.10000000000E+02 0. -1.
</event>
<event>
 5    1  0.1364103E-008  0.3725725E+03  0.7957747E-01  0.3484151E+00
         13   -1    0    0    0    0  0.00000000000E+00  0.00000000000E+00  0.14999999963E+04  0.15000000000E+04  0.10566000000E+00 0. -1.
        994   -1    0    0    0    0 -0.00000000000E+00 -0.00000000000E+00  0.11368683772E-12  0.17120000000E+03  0.17120000000E+03 0.  0.
         13    1    1    2    0    0 -0.19313330992E+02 -0.22203268912E+02  0.48032982957E+02  0.56330884249E+02  0.10566000000E+00 0. -1.
        994    1    1    2    0    0  0.32756929822E+02  0.28345891484E+02  0.14389354159E+02  0.17718069739E+03  0.17120000000E+03 0.  0.
        998    1    1    2    0    0 -0.13443598829E+02 -0.61426225717E+01  0.14375776592E+04  0.14376884184E+04  0.10000000000E+02 0. -1.
</event>
<event>
 5    1  0.1364103E-008  0.3699459E+03  0.7957747E-01  0.3496140E+00
         13   -1    0    0    0    0  0.00000000000E+00  0.00000000000E+00  0.14999999963E+04  0.15000000000E+04  0.10566000000E+00 0. -1.
        994   -1    0    0    0    0 -0.00000000000E+00 -0.00000000000E+00  0.11368683772E-12  0.17120000000E+03  0.17120000000E+03 0.  0.
         13    1    1    2    0    0 -0.57871344105E+02 -0.35430104646E+01  0.14312053992E+03  0.15441873430E+03  0.10566000000E+00 0. -1.
        994    1    1    2    0    0  0.47464095898E+02  0.26110611850E+01  0.18850466908E+02  0.17867411156E+03  0.17120000000E+03 0.  0.
        998    1    1    2    0    0  0.10407248207E+02  0.93194927956E+00  0.13380289895E+04  0.13381071541E+04  0.10000000000E+02 0. -1.
</event>
<event>
 5    1  0.1364103E-008  0.3696856E+03  0.7957747E-01  0.3497337E+00
         13   -1    0    0    0    0  0.00000000000E+00  0.00000000000E+00  0.14999999963E+04  0.15000000000E+04  0.10566000000E+00 0.  1.
        994   -1    0    0    0    0 -0.00000000000E+00 -0.00000000000E+00  0.11368683772E-12  0.17120000000E+03  0.17120000000E+03 0.  0.
         13    1    1    2    0    0  0.45677743146E+02  0.40330197876E+02  0.16201274561E+03  0.17309281321E+03  0.10566000000E+00 0.  1.
        994    1    1    2    0    0 -0.32607031208E+02 -0.32833538879E+02  0.18287856405E+02  0.17828389005E+03  0.17120000000E+03 0.  0.
        998    1    1    2    0    0 -0.13070711938E+02 -0.74966589969E+01  0.13196993943E+04  0.13198232967E+04  0.10000000000E+02 0.  1.
</event>
<event>
 5    1  0.1364103E-008  0.3742793E+03  0.7957747E-01  0.3476452E+00
         13   -1    0    0    0    0  0.00000000000E+00  0.00000000000E+00  0.14999999963E+04  0.15000000000E+04  0.10566000000E+00 0. -1.
        994   -1    0    0    0    0 -0.00000000000E+00 -0.00000000000E+00  0.11368683772E-12  0.17120000000E+03  0.17120000000E+03 0.  0.
         13    1    1    2    0    0  0.15672939777E+02  0.28296770710E+02  0.68478891925E+02  0.75734523681E+02  0.10566000000E+00 0. -1.
        994    1    1    2    0    0 -0.20341520661E+02 -0.26744037569E+02  0.10906105453E+02  0.17480676230E+03  0.17120000000E+03 0.  0.
        998    1    1    2    0    0  0.46685808833E+01 -0.15527331416E+01  0.14206149989E+04  0.14206587140E+04  0.10000000000E+02 0. -1.
</event>
<event>
 5    1  0.1364103E-008  0.3855517E+03  0.7957747E-01  0.3427336E+00
         13   -1    0    0    0    0  0.00000000000E+00  0.00000000000E+00  0.14999999963E+04  0.15000000000E+04  0.10566000000E+00 0. -1.
        994   -1    0    0    0    0 -0.00000000000E+00 -0.00000000000E+00  0.11368683772E-12  0.17120000000E+03  0.17120000000E+03 0.  0.
         13    1    1    2    0    0  0.65407495695E+01 -0.14229241196E+02  0.85657493586E+02  0.87077379849E+02  0.10566000000E+00 0. -1.
        994    1    1    2    0    0 -0.63332648731E+01  0.16598739058E+02  0.23932791629E+01  0.17213598162E+03  0.17120000000E+03 0.  0.
        998    1    1    2    0    0 -0.20748469638E+00 -0.23694978616E+01  0.14119492235E+04  0.14119866385E+04  0.10000000000E+02 0.  1.
</event>
<event>
 5    1  0.1364103E-008  0.3856721E+03  0.7957747E-01  0.3426827E+00
         13   -1    0    0    0    0  0.00000000000E+00  0.00000000000E+00  0.14999999963E+04  0.15000000000E+04  0.10566000000E+00 0.  1.
        994   -1    0    0    0    0 -0.00000000000E+00 -0.00000000000E+00  0.11368683772E-12  0.17120000000E+03  0.17120000000E+03 0.  0.
         13    1    1    2    0    0 -0.75737812311E+02 -0.32364109128E+02  0.15182445409E+03  0.17272616419E+03  0.10566000000E+00 0.  1.
        994    1    1    2    0    0  0.77507513753E+02  0.26129998755E+02  0.44682114826E+02  0.19492594211E+03  0.17120000000E+03 0.  0.
        998    1    1    2    0    0 -0.17697014419E+01  0.62341103729E+01  0.13034934274E+04  0.13035478937E+04  0.10000000000E+02 0.  0.
</event>
<event>
 5    1  0.1364103E-008  0.3817169E+03  0.7957747E-01  0.3443717E+00
         13   -1    0    0    0    0  0.00000000000E+00  0.00000000000E+00  0.14999999963E+04  0.15000000000E+04  0.10566000000E+00 0. -1.
        994   -1    0    0    0    0 -0.00000000000E+00 -0.00000000000E+00  0.11368683772E-12  0.17120000000E+03  0.17120000000E+03 0.  0.
         13    1    1    2    0    0 -0.11346102348E+02 -0.49962086853E+02  0.28255669746E+03  0.28716413878E+03  0.10566000000E+00 0. -1.
        994    1    1    2    0    0  0.61155555292E+02  0.58698162726E+02  0.27533966706E+02  0.19301045457E+03  0.17120000000E+03 0.  0.
        998    1    1    2    0    0 -0.49809452944E+02 -0.87360758734E+01  0.11899093321E+04  0.11910254066E+04  0.10000000000E+02 0. -1.
</event>
<event>
 5    1  0.1364103E-008  0.3815255E+03  0.7957747E-01  0.3444543E+00
         13   -1    0    0    0    0  0.00000000000E+00  0.00000000000E+00  0.14999999963E+04  0.15000000000E+04  0.10566000000E+00 0.  1.
        994   -1    0    0    0    0 -0.00000000000E+00 -0.00000000000E+00  0.11368683772E-12  0.17120000000E+03  0.17120000000E+03 0.  0.
         13    1    1    2    0    0  0.39144365547E+02 -0.70090012791E+01  0.23582166166E+03  0.23915115455E+03  0.10566000000E+00 0.  1.
        994    1    1    2    0    0 -0.23045911360E+02 -0.37354010938E+01  0.51801625378E+01  0.17286220332E+03  0.17120000000E+03 0.  0.
        998    1    1    2    0    0 -0.16098454187E+02  0.10744402373E+02  0.12589981721E+04  0.12591866421E+04  0.10000000000E+02 0.  1.
</event>
<event>
 5    1  0.1364103E-008  0.3794412E+03  0.7957747E-01  0.3453595E+00
         13   -1    0    0    0    0  0.00000000000E+00  0.00000000000E+00  0.14999999963E+04  0.15000000000E+04  0.10566000000E+00 0.  1.
        994   -1    0    0    0    0 -0.00000000000E+00 -0.00000000000E+00  0.11368683772E-12  0.17120000000E+03  0.17120000000E+03 0.  0.
         13    1    1    2    0    0 -0.12338101612E+02 -0.40751684284E+02  0.22085807263E+03  0.22492493844E+03  0.10566000000E+00 0.  1.
        994    1    1    2    0    0 -0.17714773896E+01  0.15248817143E+02  0.52051509492E+01  0.17196568888E+03  0.17120000000E+03 0.  0.
        998    1    1    2    0    0  0.14109579002E+02  0.25502867141E+02  0.12739367727E+04  0.12743093727E+04  0.10000000000E+02 0.  1.
</event>
<event>
 5    1  0.1364103E-008  0.3851753E+03  0.7957747E-01  0.3428929E+00
         13   -1    0    0    0    0  0.00000000000E+00  0.00000000000E+00  0.14999999963E+04  0.15000000000E+04  0.10566000000E+00 0. -1.
        994   -1    0    0    0    0 -0.00000000000E+00 -0.00000000000E+00  0.11368683772E-12  0.17120000000E+03  0.17120000000E+03 0.  0.
         13    1    1    2    0    0  0.92625676630E+01 -0.12526851317E+02  0.76935092885E+02  0.78496731428E+02  0.10566000000E+00 0. -1.
        994    1    1    2    0    0  0.40810046312E+01  0.20313443932E+02  0.29554093169E+01  0.17247453449E+03  0.17120000000E+03 0.  0.
        998    1    1    2    0    0 -0.13343572294E+02 -0.77865926144E+01  0.14201094941E+04  0.14202287341E+04  0.10000000000E+02 0. -1.
</event>
<event>
 5    1  0.1364103E-008  0.3793588E+03  0.7957747E-01  0.3453955E+00
         13   -1    0    0    0    0  0.00000000000E+00  0.00000000000E+00  0.14999999963E+04  0.15000000000E+04  0.10566000000E+00 0. -1.
        994   -1    0    0    0    0 -0.00000000000E+00 -0.00000000000E+00  0.11368683772E-12  0.17120000000E+03  0.17120000000E+03 0.  0.
         13    1    1    2    0    0 -0.18188677440E+02 -0.73858379014E+01  0.42020300820E+02  0.46379903337E+02  0.10566000000E+00 0. -1.
        994    1    1    2    0    0  0.75216522915E+01  0.65716765009E+01  0.47914188435E+01  0.17155803648E+03  0.17120000000E+03 0.  0.
        998    1    1    2    0    0  0.10667025149E+02  0.81416140056E+00  0.14531882766E+04  0.14532620602E+04  0.10000000000E+02 0. -1.
</event>
<event>
 5    1  0.1364103E-008  0.3845572E+03  0.7957747E-01  0.3431552E+00
         13   -1    0    0    0    0  0.00000000000E+00  0.00000000000E+00  0.14999999963E+04  0.15000000000E+04  0.10566000000E+00 0. -1.
        994   -1    0    0    0    0 -0.00000000000E+00 -0.00000000000E+00  0.11368683772E-12  0.17120000000E+03  0.17120000000E+03 0.  0.
         13    1    1    2    0    0 -0.17103626703E+02 -0.56982698009E+01  0.99191216848E+02  0.10081623376E+03  0.10566000000E+00 0. -1.
        994    1    1    2    0    0 -0.27774478783E+01 -0.69137757755E+01  0.20330000705E+01  0.17137411590E+03  0.17120000000E+03 0.  0.
        998    1    1    2    0    0  0.19881074582E+02  0.12612045576E+02  0.13987757794E+04  0.13990096503E+04  0.10000000000E+02 0. -1.
</event>
<event>
 5    1  0.1364103E-008  0.3842118E+03  0.7957747E-01  0.3433022E+00
         13   -1    0    0    0    0  0.00000000000E+00  0.00000000000E+00  0.14999999963E+04  0.15000000000E+04  0.10566000000E+00 0. -1.
        994   -1    0    0    0    0 -0.00000000000E+00 -0.00000000000E+00  0.11368683772E-12  0.17120000000E+03  0.17120000000E+03 0.  0.
         13    1    1    2    0    0  0.18052883641E+02 -0.11015677982E+03  0.27730247183E+03  0.29892657091E+03  0.10566000000E+00 0. -1.
        994    1    1    2    0    0  0.44791355531E+01  0.10453857085E+03  0.60170491457E+02  0.20947148611E+03  0.17120000000E+03 0.  0.
        998    1    1    2    0    0 -0.22532019194E+02  0.56182089699E+01  0.11625270330E+04  0.11628019430E+04  0.10000000000E+02 0.  1.
</event>
<event>
 5    1  0.1364103E-008  0.4002244E+03  0.7957747E-01  0.3367563E+00
         13   -1    0    0    0    0  0.00000000000E+00  0.00000000000E+00  0.14999999963E+04  0.15000000000E+04  0.10566000000E+00 0. -1.
        994   -1    0    0    0    0 -0.00000000000E+00 -0.00000000000E+00  0.11368683772E-12  0.17120000000E+03  0.17120000000E+03 0.  0.
         13    1    1    2    0    0 -0.82472813684E+02  0.10512639786E+03  0.41774516200E+03  0.43859361152E+03  0.10566000000E+00 0. -1.
        994    1    1    2    0    0  0.56916524777E+00 -0.37925562381E+02  0.33569638516E+02  0.17853580274E+03  0.17120000000E+03 0.  0.
        998    1    1    2    0    0  0.81903648436E+02 -0.67200835474E+02  0.10486851958E+04  0.10540705857E+04  0.10000000000E+02 0. -1.
</event>
<event>
 5    1  0.1364103E-008  0.3804701E+03  0.7957747E-01  0.3449114E+00
         13   -1    0    0    0    0  0.00000000000E+00  0.00000000000E+00  0.14999999963E+04  0.15000000000E+04  0.10566000000E+00 0.  1.
        994   -1    0    0    0    0 -0.00000000000E+00 -0.00000000000E+00  0.11368683772E-12  0.17120000000E+03  0.17120000000E+03 0.  0.
         13    1    1    2    0    0 -0.23184257263E+02  0.54837156402E+02  0.12300223840E+03  0.13665352290E+03  0.10566000000E+00 0.  1.
        994    1    1    2    0    0 -0.87629158113E+02 -0.17505776040E+02  0.46178969360E+02  0.19856298436E+03  0.17120000000E+03 0.  0.
        998    1    1    2    0    0  0.11081341538E+03 -0.37331380361E+02  0.13308187885E+04  0.13359834927E+04  0.10000000000E+02 0.  1.
</event>
<event>
 5    1  0.1364103E-008  0.3782556E+03  0.7957747E-01  0.3458789E+00
         13   -1    0    0    0    0  0.00000000000E+00  0.00000000000E+00  0.14999999963E+04  0.15000000000E+04  0.10566000000E+00 0. -1.
        994   -1    0    0    0    0 -0.00000000000E+00 -0.00000000000E+00  0.11368683772E-12  0.17120000000E+03  0.17120000000E+03 0.  0.
         13    1    1    2    0    0 -0.14365384721E+02 -0.90825704669E+01  0.26504758151E+02  0.31486040290E+02  0.10566000000E+00 0. -1.
        994    1    1    2    0    0  0.11948148690E+02  0.85859682380E+01  0.57444847339E+01  0.17192706655E+03  0.17120000000E+03 0.  0.
        998    1    1    2    0    0  0.24172360307E+01  0.49660222888E+00  0.14677507534E+04  0.14677868932E+04  0.10000000000E+02 0. -1.
</event>
<event>
 5    1  0.1364103E-008  0.3840297E+03  0.7957747E-01  0.3433798E+00
         13   -1    0    0    0    0  0.00000000000E+00  0.00000000000E+00  0.14999999963E+04  0.15000000000E+04  0.10566000000E+00 0.  1.
        994   -1    0    0    0    0 -0.00000000000E+00 -0.00000000000E+00  0.11368683772E-12  0.17120000000E+03  0.17120000000E+03 0.  0.
         13    1    1    2    0    0  0.12968521730E+02 -0.75154519284E+01  0.52028006431E+02  0.54144151953E+02  0.10566000000E+00 0.  1.
        994    1    1    2    0    0 -0.97117921852E+01  0.82697112853E+01  0.26495850584E+01  0.17169498342E+03  0.17120000000E+03 0.  0.
        998    1    1    2    0    0 -0.32567295448E+01 -0.75425935687E+00  0.14453224048E+04  0.14453608646E+04  0.10000000000E+02 0.  1.
</event>
<event>
 5    1  0.1364103E-008  0.3824735E+03  0.7957747E-01  0.3440458E+00
         13   -1    0    0    0    0  0.00000000000E+00  0.00000000000E+00  0.14999999963E+04  0.15000000000E+04  0.10566000000E+00 0.  1.
        994   -1    0    0    0    0 -0.00000000000E+00 -0.00000000000E+00  0.11368683772E-12  0.17120000000E+03  0.17120000000E+03 0.  0.
         13    1    1    2    0    0  0.22121711361E+02  0.10487302458E+02  0.10465592147E+03  0.10748128529E+03  0.10566000000E+00 0.  1.
        994    1    1    2    0    0 -0.67833255847E+01 -0.14382445932E+02  0.37286206786E+01  0.17197735569E+03  0.17120000000E+03 0.  0.
        998    1    1    2    0    0 -0.15338385776E+02  0.38951434746E+01  0.13916154541E+04  0.13917413590E+04  0.10000000000E+02 0.  1.
</event>
<event>
 5    1  0.1364103E-008  0.3840608E+03  0.7957747E-01  0.3433665E+00
         13   -1    0    0    0    0  0.00000000000E+00  0.00000000000E+00  0.14999999963E+04  0.15000000000E+04  0.10566000000E+00 0.  1.
        994   -1    0    0    0    0 -0.00000000000E+00 -0.00000000000E+00  0.11368683772E-12  0.17120000000E+03  0.17120000000E+03 0.  0.
         13    1    1    2    0    0 -0.12661872361E+02 -0.35223622368E+01  0.39479938933E+02  0.41610176515E+02  0.10566000000E+00 0.  1.
        994    1    1    2    0    0  0.14239118226E+02  0.70404088888E+01  0.29299342637E+01  0.17196029879E+03  0.17120000000E+03 0.  0.
        998    1    1    2    0    0 -0.15772458655E+01 -0.35180466520E+01  0.14575901231E+04  0.14576295247E+04  0.10000000000E+02 0.  1.
</event>
<event>
 5    1  0.1364103E-008  0.3841442E+03  0.7957747E-01  0.3433310E+00
         13   -1    0    0    0    0  0.00000000000E+00  0.00000000000E+00  0.14999999963E+04  0.15000000000E+04  0.10566000000E+00 0. -1.
        994   -1    0    0    0    0 -0.00000000000E+00 -0.00000000000E+00  0.11368683772E-12  0.17120000000E+03  0.17120000000E+03 0.  0.
         13    1    1    2    0    0 -0.10645750476E+02 -0.25005777791E+01  0.28987228545E+02  0.30981534422E+02  0.10566000000E+00 0. -1.
        994    1    1    2    0    0  0.48623736189E+01 -0.54763817101E+01  0.22325005145E+01  0.17137111044E+03  0.17120000000E+03 0.  0.
        998    1    1    2    0    0  0.57833768569E+01  0.79769594893E+01  0.14687802672E+04  0.14688473551E+04  0.10000000000E+02 0. -1.
</event>
<event>
 5    1  0.1951365E-008  0.3859046E+03  0.7957747E-01  0.3425845E+00
         13   -1    0    0    0    0  0.00000000000E+00  0.00000000000E+00  0.14999999963E+04  0.15000000000E+04  0.10566000000E+00 0.  1.
        994   -1    0    0    0    0 -0.00000000000E+00 -0.00000000000E+00  0.11368683772E-12  0.17120000000E+03  0.17120000000E+03 0.  0.
         13    1    1    2    0    0  0.43968340930E+01  0.12092791626E+02  0.71319823506E+02  0.72471347085E+02  0.10566000000E+00 0.  1.
        994    1    1    2    0    0 -0.27805902916E+01 -0.69877873907E+01  0.13671578403E+01  0.17137056333E+03  0.17120000000E+03 0.  0.
        998    1    1    2    0    0 -0.16162438014E+01 -0.51050042358E+01  0.14273130149E+04  0.14273580896E+04  0.10000000000E+02 0.  1.
</event>
<event>
 5    1  0.1364103E-008  0.3847500E+03  0.7957747E-01  0.3430733E+00
         13   -1    0    0    0    0  0.00000000000E+00  0.00000000000E+00  0.14999999963E+04  0.15000000000E+04  0.10566000000E+00 0.  1.
        994   -1    0    0    0    0 -0.00000000000E+00 -0.00000000000E+00  0.11368683772E-12  0.17120000000E+03  0.17120000000E+03 0.  0.
         13    1    1    2    0    0  0.15831848949E+02  0.31755752224E+00  0.69558432953E+02  0.71338173812E+02  0.10566000000E+00 0.  1.
        994    1    1    2    0    0 -0.14382500832E+02 -0.20358389721E+01  0.24491105260E+01  0.17183259037E+03  0.17120000000E+03 0.  0.
        998    1    1    2    0    0 -0.14493481175E+01  0.17182814499E+01  0.14279924528E+04  0.14280292358E+04  0.10000000000E+02 0.  0.
</event>
<event>
 5    1  0.1364103E-008  0.3828855E+03  0.7957747E-01  0.3438690E+00
         13   -1    0    0    0    0  0.00000000000E+00  0.00000000000E+00  0.14999999963E+04  0.15000000000E+04  0.10566000000E+00 0. -1.
        994   -1    0    0    0    0 -0.00000000000E+00 -0.00000000000E+00  0.11368683772E-12  0.17120000000E+03  0.17120000000E+03 0.  0.
         13    1    1    2    0    0  0.12775195265E+02  0.10741212968E+02  0.53653666469E+02  0.56189913327E+02  0.10566000000E+00 0. -1.
        994    1    1    2    0    0  0.56817126498E+01 -0.74851701372E+01  0.29761028444E+01  0.17148354679E+03  0.17120000000E+03 0.  0.
        998    1    1    2    0    0 -0.18456907915E+02 -0.32560428308E+01  0.14433702270E+04  0.14435265399E+04  0.10000000000E+02 0. -1.
</event>
<event>
 5    1  0.1364103E-008  0.3766942E+03  0.7957747E-01  0.3465680E+00
         13   -1    0    0    0    0  0.00000000000E+00  0.00000000000E+00  0.14999999963E+04  0.15000000000E+04  0.10566000000E+00 0.  1.
        994   -1    0    0    0    0 -0.00000000000E+00 -0.00000000000E+00  0.11368683772E-12  0.17120000000E+03  0.17120000000E+03 0.  0.
         13    1    1    2    0    0  0.46476300416E+02 -0.82460324887E+01  0.23745193614E+03  0.24209807247E+03  0.10566000000E+00 0.  1.
        994    1    1    2    0    0  0.47687400129E+01  0.58974112600E+01  0.60057164991E+01  0.17147311443E+03  0.17120000000E+03 0.  0.
        998    1    1    2    0    0 -0.51245040429E+02  0.23486212287E+01  0.12565423436E+04  0.12576288131E+04  0.10000000000E+02 0. -1.
</event>
<event>
 5    1  0.1364103E-008  0.3811579E+03  0.7957747E-01  0.3446132E+00
         13   -1    0    0    0    0  0.00000000000E+00  0.00000000000E+00  0.14999999963E+04  0.15000000000E+04  0.10566000000E+00 0. -1.
        994   -1    0    0    0    0 -0.00000000000E+00 -0.00000000000E+00  0.11368683772E-12  0.17120000000E+03  0.17120000000E+03 0.  0.
         13    1    1    2    0    0 -0.42064868146E+01 -0.17692866204E+02  0.43935515559E+02  0.47550738557E+02  0.10566000000E+00 0. -1.
        994    1    1    2    0    0  0.44250515489E+01  0.19609325048E+02  0.48966692004E+01  0.17244571343E+03  0.17120000000E+03 0.  0.
        998    1    1    2    0    0 -0.21856473431E+00 -0.19164588437E+01  0.14511678115E+04  0.14512035480E+04  0.10000000000E+02 0. -1.
</event>
<event>
 5    1  0.1364103E-008  0.3828654E+03  0.7957747E-01  0.3438776E+00
         13   -1    0    0    0    0  0.00000000000E+00  0.00000000000E+00  0.14999999963E+04  0.15000000000E+04  0.10566000000E+00 0.  1.
        994   -1    0    0    0    0 -0.00000000000E+00 -0.00000000000E+00  0.11368683772E-12  0.17120000000E+03  0.17120000000E+03 0.  0.
         13    1    1    2    0    0  0.10400277406E+02 -0.27669044305E+02  0.13976389095E+03  0.14285551499E+03  0.10566000000E+00 0.  1.
        994    1    1    2    0    0 -0.14628183721E+02  0.34616324899E+02  0.73846227515E+01  0.17543160024E+03  0.17120000000E+03 0.  0.
        998    1    1    2    0    0  0.42279063149E+01 -0.69472805939E+01  0.13528514826E+04  0.13529128848E+04  0.10000000000E+02 0.  1.
</event>
<event>
 5    1  0.1364103E-008  0.4005862E+03  0.7957747E-01  0.3366144E+00
         13   -1    0    0    0    0  0.00000000000E+00  0.00000000000E+00  0.14999999963E+04  0.15000000000E+04  0.10566000000E+00 0. -1.
        994   -1    0    0    0    0 -0.00000000000E+00 -0.00000000000E+00  0.11368683772E-12  0.17120000000E+03  0.17120000000E+03 0.  0.
         13    1    1    2    0    0 -0.20058168782E+02  0.44946024770E+01 -0.51835344779E+01  0.21199334424E+02  0.10566000000E+00 0. -1.
        994    1    1    2    0    0  0.35732615578E+02 -0.30855185661E+02  0.36925746572E+02  0.18138856926E+03  0.17120000000E+03 0.  0.
        998    1    1    2    0    0 -0.15674446796E+02  0.26360583184E+02  0.14682577842E+04  0.14686120963E+04  0.10000000000E+02 0. -1.
</event>
<event>
 5    1  0.1364103E-008  0.3830561E+03  0.7957747E-01  0.3437959E+00
         13   -1    0    0    0    0  0.00000000000E+00  0.00000000000E+00  0.14999999963E+04  0.15000000000E+04  0.10566000000E+00 0.  1.
        994   -1    0    0    0    0 -0.00000000000E+00 -0.00000000000E+00  0.11368683772E-12  0.17120000000E+03  0.17120000000E+03 0.  0.
         13    1    1    2    0    0 -0.57732396602E+02 -0.92070097922E+02  0.25871426627E+03  0.28061185877E+03  0.10566000000E+00 0.  1.
        994    1    1    2    0    0  0.58468926352E+02  0.95554124886E+02  0.65598505485E+02  0.21485299638E+03  0.17120000000E+03 0.  0.
        998    1    1    2    0    0 -0.73652974982E+00 -0.34840269643E+01  0.11756872245E+04  0.11757351448E+04  0.10000000000E+02 0.  0.
</event>
<event>
 5    1  0.1364103E-008  0.3853250E+03  0.7957747E-01  0.3428295E+00
         13   -1    0    0    0    0  0.00000000000E+00  0.00000000000E+00  0.14999999963E+04  0.15000000000E+04  0.10566000000E+00 0. -1.
        994   -1    0    0    0    0 -0.00000000000E+00 -0.00000000000E+00  0.11368683772E-12  0.17120000000E+03  0.17120000000E+03 0.  0.
         13    1    1    2    0    0  0.15380859697E+02  0.71594557388E+01  0.98354637487E+02  0.99807186769E+02  0.10566000000E+00 0. -1.
        994    1    1    2    0    0 -0.50944563999E+01 -0.15213522294E+02  0.23149645439E+01  0.17196570532E+03  0.17120000000E+03 0.  0.
        998    1    1    2    0    0 -0.10286403297E+02  0.80540665553E+01  0.13993303942E+04  0.13994271079E+04  0.10000000000E+02 0. -1.
</event>
<event>
 5    1  0.1364103E-008  0.3799719E+03  0.7957747E-01  0.3451281E+00
         13   -1    0    0    0    0  0.00000000000E+00  0.00000000000E+00  0.14999999963E+04  0.15000000000E+04  0.10566000000E+00 0. -1.
        994   -1    0    0    0    0 -0.00000000000E+00 -0.00000000000E+00  0.11368683772E-12  0.17120000000E+03  0.17120000000E+03 0.  0.
         13    1    1    2    0    0 -0.23193471235E+02  0.57566369848E+02  0.12697129538E+03  0.14132779295E+03  0.10566000000E+00 0. -1.
        994    1    1    2    0    0 -0.32498938989E+02 -0.19601498936E+02  0.21548484338E+02  0.17667534342E+03  0.17120000000E+03 0.  0.
        998    1    1    2    0    0  0.55692410225E+02 -0.37964870912E+02  0.13514802166E+04  0.13531968636E+04  0.10000000000E+02 0. -1.
</event>
<event>
 5    1  0.1364103E-008  0.3298092E+03  0.7957747E-01  0.3703795E+00
         13   -1    0    0    0    0  0.00000000000E+00  0.00000000000E+00  0.14999999963E+04  0.15000000000E+04  0.10566000000E+00 0. -1.
        994   -1    0    0    0    0 -0.00000000000E+00 -0.00000000000E+00  0.11368683772E-12  0.17120000000E+03  0.17120000000E+03 0.  0.
         13    1    1    2    0    0  0.30722431114E+03 -0.92345472665E+02  0.80385039041E+03  0.86549981225E+03  0.10566000000E+00 0. -1.
        994    1    1    2    0    0 -0.20814746127E+03  0.58402856903E+02  0.36006240809E+03  0.45353129665E+03  0.17120000000E+03 0.  0.
        998    1    1    2    0    0 -0.99076849872E+02  0.33942615762E+02  0.33608719778E+03  0.35216889110E+03  0.10000000000E+02 0.  1.
</event>
<event>
 5    1  0.1364103E-008  0.3009569E+03  0.7957747E-01  0.3889211E+00
         13   -1    0    0    0    0  0.00000000000E+00  0.00000000000E+00  0.14999999963E+04  0.15000000000E+04  0.10566000000E+00 0.  1.
        994   -1    0    0    0    0 -0.00000000000E+00 -0.00000000000E+00  0.11368683772E-12  0.17120000000E+03  0.17120000000E+03 0.  0.
         13    1    1    2    0    0  0.70279313226E+02 -0.15874526500E+03  0.88282023246E+03  0.89972818952E+03  0.10566000000E+00 0.  1.
        994    1    1    2    0    0  0.51878690619E+02  0.94595402776E+02  0.81394460327E+02  0.21811507728E+03  0.17120000000E+03 0.  0.
        998    1    1    2    0    0 -0.12215800384E+03  0.64149862222E+02  0.53578530350E+03  0.55335673319E+03  0.10000000000E+02 0.  1.
</event>
<event>
 5    1  0.1364103E-008  0.3768904E+03  0.7957747E-01  0.3464811E+00
         13   -1    0    0    0    0  0.00000000000E+00  0.00000000000E+00  0.14999999963E+04  0.15000000000E+04  0.10566000000E+00 0. -1.
        994   -1    0    0    0    0 -0.00000000000E+00 -0.00000000000E+00  0.11368683772E-12  0.17120000000E+03  0.17120000000E+03 0.  0.
         13    1    1    2    0    0 -0.14760242350E+02  0.95394498416E+01  0.38618626269E+01  0.17994193633E+02  0.10566000000E+00 0. -1.
        994    1    1    2    0    0  0.28656375183E+02  0.73018281230E+01  0.17768946768E+02  0.17464157581E+03  0.17120000000E+03 0.  0.
        998    1    1    2    0    0 -0.13896132833E+02 -0.16841277965E+02  0.14783691869E+04  0.14785642306E+04  0.10000000000E+02 0. -1.
</event>
<event>
 5    1  0.1364103E-008  0.3808161E+03  0.7957747E-01  0.3447613E+00
         13   -1    0    0    0    0  0.00000000000E+00  0.00000000000E+00  0.14999999963E+04  0.15000000000E+04  0.10566000000E+00 0.  1.
        994   -1    0    0    0    0 -0.00000000000E+00 -0.00000000000E+00  0.11368683772E-12  0.17120000000E+03  0.17120000000E+03 0.  0.
         13    1    1    2    0    0  0.45530496604E+01 -0.22525025227E+02  0.76414291039E+02  0.79795125551E+02  0.10566000000E+00 0.  1.
        994    1    1    2    0    0 -0.10173681271E+01 -0.51867925535E+01  0.38149170549E+01  0.17132405391E+03  0.17120000000E+03 0.  0.
        998    1    1    2    0    0 -0.35356815333E+01  0.27711817781E+02  0.14197707882E+04  0.14200808205E+04  0.10000000000E+02 0.  1.
</event>
<event>
 5    1  0.1364103E-008  0.3787456E+03  0.7957747E-01  0.3456639E+00
         13   -1    0    0    0    0  0.00000000000E+00  0.00000000000E+00  0.14999999963E+04  0.15000000000E+04  0.10566000000E+00 0.  1.
        994   -1    0    0    0    0 -0.00000000000E+00 -0.00000000000E+00  0.11368683772E-12  0.17120000000E+03  0.17120000000E+03 0.  0.
         13    1    1    2    0    0  0.55952031645E+02  0.65121998376E+02  0.20609240324E+03  0.22326126927E+03  0.10566000000E+00 0.  1.
        994    1    1    2    0    0 -0.54348430222E+02 -0.56607666594E+02  0.38202740896E+02  0.19216417251E+03  0.17120000000E+03 0.  0.
        998    1    1    2    0    0 -0.16036014235E+01 -0.85143317826E+01  0.12557048521E+04  0.12557745582E+04  0.10000000000E+02 0.  1.
</event>
<event>
 5    1  0.1364103E-008  0.3718125E+03  0.7957747E-01  0.3487602E+00
         13   -1    0    0    0    0  0.00000000000E+00  0.00000000000E+00  0.14999999963E+04  0.15000000000E+04  0.10566000000E+00 0. -1.
        994   -1    0    0    0    0 -0.00000000000E+00 -0.00000000000E+00  0.11368683772E-12  0.17120000000E+03  0.17120000000E+03 0.  0.
         13    1    1    2    0    0  0.20209467801E+02 -0.10599153581E+03  0.34068340823E+03  0.35736231483E+03  0.10566000000E+00 0. -1.
        994    1    1    2    0    0 -0.37199580965E+02  0.11428786099E+03  0.64618115222E+02  0.21893027385E+03  0.17120000000E+03 0.  0.
        998    1    1    2    0    0  0.16990113163E+02 -0.82963251743E+01  0.10946984728E+04  0.10949074113E+04  0.10000000000E+02 0. -1.
</event>
<event>
 5    1  0.1364103E-008  0.3838076E+03  0.7957747E-01  0.3434745E+00
         13   -1    0    0    0    0  0.00000000000E+00  0.00000000000E+00  0.14999999963E+04  0.15000000000E+04  0.10566000000E+00 0. -1.
        994   -1    0    0    0    0 -0.00000000000E+00 -0.00000000000E+00  0.11368683772E-12  0.17120000000E+03  0.17120000000E+03 0.  0.
         13    1    1    2    0    0  0.69842578758E+01  0.12191052102E+02  0.44899476213E+02  0.47046527371E+02  0.10566000000E+00 0. -1.
        994    1    1    2    0    0 -0.16418296548E+01 -0.39035148688E+01  0.22824992116E+01  0.17126757672E+03  0.17120000000E+03 0.  0.
        998    1    1    2    0    0 -0.53424282210E+01 -0.82875372333E+01  0.14528180209E+04  0.14528858959E+04  0.10000000000E+02 0. -1.
</event>
<event>
 5    1  0.1364103E-008  0.3825493E+03  0.7957747E-01  0.3440133E+00
         13   -1    0    0    0    0  0.00000000000E+00  0.00000000000E+00  0.14999999963E+04  0.15000000000E+04  0.10566000000E+00 0.  1.
        994   -1    0    0    0    0 -0.00000000000E+00 -0.00000000000E+00  0.11368683772E-12  0.17120000000E+03  0.17120000000E+03 0.  0.
         13    1    1    2    0    0  0.28212194957E+02  0.12894194005E+02  0.17114299909E+03  0.17393138154E+03  0.10566000000E+00 0.  1.
        994    1    1    2    0    0 -0.11436834413E+02 -0.13275315084E+02  0.38702488844E+01  0.17213789240E+03  0.17120000000E+03 0.  0.
        998    1    1    2    0    0 -0.16775360544E+02  0.38112107910E+00  0.13249867483E+04  0.13251307261E+04  0.10000000000E+02 0.  1.
</event>
<event>
 5    1  0.1364103E-008  0.3782534E+03  0.7957747E-01  0.3458799E+00
         13   -1    0    0    0    0  0.00000000000E+00  0.00000000000E+00  0.14999999963E+04  0.15000000000E+04  0.10566000000E+00 0. -1.
        994   -1    0    0    0    0 -0.00000000000E+00 -0.00000000000E+00  0.11368683772E-12  0.17120000000E+03  0.17120000000E+03 0.  0.
         13    1    1    2    0    0  0.80597847951E+01  0.12322136990E+02  0.19153470544E+02  0.24159093296E+02  0.10566000000E+00 0. -1.
        994    1    1    2    0    0 -0.51006352162E+01 -0.16694419526E+02  0.60426821457E+01  0.17219371107E+03  0.17120000000E+03 0.  0.
        998    1    1    2    0    0 -0.29591495788E+01  0.43722825359E+01  0.14748038436E+04  0.14748471956E+04  0.10000000000E+02 0. -1.
</event>
<event>
 5    1  0.1364103E-008  0.3767828E+03  0.7957747E-01  0.3465288E+00
         13   -1    0    0    0    0  0.00000000000E+00  0.00000000000E+00  0.14999999963E+04  0.15000000000E+04  0.10566000000E+00 0. -1.
        994   -1    0    0    0    0 -0.00000000000E+00 -0.00000000000E+00  0.11368683772E-12  0.17120000000E+03  0.17120000000E+03 0.  0.
         13    1    1    2    0    0  0.95322240933E+01  0.61025251547E+02  0.26537433209E+03  0.27246741441E+03  0.10566000000E+00 0. -1.
        994    1    1    2    0    0 -0.81621424712E+01 -0.64358673261E+02  0.20121499133E+02  0.18418190498E+03  0.17120000000E+03 0.  0.
        998    1    1    2    0    0 -0.13700816221E+01  0.33334217138E+01  0.12145041651E+04  0.12145506806E+04  0.10000000000E+02 0.  0.
</event>
<event>
 5    1  0.1364103E-008  0.3847170E+03  0.7957747E-01  0.3430873E+00
         13   -1    0    0    0    0  0.00000000000E+00  0.00000000000E+00  0.14999999963E+04  0.15000000000E+04  0.10566000000E+00 0. -1.
        994   -1    0    0    0    0 -0.00000000000E+00 -0.00000000000E+00  0.11368683772E-12  0.17120000000E+03  0.17120000000E+03 0.  0.
         13    1    1    2    0    0  0.37311148072E+01 -0.14738221824E+02  0.69740971683E+02  0.71378923329E+02  0.10566000000E+00 0. -1.
        994    1    1    2    0    0  0.73309551625E+01  0.11795675002E+01  0.19522065941E+01  0.17137206713E+03  0.17120000000E+03 0.  0.
        998    1    1    2    0    0 -0.11062069970E+02  0.13558654324E+02  0.14283068180E+04  0.14284490095E+04  0.10000000000E+02 0. -1.
</event>
<event>
 5    1  0.1364103E-008  0.3807617E+03  0.7957747E-01  0.3447848E+00
         13   -1    0    0    0    0  0.00000000000E+00  0.00000000000E+00  0.14999999963E+04  0.15000000000E+04  0.10566000000E+00 0.  1.
        994   -1    0    0    0    0 -0.00000000000E+00 -0.00000000000E+00  0.11368683772E-12  0.17120000000E+03  0.17120000000E+03 0.  0.
         13    1    1    2    0    0 -0.16931600642E+01  0.37679645383E+02  0.22081075896E+03  0.22400898398E+03  0.10566000000E+00 0.  1.
        994    1    1    2    0    0  0.74947159580E+01 -0.27172627398E+01  0.39610721547E+01  0.17143128179E+03  0.17120000000E+03 0.  0.
        998    1    1    2    0    0 -0.58015558938E+01 -0.34962382644E+02  0.12752281652E+04  0.12757597342E+04  0.10000000000E+02 0.  1.
</event>
<event>
 5    1  0.1364103E-008  0.3808086E+03  0.7957747E-01  0.3447645E+00
         13   -1    0    0    0    0  0.00000000000E+00  0.00000000000E+00  0.14999999963E+04  0.15000000000E+04  0.10566000000E+00 0. -1.
        994   -1    0    0    0    0 -0.00000000000E+00 -0.00000000000E+00  0.11368683772E-12  0.17120000000E+03  0.17120000000E+03 0.  0.
         13    1    1    2    0    0 -0.10298567134E+02  0.10326581751E+02  0.26876962694E+02  0.30579095202E+02  0.10566000000E+00 0. -1.
        994    1    1    2    0    0  0.69856282493E+01 -0.10582951207E+02  0.42617971256E+01  0.17172187040E+03  0.17120000000E+03 0.  0.
        998    1    1    2    0    0  0.33129388852E+01  0.25636945635E+00  0.14688612365E+04  0.14688990344E+04  0.10000000000E+02 0. -1.
</event>
<event>
 5    1  0.1364103E-008  0.3831996E+03  0.7957747E-01  0.3437344E+00
         13   -1    0    0    0    0  0.00000000000E+00  0.00000000000E+00  0.14999999963E+04  0.15000000000E+04  0.10566000000E+00 0. -1.
        994   -1    0    0    0    0 -0.00000000000E+00 -0.00000000000E+00  0.11368683772E-12  0.17120000000E+03  0.17120000000E+03 0.  0.
         13    1    1    2    0    0  0.99333928783E+01 -0.11482082001E+02  0.44497863734E+02  0.47016821906E+02  0.10566000000E+00 0. -1.
        994    1    1    2    0    0 -0.72195008338E+01  0.96301852887E+01  0.30059719838E+01  0.17164887861E+03  0.17120000000E+03 0.  0.
        998    1    1    2    0    0 -0.27138920445E+01  0.18518967122E+01  0.14524961606E+04  0.14525342995E+04  0.10000000000E+02 0. -1.
</event>
<event>
 5    1  0.1364103E-008  0.3746941E+03  0.7957747E-01  0.3474592E+00
         13   -1    0    0    0    0  0.00000000000E+00  0.00000000000E+00  0.14999999963E+04  0.15000000000E+04  0.10566000000E+00 0. -1.
        994   -1    0    0    0    0 -0.00000000000E+00 -0.00000000000E+00  0.11368683772E-12  0.17120000000E+03  0.17120000000E+03 0.  0.
         13    1    1    2    0    0  0.15403651826E+02 -0.71753849539E+02  0.39206441945E+03  0.39887392441E+03  0.10566000000E+00 0. -1.
        994    1    1    2    0    0 -0.33342755798E+02  0.36756164409E+02  0.15262542457E+02  0.17889980489E+03  0.17120000000E+03 0.  0.
        998    1    1    2    0    0  0.17939103971E+02  0.34997685130E+02  0.10926730344E+04  0.10934262707E+04  0.10000000000E+02 0. -1.
</event>
<event>
 5    1  0.1364103E-008  0.3747322E+03  0.7957747E-01  0.3474421E+00
         13   -1    0    0    0    0  0.00000000000E+00  0.00000000000E+00  0.14999999963E+04  0.15000000000E+04  0.10566000000E+00 0. -1.
        994   -1    0    0    0    0 -0.00000000000E+00 -0.00000000000E+00  0.11368683772E-12  0.17120000000E+03  0.17120000000E+03 0.  0.
         13    1    1    2    0    0  0.34414027375E+02  0.58705862655E+02  0.28479601442E+03  0.29281305398E+03  0.10566000000E+00 0. -1.
        994    1    1    2    0    0 -0.55311998084E+02 -0.41518760219E+02  0.23268392556E+02  0.18610234462E+03  0.17120000000E+03 0.  0.
        998    1    1    2    0    0  0.20897970708E+02 -0.17187102436E+02  0.11919355893E+04  0.11922846014E+04  0.10000000000E+02 0. -1.
</event>
<event>
 5    1  0.1364103E-008  0.3718566E+03  0.7957747E-01  0.3487401E+00
         13   -1    0    0    0    0  0.00000000000E+00  0.00000000000E+00  0.14999999963E+04  0.15000000000E+04  0.10566000000E+00 0. -1.
        994   -1    0    0    0    0 -0.00000000000E+00 -0.00000000000E+00  0.11368683772E-12  0.17120000000E+03  0.17120000000E+03 0.  0.
         13    1    1    2    0    0  0.83437175206E+02 -0.47886857111E+02  0.44557054516E+03  0.45583772899E+03  0.10566000000E+00 0. -1.
        994    1    1    2    0    0 -0.18232640307E+02  0.45263583399E+02  0.20350623325E+02  0.17917814885E+03  0.17120000000E+03 0.  0.
        998    1    1    2    0    0 -0.65204534899E+02  0.26232737124E+01  0.10340788278E+04  0.10361841222E+04  0.10000000000E+02 0. -1.
</event>
<event>
 5    1  0.1364103E-008  0.3844513E+03  0.7957747E-01  0.3432003E+00
         13   -1    0    0    0    0  0.00000000000E+00  0.00000000000E+00  0.14999999963E+04  0.15000000000E+04  0.10566000000E+00 0. -1.
        994   -1    0    0    0    0 -0.00000000000E+00 -0.00000000000E+00  0.11368683772E-12  0.17120000000E+03  0.17120000000E+03 0.  0.
         13    1    1    2    0    0  0.31659952020E+01  0.20113622158E+02  0.11125211358E+03  0.11310006747E+03  0.10566000000E+00 0. -1.
        994    1    1    2    0    0 -0.32651176531E+01 -0.93821865461E+01  0.22279928638E+01  0.17150245004E+03  0.17120000000E+03 0.  0.
        998    1    1    2    0    0  0.99122451086E-01 -0.10731435611E+02  0.13865198898E+04  0.13865974825E+04  0.10000000000E+02 0. -1.
</event>
<event>
 5    1  0.1786527E-008  0.3861564E+03  0.7957747E-01  0.3424783E+00
         13   -1    0    0    0    0  0.00000000000E+00  0.00000000000E+00  0.14999999963E+04  0.15000000000E+04  0.10566000000E+00 0. -1.
        994   -1    0    0    0    0 -0.00000000000E+00 -0.00000000000E+00  0.11368683772E-12  0.17120000000E+03  0.17120000000E+03 0.  0.
         13    1    1    2    0    0 -0.11458233680E+02 -0.15289916857E+01  0.66426939000E+02  0.67425353715E+02  0.10566000000E+00 0. -1.
        994    1    1    2    0    0  0.41780858523E+01 -0.61314127352E+01  0.12374745994E+01  0.17136517139E+03  0.17120000000E+03 0.  0.
        998    1    1    2    0    0  0.72801478282E+01  0.76604044209E+01  0.14323355827E+04  0.14324094749E+04  0.10000000000E+02 0. -1.
</event>
<event>
 5    1  0.1364103E-008  0.3797046E+03  0.7957747E-01  0.3452446E+00
         13   -1    0    0    0    0  0.00000000000E+00  0.00000000000E+00  0.14999999963E+04  0.15000000000E+04  0.10566000000E+00 0.  1.
        994   -1    0    0    0    0 -0.00000000000E+00 -0.00000000000E+00  0.11368683772E-12  0.17120000000E+03  0.17120000000E+03 0.  0.
         13    1    1    2    0    0  0.18985266600E+02  0.33956956100E+02  0.19612915175E+03  0.19995042022E+03  0.10566000000E+00 0.  1.
        994    1    1    2    0    0 -0.51784892278E+02  0.15941699744E+02  0.14169425301E+02  0.18012780316E+03  0.17120000000E+03 0.  0.
        998    1    1    2    0    0  0.32799625679E+02 -0.49898655844E+02  0.12897014192E+04  0.12911217766E+04  0.10000000000E+02 0.  1.
</event>
<event>
 5    1  0.1364103E-008  0.3792356E+03  0.7957747E-01  0.3454494E+00
         13   -1    0    0    0    0  0.00000000000E+00  0.00000000000E+00  0.14999999963E+04  0.15000000000E+04  0.10566000000E+00 0.  1.
        994   -1    0    0    0    0 -0.00000000000E+00 -0.00000000000E+00  0.11368683772E-12  0.17120000000E+03  0.17120000000E+03 0.  0.
         13    1    1    2    0    0 -0.32332690869E+02 -0.24672678483E+02  0.20809726099E+03  0.21203449049E+03  0.10566000000E+00 0.  1.
        994    1    1    2    0    0  0.58474723450E+01  0.69329643116E+00  0.46357162239E+01  0.17136395029E+03  0.17120000000E+03 0.  0.
        998    1    1    2    0    0  0.26485218524E+02  0.23979382052E+02  0.12872670191E+04  0.12878015592E+04  0.10000000000E+02 0.  1.
</event>
<event>
 5    1  0.1364103E-008  0.3838114E+03  0.7957747E-01  0.3434729E+00
         13   -1    0    0    0    0  0.00000000000E+00  0.00000000000E+00  0.14999999963E+04  0.15000000000E+04  0.10566000000E+00 0.  1.
        994   -1    0    0    0    0 -0.00000000000E+00 -0.00000000000E+00  0.11368683772E-12  0.17120000000E+03  0.17120000000E+03 0.  0.
         13    1    1    2    0    0 -0.18819070538E+03  0.11215927354E+03  0.11071566231E+04  0.11286236057E+04  0.10566000000E+00 0.  1.
        994    1    1    2    0    0  0.18844877726E+03 -0.13339134179E+03  0.20444778070E+03  0.35272443458E+03  0.17120000000E+03 0.  0.
        998    1    1    2    0    0 -0.25807188641E+00  0.21232068244E+02  0.18839559251E+03  0.18985195969E+03  0.10000000000E+02 0. -1.
</event>
<event>
 5    1  0.1364103E-008  0.3837676E+03  0.7957747E-01  0.3434916E+00
         13   -1    0    0    0    0  0.00000000000E+00  0.00000000000E+00  0.14999999963E+04  0.15000000000E+04  0.10566000000E+00 0.  1.
        994   -1    0    0    0    0 -0.00000000000E+00 -0.00000000000E+00  0.11368683772E-12  0.17120000000E+03  0.17120000000E+03 0.  0.
         13    1    1    2    0    0  0.18752883143E+02 -0.20029760102E+02  0.14396970643E+03  0.14656107754E+03  0.10566000000E+00 0.  1.
        994    1    1    2    0    0 -0.20785891078E+02  0.28957927748E+02  0.64499242022E+01  0.17499044651E+03  0.17120000000E+03 0.  0.
        998    1    1    2    0    0  0.20330079348E+01 -0.89281676470E+01  0.13495803657E+04  0.13496484760E+04  0.10000000000E+02 0.  1.
</event>
<event>
 5    1  0.1364103E-008  0.3993074E+03  0.7957747E-01  0.3371170E+00
         13   -1    0    0    0    0  0.00000000000E+00  0.00000000000E+00  0.14999999963E+04  0.15000000000E+04  0.10566000000E+00 0.  1.
        994   -1    0    0    0    0 -0.00000000000E+00 -0.00000000000E+00  0.11368683772E-12  0.17120000000E+03  0.17120000000E+03 0.  0.
         13    1    1    2    0    0 -0.15313982317E+03 -0.20227637493E+02  0.40558414168E+03  0.43400399757E+03  0.10566000000E+00 0.  1.
        994    1    1    2    0    0  0.10386226781E+03  0.10729660916E+02  0.71339792387E+02  0.21284102583E+03  0.17120000000E+03 0.  0.
        998    1    1    2    0    0  0.49277555355E+02  0.94979765776E+01  0.10230760622E+04  0.10243549766E+04  0.10000000000E+02 0.  1.
</event>
<event>
 5    1  0.1364103E-008  0.3810717E+03  0.7957747E-01  0.3446505E+00
         13   -1    0    0    0    0  0.00000000000E+00  0.00000000000E+00  0.14999999963E+04  0.15000000000E+04  0.10566000000E+00 0. -1.
        994   -1    0    0    0    0 -0.00000000000E+00 -0.00000000000E+00  0.11368683772E-12  0.17120000000E+03  0.17120000000E+03 0.  0.
         13    1    1    2    0    0  0.15582670369E+02  0.17934618868E+02  0.67505086963E+02  0.71564083867E+02  0.10566000000E+00 0. -1.
        994    1    1    2    0    0 -0.27687978657E+02 -0.35830758203E+02  0.10453849812E+02  0.17739557596E+03  0.17120000000E+03 0.  0.
        998    1    1    2    0    0  0.12105308288E+02  0.17896139335E+02  0.14220410595E+04  0.14222403402E+04  0.10000000000E+02 0. -1.
</event>
<event>
 5    1  0.1364103E-008  0.3764980E+03  0.7957747E-01  0.3466550E+00
         13   -1    0    0    0    0  0.00000000000E+00  0.00000000000E+00  0.14999999963E+04  0.15000000000E+04  0.10566000000E+00 0. -1.
        994   -1    0    0    0    0 -0.00000000000E+00 -0.00000000000E+00  0.11368683772E-12  0.17120000000E+03  0.17120000000E+03 0.  0.
         13    1    1    2    0    0 -0.27735015305E+02  0.11310814228E+02  0.75914318201E+02  0.81609806178E+02  0.10566000000E+00 0. -1.
        994    1    1    2    0    0  0.12949989126E+02  0.18301661489E+01  0.64902153045E+01  0.17182146147E+03  0.17120000000E+03 0.  0.
        998    1    1    2    0    0  0.14785026179E+02 -0.13140980377E+02  0.14175954628E+04  0.14177687324E+04  0.10000000000E+02 0. -1.
</event>
<event>
 5    1  0.1364103E-008  0.3750467E+03  0.7957747E-01  0.3473014E+00
         13   -1    0    0    0    0  0.00000000000E+00  0.00000000000E+00  0.14999999963E+04  0.15000000000E+04  0.10566000000E+00 0. -1.
        994   -1    0    0    0    0 -0.00000000000E+00 -0.00000000000E+00  0.11368683772E-12  0.17120000000E+03  0.17120000000E+03 0.  0.
         13    1    1    2    0    0 -0.31911238043E+02  0.29559776573E+02  0.13881545900E+03  0.14547113227E+03  0.10566000000E+00 0. -1.
        994    1    1    2    0    0  0.18951555852E+02 -0.19920055544E+02  0.92283289765E+01  0.17363920104E+03  0.17120000000E+03 0.  0.
        998    1    1    2    0    0  0.12959682191E+02 -0.96397210294E+01  0.13519562083E+04  0.13520896667E+04  0.10000000000E+02 0. -1.
</event>
<event>
 5    1  0.1364103E-008  0.3725413E+03  0.7957747E-01  0.3484292E+00
         13   -1    0    0    0    0  0.00000000000E+00  0.00000000000E+00  0.14999999963E+04  0.15000000000E+04  0.10566000000E+00 0. -1.
        994   -1    0    0    0    0 -0.00000000000E+00 -0.00000000000E+00  0.11368683772E-12  0.17120000000E+03  0.17120000000E+03 0.  0.
         13    1    1    2    0    0  0.29844650300E+02 -0.21719654099E+02  0.71357570941E+02  0.80339035471E+02  0.10566000000E+00 0. -1.
        994    1    1    2    0    0 -0.78982601867E+02  0.40882518595E+01  0.29700692715E+02  0.19090975970E+03  0.17120000000E+03 0.  0.
        998    1    1    2    0    0  0.49137951566E+02  0.17631402239E+02  0.13989417326E+04  0.13999512048E+04  0.10000000000E+02 0. -1.
</event>
<event>
 5    1  0.1364103E-008  0.3851726E+03  0.7957747E-01  0.3428941E+00
         13   -1    0    0    0    0  0.00000000000E+00  0.00000000000E+00  0.14999999963E+04  0.15000000000E+04  0.10566000000E+00 0.  1.
        994   -1    0    0    0    0 -0.00000000000E+00 -0.00000000000E+00  0.11368683772E-12  0.17120000000E+03  0.17120000000E+03 0.  0.
         13    1    1    2    0    0 -0.85141120728E+01 -0.10041549277E+02  0.55901322691E+02  0.57430757081E+02  0.10566000000E+00 0.  1.
        994    1    1    2    0    0  0.20219226931E+02 -0.40902296344E+01  0.29444331812E+01  0.17246349412E+03  0.17120000000E+03 0.  0.
        998    1    1    2    0    0 -0.11705114859E+02  0.14131778911E+02  0.14411542404E+04  0.14413057488E+04  0.10000000000E+02 0.  1.
</event>
<event>
 5    1  0.1364103E-008  0.3816671E+03  0.7957747E-01  0.3443931E+00
         13   -1    0    0    0    0  0.00000000000E+00  0.00000000000E+00  0.14999999963E+04  0.15000000000E+04  0.10566000000E+00 0.  1.
        994   -1    0    0    0    0 -0.00000000000E+00 -0.00000000000E+00  0.11368683772E-12  0.17120000000E+03  0.17120000000E+03 0.  0.
         13    1    1    2    0    0  0.76210211826E+01 -0.10683458335E+02  0.24776163098E+02  0.28037219330E+02  0.10566000000E+00 0.  1.
        994    1    1    2    0    0 -0.44688976183E+01  0.93716810921E+01  0.36524207467E+01  0.17155343083E+03  0.17120000000E+03 0.  0.
        998    1    1    2    0    0 -0.31521235643E+01  0.13117772427E+01  0.14715714124E+04  0.14716093498E+04  0.10000000000E+02 0.  1.
</event>
<event>
 5    1  0.1364103E-008  0.3703692E+03  0.7957747E-01  0.3494196E+00
         13   -1    0    0    0    0  0.00000000000E+00  0.00000000000E+00  0.14999999963E+04  0.15000000000E+04  0.10566000000E+00 0.  1.
        994   -1    0    0    0    0 -0.00000000000E+00 -0.00000000000E+00  0.11368683772E-12  0.17120000000E+03  0.17120000000E+03 0.  0.
         13    1    1    2    0    0  0.15126381607E+02 -0.15070207747E+02  0.21459780451E+02  0.30272956960E+02  0.10566000000E+00 0.  1.
        994    1    1    2    0    0 -0.21245011211E+02 -0.57204226790E+01  0.10749605826E+02  0.17294238278E+03  0.17120000000E+03 0.  0.
        998    1    1    2    0    0  0.61186296036E+01  0.20790630426E+02  0.14677906100E+04  0.14679846603E+04  0.10000000000E+02 0.  1.
</event>
<event>
 5    1  0.1364103E-008  0.3848141E+03  0.7957747E-01  0.3430461E+00
         13   -1    0    0    0    0  0.00000000000E+00  0.00000000000E+00  0.14999999963E+04  0.15000000000E+04  0.10566000000E+00 0.  1.
        994   -1    0    0    0    0 -0.00000000000E+00 -0.00000000000E+00  0.11368683772E-12  0.17120000000E+03  0.17120000000E+03 0.  0.
         13    1    1    2    0    0 -0.49965542284E+01 -0.12579501485E+02  0.53879738375E+02  0.55553998804E+02  0.10566000000E+00 0.  1.
        994    1    1    2    0    0  0.22714924717E+01  0.58538278642E+01  0.18522291511E+01  0.17132512288E+03  0.17120000000E+03 0.  0.
        998    1    1    2    0    0  0.27250617567E+01  0.67256736206E+01  0.14442680288E+04  0.14443208783E+04  0.10000000000E+02 0.  1.
</event>
<event>
 5    1  0.1364103E-008  0.3838428E+03  0.7957747E-01  0.3434595E+00
         13   -1    0    0    0    0  0.00000000000E+00  0.00000000000E+00  0.14999999963E+04  0.15000000000E+04  0.10566000000E+00 0.  1.
        994   -1    0    0    0    0 -0.00000000000E+00 -0.00000000000E+00  0.11368683772E-12  0.17120000000E+03  0.17120000000E+03 0.  0.
         13    1    1    2    0    0  0.14247725164E+02 -0.94291053177E+01  0.64535566545E+02  0.66758941070E+02  0.10566000000E+00 0.  1.
        994    1    1    2    0    0 -0.12086193518E+02  0.76846916200E+01  0.28832088715E+01  0.17182224377E+03  0.17120000000E+03 0.  0.
        998    1    1    2    0    0 -0.21615316457E+01  0.17444136977E+01  0.14325812209E+04  0.14326188152E+04  0.10000000000E+02 0.  1.
</event>
<event>
 5    1  0.1696418E-008  0.3857539E+03  0.7957747E-01  0.3426481E+00
         13   -1    0    0    0    0  0.00000000000E+00  0.00000000000E+00  0.14999999963E+04  0.15000000000E+04  0.10566000000E+00 0. -1.
        994   -1    0    0    0    0 -0.00000000000E+00 -0.00000000000E+00  0.11368683772E-12  0.17120000000E+03  0.17120000000E+03 0.  0.
         13    1    1    2    0    0  0.10234651997E+02 -0.52164501361E+00  0.42284495682E+02  0.43508734228E+02  0.10566000000E+00 0. -1.
        994    1    1    2    0    0 -0.61346914559E+01  0.32018437416E+00  0.13800887680E+01  0.17131573659E+03  0.17120000000E+03 0.  0.
        998    1    1    2    0    0 -0.40999605409E+01  0.20146063946E+00  0.14563354118E+04  0.14563755292E+04  0.10000000000E+02 0.  0.
</event>
<event>
 5    1  0.1364103E-008  0.3812106E+03  0.7957747E-01  0.3445904E+00
         13   -1    0    0    0    0  0.00000000000E+00  0.00000000000E+00  0.14999999963E+04  0.15000000000E+04  0.10566000000E+00 0.  1.
        994   -1    0    0    0    0 -0.00000000000E+00 -0.00000000000E+00  0.11368683772E-12  0.17120000000E+03  0.17120000000E+03 0.  0.
         13    1    1    2    0    0  0.52046799063E+01  0.10617608914E+02  0.18364564326E+02  0.21842405978E+02  0.10566000000E+00 0.  1.
        994    1    1    2    0    0 -0.31018336393E+01 -0.84632006952E+01  0.37938328664E+01  0.17147909583E+03  0.17120000000E+03 0.  0.
        998    1    1    2    0    0 -0.21028462670E+01 -0.21544082189E+01  0.14778415991E+04  0.14778784982E+04  0.10000000000E+02 0.  1.
</event>
<event>
 5    1  0.1364103E-008  0.3794477E+03  0.7957747E-01  0.3453567E+00
         13   -1    0    0    0    0  0.00000000000E+00  0.00000000000E+00  0.14999999963E+04  0.15000000000E+04  0.10566000000E+00 0.  1.
        994   -1    0    0    0    0 -0.00000000000E+00 -0.00000000000E+00  0.11368683772E-12  0.17120000000E+03  0.17120000000E+03 0.  0.
         13    1    1    2    0    0  0.17838438363E+02 -0.30834597293E+02  0.20964666866E+03  0.21265163794E+03  0.10566000000E+00 0.  1.
        994    1    1    2    0    0 -0.34072399140E+02 -0.46946475859E+02  0.15764990195E+02  0.18144661720E+03  0.17120000000E+03 0.  0.
        998    1    1    2    0    0  0.16233960777E+02  0.77781073152E+02  0.12745883374E+04  0.12771017449E+04  0.10000000000E+02 0.  1.
</event>
<event>
 5    1  0.1364103E-008  0.4439947E+03  0.7957747E-01  0.3212478E+00
         13   -1    0    0    0    0  0.00000000000E+00  0.00000000000E+00  0.14999999963E+04  0.15000000000E+04  0.10566000000E+00 0.  1.
        994   -1    0    0    0    0 -0.00000000000E+00 -0.00000000000E+00  0.11368683772E-12  0.17120000000E+03  0.17120000000E+03 0.  0.
         13    1    1    2    0    0  0.13095484757E+02 -0.11389852756E+03  0.90728711430E+02  0.14620559683E+03  0.10566000000E+00 0.  1.
        994    1    1    2    0    0 -0.11977375297E+02  0.11945031315E+03  0.13115331921E+03  0.24682477179E+03  0.17120000000E+03 0.  0.
        998    1    1    2    0    0 -0.11181094601E+01 -0.55517855848E+01  0.12781179656E+04  0.12781696314E+04  0.10000000000E+02 0.  0.
</event>
<event>
 5    1  0.1364103E-008  0.3858563E+03  0.7957747E-01  0.3426049E+00
         13   -1    0    0    0    0  0.00000000000E+00  0.00000000000E+00  0.14999999963E+04  0.15000000000E+04  0.10566000000E+00 0.  1.
        994   -1    0    0    0    0 -0.00000000000E+00 -0.00000000000E+00  0.11368683772E-12  0.17120000000E+03  0.17120000000E+03 0.  0.
         13    1    1    2    0    0  0.40463391905E+02 -0.11198338401E+03  0.22412785323E+03  0.25379296707E+03  0.10566000000E+00 0.  1.
        994    1    1    2    0    0  0.39165303624E+01  0.18558852064E+03  0.16165193914E+03  0.29983199901E+03  0.17120000000E+03 0.  0.
        998    1    1    2    0    0 -0.44379922267E+02 -0.73605136622E+02  0.11142202039E+04  0.11175750339E+04  0.10000000000E+02 0.  1.
</event>
<event>
 5    1  0.1364103E-008  0.3835644E+03  0.7957747E-01  0.3435784E+00
         13   -1    0    0    0    0  0.00000000000E+00  0.00000000000E+00  0.14999999963E+04  0.15000000000E+04  0.10566000000E+00 0.  1.
        994   -1    0    0    0    0 -0.00000000000E+00 -0.00000000000E+00  0.11368683772E-12  0.17120000000E+03  0.17120000000E+03 0.  0.
         13    1    1    2    0    0  0.65331598091E+01 -0.14276916877E+02  0.57032653334E+02  0.59154435531E+02  0.10566000000E+00 0.  1.
        994    1    1    2    0    0  0.10586836444E+02 -0.37687871502E+01  0.27619402156E+01  0.17159065585E+03  0.17120000000E+03 0.  0.
        998    1    1    2    0    0 -0.17119996253E+02  0.18045704027E+02  0.14402054027E+04  0.14404549086E+04  0.10000000000E+02 0.  1.
</event>
<event>
 5    1  0.1364103E-008  0.3852852E+03  0.7957747E-01  0.3428464E+00
         13   -1    0    0    0    0  0.00000000000E+00  0.00000000000E+00  0.14999999963E+04  0.15000000000E+04  0.10566000000E+00 0. -1.
        994   -1    0    0    0    0 -0.00000000000E+00 -0.00000000000E+00  0.11368683772E-12  0.17120000000E+03  0.17120000000E+03 0.  0.
         13    1    1    2    0    0  0.10670766735E+02  0.12633823845E+02  0.89144894315E+02  0.90665881754E+02  0.10566000000E+00 0. -1.
        994    1    1    2    0    0 -0.12231115522E+02 -0.92568060810E+01  0.22620772721E+01  0.17190068540E+03  0.17120000000E+03 0.  0.
        998    1    1    2    0    0  0.15603487869E+01 -0.33770177638E+01  0.14085930247E+04  0.14086334329E+04  0.10000000000E+02 0. -1.
</event>
<event>
 5    1  0.1364103E-008  0.3727992E+03  0.7957747E-01  0.3483125E+00
         13   -1    0    0    0    0  0.00000000000E+00  0.00000000000E+00  0.14999999963E+04  0.15000000000E+04  0.10566000000E+00 0. -1.
        994   -1    0    0    0    0 -0.00000000000E+00 -0.00000000000E+00  0.11368683772E-12  0.17120000000E+03  0.17120000000E+03 0.  0.
         13    1    1    2    0    0  0.11340895549E+03  0.10763176149E+03  0.65881418011E+03  0.67711322712E+03  0.10566000000E+00 0. -1.
        994    1    1    2    0    0 -0.12026690108E+03 -0.11966496917E+03  0.11386964147E+03  0.26657000505E+03  0.17120000000E+03 0.  0.
        998    1    1    2    0    0  0.68579455904E+01  0.12033207681E+02  0.72731617470E+03  0.72751676784E+03  0.10000000000E+02 0. -1.
</event>
<event>
 5    1  0.1364103E-008  0.3858508E+03  0.7957747E-01  0.3426072E+00
         13   -1    0    0    0    0  0.00000000000E+00  0.00000000000E+00  0.14999999963E+04  0.15000000000E+04  0.10566000000E+00 0. -1.
        994   -1    0    0    0    0 -0.00000000000E+00 -0.00000000000E+00  0.11368683772E-12  0.17120000000E+03  0.17120000000E+03 0.  0.
         13    1    1    2    0    0 -0.43994467346E+01  0.92233064205E+01  0.42368482716E+02  0.43583529052E+02  0.10566000000E+00 0. -1.
        994    1    1    2    0    0  0.13646422104E+02 -0.65723168347E+01  0.19610911984E+01  0.17187991757E+03  0.17120000000E+03 0.  0.
        998    1    1    2    0    0 -0.92469753692E+01 -0.26509895858E+01  0.14556704224E+04  0.14557365534E+04  0.10000000000E+02 0. -1.
</event>
<event>
 5    1  0.1364103E-008  0.3838807E+03  0.7957747E-01  0.3434433E+00
         13   -1    0    0    0    0  0.00000000000E+00  0.00000000000E+00  0.14999999963E+04  0.15000000000E+04  0.10566000000E+00 0. -1.
        994   -1    0    0    0    0 -0.00000000000E+00 -0.00000000000E+00  0.11368683772E-12  0.17120000000E+03  0.17120000000E+03 0.  0.
         13    1    1    2    0    0 -0.91083358976E+01 -0.10144259762E+02  0.43451307957E+02  0.45540038605E+02  0.10566000000E+00 0. -1.
        994    1    1    2    0    0 -0.23283570587E+01  0.41319386269E+01  0.22611112968E+01  0.17128060832E+03  0.17120000000E+03 0.  0.
        998    1    1    2    0    0  0.11436692956E+02  0.60123211353E+01  0.14542875770E+04  0.14543793531E+04  0.10000000000E+02 0. -1.
</event>
<event>
 5    1  0.1364103E-008  0.3739587E+03  0.7957747E-01  0.3477893E+00
         13   -1    0    0    0    0  0.00000000000E+00  0.00000000000E+00  0.14999999963E+04  0.15000000000E+04  0.10566000000E+00 0. -1.
        994   -1    0    0    0    0 -0.00000000000E+00 -0.00000000000E+00  0.11368683772E-12  0.17120000000E+03  0.17120000000E+03 0.  0.
         13    1    1    2    0    0  0.68002300605E+02  0.65033877823E+02  0.46794029640E+03  0.47730687227E+03  0.10566000000E+00 0. -1.
        994    1    1    2    0    0 -0.64069023387E+02 -0.52586472309E+02  0.31024595389E+02  0.19272296788E+03  0.17120000000E+03 0.  0.
        998    1    1    2    0    0 -0.39332772177E+01 -0.12447405514E+02  0.10010351045E+04  0.10011701599E+04  0.10000000000E+02 0. -1.
</event>
<event>
 5    1  0.1364103E-008  0.3771166E+03  0.7957747E-01  0.3463810E+00
         13   -1    0    0    0    0  0.00000000000E+00  0.00000000000E+00  0.14999999963E+04  0.15000000000E+04  0.10566000000E+00 0. -1.
        994   -1    0    0    0    0 -0.00000000000E+00 -0.00000000000E+00  0.11368683772E-12  0.17120000000E+03  0.17120000000E+03 0.  0.
         13    1    1    2    0    0  0.45959319726E+02  0.27995223091E+02  0.30638940460E+03  0.31107952359E+03  0.10566000000E+00 0. -1.
        994    1    1    2    0    0 -0.16555421834E+02  0.71681721473E+01  0.66950235088E+01  0.17227805439E+03  0.17120000000E+03 0.  0.
        998    1    1    2    0    0 -0.29403897891E+02 -0.35163395239E+02  0.11869155682E+04  0.11878424220E+04  0.10000000000E+02 0. -1.
</event>
<event>
 5    1  0.1364103E-008  0.3702682E+03  0.7957747E-01  0.3494659E+00
         13   -1    0    0    0    0  0.00000000000E+00  0.00000000000E+00  0.14999999963E+04  0.15000000000E+04  0.10566000000E+00 0.  1.
        994   -1    0    0    0    0 -0.00000000000E+00 -0.00000000000E+00  0.11368683772E-12  0.17120000000E+03  0.17120000000E+03 0.  0.
         13    1    1    2    0    0 -0.29026692433E+01  0.36214665103E+02  0.54244954926E+02  0.65287470132E+02  0.10566000000E+00 0.  1.
        994    1    1    2    0    0  0.36446839922E+01 -0.31561842279E+02  0.14621152579E+02  0.17473594854E+03  0.17120000000E+03 0.  0.
        998    1    1    2    0    0 -0.74201474891E+00 -0.46528228235E+01  0.14311338888E+04  0.14311765813E+04  0.10000000000E+02 0.  1.
</event>
<event>
 5    1  0.1364103E-008  0.3693227E+03  0.7957747E-01  0.3499009E+00
         13   -1    0    0    0    0  0.00000000000E+00  0.00000000000E+00  0.14999999963E+04  0.15000000000E+04  0.10566000000E+00 0.  1.
        994   -1    0    0    0    0 -0.00000000000E+00 -0.00000000000E+00  0.11368683772E-12  0.17120000000E+03  0.17120000000E+03 0.  0.
         13    1    1    2    0    0  0.39319037004E+02  0.28908482922E+01  0.75099825489E+02  0.84819447223E+02  0.10566000000E+00 0.  1.
        994    1    1    2    0    0 -0.30473582397E+01  0.17424402096E+02  0.11673145675E+02  0.17250680714E+03  0.17120000000E+03 0.  0.
        998    1    1    2    0    0 -0.36271678765E+02 -0.20315250388E+02  0.14132270251E+04  0.14138737456E+04  0.10000000000E+02 0.  1.
</event>
<event>
 5    1  0.1364103E-008  0.3761509E+03  0.7957747E-01  0.3468091E+00
         13   -1    0    0    0    0  0.00000000000E+00  0.00000000000E+00  0.14999999963E+04  0.15000000000E+04  0.10566000000E+00 0. -1.
        994   -1    0    0    0    0 -0.00000000000E+00 -0.00000000000E+00  0.11368683772E-12  0.17120000000E+03  0.17120000000E+03 0.  0.
         13    1    1    2    0    0 -0.58347409437E+02 -0.37365249013E+02  0.16073300303E+03  0.17503054433E+03  0.10566000000E+00 0. -1.
        994    1    1    2    0    0  0.28001111701E+02  0.46232586124E+02  0.24742468727E+02  0.18122677516E+03  0.17120000000E+03 0.  0.
        998    1    1    2    0    0  0.30346297736E+02 -0.88673371111E+01  0.13145245245E+04  0.13149426805E+04  0.10000000000E+02 0. -1.
</event>
<event>
 5    1  0.1364103E-008  0.3790458E+03  0.7957747E-01  0.3455324E+00
         13   -1    0    0    0    0  0.00000000000E+00  0.00000000000E+00  0.14999999963E+04  0.15000000000E+04  0.10566000000E+00 0.  1.
        994   -1    0    0    0    0 -0.00000000000E+00 -0.00000000000E+00  0.11368683772E-12  0.17120000000E+03  0.17120000000E+03 0.  0.
         13    1    1    2    0    0  0.13695773282E+02  0.30550861619E+02  0.12014465769E+03  0.12472240892E+03  0.10566000000E+00 0.  1.
        994    1    1    2    0    0 -0.56551468358E+01 -0.18894281452E+02  0.59210798955E+01  0.17243396923E+03  0.17120000000E+03 0.  0.
        998    1    1    2    0    0 -0.80406264459E+01 -0.11656580167E+02  0.13739342587E+04  0.13740436218E+04  0.10000000000E+02 0.  1.
</event>
<event>
 5    1  0.1364103E-008  0.3824155E+03  0.7957747E-01  0.3440708E+00
         13   -1    0    0    0    0  0.00000000000E+00  0.00000000000E+00  0.14999999963E+04  0.15000000000E+04  0.10566000000E+00 0. -1.
        994   -1    0    0    0    0 -0.00000000000E+00 -0.00000000000E+00  0.11368683772E-12  0.17120000000E+03  0.17120000000E+03 0.  0.
         13    1    1    2    0    0  0.19798690302E+02 -0.26664061468E+02  0.16384839443E+03  0.16718034524E+03  0.10566000000E+00 0. -1.
        994    1    1    2    0    0 -0.17431853055E+02  0.34029140589E+02  0.77821272123E+01  0.17559001513E+03  0.17120000000E+03 0.  0.
        998    1    1    2    0    0 -0.23668372470E+01 -0.73650791217E+01  0.13283694746E+04  0.13284296396E+04  0.10000000000E+02 0. -1.
</event>
<event>
 5    1  0.1364103E-008  0.3860355E+03  0.7957747E-01  0.3425292E+00
         13   -1    0    0    0    0  0.00000000000E+00  0.00000000000E+00  0.14999999963E+04  0.15000000000E+04  0.10566000000E+00 0. -1.
        994   -1    0    0    0    0 -0.00000000000E+00 -0.00000000000E+00  0.11368683772E-12  0.17120000000E+03  0.17120000000E+03 0.  0.
         13    1    1    2    0    0  0.34395932976E+01  0.11276306275E+02  0.64911032040E+02  0.65973018195E+02  0.10566000000E+00 0. -1.
        994    1    1    2    0    0 -0.87052918873E+00 -0.38382319203E+01  0.11676575638E+01  0.17124921392E+03  0.17120000000E+03 0.  0.
        998    1    1    2    0    0 -0.25690641088E+01 -0.74380743551E+01  0.14339213067E+04  0.14339777679E+04  0.10000000000E+02 0. -1.
</event>
<event>
 5    1  0.1364103E-008  0.3855888E+03  0.7957747E-01  0.3427179E+00
         13   -1    0    0    0    0  0.00000000000E+00  0.00000000000E+00  0.14999999963E+04  0.15000000000E+04  0.10566000000E+00 0. -1.
        994   -1    0    0    0    0 -0.00000000000E+00 -0.00000000000E+00  0.11368683772E-12  0.17120000000E+03  0.17120000000E+03 0.  0.
         13    1    1    2    0    0  0.10891029821E+02  0.10823225548E+02  0.75254785870E+02  0.76805277828E+02  0.10566000000E+00 0. -1.
        994    1    1    2    0    0 -0.31965037368E+02 -0.14322846366E+02  0.53756521049E+01  0.17482918857E+03  0.17120000000E+03 0.  0.
        998    1    1    2    0    0  0.21074007547E+02  0.34996208172E+01  0.14193695583E+04  0.14195655336E+04  0.10000000000E+02 0. -1.
</event>
<event>
 5    1  0.1364103E-008  0.3735189E+03  0.7957747E-01  0.3479873E+00
         13   -1    0    0    0    0  0.00000000000E+00  0.00000000000E+00  0.14999999963E+04  0.15000000000E+04  0.10566000000E+00 0.  1.
        994   -1    0    0    0    0 -0.00000000000E+00 -0.00000000000E+00  0.11368683772E-12  0.17120000000E+03  0.17120000000E+03 0.  0.
         13    1    1    2    0    0  0.31846239977E+02 -0.13382516555E+03  0.76850925007E+03  0.78072391826E+03  0.10566000000E+00 0.  1.
        994    1    1    2    0    0 -0.69149135623E+01  0.12348807829E+03  0.61649038622E+02  0.22001628456E+03  0.17120000000E+03 0.  0.
        998    1    1    2    0    0 -0.24931326414E+02  0.10337087253E+02  0.66984170759E+03  0.67045979718E+03  0.10000000000E+02 0. -1.
</event>
<event>
 5    1  0.1364103E-008  0.3797145E+03  0.7957747E-01  0.3452403E+00
         13   -1    0    0    0    0  0.00000000000E+00  0.00000000000E+00  0.14999999963E+04  0.15000000000E+04  0.10566000000E+00 0.  1.
        994   -1    0    0    0    0 -0.00000000000E+00 -0.00000000000E+00  0.11368683772E-12  0.17120000000E+03  0.17120000000E+03 0.  0.
         13    1    1    2    0    0  0.49063592050E+01 -0.33273213057E+02  0.15595380578E+03  0.15953927343E+03  0.10566000000E+00 0.  1.
        994    1    1    2    0    0 -0.15414498636E+02 -0.90752329208E+01  0.53486993968E+01  0.17221502608E+03  0.17120000000E+03 0.  0.
        998    1    1    2    0    0  0.10508139431E+02  0.42348445977E+02  0.13386974911E+04  0.13394457005E+04  0.10000000000E+02 0.  1.
</event>
<event>
 5    1  0.1364103E-008  0.3818935E+03  0.7957747E-01  0.3442955E+00
         13   -1    0    0    0    0  0.00000000000E+00  0.00000000000E+00  0.14999999963E+04  0.15000000000E+04  0.10566000000E+00 0. -1.
        994   -1    0    0    0    0 -0.00000000000E+00 -0.00000000000E+00  0.11368683772E-12  0.17120000000E+03  0.17120000000E+03 0.  0.
         13    1    1    2    0    0 -0.50882459175E+01 -0.11744500738E+02  0.24444800265E+02  0.27593168867E+02  0.10566000000E+00 0. -1.
        994    1    1    2    0    0  0.13548471443E+02  0.50341011561E+01  0.38746710048E+01  0.17185271697E+03  0.17120000000E+03 0.  0.
        998    1    1    2    0    0 -0.84602255258E+01  0.67103995824E+01  0.14716805250E+04  0.14717541142E+04  0.10000000000E+02 0. -1.
</event>
<event>
 5    1  0.1364103E-008  0.3767382E+03  0.7957747E-01  0.3465485E+00
         13   -1    0    0    0    0  0.00000000000E+00  0.00000000000E+00  0.14999999963E+04  0.15000000000E+04  0.10566000000E+00 0. -1.
        994   -1    0    0    0    0 -0.00000000000E+00 -0.00000000000E+00  0.11368683772E-12  0.17120000000E+03  0.17120000000E+03 0.  0.
         13    1    1    2    0    0  0.93987891179E+01 -0.21183489083E+02  0.50962559727E+02  0.55984561306E+02  0.10566000000E+00 0. -1.
        994    1    1    2    0    0 -0.10292013788E+02 -0.34967009708E+02  0.10291902622E+02  0.17533961496E+03  0.17120000000E+03 0.  0.
        998    1    1    2    0    0  0.89322467041E+00  0.56150498791E+02  0.14387455339E+04  0.14398758237E+04  0.10000000000E+02 0. -1.
</event>
<event>
 5    1  0.1364103E-008  0.3759498E+03  0.7957747E-01  0.3468986E+00
         13   -1    0    0    0    0  0.00000000000E+00  0.00000000000E+00  0.14999999963E+04  0.15000000000E+04  0.10566000000E+00 0. -1.
        994   -1    0    0    0    0 -0.00000000000E+00 -0.00000000000E+00  0.11368683772E-12  0.17120000000E+03  0.17120000000E+03 0.  0.
         13    1    1    2    0    0 -0.10030137551E+02 -0.26392851884E+01  0.58404947282E+01  0.11903446068E+02  0.10566000000E+00 0. -1.
        994    1    1    2    0    0  0.66127024777E+01  0.42712961274E+01  0.64017970451E+01  0.17150042219E+03  0.17120000000E+03 0.  0.
        998    1    1    2    0    0  0.34174350730E+01 -0.16320109390E+01  0.14877577045E+04  0.14877961317E+04  0.10000000000E+02 0. -1.
</event>
<event>
 5    1  0.1364103E-008  0.3777746E+03  0.7957747E-01  0.3460906E+00
         13   -1    0    0    0    0  0.00000000000E+00  0.00000000000E+00  0.14999999963E+04  0.15000000000E+04  0.10566000000E+00 0. -1.
        994   -1    0    0    0    0 -0.00000000000E+00 -0.00000000000E+00  0.11368683772E-12  0.17120000000E+03  0.17120000000E+03 0.  0.
         13    1    1    2    0    0 -0.57195860573E+02 -0.19461606747E+01  0.25970689961E+03  0.26593765976E+03  0.10566000000E+00 0. -1.
        994    1    1    2    0    0  0.56109959414E+02 -0.64919148456E-01  0.15937715777E+02  0.18086398907E+03  0.17120000000E+03 0.  0.
        998    1    1    2    0    0  0.10859011592E+01  0.20110798232E+01  0.12243553809E+04  0.12243983512E+04  0.10000000000E+02 0. -1.
</event>
<event>
 5    1  0.1364103E-008  0.3828006E+03  0.7957747E-01  0.3439054E+00
         13   -1    0    0    0    0  0.00000000000E+00  0.00000000000E+00  0.14999999963E+04  0.15000000000E+04  0.10566000000E+00 0. -1.
        994   -1    0    0    0    0 -0.00000000000E+00 -0.00000000000E+00  0.11368683772E-12  0.17120000000E+03  0.17120000000E+03 0.  0.
         13    1    1    2    0    0 -0.24687748088E+02 -0.13902744486E+01  0.12079320388E+03  0.12329812260E+03  0.10566000000E+00 0. -1.
        994    1    1    2    0    0  0.36008624951E+01 -0.47163362047E+01  0.28426934621E+01  0.17132638718E+03  0.17120000000E+03 0.  0.
        998    1    1    2    0    0  0.21086885593E+02  0.61066106532E+01  0.13763640989E+04  0.13765754902E+04  0.10000000000E+02 0. -1.
</event>
<event>
 5    1  0.1364103E-008  0.3796853E+03  0.7957747E-01  0.3452530E+00
         13   -1    0    0    0    0  0.00000000000E+00  0.00000000000E+00  0.14999999963E+04  0.15000000000E+04  0.10566000000E+00 0. -1.
        994   -1    0    0    0    0 -0.00000000000E+00 -0.00000000000E+00  0.11368683772E-12  0.17120000000E+03  0.17120000000E+03 0.  0.
         13    1    1    2    0    0  0.20684640572E+02  0.24204511387E+01  0.48499501249E+02  0.52781869281E+02  0.10566000000E+00 0. -1.
        994    1    1    2    0    0 -0.15694232380E+02 -0.28689365206E+01  0.51443436432E+01  0.17201873153E+03  0.17120000000E+03 0.  0.
        998    1    1    2    0    0 -0.49904081919E+01  0.44848538190E+00  0.14463561514E+04  0.14463993992E+04  0.10000000000E+02 0. -1.
</event>
<event>
 5    1  0.1364103E-008  0.3811886E+03  0.7957747E-01  0.3446000E+00
         13   -1    0    0    0    0  0.00000000000E+00  0.00000000000E+00  0.14999999963E+04  0.15000000000E+04  0.10566000000E+00 0. -1.
        994   -1    0    0    0    0 -0.00000000000E+00 -0.00000000000E+00  0.11368683772E-12  0.17120000000E+03  0.17120000000E+03 0.  0.
         13    1    1    2    0    0  0.65249660286E+01 -0.11320983183E+02  0.22801407830E+02  0.26280319728E+02  0.10566000000E+00 0. -1.
        994    1    1    2    0    0  0.23453559191E+01  0.10808398231E+02  0.39417940333E+01  0.17160215589E+03  0.17120000000E+03 0.  0.
        998    1    1    2    0    0 -0.88703219477E+01  0.51258495232E+00  0.14732567944E+04  0.14733175244E+04  0.10000000000E+02 0. -1.
</event>
<event>
 5    1  0.1364103E-008  0.3792169E+03  0.7957747E-01  0.3454576E+00
         13   -1    0    0    0    0  0.00000000000E+00  0.00000000000E+00  0.14999999963E+04  0.15000000000E+04  0.10566000000E+00 0.  1.
        994   -1    0    0    0    0 -0.00000000000E+00 -0.00000000000E+00  0.11368683772E-12  0.17120000000E+03  0.17120000000E+03 0.  0.
         13    1    1    2    0    0 -0.93833406434E+01  0.22373403943E+02  0.58736316629E+02  0.63549841391E+02  0.10566000000E+00 0.  1.
        994    1    1    2    0    0  0.12299487791E+02 -0.32655565865E+02  0.86209109452E+01  0.17493262557E+03  0.17120000000E+03 0.  0.
        998    1    1    2    0    0 -0.29161471476E+01  0.10282161921E+02  0.14326427687E+04  0.14327175330E+04  0.10000000000E+02 0.  1.
</event>
<event>
 5    1  0.1364103E-008  0.3776585E+03  0.7957747E-01  0.3461418E+00
         13   -1    0    0    0    0  0.00000000000E+00  0.00000000000E+00  0.14999999963E+04  0.15000000000E+04  0.10566000000E+00 0.  1.
        994   -1    0    0    0    0 -0.00000000000E+00 -0.00000000000E+00  0.11368683772E-12  0.17120000000E+03  0.17120000000E+03 0.  0.
         13    1    1    2    0    0  0.10754519048E+02  0.35086698820E+02  0.12090764535E+03  0.12635428755E+03  0.10566000000E+00 0.  1.
        994    1    1    2    0    0 -0.55588856571E+01 -0.27688349613E+02  0.80114085440E+01  0.17369849908E+03  0.17120000000E+03 0.  0.
        998    1    1    2    0    0 -0.51956333910E+01 -0.73983492062E+01  0.13710809424E+04  0.13711472134E+04  0.10000000000E+02 0.  1.
</event>
<event>
 5    1  0.1364103E-008  0.3804448E+03  0.7957747E-01  0.3449224E+00
         13   -1    0    0    0    0  0.00000000000E+00  0.00000000000E+00  0.14999999963E+04  0.15000000000E+04  0.10566000000E+00 0. -1.
        994   -1    0    0    0    0 -0.00000000000E+00 -0.00000000000E+00  0.11368683772E-12  0.17120000000E+03  0.17120000000E+03 0.  0.
         13    1    1    2    0    0 -0.15080068223E+02  0.32995990314E+01  0.29026601525E+02  0.32876291937E+02  0.10566000000E+00 0. -1.
        994    1    1    2    0    0  0.10156288587E+02  0.16430688576E+01  0.42621825953E+01  0.17156181415E+03  0.17120000000E+03 0.  0.
        998    1    1    2    0    0  0.49237796362E+01 -0.49426678890E+01  0.14667112122E+04  0.14667618939E+04  0.10000000000E+02 0. -1.
</event>
<event>
 5    1  0.1364103E-008  0.3834861E+03  0.7957747E-01  0.3436118E+00
         13   -1    0    0    0    0  0.00000000000E+00  0.00000000000E+00  0.14999999963E+04  0.15000000000E+04  0.10566000000E+00 0.  1.
        994   -1    0    0    0    0 -0.00000000000E+00 -0.00000000000E+00  0.11368683772E-12  0.17120000000E+03  0.17120000000E+03 0.  0.
         13    1    1    2    0    0 -0.15409819474E+02  0.14302025294E+02  0.89752040365E+02  0.92181616266E+02  0.10566000000E+00 0.  1.
        994    1    1    2    0    0  0.14774100191E+02 -0.96940666979E+01  0.34162298792E+01  0.17214342739E+03  0.17120000000E+03 0.  0.
        998    1    1    2    0    0  0.63571928349E+00 -0.46079585964E+01  0.14068317260E+04  0.14068749563E+04  0.10000000000E+02 0.  1.
</event>
<event>
 5    1  0.1364103E-008  0.3848842E+03  0.7957747E-01  0.3430164E+00
         13   -1    0    0    0    0  0.00000000000E+00  0.00000000000E+00  0.14999999963E+04  0.15000000000E+04  0.10566000000E+00 0. -1.
        994   -1    0    0    0    0 -0.00000000000E+00 -0.00000000000E+00  0.11368683772E-12  0.17120000000E+03  0.17120000000E+03 0.  0.
         13    1    1    2    0    0 -0.36172174081E+02  0.55887346679E+00  0.26375310093E+02  0.44770600440E+02  0.10566000000E+00 0. -1.
        994    1    1    2    0    0  0.33229021623E+02  0.36342089150E+02  0.28038153203E+02  0.18033439316E+03  0.17120000000E+03 0.  0.
        998    1    1    2    0    0  0.29431524575E+01 -0.36900962617E+02  0.14455865330E+04  0.14460950064E+04  0.10000000000E+02 0. -1.
</event>
<event>
 5    1  0.1364103E-008  0.3849064E+03  0.7957747E-01  0.3430069E+00
         13   -1    0    0    0    0  0.00000000000E+00  0.00000000000E+00  0.14999999963E+04  0.15000000000E+04  0.10566000000E+00 0. -1.
        994   -1    0    0    0    0 -0.00000000000E+00 -0.00000000000E+00  0.11368683772E-12  0.17120000000E+03  0.17120000000E+03 0.  0.
         13    1    1    2    0    0  0.12906096159E+02  0.10614886025E+02  0.84594950121E+02  0.86229692527E+02  0.10566000000E+00 0. -1.
        994    1    1    2    0    0 -0.13200134528E+02  0.22713190767E+01  0.22670220364E+01  0.17173811991E+03  0.17120000000E+03 0.  0.
        998    1    1    2    0    0  0.29403836941E+00 -0.12886205101E+02  0.14131380241E+04  0.14132321876E+04  0.10000000000E+02 0. -1.
</event>
<event>
 5    1  0.1364103E-008  0.3751826E+03  0.7957747E-01  0.3472407E+00
         13   -1    0    0    0    0  0.00000000000E+00  0.00000000000E+00  0.14999999963E+04  0.15000000000E+04  0.10566000000E+00 0.  1.
        994   -1    0    0    0    0 -0.00000000000E+00 -0.00000000000E+00  0.11368683772E-12  0.17120000000E+03  0.17120000000E+03 0.  0.
         13    1    1    2    0    0 -0.14816712833E+02  0.92082796989E+01  0.20153525347E+02  0.26655264811E+02  0.10566000000E+00 0.  1.
        994    1    1    2    0    0  0.11411907331E+02 -0.10196031821E+02  0.73809705593E+01  0.17204101087E+03  0.17120000000E+03 0.  0.
        998    1    1    2    0    0  0.34048055025E+01  0.98775212230E+00  0.14724655004E+04  0.14725037243E+04  0.10000000000E+02 0.  1.
</event>
<event>
 5    1  0.1398904E-008  0.3860029E+03  0.7957747E-01  0.3425430E+00
         13   -1    0    0    0    0  0.00000000000E+00  0.00000000000E+00  0.14999999963E+04  0.15000000000E+04  0.10566000000E+00 0.  1.
        994   -1    0    0    0    0 -0.00000000000E+00 -0.00000000000E+00  0.11368683772E-12  0.17120000000E+03  0.17120000000E+03 0.  0.
         13    1    1    2    0    0 -0.48139626726E+01  0.94217134480E+01  0.51240340865E+02  0.52321378202E+02  0.10566000000E+00 0.  1.
        994    1    1    2    0    0  0.72926717659E+01 -0.18613548066E+00  0.13075054279E+01  0.17136034337E+03  0.17120000000E+03 0.  0.
        998    1    1    2    0    0 -0.24787090933E+01 -0.92355779673E+01  0.14474521500E+04  0.14475182784E+04  0.10000000000E+02 0.  1.
</event>
<event>
 5    1  0.1971186E-008  0.3863183E+03  0.7957747E-01  0.3424100E+00
         13   -1    0    0    0    0  0.00000000000E+00  0.00000000000E+00  0.14999999963E+04  0.15000000000E+04  0.10566000000E+00 0.  1.
        994   -1    0    0    0    0 -0.00000000000E+00 -0.00000000000E+00  0.11368683772E-12  0.17120000000E+03  0.17120000000E+03 0.  0.
         13    1    1    2    0    0 -0.11122706113E+02  0.62367862183E+00  0.57981385023E+02  0.59041982855E+02  0.10566000000E+00 0.  1.
        994    1    1    2    0    0  0.22107021462E+02  0.21243470903E+01  0.25938551766E+01  0.17265399310E+03  0.17120000000E+03 0.  0.
        998    1    1    2    0    0 -0.10984315349E+02 -0.27480257121E+01  0.14394247561E+04  0.14395040240E+04  0.10000000000E+02 0.  1.
</event>
<event>
 5    1  0.1364103E-008  0.3836468E+03  0.7957747E-01  0.3435432E+00
         13   -1    0    0    0    0  0.00000000000E+00  0.00000000000E+00  0.14999999963E+04  0.15000000000E+04  0.10566000000E+00 0. -1.
        994   -1    0    0    0    0 -0.00000000000E+00 -0.00000000000E+00  0.11368683772E-12  0.17120000000E+03  0.17120000000E+03 0.  0.
         13    1    1    2    0    0 -0.11723151993E+02 -0.63080403290E+01  0.36525121904E+02  0.38875691114E+02  0.10566000000E+00 0. -1.
        994    1    1    2    0    0  0.16591777676E+02  0.58983642340E+01  0.33283822605E+01  0.17213539995E+03  0.17120000000E+03 0.  0.
        998    1    1    2    0    0 -0.48686256831E+01  0.40967609492E+00  0.14601464921E+04  0.14601889089E+04  0.10000000000E+02 0. -1.
</event>
<event>
 5    1  0.1364103E-008  0.3833175E+03  0.7957747E-01  0.3436840E+00
         13   -1    0    0    0    0  0.00000000000E+00  0.00000000000E+00  0.14999999963E+04  0.15000000000E+04  0.10566000000E+00 0. -1.
        994   -1    0    0    0    0 -0.00000000000E+00 -0.00000000000E+00  0.11368683772E-12  0.17120000000E+03  0.17120000000E+03 0.  0.
         13    1    1    2    0    0 -0.63094695715E+01  0.19848983971E+02  0.97067701607E+02  0.99277094187E+02  0.10566000000E+00 0. -1.
        994    1    1    2    0    0  0.11638981793E+01  0.38807909202E+01  0.25220793480E+01  0.17126650601E+03  0.17120000000E+03 0.  0.
        998    1    1    2    0    0  0.51455713922E+01 -0.23729774891E+02  0.14004102153E+04  0.14006563998E+04  0.10000000000E+02 0. -1.
</event>
<event>
 5    1  0.1364103E-008  0.3780862E+03  0.7957747E-01  0.3459534E+00
         13   -1    0    0    0    0  0.00000000000E+00  0.00000000000E+00  0.14999999963E+04  0.15000000000E+04  0.10566000000E+00 0.  1.
        994   -1    0    0    0    0 -0.00000000000E+00 -0.00000000000E+00  0.11368683772E-12  0.17120000000E+03  0.17120000000E+03 0.  0.
         13    1    1    2    0    0 -0.90677606546E+02  0.46420540970E+02  0.45861246702E+03  0.46979006058E+03  0.10566000000E+00 0.  1.
        994    1    1    2    0    0  0.12309911586E+03 -0.62783093438E+02  0.72292544184E+02  0.23158316237E+03  0.17120000000E+03 0.  0.
        998    1    1    2    0    0 -0.32421509311E+02  0.16362552468E+02  0.96909498508E+03  0.96982677706E+03  0.10000000000E+02 0.  1.
</event>
<event>
 5    1  0.1364103E-008  0.3719690E+03  0.7957747E-01  0.3486890E+00
         13   -1    0    0    0    0  0.00000000000E+00  0.00000000000E+00  0.14999999963E+04  0.15000000000E+04  0.10566000000E+00 0. -1.
        994   -1    0    0    0    0 -0.00000000000E+00 -0.00000000000E+00  0.11368683772E-12  0.17120000000E+03  0.17120000000E+03 0.  0.
         13    1    1    2    0    0 -0.87405925028E+02 -0.27575286337E+01  0.46824489902E+03  0.47634094545E+03  0.10566000000E+00 0. -1.
        994    1    1    2    0    0  0.37269759992E+01  0.27307059852E+01  0.12058966963E+02  0.17168635878E+03  0.17120000000E+03 0.  0.
        998    1    1    2    0    0  0.83678949029E+02  0.26822648465E-01  0.10196961303E+04  0.10231726958E+04  0.10000000000E+02 0. -1.
</event>
<event>
 5    1  0.1364103E-008  0.2801537E+03  0.7957747E-01  0.4048753E+00
         13   -1    0    0    0    0  0.00000000000E+00  0.00000000000E+00  0.14999999963E+04  0.15000000000E+04  0.10566000000E+00 0.  1.
        994   -1    0    0    0    0 -0.00000000000E+00 -0.00000000000E+00  0.11368683772E-12  0.17120000000E+03  0.17120000000E+03 0.  0.
         13    1    1    2    0    0 -0.25860018686E+02 -0.11399805799E+03  0.68615068429E+03  0.69603668762E+03  0.10566000000E+00 0.  1.
        994    1    1    2    0    0  0.43988667451E+01  0.22803026627E+02  0.17940232060E+02  0.17369691989E+03  0.17120000000E+03 0.  0.
        998    1    1    2    0    0  0.21461151941E+02  0.91195031363E+02  0.79590907993E+03  0.80146639249E+03  0.10000000000E+02 0.  1.
</event>
<event>
 5    1  0.1364103E-008  0.3796711E+03  0.7957747E-01  0.3452592E+00
         13   -1    0    0    0    0  0.00000000000E+00  0.00000000000E+00  0.14999999963E+04  0.15000000000E+04  0.10566000000E+00 0.  1.
        994   -1    0    0    0    0 -0.00000000000E+00 -0.00000000000E+00  0.11368683772E-12  0.17120000000E+03  0.17120000000E+03 0.  0.
         13    1    1    2    0    0  0.10005642056E+02 -0.14816736885E+02  0.36998850624E+02  0.41092270276E+02  0.10566000000E+00 0.  1.
        994    1    1    2    0    0  0.28613109346E+01  0.11384253558E+01  0.43310271700E+01  0.17128245943E+03  0.17120000000E+03 0.  0.
        998    1    1    2    0    0 -0.12866952990E+02  0.13678311529E+02  0.14586701185E+04  0.14588252703E+04  0.10000000000E+02 0.  1.
</event>
<event>
 5    1  0.2143319E-008  0.3863179E+03  0.7957747E-01  0.3424102E+00
         13   -1    0    0    0    0  0.00000000000E+00  0.00000000000E+00  0.14999999963E+04  0.15000000000E+04  0.10566000000E+00 0. -1.
        994   -1    0    0    0    0 -0.00000000000E+00 -0.00000000000E+00  0.11368683772E-12  0.17120000000E+03  0.17120000000E+03 0.  0.
         13    1    1    2    0    0  0.21739845322E+01  0.10079484183E+02  0.52370975100E+02  0.53376515502E+02  0.10566000000E+00 0. -1.
        994    1    1    2    0    0 -0.53570391548E+01 -0.13859871687E+02  0.17006081674E+01  0.17185204677E+03  0.17120000000E+03 0.  0.
        998    1    1    2    0    0  0.31830546226E+01  0.37803875039E+01  0.14459284130E+04  0.14459714377E+04  0.10000000000E+02 0. -1.
</event>
<event>
 5    1  0.1406982E-008  0.3858814E+03  0.7957747E-01  0.3425943E+00
         13   -1    0    0    0    0  0.00000000000E+00  0.00000000000E+00  0.14999999963E+04  0.15000000000E+04  0.10566000000E+00 0. -1.
        994   -1    0    0    0    0 -0.00000000000E+00 -0.00000000000E+00  0.11368683772E-12  0.17120000000E+03  0.17120000000E+03 0.  0.
         13    1    1    2    0    0 -0.16761781239E+02  0.63552069745E+01  0.10476781535E+03  0.10629041472E+03  0.10566000000E+00 0. -1.
        994    1    1    2    0    0  0.27880406934E+02 -0.47569681761E+02  0.11226965640E+02  0.18021008981E+03  0.17120000000E+03 0.  0.
        998    1    1    2    0    0 -0.11118625695E+02  0.41214474786E+02  0.13840052153E+04  0.13846994955E+04  0.10000000000E+02 0. -1.
</event>
<event>
 5    1  0.1364103E-008  0.3815084E+03  0.7957747E-01  0.3444617E+00
         13   -1    0    0    0    0  0.00000000000E+00  0.00000000000E+00  0.14999999963E+04  0.15000000000E+04  0.10566000000E+00 0. -1.
        994   -1    0    0    0    0 -0.00000000000E+00 -0.00000000000E+00  0.11368683772E-12  0.17120000000E+03  0.17120000000E+03 0.  0.
         13    1    1    2    0    0 -0.19385732812E+02 -0.24125704137E+02  0.12326309830E+03  0.12708917658E+03  0.10566000000E+00 0. -1.
        994    1    1    2    0    0  0.12912380611E+02  0.41605975596E+02  0.97121779050E+01  0.17692244962E+03  0.17120000000E+03 0.  0.
        998    1    1    2    0    0  0.64733522009E+01 -0.17480271460E+02  0.13670247201E+04  0.13671883738E+04  0.10000000000E+02 0. -1.
</event>
<event>
 5    1  0.1364103E-008  0.3819300E+03  0.7957747E-01  0.3442797E+00
         13   -1    0    0    0    0  0.00000000000E+00  0.00000000000E+00  0.14999999963E+04  0.15000000000E+04  0.10566000000E+00 0. -1.
        994   -1    0    0    0    0 -0.00000000000E+00 -0.00000000000E+00  0.11368683772E-12  0.17120000000E+03  0.17120000000E+03 0.  0.
         13    1    1    2    0    0  0.22486054376E+02  0.78037782367E+01  0.87003849948E+02  0.90200901691E+02  0.10566000000E+00 0. -1.
        994    1    1    2    0    0 -0.14348942597E+02 -0.13993496184E+02  0.44975422299E+01  0.17242789210E+03  0.17120000000E+03 0.  0.
        998    1    1    2    0    0 -0.81371117793E+01  0.61897179468E+01  0.14084986041E+04  0.14085712062E+04  0.10000000000E+02 0. -1.
</event>
<event>
 5    1  0.1364103E-008  0.3746452E+03  0.7957747E-01  0.3474811E+00
         13   -1    0    0    0    0  0.00000000000E+00  0.00000000000E+00  0.14999999963E+04  0.15000000000E+04  0.10566000000E+00 0. -1.
        994   -1    0    0    0    0 -0.00000000000E+00 -0.00000000000E+00  0.11368683772E-12  0.17120000000E+03  0.17120000000E+03 0.  0.
         13    1    1    2    0    0 -0.31334094495E+02  0.34124121148E+02  0.13616241732E+03  0.14382800901E+03  0.10566000000E+00 0. -1.
        994    1    1    2    0    0  0.37735790767E+02 -0.37728266790E+02  0.16614036004E+02  0.18009130521E+03  0.17120000000E+03 0.  0.
        998    1    1    2    0    0 -0.64016962717E+01  0.36041456419E+01  0.13472235430E+04  0.13472806858E+04  0.10000000000E+02 0. -1.
</event>
<event>
 5    1  0.1364103E-008  0.3857998E+03  0.7957747E-01  0.3426287E+00
         13   -1    0    0    0    0  0.00000000000E+00  0.00000000000E+00  0.14999999963E+04  0.15000000000E+04  0.10566000000E+00 0.  1.
        994   -1    0    0    0    0 -0.00000000000E+00 -0.00000000000E+00  0.11368683772E-12  0.17120000000E+03  0.17120000000E+03 0.  0.
         13    1    1    2    0    0  0.34264137076E+00 -0.11470382584E+02  0.53549336788E+02  0.54765223584E+02  0.10566000000E+00 0.  1.
        994    1    1    2    0    0  0.21975903309E+01  0.85962823617E+01  0.14918362546E+01  0.17143625944E+03  0.17120000000E+03 0.  0.
        998    1    1    2    0    0 -0.25402317016E+01  0.28741002226E+01  0.14449588232E+04  0.14449985170E+04  0.10000000000E+02 0.  1.
</event>
<event>
 5    1  0.1364103E-008  0.3857254E+03  0.7957747E-01  0.3426602E+00
         13   -1    0    0    0    0  0.00000000000E+00  0.00000000000E+00  0.14999999963E+04  0.15000000000E+04  0.10566000000E+00 0.  1.
        994   -1    0    0    0    0 -0.00000000000E+00 -0.00000000000E+00  0.11368683772E-12  0.17120000000E+03  0.17120000000E+03 0.  0.
         13    1    1    2    0    0  0.13770505712E+02 -0.62133887773E+01  0.87625553407E+02  0.88918399680E+02  0.10566000000E+00 0.  1.
        994    1    1    2    0    0 -0.11687188030E+02  0.74665105528E+01  0.19017336350E+01  0.17177134725E+03  0.17120000000E+03 0.  0.
        998    1    1    2    0    0 -0.20833176822E+01 -0.12531217755E+01  0.14104727092E+04  0.14105102531E+04  0.10000000000E+02 0.  0.
</event>
<event>
 5    1  0.1364103E-008  0.3832210E+03  0.7957747E-01  0.3437252E+00
         13   -1    0    0    0    0  0.00000000000E+00  0.00000000000E+00  0.14999999963E+04  0.15000000000E+04  0.10566000000E+00 0. -1.
        994   -1    0    0    0    0 -0.00000000000E+00 -0.00000000000E+00  0.11368683772E-12  0.17120000000E+03  0.17120000000E+03 0.  0.
         13    1    1    2    0    0  0.28956029069E+01 -0.11699182617E+02  0.27629658919E+02  0.30144064194E+02  0.10566000000E+00 0. -1.
        994    1    1    2    0    0 -0.37775270429E+00  0.12539353502E+02  0.30367025499E+01  0.17168587492E+03  0.17120000000E+03 0.  0.
        998    1    1    2    0    0 -0.25178502026E+01 -0.84017088505E+00  0.14693336348E+04  0.14693700609E+04  0.10000000000E+02 0. -1.
</event>
<event>
 5    1  0.1364103E-008  0.3830227E+03  0.7957747E-01  0.3438102E+00
         13   -1    0    0    0    0  0.00000000000E+00  0.00000000000E+00  0.14999999963E+04  0.15000000000E+04  0.10566000000E+00 0.  1.
        994   -1    0    0    0    0 -0.00000000000E+00 -0.00000000000E+00  0.11368683772E-12  0.17120000000E+03  0.17120000000E+03 0.  0.
         13    1    1    2    0    0 -0.15451959180E+02 -0.89193016191E+02  0.52351060551E+03  0.53127913796E+03  0.10566000000E+00 0.  1.
        994    1    1    2    0    0  0.63182090299E+01  0.13438705986E+03  0.65028688093E+02  0.22723989944E+03  0.17120000000E+03 0.  0.
        998    1    1    2    0    0  0.91337501499E+01 -0.45194043672E+02  0.91146070267E+03  0.91268096260E+03  0.10000000000E+02 0.  1.
</event>
<event>
 5    1  0.1364103E-008  0.3826542E+03  0.7957747E-01  0.3439682E+00
         13   -1    0    0    0    0  0.00000000000E+00  0.00000000000E+00  0.14999999963E+04  0.15000000000E+04  0.10566000000E+00 0. -1.
        994   -1    0    0    0    0 -0.00000000000E+00 -0.00000000000E+00  0.11368683772E-12  0.17120000000E+03  0.17120000000E+03 0.  0.
         13    1    1    2    0    0 -0.18662615250E+02  0.18289586570E+02  0.10547244256E+03  0.10866116826E+03  0.10566000000E+00 0. -1.
        994    1    1    2    0    0  0.15948600295E+02 -0.39068262978E+02  0.87227764252E+01  0.17653955322E+03  0.17120000000E+03 0.  0.
        998    1    1    2    0    0  0.27140149542E+01  0.20778676407E+02  0.13858047773E+04  0.13859992785E+04  0.10000000000E+02 0. -1.
</event>
<event>
 5    1  0.1364103E-008  0.3814540E+03  0.7957747E-01  0.3444852E+00
         13   -1    0    0    0    0  0.00000000000E+00  0.00000000000E+00  0.14999999963E+04  0.15000000000E+04  0.10566000000E+00 0.  1.
        994   -1    0    0    0    0 -0.00000000000E+00 -0.00000000000E+00  0.11368683772E-12  0.17120000000E+03  0.17120000000E+03 0.  0.
         13    1    1    2    0    0 -0.13174715172E+02 -0.28309625506E+03  0.96951868554E+03  0.10100908650E+04  0.10566000000E+00 0.  1.
        994    1    1    2    0    0 -0.49634503415E+01  0.29380280616E+03  0.38466565005E+03  0.51344116223E+03  0.17120000000E+03 0.  0.
        998    1    1    2    0    0  0.18138165514E+02 -0.10706551091E+02  0.14581566069E+03  0.14766797278E+03  0.10000000000E+02 0.  1.
</event>
<event>
 5    1  0.1364103E-008  0.3818849E+03  0.7957747E-01  0.3442992E+00
         13   -1    0    0    0    0  0.00000000000E+00  0.00000000000E+00  0.14999999963E+04  0.15000000000E+04  0.10566000000E+00 0. -1.
        994   -1    0    0    0    0 -0.00000000000E+00 -0.00000000000E+00  0.11368683772E-12  0.17120000000E+03  0.17120000000E+03 0.  0.
         13    1    1    2    0    0  0.23032154055E+02 -0.89095872477E+01  0.10502422142E+03  0.10788864219E+03  0.10566000000E+00 0. -1.
        994    1    1    2    0    0  0.13809431641E+02  0.34314401445E+02  0.77434494239E+01  0.17532136081E+03  0.17120000000E+03 0.  0.
        998    1    1    2    0    0 -0.36841585696E+02 -0.25404814197E+02  0.13872323254E+04  0.13879899970E+04  0.10000000000E+02 0. -1.
</event>
<event>
 5    1  0.1364103E-008  0.3795923E+03  0.7957747E-01  0.3452936E+00
         13   -1    0    0    0    0  0.00000000000E+00  0.00000000000E+00  0.14999999963E+04  0.15000000000E+04  0.10566000000E+00 0.  1.
        994   -1    0    0    0    0 -0.00000000000E+00 -0.00000000000E+00  0.11368683772E-12  0.17120000000E+03  0.17120000000E+03 0.  0.
         13    1    1    2    0    0  0.26082599490E+02  0.74271416726E+01  0.88034009409E+02  0.92116569662E+02  0.10566000000E+00 0.  1.
        994    1    1    2    0    0 -0.61077160700E+01  0.32951318205E+01  0.45003433061E+01  0.17139969422E+03  0.17120000000E+03 0.  0.
        998    1    1    2    0    0 -0.19974883420E+02 -0.10722273493E+02  0.14074656436E+04  0.14076837361E+04  0.10000000000E+02 0.  1.
</event>
<event>
 5    1  0.1364103E-008  0.3812703E+03  0.7957747E-01  0.3445646E+00
         13   -1    0    0    0    0  0.00000000000E+00  0.00000000000E+00  0.14999999963E+04  0.15000000000E+04  0.10566000000E+00 0.  1.
        994   -1    0    0    0    0 -0.00000000000E+00 -0.00000000000E+00  0.11368683772E-12  0.17120000000E+03  0.17120000000E+03 0.  0.
         13    1    1    2    0    0 -0.16125263343E+02 -0.13678088818E+02  0.72851950777E+02  0.75858632519E+02  0.10566000000E+00 0.  1.
        994    1    1    2    0    0 -0.16211342394E+02 -0.74662453299E+01  0.45544506781E+01  0.17218808165E+03  0.17120000000E+03 0.  0.
        998    1    1    2    0    0  0.32336605736E+02  0.21144334148E+02  0.14225935948E+04  0.14231532858E+04  0.10000000000E+02 0.  1.
</event>
<event>
 5    1  0.1364103E-008  0.3836897E+03  0.7957747E-01  0.3435248E+00
         13   -1    0    0    0    0  0.00000000000E+00  0.00000000000E+00  0.14999999963E+04  0.15000000000E+04  0.10566000000E+00 0.  1.
        994   -1    0    0    0    0 -0.00000000000E+00 -0.00000000000E+00  0.11368683772E-12  0.17120000000E+03  0.17120000000E+03 0.  0.
         13    1    1    2    0    0 -0.13772178472E+02 -0.22048448364E+02  0.12617796036E+03  0.12882816392E+03  0.10566000000E+00 0.  1.
        994    1    1    2    0    0  0.39303040459E+02  0.19969158155E+02  0.87274243333E+01  0.17700029436E+03  0.17120000000E+03 0.  0.
        998    1    1    2    0    0 -0.25530861987E+02  0.20792902089E+01  0.13650946116E+04  0.13653715417E+04  0.10000000000E+02 0.  1.
</event>
<event>
 5    1  0.1364103E-008  0.3731019E+03  0.7957747E-01  0.3481755E+00
         13   -1    0    0    0    0  0.00000000000E+00  0.00000000000E+00  0.14999999963E+04  0.15000000000E+04  0.10566000000E+00 0.  1.
        994   -1    0    0    0    0 -0.00000000000E+00 -0.00000000000E+00  0.11368683772E-12  0.17120000000E+03  0.17120000000E+03 0.  0.
         13    1    1    2    0    0  0.40544966558E+01 -0.49286193527E+02  0.23730594236E+03  0.24240397946E+03  0.10566000000E+00 0.  1.
        994    1    1    2    0    0  0.54075783784E+02 -0.25635158005E+02  0.20009719498E+02  0.18245870928E+03  0.17120000000E+03 0.  0.
        998    1    1    2    0    0 -0.58130280440E+02  0.74921351532E+02  0.12426843344E+04  0.12463373113E+04  0.10000000000E+02 0.  1.
</event>
<event>
 5    1  0.1364103E-008  0.3809055E+03  0.7957747E-01  0.3447225E+00
         13   -1    0    0    0    0  0.00000000000E+00  0.00000000000E+00  0.14999999963E+04  0.15000000000E+04  0.10566000000E+00 0.  1.
        994   -1    0    0    0    0 -0.00000000000E+00 -0.00000000000E+00  0.11368683772E-12  0.17120000000E+03  0.17120000000E+03 0.  0.
         13    1    1    2    0    0  0.22769008937E+01  0.10375225990E+02  0.13943475404E+02  0.17528869399E+02  0.10566000000E+00 0.  1.
        994    1    1    2    0    0  0.13999589782E-01 -0.28436348044E+01  0.37036904710E+01  0.17126366742E+03  0.17120000000E+03 0.  0.
        998    1    1    2    0    0 -0.22909004835E+01 -0.75315911858E+01  0.14823528304E+04  0.14824074632E+04  0.10000000000E+02 0.  1.
</event>
<event>
 5    1  0.1364103E-008  0.3843256E+03  0.7957747E-01  0.3432537E+00
         13   -1    0    0    0    0  0.00000000000E+00  0.00000000000E+00  0.14999999963E+04  0.15000000000E+04  0.10566000000E+00 0. -1.
        994   -1    0    0    0    0 -0.00000000000E+00 -0.00000000000E+00  0.11368683772E-12  0.17120000000E+03  0.17120000000E+03 0.  0.
         13    1    1    2    0    0  0.19314256368E+02 -0.86527030279E+01  0.10784681257E+03  0.10990384850E+03  0.10566000000E+00 0. -1.
        994    1    1    2    0    0 -0.22476548548E+02 -0.19422306268E+00  0.36322842110E+01  0.17270745915E+03  0.17120000000E+03 0.  0.
        998    1    1    2    0    0  0.31622921803E+01  0.88469260906E+01  0.13885208995E+04  0.13885886924E+04  0.10000000000E+02 0. -1.
</event>
<event>
 5    1  0.1364103E-008  0.3774715E+03  0.7957747E-01  0.3462243E+00
         13   -1    0    0    0    0  0.00000000000E+00  0.00000000000E+00  0.14999999963E+04  0.15000000000E+04  0.10566000000E+00 0. -1.
        994   -1    0    0    0    0 -0.00000000000E+00 -0.00000000000E+00  0.11368683772E-12  0.17120000000E+03  0.17120000000E+03 0.  0.
         13    1    1    2    0    0  0.17864460807E+02  0.46604066225E+02  0.20004091520E+03  0.20617336605E+03  0.10566000000E+00 0. -1.
        994    1    1    2    0    0 -0.16023692027E+02 -0.46603826278E+02  0.13646475901E+02  0.17867384149E+03  0.17120000000E+03 0.  0.
        998    1    1    2    0    0 -0.18407687795E+01 -0.23994684686E-03  0.12863126052E+04  0.12863527925E+04  0.10000000000E+02 0.  0.
</event>
<event>
 5    1  0.1364103E-008  0.3857039E+03  0.7957747E-01  0.3426692E+00
         13   -1    0    0    0    0  0.00000000000E+00  0.00000000000E+00  0.14999999963E+04  0.15000000000E+04  0.10566000000E+00 0.  1.
        994   -1    0    0    0    0 -0.00000000000E+00 -0.00000000000E+00  0.11368683772E-12  0.17120000000E+03  0.17120000000E+03 0.  0.
         13    1    1    2    0    0 -0.58553450080E+01 -0.13417781582E+02  0.84878838453E+02  0.86132167678E+02  0.10566000000E+00 0.  1.
        994    1    1    2    0    0  0.89973501821E+01  0.55764809595E+01  0.16487996464E+01  0.17153485940E+03  0.17120000000E+03 0.  0.
        998    1    1    2    0    0 -0.31420051742E+01  0.78413006224E+01  0.14134723582E+04  0.14135329729E+04  0.10000000000E+02 0.  1.
</event>
<event>
 5    1  0.1364103E-008  0.3776820E+03  0.7957747E-01  0.3461314E+00
         13   -1    0    0    0    0  0.00000000000E+00  0.00000000000E+00  0.14999999963E+04  0.15000000000E+04  0.10566000000E+00 0. -1.
        994   -1    0    0    0    0 -0.00000000000E+00 -0.00000000000E+00  0.11368683772E-12  0.17120000000E+03  0.17120000000E+03 0.  0.
         13    1    1    2    0    0 -0.23443876782E+00 -0.11893059542E+02  0.11005967684E+02  0.16206243102E+02  0.10566000000E+00 0. -1.
        994    1    1    2    0    0  0.61457509986E+01  0.67885932765E+01  0.55903870740E+01  0.17153584955E+03  0.17120000000E+03 0.  0.
        998    1    1    2    0    0 -0.59113122308E+01  0.51044662652E+01  0.14834036415E+04  0.14834579073E+04  0.10000000000E+02 0. -1.
</event>
<event>
 5    1  0.1364103E-008  0.3840567E+03  0.7957747E-01  0.3433683E+00
         13   -1    0    0    0    0  0.00000000000E+00  0.00000000000E+00  0.14999999963E+04  0.15000000000E+04  0.10566000000E+00 0. -1.
        994   -1    0    0    0    0 -0.00000000000E+00 -0.00000000000E+00  0.11368683772E-12  0.17120000000E+03  0.17120000000E+03 0.  0.
         13    1    1    2    0    0  0.15517312773E+02 -0.43072514556E+01  0.63348326180E+02  0.65363300136E+02  0.10566000000E+00 0. -1.
        994    1    1    2    0    0 -0.68507291335E+01 -0.64103606340E+01  0.23895972612E+01  0.17147354136E+03  0.17120000000E+03 0.  0.
        998    1    1    2    0    0 -0.86665836390E+01  0.10717612090E+02  0.14342620728E+04  0.14343631585E+04  0.10000000000E+02 0. -1.
</event>
<event>
 5    1  0.1364103E-008  0.3855032E+03  0.7957747E-01  0.3427541E+00
         13   -1    0    0    0    0  0.00000000000E+00  0.00000000000E+00  0.14999999963E+04  0.15000000000E+04  0.10566000000E+00 0.  1.
        994   -1    0    0    0    0 -0.00000000000E+00 -0.00000000000E+00  0.11368683772E-12  0.17120000000E+03  0.17120000000E+03 0.  0.
         13    1    1    2    0    0 -0.91421174969E+01  0.70818873141E+01  0.54098444539E+02  0.55320740286E+02  0.10566000000E+00 0.  1.
        994    1    1    2    0    0 -0.43637318121E+01  0.88068715835E+01  0.16977624926E+01  0.17149030742E+03  0.17120000000E+03 0.  0.
        998    1    1    2    0    0  0.13505849309E+02 -0.15888758898E+02  0.14442037892E+04  0.14443889523E+04  0.10000000000E+02 0.  1.
</event>
<event>
 5    1  0.1364103E-008  0.3836638E+03  0.7957747E-01  0.3435359E+00
         13   -1    0    0    0    0  0.00000000000E+00  0.00000000000E+00  0.14999999963E+04  0.15000000000E+04  0.10566000000E+00 0. -1.
        994   -1    0    0    0    0 -0.00000000000E+00 -0.00000000000E+00  0.11368683772E-12  0.17120000000E+03  0.17120000000E+03 0.  0.
         13    1    1    2    0    0  0.10624563124E+02  0.13584117162E+02  0.64692353202E+02  0.66951634091E+02  0.10566000000E+00 0. -1.
        994    1    1    2    0    0 -0.47598792132E+01 -0.88731590966E+01  0.26299473696E+01  0.17151602265E+03  0.17120000000E+03 0.  0.
        998    1    1    2    0    0 -0.58646839111E+01 -0.47109580655E+01  0.14326776957E+04  0.14327323433E+04  0.10000000000E+02 0. -1.
</event>
<event>
 5    1  0.1364103E-008  0.3826381E+03  0.7957747E-01  0.3439751E+00
         13   -1    0    0    0    0  0.00000000000E+00  0.00000000000E+00  0.14999999963E+04  0.15000000000E+04  0.10566000000E+00 0.  1.
        994   -1    0    0    0    0 -0.00000000000E+00 -0.00000000000E+00  0.11368683772E-12  0.17120000000E+03  0.17120000000E+03 0.  0.
         13    1    1    2    0    0  0.12583725532E+02  0.10760532145E+02  0.46741625518E+02  0.49587598454E+02  0.10566000000E+00 0.  1.
        994    1    1    2    0    0 -0.11360039879E+02 -0.12610103350E+02  0.37625541568E+01  0.17208039408E+03  0.17120000000E+03 0.  0.
        998    1    1    2    0    0 -0.12236856533E+01  0.18495712052E+01  0.14494958166E+04  0.14495320075E+04  0.10000000000E+02 0.  1.
</event>
<event>
 5    1  0.1364103E-008  0.3856445E+03  0.7957747E-01  0.3426943E+00
         13   -1    0    0    0    0  0.00000000000E+00  0.00000000000E+00  0.14999999963E+04  0.15000000000E+04  0.10566000000E+00 0.  1.
        994   -1    0    0    0    0 -0.00000000000E+00 -0.00000000000E+00  0.11368683772E-12  0.17120000000E+03  0.17120000000E+03 0.  0.
         13    1    1    2    0    0  0.38451563432E+01 -0.12339048666E+02  0.62645614337E+02  0.63965002220E+02  0.10566000000E+00 0.  1.
        994    1    1    2    0    0  0.82451632301E+00  0.12929166679E+02  0.18615190594E+01  0.17169958774E+03  0.17120000000E+03 0.  0.
        998    1    1    2    0    0 -0.46696726662E+01 -0.59011801282E+00  0.14354928629E+04  0.14355354100E+04  0.10000000000E+02 0.  1.
</event>
<event>
 5    1  0.1364103E-008  0.3800888E+03  0.7957747E-01  0.3450772E+00
         13   -1    0    0    0    0  0.00000000000E+00  0.00000000000E+00  0.14999999963E+04  0.15000000000E+04  0.10566000000E+00 0. -1.
        994   -1    0    0    0    0 -0.00000000000E+00 -0.00000000000E+00  0.11368683772E-12  0.17120000000E+03  0.17120000000E+03 0.  0.
         13    1    1    2    0    0 -0.16930818597E+02  0.16120303404E+03  0.87724314588E+03  0.89209227043E+03  0.10566000000E+00 0. -1.
        994    1    1    2    0    0  0.30725502683E+02 -0.17160936200E+03  0.11342615011E+03  0.26938589638E+03  0.17120000000E+03 0.  0.
        998    1    1    2    0    0 -0.13794684086E+02  0.10406327960E+02  0.50933070029E+03  0.50972183319E+03  0.10000000000E+02 0. -1.
</event>
<event>
 5    1  0.1364103E-008  0.3707666E+03  0.7957747E-01  0.3492375E+00
         13   -1    0    0    0    0  0.00000000000E+00  0.00000000000E+00  0.14999999963E+04  0.15000000000E+04  0.10566000000E+00 0. -1.
        994   -1    0    0    0    0 -0.00000000000E+00 -0.00000000000E+00  0.11368683772E-12  0.17120000000E+03  0.17120000000E+03 0.  0.
         13    1    1    2    0    0  0.86654622220E+01 -0.25224398610E+02  0.28060391909E+02  0.38713786677E+02  0.10566000000E+00 0. -1.
        994    1    1    2    0    0  0.11136794064E+02  0.14961415939E+01  0.11787486581E+02  0.17197282187E+03  0.17120000000E+03 0.  0.
        998    1    1    2    0    0 -0.19802256286E+02  0.23728257016E+02  0.14601521178E+04  0.14605133915E+04  0.10000000000E+02 0. -1.
</event>
<event>
 5    1  0.1364103E-008  0.3837667E+03  0.7957747E-01  0.3434920E+00
         13   -1    0    0    0    0  0.00000000000E+00  0.00000000000E+00  0.14999999963E+04  0.15000000000E+04  0.10566000000E+00 0. -1.
        994   -1    0    0    0    0 -0.00000000000E+00 -0.00000000000E+00  0.11368683772E-12  0.17120000000E+03  0.17120000000E+03 0.  0.
         13    1    1    2    0    0 -0.23243582855E+02 -0.11561181498E+03  0.44494252498E+03  0.46030448359E+03  0.10566000000E+00 0. -1.
        994    1    1    2    0    0 -0.44542649985E+01  0.45033203435E+02  0.25974334606E+02  0.17897467962E+03  0.17120000000E+03 0.  0.
        998    1    1    2    0    0  0.27697847854E+02  0.70578611544E+02  0.10290831367E+04  0.10319208368E+04  0.10000000000E+02 0. -1.
</event>
<event>
 5    1  0.1364103E-008  0.3824737E+03  0.7957747E-01  0.3440458E+00
         13   -1    0    0    0    0  0.00000000000E+00  0.00000000000E+00  0.14999999963E+04  0.15000000000E+04  0.10566000000E+00 0. -1.
        994   -1    0    0    0    0 -0.00000000000E+00 -0.00000000000E+00  0.11368683772E-12  0.17120000000E+03  0.17120000000E+03 0.  0.
         13    1    1    2    0    0  0.28504262944E+02  0.22012197575E+01  0.12189035346E+03  0.12519827397E+03  0.10566000000E+00 0. -1.
        994    1    1    2    0    0 -0.37913489743E+02 -0.20913460809E+02  0.91311851743E+01  0.17682653672E+03  0.17120000000E+03 0.  0.
        998    1    1    2    0    0  0.94092267984E+01  0.18712241051E+02  0.13689784576E+04  0.13691751893E+04  0.10000000000E+02 0. -1.
</event>
<event>
 5    1  0.1364103E-008  0.3705153E+03  0.7957747E-01  0.3493526E+00
         13   -1    0    0    0    0  0.00000000000E+00  0.00000000000E+00  0.14999999963E+04  0.15000000000E+04  0.10566000000E+00 0. -1.
        994   -1    0    0    0    0 -0.00000000000E+00 -0.00000000000E+00  0.11368683772E-12  0.17120000000E+03  0.17120000000E+03 0.  0.
         13    1    1    2    0    0 -0.80744461542E+02 -0.44994310721E+01  0.38937290805E+03  0.39768226719E+03  0.10566000000E+00 0. -1.
        994    1    1    2    0    0  0.62327737832E+01  0.30903715927E+02  0.14700357971E+02  0.17469810432E+03  0.17120000000E+03 0.  0.
        998    1    1    2    0    0  0.74511687759E+02 -0.26404284855E+02  0.10959267303E+04  0.10988196285E+04  0.10000000000E+02 0. -1.
</event>
<event>
 5    1  0.1364103E-008  0.3777913E+03  0.7957747E-01  0.3460832E+00
         13   -1    0    0    0    0  0.00000000000E+00  0.00000000000E+00  0.14999999963E+04  0.15000000000E+04  0.10566000000E+00 0.  1.
        994   -1    0    0    0    0 -0.00000000000E+00 -0.00000000000E+00  0.11368683772E-12  0.17120000000E+03  0.17120000000E+03 0.  0.
         13    1    1    2    0    0  0.49937785444E+02  0.62002027052E+02  0.19907134836E+03  0.21440020214E+03  0.10566000000E+00 0.  1.
        994    1    1    2    0    0 -0.53639119898E+02 -0.28297562827E+02  0.28460327011E+02  0.18384052181E+03  0.17120000000E+03 0.  0.
        998    1    1    2    0    0  0.37013344539E+01 -0.33704464225E+02  0.12724683209E+04  0.12729592761E+04  0.10000000000E+02 0.  1.
</event>
<event>
 5    1  0.1364103E-008  0.3824408E+03  0.7957747E-01  0.3440599E+00
         13   -1    0    0    0    0  0.00000000000E+00  0.00000000000E+00  0.14999999963E+04  0.15000000000E+04  0.10566000000E+00 0. -1.
        994   -1    0    0    0    0 -0.00000000000E+00 -0.00000000000E+00  0.11368683772E-12  0.17120000000E+03  0.17120000000E+03 0.  0.
         13    1    1    2    0    0 -0.25618140808E+02  0.65290825546E+01  0.11515403185E+03  0.11814982130E+03  0.10566000000E+00 0. -1.
        994    1    1    2    0    0  0.20556444102E+02 -0.69090602661E+01  0.44672317875E+01  0.17262589223E+03  0.17120000000E+03 0.  0.
        998    1    1    2    0    0  0.50616967061E+01  0.37997771152E+00  0.13803787326E+04  0.13804242865E+04  0.10000000000E+02 0. -1.
</event>
<event>
 5    1  0.1364103E-008  0.3734106E+03  0.7957747E-01  0.3480362E+00
         13   -1    0    0    0    0  0.00000000000E+00  0.00000000000E+00  0.14999999963E+04  0.15000000000E+04  0.10566000000E+00 0. -1.
        994   -1    0    0    0    0 -0.00000000000E+00 -0.00000000000E+00  0.11368683772E-12  0.17120000000E+03  0.17120000000E+03 0.  0.
         13    1    1    2    0    0 -0.88145714243E+02 -0.15049605707E+03  0.10410548745E+04  0.10555633534E+04  0.10566000000E+00 0. -1.
        994    1    1    2    0    0  0.68914857361E+02  0.13245788811E+03  0.87988689423E+02  0.24360993238E+03  0.17120000000E+03 0.  0.
        998    1    1    2    0    0  0.19230856882E+02  0.18038168964E+02  0.37095643235E+03  0.37202671423E+03  0.10000000000E+02 0. -1.
</event>
<event>
 5    1  0.1364103E-008  0.3857057E+03  0.7957747E-01  0.3426685E+00
         13   -1    0    0    0    0  0.00000000000E+00  0.00000000000E+00  0.14999999963E+04  0.15000000000E+04  0.10566000000E+00 0.  1.
        994   -1    0    0    0    0 -0.00000000000E+00 -0.00000000000E+00  0.11368683772E-12  0.17120000000E+03  0.17120000000E+03 0.  0.
         13    1    1    2    0    0 -0.10798142523E+02  0.94339653057E+00  0.44905315621E+02  0.46195112447E+02  0.10566000000E+00 0.  1.
        994    1    1    2    0    0  0.11301294070E+02 -0.11109670194E+02  0.21046540834E+01  0.17194479808E+03  0.17120000000E+03 0.  0.
        998    1    1    2    0    0 -0.50315154688E+00  0.10166273663E+02  0.14529900266E+04  0.14530600895E+04  0.10000000000E+02 0.  1.
</event>
<event>
 5    1  0.1364103E-008  0.3836242E+03  0.7957747E-01  0.3435528E+00
         13   -1    0    0    0    0  0.00000000000E+00  0.00000000000E+00  0.14999999963E+04  0.15000000000E+04  0.10566000000E+00 0.  1.
        994   -1    0    0    0    0 -0.00000000000E+00 -0.00000000000E+00  0.11368683772E-12  0.17120000000E+03  0.17120000000E+03 0.  0.
         13    1    1    2    0    0  0.10250221935E+02 -0.14489639014E+02  0.67017128627E+02  0.69327652361E+02  0.10566000000E+00 0.  1.
        994    1    1    2    0    0 -0.16111441433E+02  0.43572893283E+01  0.32354727671E+01  0.17204206695E+03  0.17120000000E+03 0.  0.
        998    1    1    2    0    0  0.58612194980E+01  0.10132349686E+02  0.14297473949E+04  0.14298302807E+04  0.10000000000E+02 0.  1.
</event>
<event>
 5    1  0.1364103E-008  0.3842783E+03  0.7957747E-01  0.3432739E+00
         13   -1    0    0    0    0  0.00000000000E+00  0.00000000000E+00  0.14999999963E+04  0.15000000000E+04  0.10566000000E+00 0.  1.
        994   -1    0    0    0    0 -0.00000000000E+00 -0.00000000000E+00  0.11368683772E-12  0.17120000000E+03  0.17120000000E+03 0.  0.
         13    1    1    2    0    0 -0.84119519511E+01  0.72700335506E+01  0.31188115311E+02  0.33110784106E+02  0.10566000000E+00 0.  1.
        994    1    1    2    0    0 -0.74298039854E+00 -0.52343270178E+01  0.20809889225E+01  0.17129425184E+03  0.17120000000E+03 0.  0.
        998    1    1    2    0    0  0.91549323496E+01 -0.20357065328E+01  0.14667308920E+04  0.14667949641E+04  0.10000000000E+02 0.  1.
</event>
<event>
 5    1  0.1364103E-008  0.3856901E+03  0.7957747E-01  0.3426751E+00
         13   -1    0    0    0    0  0.00000000000E+00  0.00000000000E+00  0.14999999963E+04  0.15000000000E+04  0.10566000000E+00 0. -1.
        994   -1    0    0    0    0 -0.00000000000E+00 -0.00000000000E+00  0.11368683772E-12  0.17120000000E+03  0.17120000000E+03 0.  0.
         13    1    1    2    0    0  0.42953293312E+01 -0.11337154872E+02  0.56223093616E+02  0.57515461873E+02  0.10566000000E+00 0. -1.
        994    1    1    2    0    0  0.76309471391E+00  0.12577314696E+02  0.18090509777E+01  0.17167260650E+03  0.17120000000E+03 0.  0.
        998    1    1    2    0    0 -0.50584240451E+01 -0.12401598248E+01  0.14419678517E+04  0.14420119316E+04  0.10000000000E+02 0. -1.
</event>
<event>
 5    1  0.1364103E-008  0.3836152E+03  0.7957747E-01  0.3435567E+00
         13   -1    0    0    0    0  0.00000000000E+00  0.00000000000E+00  0.14999999963E+04  0.15000000000E+04  0.10566000000E+00 0.  1.
        994   -1    0    0    0    0 -0.00000000000E+00 -0.00000000000E+00  0.11368683772E-12  0.17120000000E+03  0.17120000000E+03 0.  0.
         13    1    1    2    0    0 -0.11279551450E+02  0.12565287180E+01  0.27111177444E+02  0.29391057344E+02  0.10566000000E+00 0.  1.
        994    1    1    2    0    0  0.73837086569E+01  0.27825426540E+01  0.25249307197E+01  0.17140034123E+03  0.17120000000E+03 0.  0.
        998    1    1    2    0    0  0.38958427936E+01 -0.40390713720E+01  0.14703638881E+04  0.14704086014E+04  0.10000000000E+02 0.  1.
</event>
<event>
 5    1  0.1364103E-008  0.3808499E+03  0.7957747E-01  0.3447466E+00
         13   -1    0    0    0    0  0.00000000000E+00  0.00000000000E+00  0.14999999963E+04  0.15000000000E+04  0.10566000000E+00 0. -1.
        994   -1    0    0    0    0 -0.00000000000E+00 -0.00000000000E+00  0.11368683772E-12  0.17120000000E+03  0.17120000000E+03 0.  0.
         13    1    1    2    0    0 -0.11326477985E+02 -0.15571498590E+02  0.46915583211E+02  0.50713349169E+02  0.10566000000E+00 0. -1.
        994    1    1    2    0    0  0.15627338902E+02  0.16289357036E+02  0.54052209298E+01  0.17276635462E+03  0.17120000000E+03 0.  0.
        998    1    1    2    0    0 -0.43008609176E+01 -0.71785844590E+00  0.14476791921E+04  0.14477202962E+04  0.10000000000E+02 0. -1.
</event>
<event>
 5    1  0.1364103E-008  0.3741837E+03  0.7957747E-01  0.3476882E+00
         13   -1    0    0    0    0  0.00000000000E+00  0.00000000000E+00  0.14999999963E+04  0.15000000000E+04  0.10566000000E+00 0. -1.
        994   -1    0    0    0    0 -0.00000000000E+00 -0.00000000000E+00  0.11368683772E-12  0.17120000000E+03  0.17120000000E+03 0.  0.
         13    1    1    2    0    0 -0.20013445106E+02  0.12224627304E+02  0.15045964217E+02  0.27863447399E+02  0.10566000000E+00 0. -1.
        994    1    1    2    0    0  0.20868998251E+02 -0.95292057091E+01  0.15037890572E+02  0.17338367571E+03  0.17120000000E+03 0.  0.
        998    1    1    2    0    0 -0.85555314518E+00 -0.26954215953E+01  0.14699161415E+04  0.14699528769E+04  0.10000000000E+02 0. -1.
</event>
<event>
 5    1  0.1364103E-008  0.3804348E+03  0.7957747E-01  0.3449267E+00
         13   -1    0    0    0    0  0.00000000000E+00  0.00000000000E+00  0.14999999963E+04  0.15000000000E+04  0.10566000000E+00 0. -1.
        994   -1    0    0    0    0 -0.00000000000E+00 -0.00000000000E+00  0.11368683772E-12  0.17120000000E+03  0.17120000000E+03 0.  0.
         13    1    1    2    0    0 -0.13964359726E+02 -0.16329048490E+02  0.62256131431E+02  0.65859534101E+02  0.10566000000E+00 0. -1.
        994    1    1    2    0    0 -0.37210496490E+00 -0.57936188062E+01  0.40263248304E+01  0.17134572003E+03  0.17120000000E+03 0.  0.
        998    1    1    2    0    0  0.14336464691E+02  0.22122667296E+02  0.14337175400E+04  0.14339947459E+04  0.10000000000E+02 0. -1.
</event>
<event>
 5    1  0.1364103E-008  0.3736147E+03  0.7957747E-01  0.3479442E+00
         13   -1    0    0    0    0  0.00000000000E+00  0.00000000000E+00  0.14999999963E+04  0.15000000000E+04  0.10566000000E+00 0. -1.
        994   -1    0    0    0    0 -0.00000000000E+00 -0.00000000000E+00  0.11368683772E-12  0.17120000000E+03  0.17120000000E+03 0.  0.
         13    1    1    2    0    0 -0.44123819932E+02 -0.34081959518E+02  0.18614078261E+03  0.19431133154E+03  0.10566000000E+00 0. -1.
        994    1    1    2    0    0  0.33136529774E+02  0.43681180029E+02  0.17728475807E+02  0.18063724408E+03  0.17120000000E+03 0.  0.
        998    1    1    2    0    0  0.10987290159E+02 -0.95992205105E+01  0.12961307379E+04  0.12962514244E+04  0.10000000000E+02 0. -1.
</event>
<event>
 5    1  0.1364103E-008  0.3822105E+03  0.7957747E-01  0.3441590E+00
         13   -1    0    0    0    0  0.00000000000E+00  0.00000000000E+00  0.14999999963E+04  0.15000000000E+04  0.10566000000E+00 0. -1.
        994   -1    0    0    0    0 -0.00000000000E+00 -0.00000000000E+00  0.11368683772E-12  0.17120000000E+03  0.17120000000E+03 0.  0.
         13    1    1    2    0    0 -0.26995607454E+00 -0.16003306432E+02  0.39928634612E+02  0.43017272334E+02  0.10566000000E+00 0. -1.
        994    1    1    2    0    0  0.31217023897E+01  0.19727414253E+02  0.43464518238E+01  0.17241591441E+03  0.17120000000E+03 0.  0.
        998    1    1    2    0    0 -0.28517463152E+01 -0.37241078213E+01  0.14557249098E+04  0.14557668133E+04  0.10000000000E+02 0. -1.
</event>
<event>
 5    1  0.1364103E-008  0.3840221E+03  0.7957747E-01  0.3433830E+00
         13   -1    0    0    0    0  0.00000000000E+00  0.00000000000E+00  0.14999999963E+04  0.15000000000E+04  0.10566000000E+00 0. -1.
        994   -1    0    0    0    0 -0.00000000000E+00 -0.00000000000E+00  0.11368683772E-12  0.17120000000E+03  0.17120000000E+03 0.  0.
         13    1    1    2    0    0  0.18481399634E+02  0.82969205187E+01  0.92369836243E+02  0.94565315175E+02  0.10566000000E+00 0. -1.
        994    1    1    2    0    0 -0.18856544037E+02 -0.55091235290E+01  0.33906690074E+01  0.17235677048E+03  0.17120000000E+03 0.  0.
        998    1    1    2    0    0  0.37514440248E+00 -0.27877969897E+01  0.14042394910E+04  0.14042779143E+04  0.10000000000E+02 0. -1.
</event>
<event>
 5    1  0.1364103E-008  0.3824816E+03  0.7957747E-01  0.3440424E+00
         13   -1    0    0    0    0  0.00000000000E+00  0.00000000000E+00  0.14999999963E+04  0.15000000000E+04  0.10566000000E+00 0. -1.
        994   -1    0    0    0    0 -0.00000000000E+00 -0.00000000000E+00  0.11368683772E-12  0.17120000000E+03  0.17120000000E+03 0.  0.
         13    1    1    2    0    0 -0.75839993823E+02  0.69445391086E+02  0.20396200475E+03  0.22841820758E+03  0.10566000000E+00 0. -1.
        994    1    1    2    0    0  0.10575148878E+03 -0.10088567218E+03  0.10067425732E+03  0.24658881223E+03  0.17120000000E+03 0.  0.
        998    1    1    2    0    0 -0.29911494953E+02  0.31440281090E+02  0.11953637342E+04  0.11961929802E+04  0.10000000000E+02 0. -1.
</event>
<event>
 5    1  0.1364103E-008  0.3781512E+03  0.7957747E-01  0.3459248E+00
         13   -1    0    0    0    0  0.00000000000E+00  0.00000000000E+00  0.14999999963E+04  0.15000000000E+04  0.10566000000E+00 0. -1.
        994   -1    0    0    0    0 -0.00000000000E+00 -0.00000000000E+00  0.11368683772E-12  0.17120000000E+03  0.17120000000E+03 0.  0.
         13    1    1    2    0    0  0.13712411825E+02  0.17590779706E+02  0.45171947875E+02  0.50378386314E+02  0.10566000000E+00 0. -1.
        994    1    1    2    0    0 -0.19506219719E+02 -0.19253355017E+02  0.76000265965E+01  0.17354649144E+03  0.17120000000E+03 0.  0.
        998    1    1    2    0    0  0.57938078941E+01  0.16625753105E+01  0.14472280218E+04  0.14472751222E+04  0.10000000000E+02 0. -1.
</event>
<event>
 5    1  0.1364103E-008  0.3785301E+03  0.7957747E-01  0.3457584E+00
         13   -1    0    0    0    0  0.00000000000E+00  0.00000000000E+00  0.14999999963E+04  0.15000000000E+04  0.10566000000E+00 0.  1.
        994   -1    0    0    0    0 -0.00000000000E+00 -0.00000000000E+00  0.11368683772E-12  0.17120000000E+03  0.17120000000E+03 0.  0.
         13    1    1    2    0    0 -0.76259506941E+01  0.10162415751E+02  0.14274178532E+02  0.19110027595E+02  0.10566000000E+00 0.  1.
        994    1    1    2    0    0  0.63519583284E+01 -0.12042225154E+02  0.54999185332E+01  0.17182855311E+03  0.17120000000E+03 0.  0.
        998    1    1    2    0    0  0.12739923657E+01  0.18798094028E+01  0.14802258992E+04  0.14802614193E+04  0.10000000000E+02 0.  1.
</event>
<event>
 5    1  0.1364103E-008  0.3738729E+03  0.7957747E-01  0.3478279E+00
         13   -1    0    0    0    0  0.00000000000E+00  0.00000000000E+00  0.14999999963E+04  0.15000000000E+04  0.10566000000E+00 0. -1.
        994   -1    0    0    0    0 -0.00000000000E+00 -0.00000000000E+00  0.11368683772E-12  0.17120000000E+03  0.17120000000E+03 0.  0.
         13    1    1    2    0    0 -0.50744356726E+02 -0.20201615984E+02  0.20688366558E+03  0.21397186095E+03  0.10566000000E+00 0. -1.
        994    1    1    2    0    0  0.23866307404E+02  0.17496593239E+02  0.10252597363E+02  0.17404105021E+03  0.17120000000E+03 0.  0.
        998    1    1    2    0    0  0.26878049322E+02  0.27050227447E+01  0.12828637333E+04  0.12831870888E+04  0.10000000000E+02 0. -1.
</event>
<event>
 5    1  0.1364103E-008  0.3854495E+03  0.7957747E-01  0.3427768E+00
         13   -1    0    0    0    0  0.00000000000E+00  0.00000000000E+00  0.14999999963E+04  0.15000000000E+04  0.10566000000E+00 0. -1.
        994   -1    0    0    0    0 -0.00000000000E+00 -0.00000000000E+00  0.11368683772E-12  0.17120000000E+03  0.17120000000E+03 0.  0.
         13    1    1    2    0    0 -0.10428509734E+02 -0.47661236400E+01  0.50987960525E+02  0.52261391412E+02  0.10566000000E+00 0. -1.
        994    1    1    2    0    0 -0.75887470354E+00 -0.12477504548E+02  0.19204650245E+01  0.17166651449E+03  0.17120000000E+03 0.  0.
        998    1    1    2    0    0  0.11187384438E+02  0.17243628188E+02  0.14470915707E+04  0.14472720941E+04  0.10000000000E+02 0. -1.
</event>
<event>
 5    1  0.1532051E-008  0.3854826E+03  0.7957747E-01  0.3427628E+00
         13   -1    0    0    0    0  0.00000000000E+00  0.00000000000E+00  0.14999999963E+04  0.15000000000E+04  0.10566000000E+00 0.  1.
        994   -1    0    0    0    0 -0.00000000000E+00 -0.00000000000E+00  0.11368683772E-12  0.17120000000E+03  0.17120000000E+03 0.  0.
         13    1    1    2    0    0  0.92164400323E+01 -0.49459436280E+01  0.37949798818E+02  0.39365003742E+02  0.10566000000E+00 0.  1.
        994    1    1    2    0    0 -0.13079096065E+02  0.60518226059E+01  0.20729745929E+01  0.17181799828E+03  0.17120000000E+03 0.  0.
        998    1    1    2    0    0  0.38626560322E+01 -0.11058789779E+01  0.14599772229E+04  0.14600169980E+04  0.10000000000E+02 0.  1.
</event>
<event>
 5    1  0.1364103E-008  0.3796787E+03  0.7957747E-01  0.3452559E+00
         13   -1    0    0    0    0  0.00000000000E+00  0.00000000000E+00  0.14999999963E+04  0.15000000000E+04  0.10566000000E+00 0.  1.
        994   -1    0    0    0    0 -0.00000000000E+00 -0.00000000000E+00  0.11368683772E-12  0.17120000000E+03  0.17120000000E+03 0.  0.
         13    1    1    2    0    0  0.10059651913E+02 -0.12632858661E+02  0.29118614491E+02  0.33297005698E+02  0.10566000000E+00 0.  1.
        994    1    1    2    0    0 -0.52445170116E+01  0.27646673585E+01  0.44130453751E+01  0.17135945645E+03  0.17120000000E+03 0.  0.
        998    1    1    2    0    0 -0.48151349013E+01  0.98681913022E+01  0.14664683364E+04  0.14665435379E+04  0.10000000000E+02 0.  1.
</event>
<event>
 5    1  0.1364103E-008  0.3273886E+03  0.7957747E-01  0.3718016E+00
         13   -1    0    0    0    0  0.00000000000E+00  0.00000000000E+00  0.14999999963E+04  0.15000000000E+04  0.10566000000E+00 0.  1.
        994   -1    0    0    0    0 -0.00000000000E+00 -0.00000000000E+00  0.11368683772E-12  0.17120000000E+03  0.17120000000E+03 0.  0.
         13    1    1    2    0    0 -0.14641482770E+03 -0.96724360880E+02  0.95564433616E+03  0.97162184628E+03  0.10566000000E+00 0.  1.
        994    1    1    2    0    0  0.12205159525E+03  0.37696906471E+02  0.75907018055E+02  0.22669134093E+03  0.17120000000E+03 0.  0.
        998    1    1    2    0    0  0.24363232445E+02  0.59027454409E+02  0.46844864206E+03  0.47288681280E+03  0.10000000000E+02 0. -1.
</event>
<event>
 5    1  0.1364103E-008  0.3856283E+03  0.7957747E-01  0.3427012E+00
         13   -1    0    0    0    0  0.00000000000E+00  0.00000000000E+00  0.14999999963E+04  0.15000000000E+04  0.10566000000E+00 0.  1.
        994   -1    0    0    0    0 -0.00000000000E+00 -0.00000000000E+00  0.11368683772E-12  0.17120000000E+03  0.17120000000E+03 0.  0.
         13    1    1    2    0    0 -0.12693444551E+02 -0.29032330788E-01  0.61485175049E+02  0.62781862765E+02  0.10566000000E+00 0.  1.
        994    1    1    2    0    0  0.84898247712E+01 -0.12454025028E+01  0.15601937136E+01  0.17142200079E+03  0.17120000000E+03 0.  0.
        998    1    1    2    0    0  0.42036197801E+01  0.12744348336E+01  0.14369546275E+04  0.14369961364E+04  0.10000000000E+02 0.  1.
</event>
<event>
 5    1  0.1364103E-008  0.3737454E+03  0.7957747E-01  0.3478853E+00
         13   -1    0    0    0    0  0.00000000000E+00  0.00000000000E+00  0.14999999963E+04  0.15000000000E+04  0.10566000000E+00 0.  1.
        994   -1    0    0    0    0 -0.00000000000E+00 -0.00000000000E+00  0.11368683772E-12  0.17120000000E+03  0.17120000000E+03 0.  0.
         13    1    1    2    0    0 -0.88972600276E+02  0.22699633005E+03  0.94489029605E+03  0.97583868554E+03  0.10566000000E+00 0.  1.
        994    1    1    2    0    0  0.88672981208E+02 -0.22364798339E+03  0.24119300598E+03  0.38126739200E+03  0.17120000000E+03 0.  0.
        998    1    1    2    0    0  0.29961906825E+00 -0.33483466579E+01  0.31391669425E+03  0.31409392246E+03  0.10000000000E+02 0.  0.
</event>
<event>
 5    1  0.1364103E-008  0.3768092E+03  0.7957747E-01  0.3465171E+00
         13   -1    0    0    0    0  0.00000000000E+00  0.00000000000E+00  0.14999999963E+04  0.15000000000E+04  0.10566000000E+00 0.  1.
        994   -1    0    0    0    0 -0.00000000000E+00 -0.00000000000E+00  0.11368683772E-12  0.17120000000E+03  0.17120000000E+03 0.  0.
         13    1    1    2    0    0 -0.29897233206E+02  0.14583044238E+01  0.17598653802E+02  0.34723118881E+02  0.10566000000E+00 0.  1.
        994    1    1    2    0    0  0.12530293009E+03  0.11724574344E+03  0.12917042467E+03  0.27466675673E+03  0.17120000000E+03 0.  0.
        998    1    1    2    0    0 -0.95405696883E+02 -0.11870404787E+03  0.13532309178E+04  0.13618101244E+04  0.10000000000E+02 0.  1.
</event>
<event>
 5    1  0.1364103E-008  0.3839058E+03  0.7957747E-01  0.3434326E+00
         13   -1    0    0    0    0  0.00000000000E+00  0.00000000000E+00  0.14999999963E+04  0.15000000000E+04  0.10566000000E+00 0.  1.
        994   -1    0    0    0    0 -0.00000000000E+00 -0.00000000000E+00  0.11368683772E-12  0.17120000000E+03  0.17120000000E+03 0.  0.
         13    1    1    2    0    0 -0.13203449017E+02 -0.15083100392E+01  0.42510081112E+02  0.44539019132E+02  0.10566000000E+00 0.  1.
        994    1    1    2    0    0 -0.42075845073E+01  0.16237804988E+01  0.22415095340E+01  0.17127406341E+03  0.17120000000E+03 0.  0.
        998    1    1    2    0    0  0.17411033524E+02 -0.11547045960E+00  0.14552484056E+04  0.14553869175E+04  0.10000000000E+02 0.  1.
</event>
<event>
 5    1  0.1364103E-008  0.3856221E+03  0.7957747E-01  0.3427038E+00
         13   -1    0    0    0    0  0.00000000000E+00  0.00000000000E+00  0.14999999963E+04  0.15000000000E+04  0.10566000000E+00 0. -1.
        994   -1    0    0    0    0 -0.00000000000E+00 -0.00000000000E+00  0.11368683772E-12  0.17120000000E+03  0.17120000000E+03 0.  0.
         13    1    1    2    0    0 -0.59629518351E+01  0.11727122945E+02  0.69864210101E+02  0.71092202275E+02  0.10566000000E+00 0. -1.
        994    1    1    2    0    0  0.38822612373E+01  0.10852641921E+01  0.13749143777E+01  0.17125297119E+03  0.17120000000E+03 0.  0.
        998    1    1    2    0    0  0.20806905978E+01 -0.12812387137E+02  0.14287608718E+04  0.14288548265E+04  0.10000000000E+02 0. -1.
</event>
<event>
 5    1  0.1364103E-008  0.3848792E+03  0.7957747E-01  0.3430185E+00
         13   -1    0    0    0    0  0.00000000000E+00  0.00000000000E+00  0.14999999963E+04  0.15000000000E+04  0.10566000000E+00 0.  1.
        994   -1    0    0    0    0 -0.00000000000E+00 -0.00000000000E+00  0.11368683772E-12  0.17120000000E+03  0.17120000000E+03 0.  0.
         13    1    1    2    0    0  0.88222685961E+01 -0.16975984333E+02  0.10527299980E+03  0.10699734632E+03  0.10566000000E+00 0.  1.
        994    1    1    2    0    0 -0.19409817273E+02  0.79185783548E+01  0.31372003859E+01  0.17250717932E+03  0.17120000000E+03 0.  0.
        998    1    1    2    0    0  0.10587548677E+02  0.90574059782E+01  0.13915897961E+04  0.13916954744E+04  0.10000000000E+02 0.  1.
</event>
<event>
 5    1  0.1364103E-008  0.3731974E+03  0.7957747E-01  0.3481324E+00
         13   -1    0    0    0    0  0.00000000000E+00  0.00000000000E+00  0.14999999963E+04  0.15000000000E+04  0.10566000000E+00 0. -1.
        994   -1    0    0    0    0 -0.00000000000E+00 -0.00000000000E+00  0.11368683772E-12  0.17120000000E+03  0.17120000000E+03 0.  0.
         13    1    1    2    0    0  0.24793320678E+02 -0.95693359828E+02  0.25734909699E+03  0.27568187599E+03  0.10566000000E+00 0. -1.
        994    1    1    2    0    0 -0.23768009121E+02  0.13120811986E+03  0.78472838782E+02  0.23075509832E+03  0.17120000000E+03 0.  0.
        998    1    1    2    0    0 -0.10253115575E+01 -0.35514760029E+02  0.11641780605E+04  0.11647630257E+04  0.10000000000E+02 0. -1.
</event>
<event>
 5    1  0.1364103E-008  0.3857139E+03  0.7957747E-01  0.3426650E+00
         13   -1    0    0    0    0  0.00000000000E+00  0.00000000000E+00  0.14999999963E+04  0.15000000000E+04  0.10566000000E+00 0. -1.
        994   -1    0    0    0    0 -0.00000000000E+00 -0.00000000000E+00  0.11368683772E-12  0.17120000000E+03  0.17120000000E+03 0.  0.
         13    1    1    2    0    0 -0.11257936996E+02 -0.52159008286E+01  0.61570965267E+02  0.62808770843E+02  0.10566000000E+00 0. -1.
        994    1    1    2    0    0  0.62161147138E+01  0.18243516056E+01  0.14138030754E+01  0.17132836070E+03  0.17120000000E+03 0.  0.
        998    1    1    2    0    0  0.50418222822E+01  0.33915492229E+01  0.14370152279E+04  0.14370628685E+04  0.10000000000E+02 0. -1.
</event>
<event>
 5    1  0.1364103E-008  0.3736708E+03  0.7957747E-01  0.3479189E+00
         13   -1    0    0    0    0  0.00000000000E+00  0.00000000000E+00  0.14999999963E+04  0.15000000000E+04  0.10566000000E+00 0.  1.
        994   -1    0    0    0    0 -0.00000000000E+00 -0.00000000000E+00  0.11368683772E-12  0.17120000000E+03  0.17120000000E+03 0.  0.
         13    1    1    2    0    0 -0.13474254305E+02 -0.22394603985E+02  0.20706162681E+02  0.33344117228E+02  0.10566000000E+00 0.  1.
        994    1    1    2    0    0  0.15075469858E+02  0.22381357526E+02  0.15476289463E+02  0.17400330598E+03  0.17120000000E+03 0.  0.
        998    1    1    2    0    0 -0.16012155526E+01  0.13246458017E-01  0.14638175441E+04  0.14638525768E+04  0.10000000000E+02 0.  1.
</event>
<event>
 5    1  0.1364103E-008  0.3850676E+03  0.7957747E-01  0.3429385E+00
         13   -1    0    0    0    0  0.00000000000E+00  0.00000000000E+00  0.14999999963E+04  0.15000000000E+04  0.10566000000E+00 0. -1.
        994   -1    0    0    0    0 -0.00000000000E+00 -0.00000000000E+00  0.11368683772E-12  0.17120000000E+03  0.17120000000E+03 0.  0.
         13    1    1    2    0    0 -0.10133392327E+02 -0.59019693762E+01  0.47151661052E+02  0.48588158913E+02  0.10566000000E+00 0. -1.
        994    1    1    2    0    0  0.65216059949E+01 -0.27074559993E+02  0.41507183598E+01  0.17349994699E+03  0.17120000000E+03 0.  0.
        998    1    1    2    0    0  0.36117863318E+01  0.32976529369E+02  0.14486976169E+04  0.14491118941E+04  0.10000000000E+02 0. -1.
</event>
<event>
 5    1  0.1364103E-008  0.3830383E+03  0.7957747E-01  0.3438035E+00
         13   -1    0    0    0    0  0.00000000000E+00  0.00000000000E+00  0.14999999963E+04  0.15000000000E+04  0.10566000000E+00 0.  1.
        994   -1    0    0    0    0 -0.00000000000E+00 -0.00000000000E+00  0.11368683772E-12  0.17120000000E+03  0.17120000000E+03 0.  0.
         13    1    1    2    0    0  0.10455082769E+02  0.43727935565E+01  0.23388061196E+02  0.25989279515E+02  0.10566000000E+00 0.  1.
        994    1    1    2    0    0 -0.10321574490E+02 -0.61168034069E+01  0.30837883964E+01  0.17164760393E+03  0.17120000000E+03 0.  0.
        998    1    1    2    0    0 -0.13350827840E+00  0.17440098504E+01  0.14735281467E+04  0.14735631166E+04  0.10000000000E+02 0.  1.
</event>
<event>
 5    1  0.1364103E-008  0.4254747E+03  0.7957747E-01  0.3274281E+00
         13   -1    0    0    0    0  0.00000000000E+00  0.00000000000E+00  0.14999999963E+04  0.15000000000E+04  0.10566000000E+00 0. -1.
        994   -1    0    0    0    0 -0.00000000000E+00 -0.00000000000E+00  0.11368683772E-12  0.17120000000E+03  0.17120000000E+03 0.  0.
         13    1    1    2    0    0  0.17274858274E+02 -0.16962819559E+02 -0.13166307257E+02  0.27559404685E+02  0.10566000000E+00 0. -1.
        994    1    1    2    0    0 -0.64347374538E+02  0.66579002714E+02  0.82651678889E+02  0.21145706003E+03  0.17120000000E+03 0.  0.
        998    1    1    2    0    0  0.47072516264E+02 -0.49616183155E+02  0.14305146246E+04  0.14321835353E+04  0.10000000000E+02 0. -1.
</event>
<event>
 5    1  0.1364103E-008  0.3812056E+03  0.7957747E-01  0.3445926E+00
         13   -1    0    0    0    0  0.00000000000E+00  0.00000000000E+00  0.14999999963E+04  0.15000000000E+04  0.10566000000E+00 0.  1.
        994   -1    0    0    0    0 -0.00000000000E+00 -0.00000000000E+00  0.11368683772E-12  0.17120000000E+03  0.17120000000E+03 0.  0.
         13    1    1    2    0    0 -0.40688117124E+01 -0.21028157365E+02  0.55438173079E+02  0.59431816641E+02  0.10566000000E+00 0.  1.
        994    1    1    2    0    0  0.51861983676E+01  0.47586754030E+02  0.11193269689E+02  0.17811828963E+03  0.17120000000E+03 0.  0.
        998    1    1    2    0    0 -0.11173866552E+01 -0.26558596665E+02  0.14333685535E+04  0.14336498937E+04  0.10000000000E+02 0.  1.
</event>
<event>
 5    1  0.1817508E-008  0.3862607E+03  0.7957747E-01  0.3424343E+00
         13   -1    0    0    0    0  0.00000000000E+00  0.00000000000E+00  0.14999999963E+04  0.15000000000E+04  0.10566000000E+00 0. -1.
        994   -1    0    0    0    0 -0.00000000000E+00 -0.00000000000E+00  0.11368683772E-12  0.17120000000E+03  0.17120000000E+03 0.  0.
         13    1    1    2    0    0  0.49594675764E+01 -0.94059232017E+01  0.58504326515E+02  0.59462888384E+02  0.10566000000E+00 0. -1.
        994    1    1    2    0    0 -0.19665698381E+01  0.35776799678E+01  0.10601212743E+01  0.17125195195E+03  0.17120000000E+03 0.  0.
        998    1    1    2    0    0 -0.29928977384E+01  0.58282432338E+01  0.14404355485E+04  0.14404851597E+04  0.10000000000E+02 0. -1.
</event>
<event>
 5    1  0.1364103E-008  0.3847439E+03  0.7957747E-01  0.3430759E+00
         13   -1    0    0    0    0  0.00000000000E+00  0.00000000000E+00  0.14999999963E+04  0.15000000000E+04  0.10566000000E+00 0.  1.
        994   -1    0    0    0    0 -0.00000000000E+00 -0.00000000000E+00  0.11368683772E-12  0.17120000000E+03  0.17120000000E+03 0.  0.
         13    1    1    2    0    0  0.70896385180E+02  0.20225869596E+03  0.99983019145E+03  0.10225435445E+04  0.10566000000E+00 0.  1.
        994    1    1    2    0    0 -0.77309377707E+02 -0.22484114735E+03  0.21763614152E+03  0.36497289148E+03  0.17120000000E+03 0.  0.
        998    1    1    2    0    0  0.64129925269E+01  0.22582451389E+02  0.28253366331E+03  0.28368356401E+03  0.10000000000E+02 0.  1.
</event>
<event>
 5    1  0.1364103E-008  0.3794244E+03  0.7957747E-01  0.3453669E+00
         13   -1    0    0    0    0  0.00000000000E+00  0.00000000000E+00  0.14999999963E+04  0.15000000000E+04  0.10566000000E+00 0.  1.
        994   -1    0    0    0    0 -0.00000000000E+00 -0.00000000000E+00  0.11368683772E-12  0.17120000000E+03  0.17120000000E+03 0.  0.
         13    1    1    2    0    0 -0.64495480973E+02  0.48724422494E+01  0.38252353945E+03  0.38795318939E+03  0.10566000000E+00 0.  1.
        994    1    1    2    0    0  0.57914911348E+02  0.42531088794E+01  0.15802545755E+02  0.18147007011E+03  0.17120000000E+03 0.  0.
        998    1    1    2    0    0  0.65805696248E+01 -0.91255511288E+01  0.11016739111E+04  0.11017767405E+04  0.10000000000E+02 0.  1.
</event>
<event>
 5    1  0.1364103E-008  0.3708469E+03  0.7957747E-01  0.3492008E+00
         13   -1    0    0    0    0  0.00000000000E+00  0.00000000000E+00  0.14999999963E+04  0.15000000000E+04  0.10566000000E+00 0.  1.
        994   -1    0    0    0    0 -0.00000000000E+00 -0.00000000000E+00  0.11368683772E-12  0.17120000000E+03  0.17120000000E+03 0.  0.
         13    1    1    2    0    0 -0.28624234331E+02 -0.64162805785E+02  0.21840462305E+03  0.22942711908E+03  0.10566000000E+00 0.  1.
        994    1    1    2    0    0  0.39800414883E+02  0.23210421056E+02  0.18867960446E+02  0.17829255902E+03  0.17120000000E+03 0.  0.
        998    1    1    2    0    0 -0.11176180552E+02  0.40952384729E+02  0.12627274128E+04  0.12634803219E+04  0.10000000000E+02 0.  1.
</event>
<event>
 5    1  0.1364103E-008  0.3845577E+03  0.7957747E-01  0.3431550E+00
         13   -1    0    0    0    0  0.00000000000E+00  0.00000000000E+00  0.14999999963E+04  0.15000000000E+04  0.10566000000E+00 0. -1.
        994   -1    0    0    0    0 -0.00000000000E+00 -0.00000000000E+00  0.11368683772E-12  0.17120000000E+03  0.17120000000E+03 0.  0.
         13    1    1    2    0    0  0.13369787210E+02 -0.11771456883E+01  0.49009724537E+02  0.50814379316E+02  0.10566000000E+00 0. -1.
        994    1    1    2    0    0 -0.69632730554E+01 -0.29680543477E+01  0.20386321279E+01  0.17137938190E+03  0.17120000000E+03 0.  0.
        998    1    1    2    0    0 -0.64065141543E+01  0.41452000360E+01  0.14489516396E+04  0.14490062388E+04  0.10000000000E+02 0. -1.
</event>
<event>
 5    1  0.1364103E-008  0.3363438E+03  0.7957747E-01  0.3666477E+00
         13   -1    0    0    0    0  0.00000000000E+00  0.00000000000E+00  0.14999999963E+04  0.15000000000E+04  0.10566000000E+00 0.  1.
        994   -1    0    0    0    0 -0.00000000000E+00 -0.00000000000E+00  0.11368683772E-12  0.17120000000E+03  0.17120000000E+03 0.  0.
         13    1    1    2    0    0  0.11312866638E+03 -0.20035764083E+03  0.98301351808E+03  0.10095825213E+04  0.10566000000E+00 0.  1.
        994    1    1    2    0    0 -0.58709206189E+02  0.15678912038E+03  0.13847942885E+03  0.27661451765E+03  0.17120000000E+03 0.  0.
        998    1    1    2    0    0 -0.54419460193E+02  0.43568520451E+02  0.37850704935E+03  0.38500296106E+03  0.10000000000E+02 0.  1.
</event>
<event>
 5    1  0.1364103E-008  0.3853141E+03  0.7957747E-01  0.3428341E+00
         13   -1    0    0    0    0  0.00000000000E+00  0.00000000000E+00  0.14999999963E+04  0.15000000000E+04  0.10566000000E+00 0. -1.
        994   -1    0    0    0    0 -0.00000000000E+00 -0.00000000000E+00  0.11368683772E-12  0.17120000000E+03  0.17120000000E+03 0.  0.
         13    1    1    2    0    0 -0.46670402736E+01  0.11418926831E+02  0.51847566170E+02  0.53294975717E+02  0.10566000000E+00 0. -1.
        994    1    1    2    0    0  0.56731157597E+01 -0.62054006096E+01  0.17065470891E+01  0.17141482883E+03  0.17120000000E+03 0.  0.
        998    1    1    2    0    0 -0.10060754860E+01 -0.52135262210E+01  0.14464458830E+04  0.14464901955E+04  0.10000000000E+02 0. -1.
</event>
<event>
 5    1  0.1364103E-008  0.3849873E+03  0.7957747E-01  0.3429726E+00
         13   -1    0    0    0    0  0.00000000000E+00  0.00000000000E+00  0.14999999963E+04  0.15000000000E+04  0.10566000000E+00 0.  1.
        994   -1    0    0    0    0 -0.00000000000E+00 -0.00000000000E+00  0.11368683772E-12  0.17120000000E+03  0.17120000000E+03 0.  0.
         13    1    1    2    0    0 -0.13097087937E+02  0.66466070511E+01  0.66546229189E+02  0.68147801732E+02  0.10566000000E+00 0.  1.
        994    1    1    2    0    0  0.10819085751E+02  0.30588717489E+01  0.20522770424E+01  0.17158106292E+03  0.17120000000E+03 0.  0.
        998    1    1    2    0    0  0.22780021862E+01 -0.97054788000E+01  0.14314014900E+04  0.14314711353E+04  0.10000000000E+02 0.  1.
</event>
<event>
 5    1  0.1364103E-008  0.3340401E+03  0.7957747E-01  0.3679458E+00
         13   -1    0    0    0    0  0.00000000000E+00  0.00000000000E+00  0.14999999963E+04  0.15000000000E+04  0.10566000000E+00 0. -1.
        994   -1    0    0    0    0 -0.00000000000E+00 -0.00000000000E+00  0.11368683772E-12  0.17120000000E+03  0.17120000000E+03 0.  0.
         13    1    1    2    0    0 -0.19447022114E+03 -0.14860754773E+03  0.12143693914E+04  0.12387880772E+04  0.10566000000E+00 0. -1.
        994    1    1    2    0    0  0.14065383755E+03  0.12567349261E+03  0.26966759502E+03  0.37095468803E+03  0.17120000000E+03 0.  0.
        998    1    1    2    0    0  0.53816383585E+02  0.22934055121E+02  0.15963009829E+02  0.61457234800E+02  0.10000000000E+02 0. -1.
</event>
<event>
 5    1  0.1364103E-008  0.3841705E+03  0.7957747E-01  0.3433198E+00
         13   -1    0    0    0    0  0.00000000000E+00  0.00000000000E+00  0.14999999963E+04  0.15000000000E+04  0.10566000000E+00 0.  1.
        994   -1    0    0    0    0 -0.00000000000E+00 -0.00000000000E+00  0.11368683772E-12  0.17120000000E+03  0.17120000000E+03 0.  0.
         13    1    1    2    0    0 -0.10004972349E+02 -0.14795894291E+02  0.84145124990E+02  0.86019946426E+02  0.10566000000E+00 0.  1.
        994    1    1    2    0    0  0.11550865606E+02 -0.82046866422E+01  0.27047707193E+01  0.17180656322E+03  0.17120000000E+03 0.  0.
        998    1    1    2    0    0 -0.15458932571E+01  0.23000580933E+02  0.14131501006E+04  0.14133734904E+04  0.10000000000E+02 0.  1.
</event>
<event>
 5    1  0.1364103E-008  0.3704334E+03  0.7957747E-01  0.3493901E+00
         13   -1    0    0    0    0  0.00000000000E+00  0.00000000000E+00  0.14999999963E+04  0.15000000000E+04  0.10566000000E+00 0.  1.
        994   -1    0    0    0    0 -0.00000000000E+00 -0.00000000000E+00  0.11368683772E-12  0.17120000000E+03  0.17120000000E+03 0.  0.
         13    1    1    2    0    0  0.18343709563E+02 -0.22223139738E+02  0.42208046904E+02  0.51106653264E+02  0.10566000000E+00 0.  1.
        994    1    1    2    0    0 -0.89520257114E+01  0.19444487826E+02  0.10626310196E+02  0.17286001660E+03  0.17120000000E+03 0.  0.
        998    1    1    2    0    0 -0.93916838516E+01  0.27786519123E+01  0.14471656392E+04  0.14472333301E+04  0.10000000000E+02 0.  1.
</event>
<event>
 5    1  0.1364103E-008  0.3835287E+03  0.7957747E-01  0.3435936E+00
         13   -1    0    0    0    0  0.00000000000E+00  0.00000000000E+00  0.14999999963E+04  0.15000000000E+04  0.10566000000E+00 0. -1.
        994   -1    0    0    0    0 -0.00000000000E+00 -0.00000000000E+00  0.11368683772E-12  0.17120000000E+03  0.17120000000E+03 0.  0.
         13    1    1    2    0    0 -0.79638352311E+01 -0.13736807806E+02  0.50932249158E+02  0.53350049003E+02  0.10566000000E+00 0. -1.
        994    1    1    2    0    0  0.17398397793E+02  0.10587640174E+02  0.37342473527E+01  0.17244763545E+03  0.17120000000E+03 0.  0.
        998    1    1    2    0    0 -0.94345625615E+01  0.31491676312E+01  0.14453334998E+04  0.14454023155E+04  0.10000000000E+02 0. -1.
</event>
<event>
 5    1  0.1364103E-008  0.2725229E+03  0.7957747E-01  0.4114074E+00
         13   -1    0    0    0    0  0.00000000000E+00  0.00000000000E+00  0.14999999963E+04  0.15000000000E+04  0.10566000000E+00 0.  1.
        994   -1    0    0    0    0 -0.00000000000E+00 -0.00000000000E+00  0.11368683772E-12  0.17120000000E+03  0.17120000000E+03 0.  0.
         13    1    1    2    0    0  0.51576807082E+01 -0.14269903601E+03  0.63402310713E+03  0.64990378372E+03  0.10566000000E+00 0.  1.
        994    1    1    2    0    0 -0.43796642027E+01  0.38770913783E+02  0.29164800017E+02  0.17799547965E+03  0.17120000000E+03 0.  0.
        998    1    1    2    0    0 -0.77801650544E+00  0.10392812223E+03  0.83681208913E+03  0.84330073664E+03  0.10000000000E+02 0.  1.
</event>
<event>
 5    1  0.1364103E-008  0.4240940E+03  0.7957747E-01  0.3279099E+00
         13   -1    0    0    0    0  0.00000000000E+00  0.00000000000E+00  0.14999999963E+04  0.15000000000E+04  0.10566000000E+00 0.  1.
        994   -1    0    0    0    0 -0.00000000000E+00 -0.00000000000E+00  0.11368683772E-12  0.17120000000E+03  0.17120000000E+03 0.  0.
         13    1    1    2    0    0 -0.36094284570E+02 -0.37265325164E+02  0.15727810786E+02  0.54211410556E+02  0.10566000000E+00 0.  1.
        994    1    1    2    0    0  0.98522906676E+01  0.47823722330E+02  0.53486238052E+02  0.18588812149E+03  0.17120000000E+03 0.  0.
        998    1    1    2    0    0  0.26241993903E+02 -0.10558397166E+02  0.14307859474E+04  0.14311004680E+04  0.10000000000E+02 0.  1.
</event>
<event>
 5    1  0.1364103E-008  0.3743113E+03  0.7957747E-01  0.3476308E+00
         13   -1    0    0    0    0  0.00000000000E+00  0.00000000000E+00  0.14999999963E+04  0.15000000000E+04  0.10566000000E+00 0. -1.
        994   -1    0    0    0    0 -0.00000000000E+00 -0.00000000000E+00  0.11368683772E-12  0.17120000000E+03  0.17120000000E+03 0.  0.
         13    1    1    2    0    0  0.18109166974E+02 -0.70788552403E+01  0.23632961540E+02  0.30603597096E+02  0.10566000000E+00 0. -1.
        994    1    1    2    0    0 -0.18814436714E+02  0.20386540510E+01  0.82539542297E+01  0.17244044450E+03  0.17120000000E+03 0.  0.
        998    1    1    2    0    0  0.70526973949E+00  0.50402011893E+01  0.14681130805E+04  0.14681559584E+04  0.10000000000E+02 0. -1.
</event>
<event>
 5    1  0.1364103E-008  0.3840722E+03  0.7957747E-01  0.3433617E+00
         13   -1    0    0    0    0  0.00000000000E+00  0.00000000000E+00  0.14999999963E+04  0.15000000000E+04  0.10566000000E+00 0. -1.
        994   -1    0    0    0    0 -0.00000000000E+00 -0.00000000000E+00  0.11368683772E-12  0.17120000000E+03  0.17120000000E+03 0.  0.
         13    1    1    2    0    0  0.11202780126E+02  0.11635390164E+01  0.30585405951E+02  0.32593470616E+02  0.10566000000E+00 0. -1.
        994    1    1    2    0    0 -0.11662077787E+01  0.28233185116E+01  0.21222798814E+01  0.17124040189E+03  0.17120000000E+03 0.  0.
        998    1    1    2    0    0 -0.10036572347E+02 -0.39868575280E+01  0.14672923104E+04  0.14673661275E+04  0.10000000000E+02 0. -1.
</event>
<event>
 5    1  0.1364103E-008  0.3791064E+03  0.7957747E-01  0.3455058E+00
         13   -1    0    0    0    0  0.00000000000E+00  0.00000000000E+00  0.14999999963E+04  0.15000000000E+04  0.10566000000E+00 0.  1.
        994   -1    0    0    0    0 -0.00000000000E+00 -0.00000000000E+00  0.11368683772E-12  0.17120000000E+03  0.17120000000E+03 0.  0.
         13    1    1    2    0    0 -0.98497583010E+01  0.32065483387E+02  0.11332732308E+03  0.11818758938E+03  0.10566000000E+00 0.  1.
        994    1    1    2    0    0  0.13667214670E+02 -0.30256901445E+02  0.82894574269E+01  0.17458644835E+03  0.17120000000E+03 0.  0.
        998    1    1    2    0    0 -0.38174563694E+01 -0.18085819422E+01  0.13783832158E+04  0.13784259623E+04  0.10000000000E+02 0.  1.
</event>
<event>
 5    1  0.1364103E-008  0.3785129E+03  0.7957747E-01  0.3457659E+00
         13   -1    0    0    0    0  0.00000000000E+00  0.00000000000E+00  0.14999999963E+04  0.15000000000E+04  0.10566000000E+00 0.  1.
        994   -1    0    0    0    0 -0.00000000000E+00 -0.00000000000E+00  0.11368683772E-12  0.17120000000E+03  0.17120000000E+03 0.  0.
         13    1    1    2    0    0  0.90954019422E+01  0.25318935907E+02  0.70774852068E+02  0.75715689928E+02  0.10566000000E+00 0.  1.
        994    1    1    2    0    0  0.17067207943E+01 -0.24122318907E+02  0.68527610747E+01  0.17303525508E+03  0.17120000000E+03 0.  0.
        998    1    1    2    0    0 -0.10802122737E+02 -0.11966170004E+01  0.14223723831E+04  0.14224490550E+04  0.10000000000E+02 0.  1.
</event>
<event>
 5    1  0.1364103E-008  0.3790999E+03  0.7957747E-01  0.3455087E+00
         13   -1    0    0    0    0  0.00000000000E+00  0.00000000000E+00  0.14999999963E+04  0.15000000000E+04  0.10566000000E+00 0.  1.
        994   -1    0    0    0    0 -0.00000000000E+00 -0.00000000000E+00  0.11368683772E-12  0.17120000000E+03  0.17120000000E+03 0.  0.
         13    1    1    2    0    0  0.31075563730E+01 -0.10741567363E+02  0.11489611375E+02  0.16033106673E+02  0.10566000000E+00 0.  1.
        994    1    1    2    0    0  0.46723376702E+01  0.13947072190E+02  0.53139234080E+01  0.17191285392E+03  0.17120000000E+03 0.  0.
        998    1    1    2    0    0 -0.77798940431E+01 -0.32055048269E+01  0.14831964615E+04  0.14832540394E+04  0.10000000000E+02 0.  1.
</event>
<event>
 5    1  0.1443213E-008  0.3860305E+03  0.7957747E-01  0.3425313E+00
         13   -1    0    0    0    0  0.00000000000E+00  0.00000000000E+00  0.14999999963E+04  0.15000000000E+04  0.10566000000E+00 0.  1.
        994   -1    0    0    0    0 -0.00000000000E+00 -0.00000000000E+00  0.11368683772E-12  0.17120000000E+03  0.17120000000E+03 0.  0.
         13    1    1    2    0    0 -0.62760616493E+01  0.11420867785E+02  0.78262136501E+02  0.79339765215E+02  0.10566000000E+00 0.  1.
        994    1    1    2    0    0  0.10234003439E+01 -0.66044218221E+01  0.12657759328E+01  0.17133507500E+03  0.17120000000E+03 0.  0.
        998    1    1    2    0    0  0.52526613054E+01 -0.48164459628E+01  0.14204720838E+04  0.14205251598E+04  0.10000000000E+02 0.  1.
</event>
<event>
 5    1  0.1364103E-008  0.3787129E+03  0.7957747E-01  0.3456782E+00
         13   -1    0    0    0    0  0.00000000000E+00  0.00000000000E+00  0.14999999963E+04  0.15000000000E+04  0.10566000000E+00 0. -1.
        994   -1    0    0    0    0 -0.00000000000E+00 -0.00000000000E+00  0.11368683772E-12  0.17120000000E+03  0.17120000000E+03 0.  0.
         13    1    1    2    0    0  0.33624573669E+02 -0.40840391549E+01  0.11432787367E+03  0.11923994797E+03  0.10566000000E+00 0. -1.
        994    1    1    2    0    0 -0.26680183505E+02  0.31879945298E+01  0.72119307921E+01  0.17344580550E+03  0.17120000000E+03 0.  0.
        998    1    1    2    0    0 -0.69443901643E+01  0.89604462511E+00  0.13784601918E+04  0.13785142465E+04  0.10000000000E+02 0. -1.
</event>
<event>
 5    1  0.1364103E-008  0.3753487E+03  0.7957747E-01  0.3471665E+00
         13   -1    0    0    0    0  0.00000000000E+00  0.00000000000E+00  0.14999999963E+04  0.15000000000E+04  0.10566000000E+00 0.  1.
        994   -1    0    0    0    0 -0.00000000000E+00 -0.00000000000E+00  0.11368683772E-12  0.17120000000E+03  0.17120000000E+03 0.  0.
         13    1    1    2    0    0  0.18186790813E+02  0.73378465680E+02  0.27682851566E+03  0.28696549764E+03  0.10566000000E+00 0.  1.
        994    1    1    2    0    0 -0.36987062939E+02 -0.10385626870E+03  0.48953333454E+02  0.20942787835E+03  0.17120000000E+03 0.  0.
        998    1    1    2    0    0  0.18800272126E+02  0.30477803017E+02  0.11742181472E+04  0.11748066240E+04  0.10000000000E+02 0.  1.
</event>
<event>
 5    1  0.1364103E-008  0.3834055E+03  0.7957747E-01  0.3436463E+00
         13   -1    0    0    0    0  0.00000000000E+00  0.00000000000E+00  0.14999999963E+04  0.15000000000E+04  0.10566000000E+00 0. -1.
        994   -1    0    0    0    0 -0.00000000000E+00 -0.00000000000E+00  0.11368683772E-12  0.17120000000E+03  0.17120000000E+03 0.  0.
         13    1    1    2    0    0 -0.17835286156E+02 -0.17798189343E+02  0.12695541980E+03  0.12943169147E+03  0.10566000000E+00 0. -1.
        994    1    1    2    0    0  0.18309546489E+02  0.84703123422E+01  0.37703927357E+01  0.17242575662E+03  0.17120000000E+03 0.  0.
        998    1    1    2    0    0 -0.47426033327E+00  0.93278770013E+01  0.13692741837E+04  0.13693425519E+04  0.10000000000E+02 0. -1.
</event>
<event>
 5    1  0.1364103E-008  0.3695183E+03  0.7957747E-01  0.3498108E+00
         13   -1    0    0    0    0  0.00000000000E+00  0.00000000000E+00  0.14999999963E+04  0.15000000000E+04  0.10566000000E+00 0. -1.
        994   -1    0    0    0    0 -0.00000000000E+00 -0.00000000000E+00  0.11368683772E-12  0.17120000000E+03  0.17120000000E+03 0.  0.
         13    1    1    2    0    0 -0.62878502495E+02 -0.24056634754E+02  0.26176816431E+03  0.27028690453E+03  0.10566000000E+00 0. -1.
        994    1    1    2    0    0  0.16406116458E+02  0.17272981500E+02  0.11489072812E+02  0.17323093067E+03  0.17120000000E+03 0.  0.
        998    1    1    2    0    0  0.46472386038E+02  0.67836532546E+01  0.12267427592E+04  0.12276821648E+04  0.10000000000E+02 0. -1.
</event>
<event>
 5    1  0.1364103E-008  0.3724743E+03  0.7957747E-01  0.3484596E+00
         13   -1    0    0    0    0  0.00000000000E+00  0.00000000000E+00  0.14999999963E+04  0.15000000000E+04  0.10566000000E+00 0. -1.
        994   -1    0    0    0    0 -0.00000000000E+00 -0.00000000000E+00  0.11368683772E-12  0.17120000000E+03  0.17120000000E+03 0.  0.
         13    1    1    2    0    0  0.11274034627E+02  0.87794700686E+01  0.24560670665E+01  0.14499185526E+02  0.10566000000E+00 0. -1.
        994    1    1    2    0    0 -0.18610719612E+02 -0.27317474702E+02  0.16116037928E+02  0.17510502559E+03  0.17120000000E+03 0.  0.
        998    1    1    2    0    0  0.73366849857E+01  0.18538004634E+02  0.14814278913E+04  0.14815957889E+04  0.10000000000E+02 0. -1.
</event>
<event>
 5    1  0.1364103E-008  0.3856360E+03  0.7957747E-01  0.3426980E+00
         13   -1    0    0    0    0  0.00000000000E+00  0.00000000000E+00  0.14999999963E+04  0.15000000000E+04  0.10566000000E+00 0.  1.
        994   -1    0    0    0    0 -0.00000000000E+00 -0.00000000000E+00  0.11368683772E-12  0.17120000000E+03  0.17120000000E+03 0.  0.
         13    1    1    2    0    0 -0.13383222864E+02  0.56190059717E+01  0.87628191719E+02  0.88822266524E+02  0.10566000000E+00 0.  1.
        994    1    1    2    0    0  0.92448653930E+01  0.20977388369E+02  0.30413159408E+01  0.17275476249E+03  0.17120000000E+03 0.  0.
        998    1    1    2    0    0  0.41383574707E+01 -0.26596394341E+02  0.14093304886E+04  0.14096229710E+04  0.10000000000E+02 0.  1.
</event>
<event>
 5    1  0.1364103E-008  0.3831876E+03  0.7957747E-01  0.3437395E+00
         13   -1    0    0    0    0  0.00000000000E+00  0.00000000000E+00  0.14999999963E+04  0.15000000000E+04  0.10566000000E+00 0. -1.
        994   -1    0    0    0    0 -0.00000000000E+00 -0.00000000000E+00  0.11368683772E-12  0.17120000000E+03  0.17120000000E+03 0.  0.
         13    1    1    2    0    0 -0.15083605876E+02  0.14025436427E+02  0.85373465516E+02  0.87822934427E+02  0.10566000000E+00 0. -1.
        994    1    1    2    0    0  0.24315037217E+02  0.12784128591E+02  0.50331216910E+01  0.17346304302E+03  0.17120000000E+03 0.  0.
        998    1    1    2    0    0 -0.92314313414E+01 -0.26809565018E+02  0.14095934091E+04  0.14099140226E+04  0.10000000000E+02 0. -1.
</event>
<event>
 5    1  0.1364103E-008  0.3856537E+03  0.7957747E-01  0.3426905E+00
         13   -1    0    0    0    0  0.00000000000E+00  0.00000000000E+00  0.14999999963E+04  0.15000000000E+04  0.10566000000E+00 0.  1.
        994   -1    0    0    0    0 -0.00000000000E+00 -0.00000000000E+00  0.11368683772E-12  0.17120000000E+03  0.17120000000E+03 0.  0.
         13    1    1    2    0    0  0.31852752495E+01 -0.11546295421E+02  0.55377914920E+02  0.56658516935E+02  0.10566000000E+00 0.  1.
        994    1    1    2    0    0  0.10045862630E+01  0.83638590356E+01  0.15388724022E+01  0.17141403519E+03  0.17120000000E+03 0.  0.
        998    1    1    2    0    0 -0.41898615124E+01  0.31824363850E+01  0.14430832090E+04  0.14431274479E+04  0.10000000000E+02 0.  1.
</event>
<event>
 5    1  0.1364103E-008  0.3688208E+03  0.7957747E-01  0.3501328E+00
         13   -1    0    0    0    0  0.00000000000E+00  0.00000000000E+00  0.14999999963E+04  0.15000000000E+04  0.10566000000E+00 0. -1.
        994   -1    0    0    0    0 -0.00000000000E+00 -0.00000000000E+00  0.11368683772E-12  0.17120000000E+03  0.17120000000E+03 0.  0.
         13    1    1    2    0    0  0.80571897959E+02 -0.41108304388E+02  0.46548166895E+03  0.47418869527E+03  0.10566000000E+00 0. -1.
        994    1    1    2    0    0 -0.22371402665E+02  0.29050621831E+02  0.15011886399E+02  0.17572482756E+03  0.17120000000E+03 0.  0.
        998    1    1    2    0    0 -0.58200495295E+02  0.12057682557E+02  0.10195064409E+04  0.10212864772E+04  0.10000000000E+02 0. -1.
</event>
<event>
 5    1  0.1364103E-008  0.3803846E+03  0.7957747E-01  0.3449485E+00
         13   -1    0    0    0    0  0.00000000000E+00  0.00000000000E+00  0.14999999963E+04  0.15000000000E+04  0.10566000000E+00 0.  1.
        994   -1    0    0    0    0 -0.00000000000E+00 -0.00000000000E+00  0.11368683772E-12  0.17120000000E+03  0.17120000000E+03 0.  0.
         13    1    1    2    0    0  0.22695564029E+02  0.29129254967E+02  0.16347637765E+03  0.16759516501E+03  0.10566000000E+00 0.  1.
        994    1    1    2    0    0 -0.24728310014E+02 -0.17523436101E+02  0.70119533997E+01  0.17400335520E+03  0.17120000000E+03 0.  0.
        998    1    1    2    0    0  0.20327459844E+01 -0.11605818866E+02  0.13295116652E+04  0.13296014798E+04  0.10000000000E+02 0.  1.
</event>
<event>
 5    1  0.1364103E-008  0.3709578E+03  0.7957747E-01  0.3491501E+00
         13   -1    0    0    0    0  0.00000000000E+00  0.00000000000E+00  0.14999999963E+04  0.15000000000E+04  0.10566000000E+00 0.  1.
        994   -1    0    0    0    0 -0.00000000000E+00 -0.00000000000E+00  0.11368683772E-12  0.17120000000E+03  0.17120000000E+03 0.  0.
         13    1    1    2    0    0  0.36746191524E+02 -0.41592882007E+01  0.53005221854E+02  0.64630851593E+02  0.10566000000E+00 0.  1.
        994    1    1    2    0    0 -0.39392985921E+02  0.14706066218E+02  0.17673865378E+02  0.17717189744E+03  0.17120000000E+03 0.  0.
        998    1    1    2    0    0  0.26467943975E+01 -0.10546778017E+02  0.14293209090E+04  0.14293972510E+04  0.10000000000E+02 0.  1.
</event>
<event>
 5    1  0.1476912E-008  0.3858181E+03  0.7957747E-01  0.3426210E+00
         13   -1    0    0    0    0  0.00000000000E+00  0.00000000000E+00  0.14999999963E+04  0.15000000000E+04  0.10566000000E+00 0.  1.
        994   -1    0    0    0    0 -0.00000000000E+00 -0.00000000000E+00  0.11368683772E-12  0.17120000000E+03  0.17120000000E+03 0.  0.
         13    1    1    2    0    0  0.10758408141E+02 -0.31133102422E-02  0.48558619519E+02  0.49736244822E+02  0.10566000000E+00 0.  1.
        994    1    1    2    0    0 -0.43360864963E+01 -0.37301330926E+01  0.13318265339E+01  0.17130069848E+03  0.17120000000E+03 0.  0.
        998    1    1    2    0    0 -0.64223216450E+01  0.37332464028E+01  0.14501095502E+04  0.14501630567E+04  0.10000000000E+02 0.  1.
</event>
<event>
 5    1  0.1543115E-008  0.3849314E+03  0.7957747E-01  0.3429963E+00
         13   -1    0    0    0    0  0.00000000000E+00  0.00000000000E+00  0.14999999963E+04  0.15000000000E+04  0.10566000000E+00 0.  1.
        994   -1    0    0    0    0 -0.00000000000E+00 -0.00000000000E+00  0.11368683772E-12  0.17120000000E+03  0.17120000000E+03 0.  0.
         13    1    1    2    0    0  0.49508385667E+01 -0.10526823692E+02  0.40492181727E+02  0.42130188281E+02  0.10566000000E+00 0.  1.
        994    1    1    2    0    0 -0.39497853424E+01  0.68623032295E+01  0.18704591898E+01  0.17139320473E+03  0.17120000000E+03 0.  0.
        998    1    1    2    0    0 -0.10010532243E+01  0.36645204624E+01  0.14576373554E+04  0.14576766070E+04  0.10000000000E+02 0.  1.
</event>
<event>
 5    1  0.1364103E-008  0.2644749E+03  0.7957747E-01  0.4187586E+00
         13   -1    0    0    0    0  0.00000000000E+00  0.00000000000E+00  0.14999999963E+04  0.15000000000E+04  0.10566000000E+00 0.  1.
        994   -1    0    0    0    0 -0.00000000000E+00 -0.00000000000E+00  0.11368683772E-12  0.17120000000E+03  0.17120000000E+03 0.  0.
         13    1    1    2    0    0  0.32885306258E+02 -0.17847875442E+03  0.48209285867E+03  0.51512100005E+03  0.10566000000E+00 0.  1.
        994    1    1    2    0    0  0.12091302398E+03  0.15379355339E+03  0.21272518994E+03  0.33590752130E+03  0.17120000000E+03 0.  0.
        998    1    1    2    0    0 -0.15379833024E+03  0.24685201034E+02  0.80518194767E+03  0.82017147865E+03  0.10000000000E+02 0.  1.
</event>
<event>
 5    1  0.1364103E-008  0.3852473E+03  0.7957747E-01  0.3428624E+00
         13   -1    0    0    0    0  0.00000000000E+00  0.00000000000E+00  0.14999999963E+04  0.15000000000E+04  0.10566000000E+00 0.  1.
        994   -1    0    0    0    0 -0.00000000000E+00 -0.00000000000E+00  0.11368683772E-12  0.17120000000E+03  0.17120000000E+03 0.  0.
         13    1    1    2    0    0  0.13853253983E+02  0.11487910441E+01  0.68181617791E+02  0.69584312423E+02  0.10566000000E+00 0.  1.
        994    1    1    2    0    0  0.70532301950E-02 -0.61998800532E+01  0.16337441895E+01  0.17132001542E+03  0.17120000000E+03 0.  0.
        998    1    1    2    0    0 -0.13860307213E+02  0.50510890091E+01  0.14301846343E+04  0.14302956722E+04  0.10000000000E+02 0.  1.
</event>
<event>
 5    1  0.1364103E-008  0.3840130E+03  0.7957747E-01  0.3433869E+00
         13   -1    0    0    0    0  0.00000000000E+00  0.00000000000E+00  0.14999999963E+04  0.15000000000E+04  0.10566000000E+00 0. -1.
        994   -1    0    0    0    0 -0.00000000000E+00 -0.00000000000E+00  0.11368683772E-12  0.17120000000E+03  0.17120000000E+03 0.  0.
         13    1    1    2    0    0 -0.13694269279E+03 -0.14952492383E+03  0.11832660113E+04  0.12005121693E+04  0.10566000000E+00 0. -1.
        994    1    1    2    0    0  0.13922492431E+03  0.14813899035E+03  0.15308837710E+03  0.30671522821E+03  0.17120000000E+03 0.  0.
        998    1    1    2    0    0 -0.22822315201E+01  0.13859334740E+01  0.16364560790E+03  0.16397260252E+03  0.10000000000E+02 0.  0.
</event>
<event>
 5    1  0.1364103E-008  0.3827580E+03  0.7957747E-01  0.3439237E+00
         13   -1    0    0    0    0  0.00000000000E+00  0.00000000000E+00  0.14999999963E+04  0.15000000000E+04  0.10566000000E+00 0.  1.
        994   -1    0    0    0    0 -0.00000000000E+00 -0.00000000000E+00  0.11368683772E-12  0.17120000000E+03  0.17120000000E+03 0.  0.
         13    1    1    2    0    0 -0.58156418402E+02 -0.38644688250E+01  0.27281334261E+03  0.27896995213E+03  0.10566000000E+00 0.  1.
        994    1    1    2    0    0  0.12526003495E+03 -0.23294077587E+02  0.58524758978E+02  0.22128551200E+03  0.17120000000E+03 0.  0.
        998    1    1    2    0    0 -0.67103616545E+02  0.27158546412E+02  0.11686618947E+04  0.11709445359E+04  0.10000000000E+02 0.  1.
</event>
<event>
 5    1  0.1364103E-008  0.3850302E+03  0.7957747E-01  0.3429544E+00
         13   -1    0    0    0    0  0.00000000000E+00  0.00000000000E+00  0.14999999963E+04  0.15000000000E+04  0.10566000000E+00 0.  1.
        994   -1    0    0    0    0 -0.00000000000E+00 -0.00000000000E+00  0.11368683772E-12  0.17120000000E+03  0.17120000000E+03 0.  0.
         13    1    1    2    0    0 -0.57950326973E+01  0.12950837976E+02  0.60997379675E+02  0.62625858074E+02  0.10566000000E+00 0.  1.
        994    1    1    2    0    0  0.13707082062E+02 -0.81301999929E+01  0.24507976151E+01  0.17195764205E+03  0.17120000000E+03 0.  0.
        998    1    1    2    0    0 -0.79120493648E+01 -0.48206379832E+01  0.14365518190E+04  0.14366164999E+04  0.10000000000E+02 0.  1.
</event>
<event>
 5    1  0.1623926E-008  0.3856919E+03  0.7957747E-01  0.3426743E+00
         13   -1    0    0    0    0  0.00000000000E+00  0.00000000000E+00  0.14999999963E+04  0.15000000000E+04  0.10566000000E+00 0. -1.
        994   -1    0    0    0    0 -0.00000000000E+00 -0.00000000000E+00  0.11368683772E-12  0.17120000000E+03  0.17120000000E+03 0.  0.
         13    1    1    2    0    0 -0.10430137992E+02 -0.42330335986E+01  0.51628281923E+02  0.52841243460E+02  0.10566000000E+00 0. -1.
        994    1    1    2    0    0  0.26065021634E+01 -0.32447476884E+01  0.13438366327E+01  0.17125585578E+03  0.17120000000E+03 0.  0.
        998    1    1    2    0    0  0.78236358284E+01  0.74777812870E+01  0.14470278777E+04  0.14471029008E+04  0.10000000000E+02 0. -1.
</event>
<event>
 5    1  0.1364103E-008  0.3727132E+03  0.7957747E-01  0.3483514E+00
         13   -1    0    0    0    0  0.00000000000E+00  0.00000000000E+00  0.14999999963E+04  0.15000000000E+04  0.10566000000E+00 0. -1.
        994   -1    0    0    0    0 -0.00000000000E+00 -0.00000000000E+00  0.11368683772E-12  0.17120000000E+03  0.17120000000E+03 0.  0.
         13    1    1    2    0    0 -0.45066482603E+02 -0.20483913384E+02  0.99976699915E+02  0.11156132955E+03  0.10566000000E+00 0. -1.
        994    1    1    2    0    0  0.67362034561E+01  0.23773724670E+02  0.14538641757E+02  0.17358392358E+03  0.17120000000E+03 0.  0.
        998    1    1    2    0    0  0.38330279147E+02 -0.32898112860E+01  0.13854846546E+04  0.13860547469E+04  0.10000000000E+02 0. -1.
</event>
<event>
 5    1  0.1364103E-008  0.3768070E+03  0.7957747E-01  0.3465181E+00
         13   -1    0    0    0    0  0.00000000000E+00  0.00000000000E+00  0.14999999963E+04  0.15000000000E+04  0.10566000000E+00 0. -1.
        994   -1    0    0    0    0 -0.00000000000E+00 -0.00000000000E+00  0.11368683772E-12  0.17120000000E+03  0.17120000000E+03 0.  0.
         13    1    1    2    0    0  0.19232494581E+02 -0.15029079161E+02  0.52182483935E+02  0.57608895683E+02  0.10566000000E+00 0. -1.
        994    1    1    2    0    0 -0.12408530570E+01 -0.57419817218E+00  0.57600399501E+01  0.17130232771E+03  0.17120000000E+03 0.  0.
        998    1    1    2    0    0 -0.17991641524E+02  0.15603277333E+02  0.14420574724E+04  0.14422887766E+04  0.10000000000E+02 0. -1.
</event>
<event>
 5    1  0.1364103E-008  0.3806107E+03  0.7957747E-01  0.3448504E+00
         13   -1    0    0    0    0  0.00000000000E+00  0.00000000000E+00  0.14999999963E+04  0.15000000000E+04  0.10566000000E+00 0. -1.
        994   -1    0    0    0    0 -0.00000000000E+00 -0.00000000000E+00  0.11368683772E-12  0.17120000000E+03  0.17120000000E+03 0.  0.
         13    1    1    2    0    0 -0.21606124058E+02  0.20289591643E+02  0.11115343958E+03  0.11503734359E+03  0.10566000000E+00 0. -1.
        994    1    1    2    0    0  0.21965865418E+02 -0.83653241992E+01  0.56705165743E+01  0.17289902444E+03  0.17120000000E+03 0.  0.
        998    1    1    2    0    0 -0.35974135929E+00 -0.11924267443E+02  0.13831760401E+04  0.13832636320E+04  0.10000000000E+02 0. -1.
</event>
<event>
 5    1  0.1364103E-008  0.3238638E+03  0.7957747E-01  0.3739126E+00
         13   -1    0    0    0    0  0.00000000000E+00  0.00000000000E+00  0.14999999963E+04  0.15000000000E+04  0.10566000000E+00 0.  1.
        994   -1    0    0    0    0 -0.00000000000E+00 -0.00000000000E+00  0.11368683772E-12  0.17120000000E+03  0.17120000000E+03 0.  0.
         13    1    1    2    0    0  0.42065702792E+02 -0.18557252624E+03  0.10627405589E+04  0.10796407702E+04  0.10566000000E+00 0.  1.
        994    1    1    2    0    0 -0.23808933419E+02  0.74617130868E+02  0.59732073034E+02  0.19751440980E+03  0.17120000000E+03 0.  0.
        998    1    1    2    0    0 -0.18256769373E+02  0.11095539537E+03  0.37752736431E+03  0.39404482003E+03  0.10000000000E+02 0.  1.
</event>
<event>
 5    1  0.1364103E-008  0.3763138E+03  0.7957747E-01  0.3467368E+00
         13   -1    0    0    0    0  0.00000000000E+00  0.00000000000E+00  0.14999999963E+04  0.15000000000E+04  0.10566000000E+00 0. -1.
        994   -1    0    0    0    0 -0.00000000000E+00 -0.00000000000E+00  0.11368683772E-12  0.17120000000E+03  0.17120000000E+03 0.  0.
         13    1    1    2    0    0 -0.41811149281E+02 -0.14492304914E+01  0.13854826767E+03  0.14472700546E+03  0.10566000000E+00 0. -1.
        994    1    1    2    0    0  0.31450336679E+02  0.17976550173E+02  0.10459495009E+02  0.17530294085E+03  0.17120000000E+03 0.  0.
        998    1    1    2    0    0  0.10360812602E+02 -0.16527319681E+02  0.13509922336E+04  0.13511700537E+04  0.10000000000E+02 0. -1.
</event>
<event>
 5    1  0.1364103E-008  0.3803073E+03  0.7957747E-01  0.3449821E+00
         13   -1    0    0    0    0  0.00000000000E+00  0.00000000000E+00  0.14999999963E+04  0.15000000000E+04  0.10566000000E+00 0. -1.
        994   -1    0    0    0    0 -0.00000000000E+00 -0.00000000000E+00  0.11368683772E-12  0.17120000000E+03  0.17120000000E+03 0.  0.
         13    1    1    2    0    0  0.34044726724E+02 -0.11727432955E+02  0.17120628260E+03  0.17495193188E+03  0.10566000000E+00 0. -1.
        994    1    1    2    0    0 -0.86228766373E+01  0.14636207922E+02  0.49423731563E+01  0.17211170685E+03  0.17120000000E+03 0.  0.
        998    1    1    2    0    0 -0.25421850087E+02 -0.29087749666E+01  0.13238513405E+04  0.13241363613E+04  0.10000000000E+02 0. -1.
</event>
<event>
 5    1  0.1364103E-008  0.3827804E+03  0.7957747E-01  0.3439141E+00
         13   -1    0    0    0    0  0.00000000000E+00  0.00000000000E+00  0.14999999963E+04  0.15000000000E+04  0.10566000000E+00 0. -1.
        994   -1    0    0    0    0 -0.00000000000E+00 -0.00000000000E+00  0.11368683772E-12  0.17120000000E+03  0.17120000000E+03 0.  0.
         13    1    1    2    0    0  0.27197557527E+00  0.14530212702E+02  0.42762691891E+02  0.45164809683E+02  0.10566000000E+00 0. -1.
        994    1    1    2    0    0 -0.33432979893E+02  0.20388936432E+02  0.78324286387E+01  0.17579607451E+03  0.17120000000E+03 0.  0.
        998    1    1    2    0    0  0.33161004317E+02 -0.34919149135E+02  0.14494048757E+04  0.14502391158E+04  0.10000000000E+02 0. -1.
</event>
<event>
 5    1  0.1364103E-008  0.3688930E+03  0.7957747E-01  0.3500994E+00
         13   -1    0    0    0    0  0.00000000000E+00  0.00000000000E+00  0.14999999963E+04  0.15000000000E+04  0.10566000000E+00 0. -1.
        994   -1    0    0    0    0 -0.00000000000E+00 -0.00000000000E+00  0.11368683772E-12  0.17120000000E+03  0.17120000000E+03 0.  0.
         13    1    1    2    0    0  0.10582053039E+02  0.10175951504E+03  0.38607362226E+03  0.39939933865E+03  0.10566000000E+00 0. -1.
        994    1    1    2    0    0 -0.99620621231E+01 -0.95312637458E+02  0.43058056207E+02  0.20086606917E+03  0.17120000000E+03 0.  0.
        998    1    1    2    0    0 -0.61999091593E+00 -0.64468775828E+01  0.10708683178E+04  0.10709345922E+04  0.10000000000E+02 0. -1.
</event>
<event>
 5    1  0.1364103E-008  0.3831331E+03  0.7957747E-01  0.3437629E+00
         13   -1    0    0    0    0  0.00000000000E+00  0.00000000000E+00  0.14999999963E+04  0.15000000000E+04  0.10566000000E+00 0. -1.
        994   -1    0    0    0    0 -0.00000000000E+00 -0.00000000000E+00  0.11368683772E-12  0.17120000000E+03  0.17120000000E+03 0.  0.
         13    1    1    2    0    0  0.19545308223E+02  0.42858851291E+01  0.78697291896E+02  0.81201371914E+02  0.10566000000E+00 0. -1.
        994    1    1    2    0    0 -0.99424068442E+01 -0.13617124252E+01  0.28931129409E+01  0.17151826672E+03  0.17120000000E+03 0.  0.
        998    1    1    2    0    0 -0.96029013787E+01 -0.29241727039E+01  0.14184095914E+04  0.14184803614E+04  0.10000000000E+02 0. -1.
</event>
<event>
 5    1  0.1568032E-008  0.3852444E+03  0.7957747E-01  0.3428636E+00
         13   -1    0    0    0    0  0.00000000000E+00  0.00000000000E+00  0.14999999963E+04  0.15000000000E+04  0.10566000000E+00 0.  1.
        994   -1    0    0    0    0 -0.00000000000E+00 -0.00000000000E+00  0.11368683772E-12  0.17120000000E+03  0.17120000000E+03 0.  0.
         13    1    1    2    0    0  0.11185635387E+02 -0.49839088515E+01  0.49783334700E+02  0.51267429858E+02  0.10566000000E+00 0.  1.
        994    1    1    2    0    0 -0.74285582080E+01  0.33110710389E+01  0.17262172962E+01  0.17140176923E+03  0.17120000000E+03 0.  0.
        998    1    1    2    0    0 -0.37570771786E+01  0.16728378126E+01  0.14484904443E+04  0.14485308009E+04  0.10000000000E+02 0.  1.
</event>
<event>
 5    1  0.1364103E-008  0.3789510E+03  0.7957747E-01  0.3455739E+00
         13   -1    0    0    0    0  0.00000000000E+00  0.00000000000E+00  0.14999999963E+04  0.15000000000E+04  0.10566000000E+00 0.  1.
        994   -1    0    0    0    0 -0.00000000000E+00 -0.00000000000E+00  0.11368683772E-12  0.17120000000E+03  0.17120000000E+03 0.  0.
         13    1    1    2    0    0  0.32784475342E+01 -0.11614147153E+02  0.13876234332E+02  0.18390151592E+02  0.10566000000E+00 0.  1.
        994    1    1    2    0    0  0.12195872791E+01 -0.76454411975E-01  0.46686213340E+01  0.17126800420E+03  0.17120000000E+03 0.  0.
        998    1    1    2    0    0 -0.44980348133E+01  0.11690601565E+02  0.14814551406E+04  0.14815418442E+04  0.10000000000E+02 0.  1.
</event>
<event>
 5    1  0.1364103E-008  0.3772505E+03  0.7957747E-01  0.3463218E+00
         13   -1    0    0    0    0  0.00000000000E+00  0.00000000000E+00  0.14999999963E+04  0.15000000000E+04  0.10566000000E+00 0.  1.
        994   -1    0    0    0    0 -0.00000000000E+00 -0.00000000000E+00  0.11368683772E-12  0.17120000000E+03  0.17120000000E+03 0.  0.
         13    1    1    2    0    0 -0.11202396394E+02 -0.13508042188E+02  0.25085055471E+02  0.30614246043E+02  0.10566000000E+00 0.  1.
        994    1    1    2    0    0  0.11634528652E+02  0.15117069287E+02  0.67561048400E+01  0.17239191684E+03  0.17120000000E+03 0.  0.
        998    1    1    2    0    0 -0.43213225771E+00 -0.16090270984E+01  0.14681588360E+04  0.14681938371E+04  0.10000000000E+02 0.  1.
</event>
<event>
 5    1  0.1364103E-008  0.3818917E+03  0.7957747E-01  0.3442963E+00
         13   -1    0    0    0    0  0.00000000000E+00  0.00000000000E+00  0.14999999963E+04  0.15000000000E+04  0.10566000000E+00 0.  1.
        994   -1    0    0    0    0 -0.00000000000E+00 -0.00000000000E+00  0.11368683772E-12  0.17120000000E+03  0.17120000000E+03 0.  0.
         13    1    1    2    0    0  0.60657825279E+01 -0.22609525506E+02  0.89614601344E+02  0.92621662149E+02  0.10566000000E+00 0.  1.
        994    1    1    2    0    0  0.10876202756E+02  0.84234827638E+01  0.38102340503E+01  0.17179407653E+03  0.17120000000E+03 0.  0.
        998    1    1    2    0    0 -0.16941985284E+02  0.14186042742E+02  0.14065751609E+04  0.14067842613E+04  0.10000000000E+02 0.  1.
</event>
<event>
 5    1  0.1364103E-008  0.3856780E+03  0.7957747E-01  0.3426802E+00
         13   -1    0    0    0    0  0.00000000000E+00  0.00000000000E+00  0.14999999963E+04  0.15000000000E+04  0.10566000000E+00 0.  1.
        994   -1    0    0    0    0 -0.00000000000E+00 -0.00000000000E+00  0.11368683772E-12  0.17120000000E+03  0.17120000000E+03 0.  0.
         13    1    1    2    0    0 -0.98791784195E+01 -0.62699553145E+01  0.52343526123E+02  0.53635495680E+02  0.10566000000E+00 0.  1.
        994    1    1    2    0    0  0.39956086277E+01  0.13734913108E+02  0.19655838075E+01  0.17180778867E+03  0.17120000000E+03 0.  0.
        998    1    1    2    0    0  0.58835697918E+01 -0.74649577933E+01  0.14456908863E+04  0.14457567157E+04  0.10000000000E+02 0.  1.
</event>
<event>
 5    1  0.1364103E-008  0.3811551E+03  0.7957747E-01  0.3446144E+00
         13   -1    0    0    0    0  0.00000000000E+00  0.00000000000E+00  0.14999999963E+04  0.15000000000E+04  0.10566000000E+00 0.  1.
        994   -1    0    0    0    0 -0.00000000000E+00 -0.00000000000E+00  0.11368683772E-12  0.17120000000E+03  0.17120000000E+03 0.  0.
         13    1    1    2    0    0 -0.17757434589E+02  0.32271981670E+01  0.44981428161E+02  0.48467322338E+02  0.10566000000E+00 0.  1.
        994    1    1    2    0    0  0.82100790925E+01 -0.81830588104E+01  0.39987883007E+01  0.17163856839E+03  0.17120000000E+03 0.  0.
        998    1    1    2    0    0  0.95473554960E+01  0.49558606434E+01  0.14510197798E+04  0.14510941093E+04  0.10000000000E+02 0.  1.
</event>
<event>
 5    1  0.1364103E-008  0.3790937E+03  0.7957747E-01  0.3455114E+00
         13   -1    0    0    0    0  0.00000000000E+00  0.00000000000E+00  0.14999999963E+04  0.15000000000E+04  0.10566000000E+00 0. -1.
        994   -1    0    0    0    0 -0.00000000000E+00 -0.00000000000E+00  0.11368683772E-12  0.17120000000E+03  0.17120000000E+03 0.  0.
         13    1    1    2    0    0  0.26529621223E+02 -0.40840156693E+00  0.15263437274E+02  0.30609986533E+02  0.10566000000E+00 0. -1.
        994    1    1    2    0    0 -0.27470195385E+02  0.31468600021E+01  0.18596154003E+02  0.17441264663E+03  0.17120000000E+03 0.  0.
        998    1    1    2    0    0  0.94057416186E+00 -0.27384584352E+01  0.14661404050E+04  0.14661773668E+04  0.10000000000E+02 0. -1.
</event>
<event>
 5    1  0.1364103E-008  0.3815534E+03  0.7957747E-01  0.3444422E+00
         13   -1    0    0    0    0  0.00000000000E+00  0.00000000000E+00  0.14999999963E+04  0.15000000000E+04  0.10566000000E+00 0. -1.
        994   -1    0    0    0    0 -0.00000000000E+00 -0.00000000000E+00  0.11368683772E-12  0.17120000000E+03  0.17120000000E+03 0.  0.
         13    1    1    2    0    0  0.86380184759E+01 -0.16098578632E+02  0.47709738373E+02  0.51088255958E+02  0.10566000000E+00 0. -1.
        994    1    1    2    0    0 -0.96849339213E+01  0.13807907938E+02  0.42976746476E+01  0.17208244034E+03  0.17120000000E+03 0.  0.
        998    1    1    2    0    0  0.10469154455E+01  0.22906706937E+01  0.14479925833E+04  0.14480293037E+04  0.10000000000E+02 0. -1.
</event>
<event>
 5    1  0.1364103E-008  0.3768205E+03  0.7957747E-01  0.3465121E+00
         13   -1    0    0    0    0  0.00000000000E+00  0.00000000000E+00  0.14999999963E+04  0.15000000000E+04  0.10566000000E+00 0. -1.
        994   -1    0    0    0    0 -0.00000000000E+00 -0.00000000000E+00  0.11368683772E-12  0.17120000000E+03  0.17120000000E+03 0.  0.
         13    1    1    2    0    0  0.70787897929E+02  0.41957241577E+02  0.42167711319E+03  0.42963116224E+03  0.10566000000E+00 0. -1.
        994    1    1    2    0    0 -0.74982870201E+02 -0.34238382369E+02  0.29058484200E+02  0.19222001237E+03  0.17120000000E+03 0.  0.
        998    1    1    2    0    0  0.41949722718E+01 -0.77188592075E+01  0.10492643989E+04  0.10493488254E+04  0.10000000000E+02 0.  0.
</event>
<event>
 5    1  0.1364103E-008  0.3850322E+03  0.7957747E-01  0.3429536E+00
         13   -1    0    0    0    0  0.00000000000E+00  0.00000000000E+00  0.14999999963E+04  0.15000000000E+04  0.10566000000E+00 0. -1.
        994   -1    0    0    0    0 -0.00000000000E+00 -0.00000000000E+00  0.11368683772E-12  0.17120000000E+03  0.17120000000E+03 0.  0.
         13    1    1    2    0    0 -0.13149820527E+02 -0.12744938975E+02  0.10040779413E+03  0.10206413442E+03  0.10566000000E+00 0. -1.
        994    1    1    2    0    0  0.73034293812E+01  0.15686644075E+02  0.25993147733E+01  0.17209185722E+03  0.17120000000E+03 0.  0.
        998    1    1    2    0    0  0.58463911458E+01 -0.29417051000E+01  0.13969928874E+04  0.13970440084E+04  0.10000000000E+02 0. -1.
</event>
<event>
 5    1  0.1364103E-008  0.3809887E+03  0.7957747E-01  0.3446865E+00
         13   -1    0    0    0    0  0.00000000000E+00  0.00000000000E+00  0.14999999963E+04  0.15000000000E+04  0.10566000000E+00 0.  1.
        994   -1    0    0    0    0 -0.00000000000E+00 -0.00000000000E+00  0.11368683772E-12  0.17120000000E+03  0.17120000000E+03 0.  0.
         13    1    1    2    0    0  0.11217294449E+01 -0.29870502595E+02  0.12027378242E+03  0.12393263938E+03  0.10566000000E+00 0.  1.
        994    1    1    2    0    0 -0.19293353727E+01  0.19838671402E+02  0.49598278478E+01  0.17242776781E+03  0.17120000000E+03 0.  0.
        998    1    1    2    0    0  0.80760592777E+00  0.10031831193E+02  0.13747663860E+04  0.13748395928E+04  0.10000000000E+02 0.  1.
</event>
<event>
 5    1  0.1364103E-008  0.3851203E+03  0.7957747E-01  0.3429162E+00
         13   -1    0    0    0    0  0.00000000000E+00  0.00000000000E+00  0.14999999963E+04  0.15000000000E+04  0.10566000000E+00 0.  1.
        994   -1    0    0    0    0 -0.00000000000E+00 -0.00000000000E+00  0.11368683772E-12  0.17120000000E+03  0.17120000000E+03 0.  0.
         13    1    1    2    0    0 -0.12478684556E+02  0.70018334404E+00  0.54601224811E+02  0.56013504977E+02  0.10566000000E+00 0.  1.
        994    1    1    2    0    0 -0.72085244443E+01 -0.12317931838E+01  0.17462553063E+01  0.17136501845E+03  0.17120000000E+03 0.  0.
        998    1    1    2    0    0  0.19687209000E+02  0.53160983979E+00  0.14436525162E+04  0.14438214766E+04  0.10000000000E+02 0.  1.
</event>
<event>
 5    1  0.1364103E-008  0.3844674E+03  0.7957747E-01  0.3431934E+00
         13   -1    0    0    0    0  0.00000000000E+00  0.00000000000E+00  0.14999999963E+04  0.15000000000E+04  0.10566000000E+00 0. -1.
        994   -1    0    0    0    0 -0.00000000000E+00 -0.00000000000E+00  0.11368683772E-12  0.17120000000E+03  0.17120000000E+03 0.  0.
         13    1    1    2    0    0  0.13246560969E+02  0.12146727109E+01  0.45043655576E+02  0.46966891307E+02  0.10566000000E+00 0. -1.
        994    1    1    2    0    0 -0.14589597144E+02 -0.32305504311E+01  0.26307164534E+01  0.17187103732E+03  0.17120000000E+03 0.  0.
        998    1    1    2    0    0  0.13430361745E+01  0.20158777202E+01  0.14523256242E+04  0.14523620714E+04  0.10000000000E+02 0. -1.
</event>
<event>
 5    1  0.1364103E-008  0.3851690E+03  0.7957747E-01  0.3428956E+00
         13   -1    0    0    0    0  0.00000000000E+00  0.00000000000E+00  0.14999999963E+04  0.15000000000E+04  0.10566000000E+00 0.  1.
        994   -1    0    0    0    0 -0.00000000000E+00 -0.00000000000E+00  0.11368683772E-12  0.17120000000E+03  0.17120000000E+03 0.  0.
         13    1    1    2    0    0 -0.12141243030E+02  0.48186303208E+01  0.59098899418E+02  0.60525367053E+02  0.10566000000E+00 0.  1.
        994    1    1    2    0    0 -0.87933315855E+01 -0.17831886735E+02  0.28466039933E+01  0.17237413385E+03  0.17120000000E+03 0.  0.
        998    1    1    2    0    0  0.20934574616E+02  0.13013256415E+02  0.14380544929E+04  0.14383004991E+04  0.10000000000E+02 0.  1.
</event>
<event>
 5    1  0.1364103E-008  0.3828350E+03  0.7957747E-01  0.3438907E+00
         13   -1    0    0    0    0  0.00000000000E+00  0.00000000000E+00  0.14999999963E+04  0.15000000000E+04  0.10566000000E+00 0.  1.
        994   -1    0    0    0    0 -0.00000000000E+00 -0.00000000000E+00  0.11368683772E-12  0.17120000000E+03  0.17120000000E+03 0.  0.
         13    1    1    2    0    0  0.80692171577E+01 -0.98285089293E+01  0.28656056462E+02  0.31351117832E+02  0.10566000000E+00 0.  1.
        994    1    1    2    0    0 -0.82175950835E+01  0.77267616703E+01  0.31303644046E+01  0.17159974037E+03  0.17120000000E+03 0.  0.
        998    1    1    2    0    0  0.14837792574E+00  0.21017472590E+01  0.14682135754E+04  0.14682491418E+04  0.10000000000E+02 0.  1.
</event>
<event>
 5    1  0.1364103E-008  0.3755107E+03  0.7957747E-01  0.3470942E+00
         13   -1    0    0    0    0  0.00000000000E+00  0.00000000000E+00  0.14999999963E+04  0.15000000000E+04  0.10566000000E+00 0.  1.
        994   -1    0    0    0    0 -0.00000000000E+00 -0.00000000000E+00  0.11368683772E-12  0.17120000000E+03  0.17120000000E+03 0.  0.
         13    1    1    2    0    0  0.19759037002E+02 -0.95744759395E+01  0.35013276832E+02  0.41328329887E+02  0.10566000000E+00 0.  1.
        994    1    1    2    0    0 -0.11194538955E+02  0.99523072093E+01  0.71784368917E+01  0.17200388390E+03  0.17120000000E+03 0.  0.
        998    1    1    2    0    0 -0.85644980467E+01 -0.37783126985E+00  0.14578082826E+04  0.14578677862E+04  0.10000000000E+02 0.  1.
</event>
<event>
 5    1  0.1364103E-008  0.3856273E+03  0.7957747E-01  0.3427016E+00
         13   -1    0    0    0    0  0.00000000000E+00  0.00000000000E+00  0.14999999963E+04  0.15000000000E+04  0.10566000000E+00 0.  1.
        994   -1    0    0    0    0 -0.00000000000E+00 -0.00000000000E+00  0.11368683772E-12  0.17120000000E+03  0.17120000000E+03 0.  0.
         13    1    1    2    0    0  0.14148406356E+03  0.55266497118E+02  0.45190906970E+03  0.47675354680E+03  0.10566000000E+00 0.  1.
        994    1    1    2    0    0 -0.11513782396E+03 -0.64809881971E+02  0.87327002877E+02  0.23322196453E+03  0.17120000000E+03 0.  0.
        998    1    1    2    0    0 -0.26346239601E+02  0.95433848526E+01  0.96076392370E+03  0.96122448867E+03  0.10000000000E+02 0.  1.
</event>
<event>
 5    1  0.1364103E-008  0.3883657E+03  0.7957747E-01  0.3415522E+00
         13   -1    0    0    0    0  0.00000000000E+00  0.00000000000E+00  0.14999999963E+04  0.15000000000E+04  0.10566000000E+00 0. -1.
        994   -1    0    0    0    0 -0.00000000000E+00 -0.00000000000E+00  0.11368683772E-12  0.17120000000E+03  0.17120000000E+03 0.  0.
         13    1    1    2    0    0 -0.73586398889E+01 -0.67497743523E+02  0.94453041184E+02  0.11632490324E+03  0.10566000000E+00 0. -1.
        994    1    1    2    0    0  0.80810025274E+02  0.64181078228E+02  0.62015438989E+02  0.20929602400E+03  0.17120000000E+03 0.  0.
        998    1    1    2    0    0 -0.73451385385E+02  0.33166652951E+01  0.13435315161E+04  0.13455790728E+04  0.10000000000E+02 0. -1.
</event>
<event>
 5    1  0.1364103E-008  0.3832414E+03  0.7957747E-01  0.3437165E+00
         13   -1    0    0    0    0  0.00000000000E+00  0.00000000000E+00  0.14999999963E+04  0.15000000000E+04  0.10566000000E+00 0. -1.
        994   -1    0    0    0    0 -0.00000000000E+00 -0.00000000000E+00  0.11368683772E-12  0.17120000000E+03  0.17120000000E+03 0.  0.
         13    1    1    2    0    0  0.15329341742E+02 -0.23102171786E+02  0.14687922331E+03  0.14947312957E+03  0.10566000000E+00 0. -1.
        994    1    1    2    0    0 -0.16680180886E+02  0.14867068844E+02  0.41588176934E+01  0.17270203802E+03  0.17120000000E+03 0.  0.
        998    1    1    2    0    0  0.13508391443E+01  0.82351029411E+01  0.13489619553E+04  0.13490248324E+04  0.10000000000E+02 0. -1.
</event>
<event>
 5    1  0.1364103E-008  0.3778755E+03  0.7957747E-01  0.3460461E+00
         13   -1    0    0    0    0  0.00000000000E+00  0.00000000000E+00  0.14999999963E+04  0.15000000000E+04  0.10566000000E+00 0.  1.
        994   -1    0    0    0    0 -0.00000000000E+00 -0.00000000000E+00  0.11368683772E-12  0.17120000000E+03  0.17120000000E+03 0.  0.
         13    1    1    2    0    0 -0.13992822528E+02  0.41566886396E+01  0.18308040274E+02  0.23415222516E+02  0.10566000000E+00 0.  1.
        994    1    1    2    0    0  0.10271839559E+02  0.53915560419E+01  0.56626318232E+01  0.17168600690E+03  0.17120000000E+03 0.  0.
        998    1    1    2    0    0  0.37209829695E+01 -0.95482446815E+01  0.14760293242E+04  0.14760987706E+04  0.10000000000E+02 0.  1.
</event>
<event>
 5    1  0.1364103E-008  0.3813605E+03  0.7957747E-01  0.3445256E+00
         13   -1    0    0    0    0  0.00000000000E+00  0.00000000000E+00  0.14999999963E+04  0.15000000000E+04  0.10566000000E+00 0.  1.
        994   -1    0    0    0    0 -0.00000000000E+00 -0.00000000000E+00  0.11368683772E-12  0.17120000000E+03  0.17120000000E+03 0.  0.
         13    1    1    2    0    0 -0.27689061227E+01  0.11666433995E+02  0.19060429458E+02  0.22518518122E+02  0.10566000000E+00 0.  1.
        994    1    1    2    0    0  0.45306452556E+01 -0.14968593322E+02  0.42623619794E+01  0.17196567466E+03  0.17120000000E+03 0.  0.
        998    1    1    2    0    0 -0.17617391329E+01  0.33021593275E+01  0.14766772048E+04  0.14767158072E+04  0.10000000000E+02 0.  1.
</event>
<event>
 5    1  0.1364103E-008  0.3804857E+03  0.7957747E-01  0.3449046E+00
         13   -1    0    0    0    0  0.00000000000E+00  0.00000000000E+00  0.14999999963E+04  0.15000000000E+04  0.10566000000E+00 0.  1.
        994   -1    0    0    0    0 -0.00000000000E+00 -0.00000000000E+00  0.11368683772E-12  0.17120000000E+03  0.17120000000E+03 0.  0.
         13    1    1    2    0    0 -0.29797407117E+02  0.16665043890E+01  0.15264993616E+03  0.15553995269E+03  0.10566000000E+00 0.  1.
        994    1    1    2    0    0 -0.25546194524E+02 -0.17861703822E+01  0.60800209693E+01  0.17321144626E+03  0.17120000000E+03 0.  0.
        998    1    1    2    0    0  0.55343601641E+02  0.11966599329E+00  0.13412700391E+04  0.13424486011E+04  0.10000000000E+02 0.  1.
</event>
<event>
 5    1  0.1364103E-008  0.3725132E+03  0.7957747E-01  0.3484420E+00
         13   -1    0    0    0    0  0.00000000000E+00  0.00000000000E+00  0.14999999963E+04  0.15000000000E+04  0.10566000000E+00 0.  1.
        994   -1    0    0    0    0 -0.00000000000E+00 -0.00000000000E+00  0.11368683772E-12  0.17120000000E+03  0.17120000000E+03 0.  0.
         13    1    1    2    0    0 -0.13468094132E+02 -0.12551987908E+02  0.17291052474E+02  0.25257347835E+02  0.10566000000E+00 0.  1.
        994    1    1    2    0    0  0.15138946644E+02  0.22479325321E+02  0.10483302843E+02  0.17364863204E+03  0.17120000000E+03 0.  0.
        998    1    1    2    0    0 -0.16708525115E+01 -0.99273374131E+01  0.14722256410E+04  0.14722940201E+04  0.10000000000E+02 0.  1.
</event>
<event>
 5    1  0.1364103E-008  0.3816731E+03  0.7957747E-01  0.3443906E+00
         13   -1    0    0    0    0  0.00000000000E+00  0.00000000000E+00  0.14999999963E+04  0.15000000000E+04  0.10566000000E+00 0. -1.
        994   -1    0    0    0    0 -0.00000000000E+00 -0.00000000000E+00  0.11368683772E-12  0.17120000000E+03  0.17120000000E+03 0.  0.
         13    1    1    2    0    0 -0.25090456202E+02 -0.11801975119E+02  0.11868759687E+03  0.12188344606E+03  0.10566000000E+00 0. -1.
        994    1    1    2    0    0  0.76886624127E+01  0.13696568202E+02  0.41115722108E+01  0.17196818466E+03  0.17120000000E+03 0.  0.
        998    1    1    2    0    0  0.17401793790E+02 -0.18945930833E+01  0.13772008272E+04  0.13773483693E+04  0.10000000000E+02 0. -1.
</event>
<event>
 5    1  0.1364103E-008  0.3824870E+03  0.7957747E-01  0.3440400E+00
         13   -1    0    0    0    0  0.00000000000E+00  0.00000000000E+00  0.14999999963E+04  0.15000000000E+04  0.10566000000E+00 0. -1.
        994   -1    0    0    0    0 -0.00000000000E+00 -0.00000000000E+00  0.11368683772E-12  0.17120000000E+03  0.17120000000E+03 0.  0.
         13    1    1    2    0    0 -0.19993284062E+02 -0.15974698515E+02  0.12009319254E+03  0.12278969199E+03  0.10566000000E+00 0. -1.
        994    1    1    2    0    0 -0.26333416096E+00  0.10189876290E+02  0.32275372379E+01  0.17153355334E+03  0.17120000000E+03 0.  0.
        998    1    1    2    0    0  0.20256618223E+02  0.57848222255E+01  0.13766792665E+04  0.13768767547E+04  0.10000000000E+02 0. -1.
</event>
<event>
 5    1  0.1364103E-008  0.3836443E+03  0.7957747E-01  0.3435442E+00
         13   -1    0    0    0    0  0.00000000000E+00  0.00000000000E+00  0.14999999963E+04  0.15000000000E+04  0.10566000000E+00 0. -1.
        994   -1    0    0    0    0 -0.00000000000E+00 -0.00000000000E+00  0.11368683772E-12  0.17120000000E+03  0.17120000000E+03 0.  0.
         13    1    1    2    0    0 -0.90105633291E+01  0.54058591780E+01  0.24180585750E+02  0.26365231958E+02  0.10566000000E+00 0. -1.
        994    1    1    2    0    0 -0.39262974712E+01  0.24909263132E+01  0.23761415313E+01  0.17127961517E+03  0.17120000000E+03 0.  0.
        998    1    1    2    0    0  0.12936860800E+02 -0.78967854912E+01  0.14734432690E+04  0.14735551529E+04  0.10000000000E+02 0. -1.
</event>
<event>
 5    1  0.1364103E-008  0.3874059E+03  0.7957747E-01  0.3419532E+00
         13   -1    0    0    0    0  0.00000000000E+00  0.00000000000E+00  0.14999999963E+04  0.15000000000E+04  0.10566000000E+00 0. -1.
        994   -1    0    0    0    0 -0.00000000000E+00 -0.00000000000E+00  0.11368683772E-12  0.17120000000E+03  0.17120000000E+03 0.  0.
         13    1    1    2    0    0  0.20692559732E+02 -0.57635465228E+01  0.17811966843E+01  0.21554218205E+02  0.10566000000E+00 0. -1.
        994    1    1    2    0    0 -0.28977438426E+02  0.46853722103E+02  0.31850095011E+02  0.18264400282E+03  0.17120000000E+03 0.  0.
        998    1    1    2    0    0  0.82848786941E+01 -0.41090175580E+02  0.14663687046E+04  0.14670017790E+04  0.10000000000E+02 0. -1.
</event>
<event>
 5    1  0.1364103E-008  0.3810196E+03  0.7957747E-01  0.3446731E+00
         13   -1    0    0    0    0  0.00000000000E+00  0.00000000000E+00  0.14999999963E+04  0.15000000000E+04  0.10566000000E+00 0. -1.
        994   -1    0    0    0    0 -0.00000000000E+00 -0.00000000000E+00  0.11368683772E-12  0.17120000000E+03  0.17120000000E+03 0.  0.
         13    1    1    2    0    0  0.82858942645E+02  0.13034690087E+03  0.90844005572E+03  0.92147667629E+03  0.10566000000E+00 0. -1.
        994    1    1    2    0    0 -0.84754054784E+02 -0.13904186892E+03  0.97691572264E+02  0.25567357002E+03  0.17120000000E+03 0.  0.
        998    1    1    2    0    0  0.18951121391E+01  0.86949680565E+01  0.49386836830E+03  0.49404975369E+03  0.10000000000E+02 0. -1.
</event>
<event>
 5    1  0.1364103E-008  0.3822764E+03  0.7957747E-01  0.3441306E+00
         13   -1    0    0    0    0  0.00000000000E+00  0.00000000000E+00  0.14999999963E+04  0.15000000000E+04  0.10566000000E+00 0.  1.
        994   -1    0    0    0    0 -0.00000000000E+00 -0.00000000000E+00  0.11368683772E-12  0.17120000000E+03  0.17120000000E+03 0.  0.
         13    1    1    2    0    0 -0.35047107866E+01 -0.31286615109E+02  0.18707946653E+03  0.18970997139E+03  0.10566000000E+00 0.  1.
        994    1    1    2    0    0  0.81162069767E+01  0.27639433529E+01  0.32323708422E+01  0.17144503615E+03  0.17120000000E+03 0.  0.
        998    1    1    2    0    0 -0.46114961902E+01  0.28522671756E+02  0.13096881589E+04  0.13100449925E+04  0.10000000000E+02 0.  1.
</event>
<event>
 5    1  0.1364103E-008  0.3684215E+03  0.7957747E-01  0.3503177E+00
         13   -1    0    0    0    0  0.00000000000E+00  0.00000000000E+00  0.14999999963E+04  0.15000000000E+04  0.10566000000E+00 0. -1.
        994   -1    0    0    0    0 -0.00000000000E+00 -0.00000000000E+00  0.11368683772E-12  0.17120000000E+03  0.17120000000E+03 0.  0.
         13    1    1    2    0    0 -0.13132955666E+03 -0.89749208576E+02  0.66926577078E+03  0.68790919167E+03  0.10566000000E+00 0. -1.
        994    1    1    2    0    0  0.11822082897E+03  0.10029122919E+03  0.98986162290E+02  0.25128110828E+03  0.17120000000E+03 0.  0.
        998    1    1    2    0    0  0.13108727686E+02 -0.10542020618E+02  0.73174806321E+03  0.73200970004E+03  0.10000000000E+02 0. -1.
</event>
<event>
 5    1  0.1364103E-008  0.3838470E+03  0.7957747E-01  0.3434577E+00
         13   -1    0    0    0    0  0.00000000000E+00  0.00000000000E+00  0.14999999963E+04  0.15000000000E+04  0.10566000000E+00 0. -1.
        994   -1    0    0    0    0 -0.00000000000E+00 -0.00000000000E+00  0.11368683772E-12  0.17120000000E+03  0.17120000000E+03 0.  0.
         13    1    1    2    0    0  0.11189917149E+02 -0.67323849646E+01  0.39872430039E+02  0.41956657331E+02  0.10566000000E+00 0. -1.
        994    1    1    2    0    0 -0.13929824212E+02 -0.24963826637E+02  0.49059880534E+01  0.17363968833E+03  0.17120000000E+03 0.  0.
        998    1    1    2    0    0  0.27399070633E+01  0.31696211601E+02  0.14552215782E+04  0.14556036543E+04  0.10000000000E+02 0. -1.
</event>
<event>
 5    1  0.1364103E-008  0.3815123E+03  0.7957747E-01  0.3444600E+00
         13   -1    0    0    0    0  0.00000000000E+00  0.00000000000E+00  0.14999999963E+04  0.15000000000E+04  0.10566000000E+00 0. -1.
        994   -1    0    0    0    0 -0.00000000000E+00 -0.00000000000E+00  0.11368683772E-12  0.17120000000E+03  0.17120000000E+03 0.  0.
         13    1    1    2    0    0 -0.10183800548E+02  0.45398429249E+01  0.17036651121E+02  0.20361203620E+02  0.10566000000E+00 0. -1.
        994    1    1    2    0    0  0.73231439214E+01 -0.36791158258E+01  0.35951083641E+01  0.17143374561E+03  0.17120000000E+03 0.  0.
        998    1    1    2    0    0  0.28606566268E+01 -0.86072709916E+00  0.14793682368E+04  0.14794050508E+04  0.10000000000E+02 0. -1.
</event>
<event>
 5    1  0.1364103E-008  0.3918759E+03  0.7957747E-01  0.3401024E+00
         13   -1    0    0    0    0  0.00000000000E+00  0.00000000000E+00  0.14999999963E+04  0.15000000000E+04  0.10566000000E+00 0.  1.
        994   -1    0    0    0    0 -0.00000000000E+00 -0.00000000000E+00  0.11368683772E-12  0.17120000000E+03  0.17120000000E+03 0.  0.
         13    1    1    2    0    0 -0.40941768213E+02 -0.11719858602E+03  0.59592871372E+03  0.60872225189E+03  0.10566000000E+00 0.  1.
        994    1    1    2    0    0  0.47258123815E+02 -0.12055182782E+02  0.32079254603E+02  0.18087889947E+03  0.17120000000E+03 0.  0.
        998    1    1    2    0    0 -0.63163556026E+01  0.12925376880E+03  0.87199202796E+03  0.88159884863E+03  0.10000000000E+02 0.  1.
</event>
<event>
 5    1  0.1364103E-008  0.3736391E+03  0.7957747E-01  0.3479332E+00
         13   -1    0    0    0    0  0.00000000000E+00  0.00000000000E+00  0.14999999963E+04  0.15000000000E+04  0.10566000000E+00 0.  1.
        994   -1    0    0    0    0 -0.00000000000E+00 -0.00000000000E+00  0.11368683772E-12  0.17120000000E+03  0.17120000000E+03 0.  0.
         13    1    1    2    0    0 -0.43583725649E+02 -0.16394339278E+01  0.13492155457E+03  0.14179586008E+03  0.10566000000E+00 0.  1.
        994    1    1    2    0    0  0.13526762368E+02 -0.23659678950E+02  0.99198110638E+01  0.17363927079E+03  0.17120000000E+03 0.  0.
        998    1    1    2    0    0  0.30056963281E+02  0.25299112878E+02  0.13551586306E+04  0.13557648691E+04  0.10000000000E+02 0.  1.
</event>
<event>
 5    1  0.1364103E-008  0.3686881E+03  0.7957747E-01  0.3501942E+00
         13   -1    0    0    0    0  0.00000000000E+00  0.00000000000E+00  0.14999999963E+04  0.15000000000E+04  0.10566000000E+00 0.  1.
        994   -1    0    0    0    0 -0.00000000000E+00 -0.00000000000E+00  0.11368683772E-12  0.17120000000E+03  0.17120000000E+03 0.  0.
         13    1    1    2    0    0 -0.50637889972E+02 -0.46529651068E+02  0.25816989151E+03  0.26717205762E+03  0.10566000000E+00 0.  1.
        994    1    1    2    0    0  0.14204699593E+01  0.34363122471E+02  0.14075988071E+02  0.17518680133E+03  0.17120000000E+03 0.  0.
        998    1    1    2    0    0  0.49217420013E+02  0.12166528596E+02  0.12277541167E+04  0.12288411410E+04  0.10000000000E+02 0. -1.
</event>
<event>
 5    1  0.1364103E-008  0.3740660E+03  0.7957747E-01  0.3477410E+00
         13   -1    0    0    0    0  0.00000000000E+00  0.00000000000E+00  0.14999999963E+04  0.15000000000E+04  0.10566000000E+00 0.  1.
        994   -1    0    0    0    0 -0.00000000000E+00 -0.00000000000E+00  0.11368683772E-12  0.17120000000E+03  0.17120000000E+03 0.  0.
         13    1    1    2    0    0  0.19539418434E+02  0.96553886803E+02  0.47526418134E+03  0.48536635149E+03  0.10566000000E+00 0.  1.
        994    1    1    2    0    0 -0.35378104538E+02 -0.19762806505E+02  0.18951843284E+02  0.17694855514E+03  0.17120000000E+03 0.  0.
        998    1    1    2    0    0  0.15838686104E+02 -0.76791080298E+02  0.10057839717E+04  0.10088850934E+04  0.10000000000E+02 0. -1.
</event>
<event>
 5    1  0.1364103E-008  0.3781163E+03  0.7957747E-01  0.3459402E+00
         13   -1    0    0    0    0  0.00000000000E+00  0.00000000000E+00  0.14999999963E+04  0.15000000000E+04  0.10566000000E+00 0. -1.
        994   -1    0    0    0    0 -0.00000000000E+00 -0.00000000000E+00  0.11368683772E-12  0.17120000000E+03  0.17120000000E+03 0.  0.
         13    1    1    2    0    0  0.67629472681E+01  0.23544273836E+02  0.58624855299E+02  0.63537037302E+02  0.10566000000E+00 0. -1.
        994    1    1    2    0    0 -0.81912854670E+01 -0.64807931622E+01  0.54541149970E+01  0.17160502676E+03  0.17120000000E+03 0.  0.
        998    1    1    2    0    0  0.14283381990E+01 -0.17063480674E+02  0.14359210260E+04  0.14360579359E+04  0.10000000000E+02 0. -1.
</event>
<event>
 5    1  0.1364103E-008  0.3791476E+03  0.7957747E-01  0.3454878E+00
         13   -1    0    0    0    0  0.00000000000E+00  0.00000000000E+00  0.14999999963E+04  0.15000000000E+04  0.10566000000E+00 0.  1.
        994   -1    0    0    0    0 -0.00000000000E+00 -0.00000000000E+00  0.11368683772E-12  0.17120000000E+03  0.17120000000E+03 0.  0.
         13    1    1    2    0    0  0.72200725984E+01 -0.42453912446E+02  0.18340098681E+03  0.18838895206E+03  0.10566000000E+00 0.  1.
        994    1    1    2    0    0 -0.20129771670E+02  0.36548065297E+02  0.10422618072E+02  0.17651923338E+03  0.17120000000E+03 0.  0.
        998    1    1    2    0    0  0.12909699071E+02  0.59058471484E+01  0.13061763914E+04  0.13062918146E+04  0.10000000000E+02 0.  1.
</event>
<event>
 5    1  0.1364103E-008  0.3824339E+03  0.7957747E-01  0.3440629E+00
         13   -1    0    0    0    0  0.00000000000E+00  0.00000000000E+00  0.14999999963E+04  0.15000000000E+04  0.10566000000E+00 0.  1.
        994   -1    0    0    0    0 -0.00000000000E+00 -0.00000000000E+00  0.11368683772E-12  0.17120000000E+03  0.17120000000E+03 0.  0.
         13    1    1    2    0    0  0.11988901216E+02 -0.59981630882E+01  0.30151363910E+02  0.32997388116E+02  0.10566000000E+00 0.  1.
        994    1    1    2    0    0 -0.67071421259E+01  0.43926242994E+00  0.30593594071E+01  0.17135920864E+03  0.17120000000E+03 0.  0.
        998    1    1    2    0    0 -0.52817590897E+01  0.55589006582E+01  0.14667892730E+04  0.14668434032E+04  0.10000000000E+02 0.  1.
</event>
<event>
 5    1  0.1364103E-008  0.3861967E+03  0.7957747E-01  0.3424613E+00
         13   -1    0    0    0    0  0.00000000000E+00  0.00000000000E+00  0.14999999963E+04  0.15000000000E+04  0.10566000000E+00 0. -1.
        994   -1    0    0    0    0 -0.00000000000E+00 -0.00000000000E+00  0.11368683772E-12  0.17120000000E+03  0.17120000000E+03 0.  0.
         13    1    1    2    0    0 -0.10879761271E+02 -0.59043987465E+01  0.72479553959E+02  0.73529096527E+02  0.10566000000E+00 0. -1.
        994    1    1    2    0    0  0.29336307778E+01  0.21478604251E+02  0.25781659051E+01  0.17258627862E+03  0.17120000000E+03 0.  0.
        998    1    1    2    0    0  0.79461304930E+01 -0.15574205505E+02  0.14249422764E+04  0.14250846248E+04  0.10000000000E+02 0. -1.
</event>
<event>
 5    1  0.1364103E-008  0.3810425E+03  0.7957747E-01  0.3446632E+00
         13   -1    0    0    0    0  0.00000000000E+00  0.00000000000E+00  0.14999999963E+04  0.15000000000E+04  0.10566000000E+00 0.  1.
        994   -1    0    0    0    0 -0.00000000000E+00 -0.00000000000E+00  0.11368683772E-12  0.17120000000E+03  0.17120000000E+03 0.  0.
         13    1    1    2    0    0  0.10193558061E+02  0.14385691179E+02  0.38000416966E+02  0.41891521699E+02  0.10566000000E+00 0.  1.
        994    1    1    2    0    0 -0.58608266245E+01 -0.42866404353E+02  0.98691627995E+01  0.17685790422E+03  0.17120000000E+03 0.  0.
        998    1    1    2    0    0 -0.43327314360E+01  0.28480713175E+02  0.14521304165E+04  0.14524505741E+04  0.10000000000E+02 0.  1.
</event>
<event>
 5    1  0.1364103E-008  0.3717748E+03  0.7957747E-01  0.3487774E+00
         13   -1    0    0    0    0  0.00000000000E+00  0.00000000000E+00  0.14999999963E+04  0.15000000000E+04  0.10566000000E+00 0. -1.
        994   -1    0    0    0    0 -0.00000000000E+00 -0.00000000000E+00  0.11368683772E-12  0.17120000000E+03  0.17120000000E+03 0.  0.
         13    1    1    2    0    0 -0.10067849386E+03 -0.24937008106E+02  0.40043921156E+03  0.41365394573E+03  0.10566000000E+00 0. -1.
        994    1    1    2    0    0  0.69664689015E+02  0.39267682274E+02  0.34731540222E+02  0.19212193954E+03  0.17120000000E+03 0.  0.
        998    1    1    2    0    0  0.31013804841E+02 -0.14330674169E+02  0.10648292445E+04  0.10654241147E+04  0.10000000000E+02 0. -1.
</event>
<event>
 5    1  0.1364103E-008  0.3756650E+03  0.7957747E-01  0.3470254E+00
         13   -1    0    0    0    0  0.00000000000E+00  0.00000000000E+00  0.14999999963E+04  0.15000000000E+04  0.10566000000E+00 0. -1.
        994   -1    0    0    0    0 -0.00000000000E+00 -0.00000000000E+00  0.11368683772E-12  0.17120000000E+03  0.17120000000E+03 0.  0.
         13    1    1    2    0    0  0.82940441675E+02 -0.22534769776E+02  0.46217024009E+03  0.47009389988E+03  0.10566000000E+00 0. -1.
        994    1    1    2    0    0 -0.63159087045E+02  0.54113758419E+02  0.30172041090E+02  0.19271004434E+03  0.17120000000E+03 0.  0.
        998    1    1    2    0    0 -0.19781354630E+02 -0.31578988643E+02  0.10076577151E+04  0.10083960558E+04  0.10000000000E+02 0. -1.
</event>
<event>
 5    1  0.1364103E-008  0.3824147E+03  0.7957747E-01  0.3440711E+00
         13   -1    0    0    0    0  0.00000000000E+00  0.00000000000E+00  0.14999999963E+04  0.15000000000E+04  0.10566000000E+00 0. -1.
        994   -1    0    0    0    0 -0.00000000000E+00 -0.00000000000E+00  0.11368683772E-12  0.17120000000E+03  0.17120000000E+03 0.  0.
         13    1    1    2    0    0 -0.41886099087E+01 -0.10498846489E+02  0.20758643016E+02  0.23636891811E+02  0.10566000000E+00 0. -1.
        994    1    1    2    0    0 -0.40086366936E+01  0.10172882502E+02  0.33157794392E+01  0.17158085878E+03  0.17120000000E+03 0.  0.
        998    1    1    2    0    0  0.81972466023E+01  0.32596398673E+00  0.14759255738E+04  0.14759822494E+04  0.10000000000E+02 0. -1.
</event>
<event>
 5    1  0.1506459E-008  0.3859887E+03  0.7957747E-01  0.3425490E+00
         13   -1    0    0    0    0  0.00000000000E+00  0.00000000000E+00  0.14999999963E+04  0.15000000000E+04  0.10566000000E+00 0.  1.
        994   -1    0    0    0    0 -0.00000000000E+00 -0.00000000000E+00  0.11368683772E-12  0.17120000000E+03  0.17120000000E+03 0.  0.
         13    1    1    2    0    0  0.10156452562E+02 -0.39892613260E+01  0.48918605566E+02  0.50120942421E+02  0.10566000000E+00 0.  1.
        994    1    1    2    0    0 -0.19199404699E+02  0.38234588854E+01  0.23973844759E+01  0.17233230524E+03  0.17120000000E+03 0.  0.
        998    1    1    2    0    0  0.90429521371E+01  0.16580244065E+00  0.14486840062E+04  0.14487467523E+04  0.10000000000E+02 0.  1.
</event>
<event>
 5    1  0.1364103E-008  0.3851460E+03  0.7957747E-01  0.3429053E+00
         13   -1    0    0    0    0  0.00000000000E+00  0.00000000000E+00  0.14999999963E+04  0.15000000000E+04  0.10566000000E+00 0.  1.
        994   -1    0    0    0    0 -0.00000000000E+00 -0.00000000000E+00  0.11368683772E-12  0.17120000000E+03  0.17120000000E+03 0.  0.
         13    1    1    2    0    0  0.61806851212E+01 -0.11405596746E+02  0.51476162931E+02  0.53085732734E+02  0.10566000000E+00 0.  1.
        994    1    1    2    0    0 -0.28863136178E+02  0.45457228021E+01  0.43690527676E+01  0.17373046033E+03  0.17120000000E+03 0.  0.
        998    1    1    2    0    0  0.22682451057E+02  0.68598739442E+01  0.14441547806E+04  0.14443838069E+04  0.10000000000E+02 0.  1.
</event>
<event>
 5    1  0.1364103E-008  0.3818056E+03  0.7957747E-01  0.3443334E+00
         13   -1    0    0    0    0  0.00000000000E+00  0.00000000000E+00  0.14999999963E+04  0.15000000000E+04  0.10566000000E+00 0. -1.
        994   -1    0    0    0    0 -0.00000000000E+00 -0.00000000000E+00  0.11368683772E-12  0.17120000000E+03  0.17120000000E+03 0.  0.
         13    1    1    2    0    0 -0.10214385363E+02  0.49715814979E+00  0.14936722937E+02  0.18102422233E+02  0.10566000000E+00 0. -1.
        994    1    1    2    0    0  0.59517689545E+01  0.14766104180E+01  0.33494154959E+01  0.17134252979E+03  0.17120000000E+03 0.  0.
        998    1    1    2    0    0  0.42626164088E+01 -0.19737685678E+01  0.14817138578E+04  0.14817550480E+04  0.10000000000E+02 0. -1.
</event>
<event>
 5    1  0.1364103E-008  0.3830450E+03  0.7957747E-01  0.3438006E+00
         13   -1    0    0    0    0  0.00000000000E+00  0.00000000000E+00  0.14999999963E+04  0.15000000000E+04  0.10566000000E+00 0.  1.
        994   -1    0    0    0    0 -0.00000000000E+00 -0.00000000000E+00  0.11368683772E-12  0.17120000000E+03  0.17120000000E+03 0.  0.
         13    1    1    2    0    0  0.13973955211E+02  0.95983622240E+01  0.52499993371E+02  0.55169379638E+02  0.10566000000E+00 0.  1.
        994    1    1    2    0    0 -0.15291372251E+02 -0.11130128336E+02  0.37886243683E+01  0.17228319563E+03  0.17120000000E+03 0.  0.
        998    1    1    2    0    0  0.13174170397E+01  0.15317661124E+01  0.14437113785E+04  0.14437474247E+04  0.10000000000E+02 0.  1.
</event>
<event>
 5    1  0.1364103E-008  0.3846403E+03  0.7957747E-01  0.3431199E+00
         13   -1    0    0    0    0  0.00000000000E+00  0.00000000000E+00  0.14999999963E+04  0.15000000000E+04  0.10566000000E+00 0. -1.
        994   -1    0    0    0    0 -0.00000000000E+00 -0.00000000000E+00  0.11368683772E-12  0.17120000000E+03  0.17120000000E+03 0.  0.
         13    1    1    2    0    0 -0.13405719436E+02 -0.18439100948E+02  0.13321332726E+03  0.13514997403E+03  0.10566000000E+00 0. -1.
        994    1    1    2    0    0  0.16895620284E+02  0.15830741814E+02  0.35758296632E+01  0.17279554661E+03  0.17120000000E+03 0.  0.
        998    1    1    2    0    0 -0.34899008482E+01  0.26083591341E+01  0.13632108394E+04  0.13632544794E+04  0.10000000000E+02 0. -1.
</event>
<event>
 5    1  0.1364103E-008  0.3856756E+03  0.7957747E-01  0.3426812E+00
         13   -1    0    0    0    0  0.00000000000E+00  0.00000000000E+00  0.14999999963E+04  0.15000000000E+04  0.10566000000E+00 0. -1.
        994   -1    0    0    0    0 -0.00000000000E+00 -0.00000000000E+00  0.11368683772E-12  0.17120000000E+03  0.17120000000E+03 0.  0.
         13    1    1    2    0    0  0.55753100019E+01  0.93553253037E+01  0.46627887115E+02  0.47882953271E+02  0.10566000000E+00 0. -1.
        994    1    1    2    0    0 -0.44829637912E+01 -0.36023636145E+01  0.14036237290E+01  0.17130231799E+03  0.17120000000E+03 0.  0.
        998    1    1    2    0    0 -0.10923462108E+01 -0.57529616892E+01  0.14519684854E+04  0.14520147287E+04  0.10000000000E+02 0. -1.
</event>
<event>
 5    1  0.1364103E-008  0.3791845E+03  0.7957747E-01  0.3454717E+00
         13   -1    0    0    0    0  0.00000000000E+00  0.00000000000E+00  0.14999999963E+04  0.15000000000E+04  0.10566000000E+00 0.  1.
        994   -1    0    0    0    0 -0.00000000000E+00 -0.00000000000E+00  0.11368683772E-12  0.17120000000E+03  0.17120000000E+03 0.  0.
         13    1    1    2    0    0 -0.13545467823E+02  0.15098664549E+02  0.42591456807E+02  0.47175128263E+02  0.10566000000E+00 0.  1.
        994    1    1    2    0    0  0.18890741309E+02 -0.95056586573E+01  0.60458333673E+01  0.17260709648E+03  0.17120000000E+03 0.  0.
        998    1    1    2    0    0 -0.53452734868E+01 -0.55930058916E+01  0.14513627061E+04  0.14514177753E+04  0.10000000000E+02 0.  1.
</event>
<event>
 5    1  0.1364103E-008  0.3742412E+03  0.7957747E-01  0.3476623E+00
         13   -1    0    0    0    0  0.00000000000E+00  0.00000000000E+00  0.14999999963E+04  0.15000000000E+04  0.10566000000E+00 0. -1.
        994   -1    0    0    0    0 -0.00000000000E+00 -0.00000000000E+00  0.11368683772E-12  0.17120000000E+03  0.17120000000E+03 0.  0.
         13    1    1    2    0    0  0.54894301404E+01  0.21449070105E+02  0.31549494706E+02  0.38543199555E+02  0.10566000000E+00 0. -1.
        994    1    1    2    0    0  0.19773806497E+01 -0.18905190858E+02  0.83011737986E+01  0.17245192305E+03  0.17120000000E+03 0.  0.
        998    1    1    2    0    0 -0.74668107900E+01 -0.25438792473E+01  0.14601493278E+04  0.14602048774E+04  0.10000000000E+02 0. -1.
</event>
<event>
 5    1  0.1364103E-008  0.3728402E+03  0.7957747E-01  0.3482939E+00
         13   -1    0    0    0    0  0.00000000000E+00  0.00000000000E+00  0.14999999963E+04  0.15000000000E+04  0.10566000000E+00 0.  1.
        994   -1    0    0    0    0 -0.00000000000E+00 -0.00000000000E+00  0.11368683772E-12  0.17120000000E+03  0.17120000000E+03 0.  0.
         13    1    1    2    0    0 -0.61759005056E+02  0.64421506783E+02  0.27856108248E+03  0.29250742397E+03  0.10566000000E+00 0.  1.
        994    1    1    2    0    0  0.51742189937E+02 -0.54582456963E+02  0.32700950754E+02  0.18982963680E+03  0.17120000000E+03 0.  0.
        998    1    1    2    0    0  0.10016815119E+02 -0.98390498201E+01  0.11887379630E+04  0.11888629392E+04  0.10000000000E+02 0.  1.
</event>
<event>
 5    1  0.1364103E-008  0.3726333E+03  0.7957747E-01  0.3483876E+00
         13   -1    0    0    0    0  0.00000000000E+00  0.00000000000E+00  0.14999999963E+04  0.15000000000E+04  0.10566000000E+00 0. -1.
        994   -1    0    0    0    0 -0.00000000000E+00 -0.00000000000E+00  0.11368683772E-12  0.17120000000E+03  0.17120000000E+03 0.  0.
         13    1    1    2    0    0 -0.37591621679E+02  0.47084217039E+02  0.13216547421E+03  0.14525073925E+03  0.10566000000E+00 0. -1.
        994    1    1    2    0    0  0.36824715733E+02 -0.44945772005E+02  0.24348242594E+02  0.18242384446E+03  0.17120000000E+03 0.  0.
        998    1    1    2    0    0  0.76690594563E+00 -0.21384450332E+01  0.13434862795E+04  0.13435254163E+04  0.10000000000E+02 0.  0.
</event>
<event>
 5    1  0.1364103E-008  0.3810755E+03  0.7957747E-01  0.3446489E+00
         13   -1    0    0    0    0  0.00000000000E+00  0.00000000000E+00  0.14999999963E+04  0.15000000000E+04  0.10566000000E+00 0.  1.
        994   -1    0    0    0    0 -0.00000000000E+00 -0.00000000000E+00  0.11368683772E-12  0.17120000000E+03  0.17120000000E+03 0.  0.
         13    1    1    2    0    0 -0.25770213811E+02 -0.47204133955E+02  0.28897625352E+03  0.29393812350E+03  0.10566000000E+00 0.  1.
        994    1    1    2    0    0  0.45695300186E+02  0.51195285698E+02  0.19439629186E+02  0.18546254856E+03  0.17120000000E+03 0.  0.
        998    1    1    2    0    0 -0.19925086376E+02 -0.39911517432E+01  0.11915841136E+04  0.11917993279E+04  0.10000000000E+02 0.  1.
</event>
<event>
 5    1  0.1364103E-008  0.3861820E+03  0.7957747E-01  0.3424675E+00
         13   -1    0    0    0    0  0.00000000000E+00  0.00000000000E+00  0.14999999963E+04  0.15000000000E+04  0.10566000000E+00 0. -1.
        994   -1    0    0    0    0 -0.00000000000E+00 -0.00000000000E+00  0.11368683772E-12  0.17120000000E+03  0.17120000000E+03 0.  0.
         13    1    1    2    0    0 -0.52236445411E+01 -0.10442134743E+02  0.69731381893E+02  0.70702202406E+02  0.10566000000E+00 0. -1.
        994    1    1    2    0    0 -0.22584188116E+01  0.28300050672E+01  0.10873919104E+01  0.17124173500E+03  0.17120000000E+03 0.  0.
        998    1    1    2    0    0  0.74820633527E+01  0.76121296759E+01  0.14291812225E+04  0.14292560626E+04  0.10000000000E+02 0. -1.
</event>
<event>
 5    1  0.1364103E-008  0.3798737E+03  0.7957747E-01  0.3451709E+00
         13   -1    0    0    0    0  0.00000000000E+00  0.00000000000E+00  0.14999999963E+04  0.15000000000E+04  0.10566000000E+00 0.  1.
        994   -1    0    0    0    0 -0.00000000000E+00 -0.00000000000E+00  0.11368683772E-12  0.17120000000E+03  0.17120000000E+03 0.  0.
         13    1    1    2    0    0  0.13189805432E+02  0.37552842530E+02  0.18314732521E+03  0.18742235951E+03  0.10566000000E+00 0.  1.
        994    1    1    2    0    0 -0.13318531071E+02 -0.23229030858E+02  0.65983774898E+01  0.17340689066E+03  0.17120000000E+03 0.  0.
        998    1    1    2    0    0  0.12872563896E+00 -0.14323811672E+02  0.13102542936E+04  0.13103707498E+04  0.10000000000E+02 0.  1.
</event>
<event>
 5    1  0.1364103E-008  0.3725438E+03  0.7957747E-01  0.3484281E+00
         13   -1    0    0    0    0  0.00000000000E+00  0.00000000000E+00  0.14999999963E+04  0.15000000000E+04  0.10566000000E+00 0.  1.
        994   -1    0    0    0    0 -0.00000000000E+00 -0.00000000000E+00  0.11368683772E-12  0.17120000000E+03  0.17120000000E+03 0.  0.
         13    1    1    2    0    0  0.66032918414E+01 -0.16707551856E+02  0.16783758425E+02  0.24585594625E+02  0.10566000000E+00 0.  1.
        994    1    1    2    0    0 -0.10313127313E+02  0.11891526168E+02  0.87952034134E+01  0.17214692734E+03  0.17120000000E+03 0.  0.
        998    1    1    2    0    0  0.37098354714E+01  0.48160256879E+01  0.14744210344E+04  0.14744674780E+04  0.10000000000E+02 0.  1.
</event>
<event>
 5    1  0.1364103E-008  0.3790358E+03  0.7957747E-01  0.3455368E+00
         13   -1    0    0    0    0  0.00000000000E+00  0.00000000000E+00  0.14999999963E+04  0.15000000000E+04  0.10566000000E+00 0.  1.
        994   -1    0    0    0    0 -0.00000000000E+00 -0.00000000000E+00  0.11368683772E-12  0.17120000000E+03  0.17120000000E+03 0.  0.
         13    1    1    2    0    0 -0.26314387047E+02 -0.33759517352E+02  0.22446508849E+03  0.22850982275E+03  0.10566000000E+00 0.  1.
        994    1    1    2    0    0  0.63845704245E+01  0.44172324461E+01  0.48228235292E+01  0.17144379344E+03  0.17120000000E+03 0.  0.
        998    1    1    2    0    0  0.19929816623E+02  0.29342284906E+02  0.12707120843E+04  0.12712463838E+04  0.10000000000E+02 0.  1.
</event>
<event>
 5    1  0.1364103E-008  0.3807878E+03  0.7957747E-01  0.3447735E+00
         13   -1    0    0    0    0  0.00000000000E+00  0.00000000000E+00  0.14999999963E+04  0.15000000000E+04  0.10566000000E+00 0.  1.
        994   -1    0    0    0    0 -0.00000000000E+00 -0.00000000000E+00  0.11368683772E-12  0.17120000000E+03  0.17120000000E+03 0.  0.
         13    1    1    2    0    0 -0.10327872090E+01  0.24734094149E+02  0.75535498219E+02  0.79488771018E+02  0.10566000000E+00 0.  1.
        994    1    1    2    0    0  0.23908252033E+01 -0.29630443901E+02  0.66879741258E+01  0.17389033397E+03  0.17120000000E+03 0.  0.
        998    1    1    2    0    0 -0.13580379943E+01  0.48963497520E+01  0.14177765239E+04  0.14178208950E+04  0.10000000000E+02 0.  1.
</event>
<event>
 5    1  0.1364103E-008  0.3794189E+03  0.7957747E-01  0.3453693E+00
         13   -1    0    0    0    0  0.00000000000E+00  0.00000000000E+00  0.14999999963E+04  0.15000000000E+04  0.10566000000E+00 0. -1.
        994   -1    0    0    0    0 -0.00000000000E+00 -0.00000000000E+00  0.11368683772E-12  0.17120000000E+03  0.17120000000E+03 0.  0.
         13    1    1    2    0    0 -0.40181589193E+00  0.25352629090E+02  0.67227768097E+02  0.71850547842E+02  0.10566000000E+00 0. -1.
        994    1    1    2    0    0  0.13235213982E+01 -0.29204836122E+02  0.72946703634E+01  0.17383131587E+03  0.17120000000E+03 0.  0.
        998    1    1    2    0    0 -0.92170550631E+00  0.38522070318E+01  0.14254775578E+04  0.14255181363E+04  0.10000000000E+02 0. -1.
</event>
<event>
 5    1  0.1915292E-008  0.3859388E+03  0.7957747E-01  0.3425701E+00
         13   -1    0    0    0    0  0.00000000000E+00  0.00000000000E+00  0.14999999963E+04  0.15000000000E+04  0.10566000000E+00 0.  1.
        994   -1    0    0    0    0 -0.00000000000E+00 -0.00000000000E+00  0.11368683772E-12  0.17120000000E+03  0.17120000000E+03 0.  0.
         13    1    1    2    0    0 -0.79305584425E+01  0.85716601288E+01  0.60484553560E+02  0.61601619280E+02  0.10566000000E+00 0.  1.
        994    1    1    2    0    0  0.32750143169E+01 -0.34609989107E+01  0.12392190389E+01  0.17127077946E+03  0.17120000000E+03 0.  0.
        998    1    1    2    0    0  0.46555441256E+01 -0.51106612181E+01  0.14382762237E+04  0.14383276013E+04  0.10000000000E+02 0.  1.
</event>
<event>
 5    1  0.1364103E-008  0.3861382E+03  0.7957747E-01  0.3424859E+00
         13   -1    0    0    0    0  0.00000000000E+00  0.00000000000E+00  0.14999999963E+04  0.15000000000E+04  0.10566000000E+00 0. -1.
        994   -1    0    0    0    0 -0.00000000000E+00 -0.00000000000E+00  0.11368683772E-12  0.17120000000E+03  0.17120000000E+03 0.  0.
         13    1    1    2    0    0 -0.92597328801E+01  0.70503153532E+01  0.63159435180E+02  0.64222854311E+02  0.10566000000E+00 0. -1.
        994    1    1    2    0    0  0.95800653888E+01 -0.45356687353E+01  0.14342942693E+01  0.17153380758E+03  0.17120000000E+03 0.  0.
        998    1    1    2    0    0 -0.32033250866E+00 -0.25146466179E+01  0.14354062668E+04  0.14354433381E+04  0.10000000000E+02 0. -1.
</event>
<event>
 5    1  0.1364103E-008  0.3832658E+03  0.7957747E-01  0.3437061E+00
         13   -1    0    0    0    0  0.00000000000E+00  0.00000000000E+00  0.14999999963E+04  0.15000000000E+04  0.10566000000E+00 0.  1.
        994   -1    0    0    0    0 -0.00000000000E+00 -0.00000000000E+00  0.11368683772E-12  0.17120000000E+03  0.17120000000E+03 0.  0.
         13    1    1    2    0    0 -0.80200270094E+01 -0.65674655920E+01  0.20553308553E+02  0.23019602387E+02  0.10566000000E+00 0.  1.
        994    1    1    2    0    0  0.47854048476E+01  0.78870280344E+01  0.27751148412E+01  0.17147083301E+03  0.17120000000E+03 0.  0.
        998    1    1    2    0    0  0.32346221619E+01 -0.13195624425E+01  0.14766715729E+04  0.14767095646E+04  0.10000000000E+02 0.  1.
</event>
<event>
 5    1  0.1364103E-008  0.3838973E+03  0.7957747E-01  0.3434362E+00
         13   -1    0    0    0    0  0.00000000000E+00  0.00000000000E+00  0.14999999963E+04  0.15000000000E+04  0.10566000000E+00 0. -1.
        994   -1    0    0    0    0 -0.00000000000E+00 -0.00000000000E+00  0.11368683772E-12  0.17120000000E+03  0.17120000000E+03 0.  0.
         13    1    1    2    0    0 -0.54597375552E+01 -0.20147423326E+02  0.96857238446E+02  0.99081094081E+02  0.10566000000E+00 0. -1.
        994    1    1    2    0    0  0.10793125543E+02  0.14923092089E+02  0.32988516063E+01  0.17221937364E+03  0.17120000000E+03 0.  0.
        998    1    1    2    0    0 -0.53333879873E+01  0.52243312372E+01  0.13998439062E+04  0.13998995323E+04  0.10000000000E+02 0. -1.
</event>
<event>
 5    1  0.1364103E-008  0.3693635E+03  0.7957747E-01  0.3498821E+00
         13   -1    0    0    0    0  0.00000000000E+00  0.00000000000E+00  0.14999999963E+04  0.15000000000E+04  0.10566000000E+00 0. -1.
        994   -1    0    0    0    0 -0.00000000000E+00 -0.00000000000E+00  0.11368683772E-12  0.17120000000E+03  0.17120000000E+03 0.  0.
         13    1    1    2    0    0 -0.32130572768E+02  0.42929413657E+01  0.46026230901E+02  0.56295898136E+02  0.10566000000E+00 0. -1.
        994    1    1    2    0    0  0.16531617127E+02 -0.74135485862E+01  0.11748493205E+02  0.17255643181E+03  0.17120000000E+03 0.  0.
        998    1    1    2    0    0  0.15598955641E+02  0.31206072204E+01  0.14422252722E+04  0.14423476701E+04  0.10000000000E+02 0. -1.
</event>
<event>
 5    1  0.1364103E-008  0.3815101E+03  0.7957747E-01  0.3444610E+00
         13   -1    0    0    0    0  0.00000000000E+00  0.00000000000E+00  0.14999999963E+04  0.15000000000E+04  0.10566000000E+00 0. -1.
        994   -1    0    0    0    0 -0.00000000000E+00 -0.00000000000E+00  0.11368683772E-12  0.17120000000E+03  0.17120000000E+03 0.  0.
         13    1    1    2    0    0 -0.23433318563E+01  0.11598928389E+02  0.19094735970E+02  0.22464337287E+02  0.10566000000E+00 0. -1.
        994    1    1    2    0    0  0.11273152929E+02 -0.11808945167E+02  0.42598942779E+01  0.17202942150E+03  0.17120000000E+03 0.  0.
        998    1    1    2    0    0 -0.89298210723E+01  0.21001677809E+00  0.14766453660E+04  0.14767062412E+04  0.10000000000E+02 0. -1.
</event>
<event>
 5    1  0.1364103E-008  0.3693342E+03  0.7957747E-01  0.3498956E+00
         13   -1    0    0    0    0  0.00000000000E+00  0.00000000000E+00  0.14999999963E+04  0.15000000000E+04  0.10566000000E+00 0. -1.
        994   -1    0    0    0    0 -0.00000000000E+00 -0.00000000000E+00  0.11368683772E-12  0.17120000000E+03  0.17120000000E+03 0.  0.
         13    1    1    2    0    0  0.42153834320E+02  0.97456669885E+02  0.60533430720E+03  0.61457658830E+03  0.10566000000E+00 0. -1.
        994    1    1    2    0    0  0.10484709794E+02 -0.61112844071E+02  0.24119860720E+02  0.18367339636E+03  0.17120000000E+03 0.  0.
        998    1    1    2    0    0 -0.52638544113E+02 -0.36343825814E+02  0.87054582836E+03  0.87295001534E+03  0.10000000000E+02 0. -1.
</event>
<event>
 5    1  0.1364103E-008  0.3743166E+03  0.7957747E-01  0.3476285E+00
         13   -1    0    0    0    0  0.00000000000E+00  0.00000000000E+00  0.14999999963E+04  0.15000000000E+04  0.10566000000E+00 0.  1.
        994   -1    0    0    0    0 -0.00000000000E+00 -0.00000000000E+00  0.11368683772E-12  0.17120000000E+03  0.17120000000E+03 0.  0.
         13    1    1    2    0    0  0.57403786072E+01  0.16458380120E+02  0.53542995679E+01  0.18234854281E+02  0.10566000000E+00 0.  1.
        994    1    1    2    0    0 -0.66195835524E+01 -0.22342999586E+02  0.15169633313E+02  0.17344332300E+03  0.17120000000E+03 0.  0.
        998    1    1    2    0    0  0.87920494516E+00  0.58846194661E+01  0.14794760634E+04  0.14795218227E+04  0.10000000000E+02 0.  1.
</event>
<event>
 5    1  0.1364103E-008  0.3688863E+03  0.7957747E-01  0.3501025E+00
         13   -1    0    0    0    0  0.00000000000E+00  0.00000000000E+00  0.14999999963E+04  0.15000000000E+04  0.10566000000E+00 0.  1.
        994   -1    0    0    0    0 -0.00000000000E+00 -0.00000000000E+00  0.11368683772E-12  0.17120000000E+03  0.17120000000E+03 0.  0.
         13    1    1    2    0    0 -0.51173230639E+01 -0.29863386979E+02  0.41405523083E+02  0.51307283918E+02  0.10566000000E+00 0.  1.
        994    1    1    2    0    0 -0.48038234344E+01  0.11156540591E+02  0.10865072986E+02  0.17197393677E+03  0.17120000000E+03 0.  0.
        998    1    1    2    0    0  0.99211464983E+01  0.18706846388E+02  0.14477294002E+04  0.14479187793E+04  0.10000000000E+02 0.  1.
</event>
<event>
 5    1  0.1364103E-008  0.3859914E+03  0.7957747E-01  0.3425478E+00
         13   -1    0    0    0    0  0.00000000000E+00  0.00000000000E+00  0.14999999963E+04  0.15000000000E+04  0.10566000000E+00 0. -1.
        994   -1    0    0    0    0 -0.00000000000E+00 -0.00000000000E+00  0.11368683772E-12  0.17120000000E+03  0.17120000000E+03 0.  0.
         13    1    1    2    0    0 -0.88815791703E+00 -0.10004696705E+02  0.45541928552E+02  0.46636479294E+02  0.10566000000E+00 0. -1.
        994    1    1    2    0    0  0.60080332388E+01  0.37017895629E+01  0.13019700239E+01  0.17135032779E+03  0.17120000000E+03 0.  0.
        998    1    1    2    0    0 -0.51198753218E+01  0.63029071424E+01  0.14531560977E+04  0.14532131929E+04  0.10000000000E+02 0. -1.
</event>
<event>
 5    1  0.1364103E-008  0.3793297E+03  0.7957747E-01  0.3454082E+00
         13   -1    0    0    0    0  0.00000000000E+00  0.00000000000E+00  0.14999999963E+04  0.15000000000E+04  0.10566000000E+00 0.  1.
        994   -1    0    0    0    0 -0.00000000000E+00 -0.00000000000E+00  0.11368683772E-12  0.17120000000E+03  0.17120000000E+03 0.  0.
         13    1    1    2    0    0  0.10258243597E+02 -0.14631022336E+02  0.33145878165E+02  0.37655793441E+02  0.10566000000E+00 0.  1.
        994    1    1    2    0    0 -0.10307617517E+02  0.16680119776E+02  0.57610657565E+01  0.17241549598E+03  0.17120000000E+03 0.  0.
        998    1    1    2    0    0  0.49373919973E-01 -0.20490974400E+01  0.14610930524E+04  0.14611287106E+04  0.10000000000E+02 0.  1.
</event>
<event>
 5    1  0.1364103E-008  0.3802969E+03  0.7957747E-01  0.3449867E+00
         13   -1    0    0    0    0  0.00000000000E+00  0.00000000000E+00  0.14999999963E+04  0.15000000000E+04  0.10566000000E+00 0.  1.
        994   -1    0    0    0    0 -0.00000000000E+00 -0.00000000000E+00  0.11368683772E-12  0.17120000000E+03  0.17120000000E+03 0.  0.
         13    1    1    2    0    0 -0.14640177286E+02  0.72006676071E+01  0.30084566679E+02  0.34223920308E+02  0.10566000000E+00 0.  1.
        994    1    1    2    0    0  0.28178988981E+02 -0.90610879317E+01  0.69149374137E+01  0.17387758652E+03  0.17120000000E+03 0.  0.
        998    1    1    2    0    0 -0.13538811695E+02  0.18604203247E+01  0.14630004922E+04  0.14630984932E+04  0.10000000000E+02 0.  1.
</event>
<event>
 5    1  0.1364103E-008  0.3736264E+03  0.7957747E-01  0.3479389E+00
         13   -1    0    0    0    0  0.00000000000E+00  0.00000000000E+00  0.14999999963E+04  0.15000000000E+04  0.10566000000E+00 0. -1.
        994   -1    0    0    0    0 -0.00000000000E+00 -0.00000000000E+00  0.11368683772E-12  0.17120000000E+03  0.17120000000E+03 0.  0.
         13    1    1    2    0    0 -0.24278084909E+02 -0.38308087376E+01  0.37848332219E+02  0.45128792563E+02  0.10566000000E+00 0. -1.
        994    1    1    2    0    0  0.19582767146E+02 -0.13061374231E+02  0.92803199314E+01  0.17305966776E+03  0.17120000000E+03 0.  0.
        998    1    1    2    0    0  0.46953177636E+01  0.16892182969E+02  0.14528713441E+04  0.14530115397E+04  0.10000000000E+02 0. -1.
</event>
<event>
 5    1  0.1364103E-008  0.3834440E+03  0.7957747E-01  0.3436298E+00
         13   -1    0    0    0    0  0.00000000000E+00  0.00000000000E+00  0.14999999963E+04  0.15000000000E+04  0.10566000000E+00 0. -1.
        994   -1    0    0    0    0 -0.00000000000E+00 -0.00000000000E+00  0.11368683772E-12  0.17120000000E+03  0.17120000000E+03 0.  0.
         13    1    1    2    0    0  0.19864192186E+03 -0.10751241262E+03  0.10357899637E+04  0.10601313088E+04  0.10566000000E+00 0. -1.
        994    1    1    2    0    0 -0.20433810176E+03  0.13475232049E+03  0.23527448528E+03  0.38023120747E+03  0.17120000000E+03 0.  0.
        998    1    1    2    0    0  0.56961798965E+01 -0.27239907875E+02  0.22893554734E+03  0.23083748371E+03  0.10000000000E+02 0. -1.
</event>
<event>
 5    1  0.1364103E-008  0.3860389E+03  0.7957747E-01  0.3425278E+00
         13   -1    0    0    0    0  0.00000000000E+00  0.00000000000E+00  0.14999999963E+04  0.15000000000E+04  0.10566000000E+00 0. -1.
        994   -1    0    0    0    0 -0.00000000000E+00 -0.00000000000E+00  0.11368683772E-12  0.17120000000E+03  0.17120000000E+03 0.  0.
         13    1    1    2    0    0 -0.11334615322E+02 -0.50974991257E+01  0.69978232371E+02  0.71073357678E+02  0.10566000000E+00 0. -1.
        994    1    1    2    0    0  0.55685099657E+01  0.83675064145E+01  0.14463905848E+01  0.17150089070E+03  0.17120000000E+03 0.  0.
        998    1    1    2    0    0  0.57661053565E+01 -0.32700072889E+01  0.14285753733E+04  0.14286257516E+04  0.10000000000E+02 0. -1.
</event>
<event>
 5    1  0.1364103E-008  0.3834689E+03  0.7957747E-01  0.3436192E+00
         13   -1    0    0    0    0  0.00000000000E+00  0.00000000000E+00  0.14999999963E+04  0.15000000000E+04  0.10566000000E+00 0.  1.
        994   -1    0    0    0    0 -0.00000000000E+00 -0.00000000000E+00  0.11368683772E-12  0.17120000000E+03  0.17120000000E+03 0.  0.
         13    1    1    2    0    0  0.11606833422E+02  0.22377482249E+01  0.26648019081E+02  0.29152258646E+02  0.10566000000E+00 0.  1.
        994    1    1    2    0    0 -0.25720863792E+02 -0.52570424829E+01  0.46733889060E+01  0.17326419103E+03  0.17120000000E+03 0.  0.
        998    1    1    2    0    0  0.14114030370E+02  0.30192942580E+01  0.14686785883E+04  0.14687835503E+04  0.10000000000E+02 0.  1.
</event>
<event>
 5    1  0.1364103E-008  0.3840047E+03  0.7957747E-01  0.3433904E+00
         13   -1    0    0    0    0  0.00000000000E+00  0.00000000000E+00  0.14999999963E+04  0.15000000000E+04  0.10566000000E+00 0. -1.
        994   -1    0    0    0    0 -0.00000000000E+00 -0.00000000000E+00  0.11368683772E-12  0.17120000000E+03  0.17120000000E+03 0.  0.
         13    1    1    2    0    0  0.44234509835E+01 -0.93767809336E+01  0.25753625265E+02  0.27762408354E+02  0.10566000000E+00 0. -1.
        994    1    1    2    0    0  0.49792865481E+01 -0.27681447869E+01  0.22321806117E+01  0.17130930667E+03  0.17120000000E+03 0.  0.
        998    1    1    2    0    0 -0.94027375316E+01  0.12144925721E+02  0.14720141904E+04  0.14721282850E+04  0.10000000000E+02 0. -1.
</event>
<event>
 5    1  0.1364103E-008  0.3849499E+03  0.7957747E-01  0.3429885E+00
         13   -1    0    0    0    0  0.00000000000E+00  0.00000000000E+00  0.14999999963E+04  0.15000000000E+04  0.10566000000E+00 0. -1.
        994   -1    0    0    0    0 -0.00000000000E+00 -0.00000000000E+00  0.11368683772E-12  0.17120000000E+03  0.17120000000E+03 0.  0.
         13    1    1    2    0    0  0.40082590827E+01  0.10205368852E+02  0.34999035021E+02  0.36676413547E+02  0.10566000000E+00 0. -1.
        994    1    1    2    0    0 -0.62511249289E+01 -0.12821011311E+02  0.23245169883E+01  0.17180890045E+03  0.17120000000E+03 0.  0.
        998    1    1    2    0    0  0.22428658462E+01  0.26156424592E+01  0.14626764443E+04  0.14627146860E+04  0.10000000000E+02 0. -1.
</event>
<event>
 5    1  0.1364103E-008  0.3783523E+03  0.7957747E-01  0.3458365E+00
         13   -1    0    0    0    0  0.00000000000E+00  0.00000000000E+00  0.14999999963E+04  0.15000000000E+04  0.10566000000E+00 0.  1.
        994   -1    0    0    0    0 -0.00000000000E+00 -0.00000000000E+00  0.11368683772E-12  0.17120000000E+03  0.17120000000E+03 0.  0.
         13    1    1    2    0    0  0.17771996273E+02  0.18191261545E+02  0.65896083128E+02  0.70633354613E+02  0.10566000000E+00 0.  1.
        994    1    1    2    0    0 -0.19749959147E+02  0.10941504844E+02  0.66825913979E+01  0.17281167334E+03  0.17120000000E+03 0.  0.
        998    1    1    2    0    0  0.19779628734E+01 -0.29132766389E+02  0.14274213218E+04  0.14277549720E+04  0.10000000000E+02 0.  1.
</event>
<event>
 5    1  0.1364103E-008  0.3836013E+03  0.7957747E-01  0.3435626E+00
         13   -1    0    0    0    0  0.00000000000E+00  0.00000000000E+00  0.14999999963E+04  0.15000000000E+04  0.10566000000E+00 0.  1.
        994   -1    0    0    0    0 -0.00000000000E+00 -0.00000000000E+00  0.11368683772E-12  0.17120000000E+03  0.17120000000E+03 0.  0.
         13    1    1    2    0    0  0.26033707317E+02  0.41120791709E+01  0.15313494180E+03  0.15538656530E+03  0.10566000000E+00 0.  1.
        994    1    1    2    0    0 -0.11641883963E+02 -0.55327859929E+01  0.28752502962E+01  0.17170862601E+03  0.17120000000E+03 0.  0.
        998    1    1    2    0    0 -0.14391823354E+02  0.14207068221E+01  0.13439898042E+04  0.13441048087E+04  0.10000000000E+02 0.  1.
</event>
<event>
 5    1  0.1364103E-008  0.3763044E+03  0.7957747E-01  0.3467410E+00
         13   -1    0    0    0    0  0.00000000000E+00  0.00000000000E+00  0.14999999963E+04  0.15000000000E+04  0.10566000000E+00 0. -1.
        994   -1    0    0    0    0 -0.00000000000E+00 -0.00000000000E+00  0.11368683772E-12  0.17120000000E+03  0.17120000000E+03 0.  0.
         13    1    1    2    0    0 -0.15183332280E+02  0.16792579218E+02  0.42882406408E+02  0.48491609989E+02  0.10566000000E+00 0. -1.
        994    1    1    2    0    0 -0.54477255120E+01  0.24010997843E+01  0.61303865252E+01  0.17141314020E+03  0.17120000000E+03 0.  0.
        998    1    1    2    0    0  0.20631057792E+02 -0.19193679003E+02  0.14509872033E+04  0.14512952498E+04  0.10000000000E+02 0. -1.
</event>
<event>
 5    1  0.1364103E-008  0.3710043E+03  0.7957747E-01  0.3491288E+00
         13   -1    0    0    0    0  0.00000000000E+00  0.00000000000E+00  0.14999999963E+04  0.15000000000E+04  0.10566000000E+00 0. -1.
        994   -1    0    0    0    0 -0.00000000000E+00 -0.00000000000E+00  0.11368683772E-12  0.17120000000E+03  0.17120000000E+03 0.  0.
         13    1    1    2    0    0 -0.17127686111E+03 -0.11992231268E+02  0.90120996617E+03  0.91741974638E+03  0.10566000000E+00 0. -1.
        994    1    1    2    0    0  0.15572047425E+03 -0.24102161798E+02  0.99855635063E+02  0.25320025308E+03  0.17120000000E+03 0.  0.
        998    1    1    2    0    0  0.15556386857E+02  0.36094393065E+02  0.49893439504E+03  0.50058000054E+03  0.10000000000E+02 0. -1.
</event>
<event>
 5    1  0.1364103E-008  0.3749587E+03  0.7957747E-01  0.3473408E+00
         13   -1    0    0    0    0  0.00000000000E+00  0.00000000000E+00  0.14999999963E+04  0.15000000000E+04  0.10566000000E+00 0.  1.
        994   -1    0    0    0    0 -0.00000000000E+00 -0.00000000000E+00  0.11368683772E-12  0.17120000000E+03  0.17120000000E+03 0.  0.
         13    1    1    2    0    0 -0.17731198682E+01  0.22245702497E+02  0.33632622440E+02  0.40363098120E+02  0.10566000000E+00 0.  1.
        994    1    1    2    0    0  0.50289945799E+01 -0.23412940415E+02  0.86519560388E+01  0.17308308094E+03  0.17120000000E+03 0.  0.
        998    1    1    2    0    0 -0.32558747117E+01  0.11672379184E+01  0.14577154178E+04  0.14577538209E+04  0.10000000000E+02 0.  1.
</event>
<event>
 5    1  0.1364103E-008  0.3732820E+03  0.7957747E-01  0.3480942E+00
         13   -1    0    0    0    0  0.00000000000E+00  0.00000000000E+00  0.14999999963E+04  0.15000000000E+04  0.10566000000E+00 0. -1.
        994   -1    0    0    0    0 -0.00000000000E+00 -0.00000000000E+00  0.11368683772E-12  0.17120000000E+03  0.17120000000E+03 0.  0.
         13    1    1    2    0    0 -0.21844646670E+02 -0.36892767409E+02  0.12499144195E+03  0.13214059407E+03  0.10566000000E+00 0. -1.
        994    1    1    2    0    0  0.43222841972E+01  0.14674352432E+02  0.83641297164E+01  0.17208549452E+03  0.17120000000E+03 0.  0.
        998    1    1    2    0    0  0.17522362473E+02  0.22218414977E+02  0.13666444246E+04  0.13669739114E+04  0.10000000000E+02 0. -1.
</event>
<event>
 5    1  0.1364103E-008  0.3836951E+03  0.7957747E-01  0.3435225E+00
         13   -1    0    0    0    0  0.00000000000E+00  0.00000000000E+00  0.14999999963E+04  0.15000000000E+04  0.10566000000E+00 0.  1.
        994   -1    0    0    0    0 -0.00000000000E+00 -0.00000000000E+00  0.11368683772E-12  0.17120000000E+03  0.17120000000E+03 0.  0.
         13    1    1    2    0    0  0.56030806944E+01  0.30817635167E+02  0.17721436630E+03  0.17996128456E+03  0.10566000000E+00 0.  1.
        994    1    1    2    0    0 -0.81772207312E+01 -0.39475475683E+02  0.76653097181E+01  0.17604935982E+03  0.17120000000E+03 0.  0.
        998    1    1    2    0    0  0.25741400369E+01  0.86578405166E+01  0.13151203203E+04  0.13151893556E+04  0.10000000000E+02 0.  1.
</event>
<event>
 5    1  0.1364103E-008  0.3771889E+03  0.7957747E-01  0.3463491E+00
         13   -1    0    0    0    0  0.00000000000E+00  0.00000000000E+00  0.14999999963E+04  0.15000000000E+04  0.10566000000E+00 0. -1.
        994   -1    0    0    0    0 -0.00000000000E+00 -0.00000000000E+00  0.11368683772E-12  0.17120000000E+03  0.17120000000E+03 0.  0.
         13    1    1    2    0    0 -0.46648782567E+02 -0.53415223158E+02  0.40838642493E+03  0.41449822462E+03  0.10566000000E+00 0. -1.
        994    1    1    2    0    0  0.40553865206E+02  0.31802564905E+02  0.14574175145E+02  0.17938189903E+03  0.17120000000E+03 0.  0.
        998    1    1    2    0    0  0.60949173610E+01  0.21612658253E+02  0.10770393962E+04  0.10773198764E+04  0.10000000000E+02 0. -1.
</event>
<event>
 5    1  0.1364103E-008  0.3832167E+03  0.7957747E-01  0.3437271E+00
         13   -1    0    0    0    0  0.00000000000E+00  0.00000000000E+00  0.14999999963E+04  0.15000000000E+04  0.10566000000E+00 0. -1.
        994   -1    0    0    0    0 -0.00000000000E+00 -0.00000000000E+00  0.11368683772E-12  0.17120000000E+03  0.17120000000E+03 0.  0.
         13    1    1    2    0    0  0.20460626467E+01 -0.16870065997E+02  0.55242627225E+02  0.57797443939E+02  0.10566000000E+00 0. -1.
        994    1    1    2    0    0  0.11181611100E+02  0.17892229743E+02  0.39920027245E+01  0.17254140488E+03  0.17120000000E+03 0.  0.
        998    1    1    2    0    0 -0.13227673747E+02 -0.10221637463E+01  0.14407653663E+04  0.14408611512E+04  0.10000000000E+02 0. -1.
</event>
<event>
 5    1  0.1364103E-008  0.3815260E+03  0.7957747E-01  0.3444541E+00
         13   -1    0    0    0    0  0.00000000000E+00  0.00000000000E+00  0.14999999963E+04  0.15000000000E+04  0.10566000000E+00 0.  1.
        994   -1    0    0    0    0 -0.00000000000E+00 -0.00000000000E+00  0.11368683772E-12  0.17120000000E+03  0.17120000000E+03 0.  0.
         13    1    1    2    0    0 -0.67866383216E+01  0.24655785751E+02  0.94422763510E+02  0.97824514635E+02  0.10566000000E+00 0.  1.
        994    1    1    2    0    0  0.21652852242E+02 -0.13901173490E+02  0.55701468135E+01  0.17321245674E+03  0.17120000000E+03 0.  0.
        998    1    1    2    0    0 -0.14866213921E+02 -0.10754612261E+02  0.14000070860E+04  0.14001630286E+04  0.10000000000E+02 0.  1.
</event>
<event>
 5    1  0.1364103E-008  0.3849158E+03  0.7957747E-01  0.3430029E+00
         13   -1    0    0    0    0  0.00000000000E+00  0.00000000000E+00  0.14999999963E+04  0.15000000000E+04  0.10566000000E+00 0.  1.
        994   -1    0    0    0    0 -0.00000000000E+00 -0.00000000000E+00  0.11368683772E-12  0.17120000000E+03  0.17120000000E+03 0.  0.
         13    1    1    2    0    0  0.44766959469E+01 -0.90294114755E+01  0.29669146775E+02  0.31334334405E+02  0.10566000000E+00 0.  1.
        994    1    1    2    0    0  0.49533249207E+02  0.38167687514E+02  0.14642618334E+02  0.18285010642E+03  0.17120000000E+03 0.  0.
        998    1    1    2    0    0 -0.54009945154E+02 -0.29138276039E+02  0.14556882312E+04  0.14570155592E+04  0.10000000000E+02 0.  1.
</event>
<event>
 5    1  0.1364103E-008  0.3808576E+03  0.7957747E-01  0.3447433E+00
         13   -1    0    0    0    0  0.00000000000E+00  0.00000000000E+00  0.14999999963E+04  0.15000000000E+04  0.10566000000E+00 0.  1.
        994   -1    0    0    0    0 -0.00000000000E+00 -0.00000000000E+00  0.11368683772E-12  0.17120000000E+03  0.17120000000E+03 0.  0.
         13    1    1    2    0    0 -0.83414334951E+00  0.23908695883E+02  0.74271627203E+02  0.78029528419E+02  0.10566000000E+00 0.  1.
        994    1    1    2    0    0  0.51931122877E+02 -0.19857799826E+02  0.14074696620E+02  0.18055113077E+03  0.17120000000E+03 0.  0.
        998    1    1    2    0    0 -0.51096979528E+02 -0.40508960570E+01  0.14116536725E+04  0.14126193408E+04  0.10000000000E+02 0.  1.
</event>
<event>
 5    1  0.1364103E-008  0.3787569E+03  0.7957747E-01  0.3456589E+00
         13   -1    0    0    0    0  0.00000000000E+00  0.00000000000E+00  0.14999999963E+04  0.15000000000E+04  0.10566000000E+00 0.  1.
        994   -1    0    0    0    0 -0.00000000000E+00 -0.00000000000E+00  0.11368683772E-12  0.17120000000E+03  0.17120000000E+03 0.  0.
         13    1    1    2    0    0  0.12454917941E+02 -0.23449023574E+02  0.69695793271E+02  0.74582145660E+02  0.10566000000E+00 0.  1.
        994    1    1    2    0    0 -0.11163042374E+02  0.23081297299E+02  0.69716526445E+01  0.17324954182E+03  0.17120000000E+03 0.  0.
        998    1    1    2    0    0 -0.12918755676E+01  0.36772627580E+00  0.14233325504E+04  0.14233683125E+04  0.10000000000E+02 0.  0.
</event>
<event>
 5    1  0.1364103E-008  0.3690894E+03  0.7957747E-01  0.3500086E+00
         13   -1    0    0    0    0  0.00000000000E+00  0.00000000000E+00  0.14999999963E+04  0.15000000000E+04  0.10566000000E+00 0.  1.
        994   -1    0    0    0    0 -0.00000000000E+00 -0.00000000000E+00  0.11368683772E-12  0.17120000000E+03  0.17120000000E+03 0.  0.
         13    1    1    2    0    0 -0.10425066473E+03 -0.32406993085E+02  0.40250781737E+03  0.41705031891E+03  0.10566000000E+00 0.  1.
        994    1    1    2    0    0  0.10287244990E+03  0.39929419445E+02  0.54185046778E+02  0.21076659788E+03  0.17120000000E+03 0.  0.
        998    1    1    2    0    0  0.13782148288E+01 -0.75224263599E+01  0.10433071321E+04  0.10433830832E+04  0.10000000000E+02 0.  0.
</event>
<event>
 5    1  0.1364103E-008  0.3781440E+03  0.7957747E-01  0.3459280E+00
         13   -1    0    0    0    0  0.00000000000E+00  0.00000000000E+00  0.14999999963E+04  0.15000000000E+04  0.10566000000E+00 0.  1.
        994   -1    0    0    0    0 -0.00000000000E+00 -0.00000000000E+00  0.11368683772E-12  0.17120000000E+03  0.17120000000E+03 0.  0.
         13    1    1    2    0    0 -0.63522740922E+01 -0.12901517039E+02  0.18565825623E+02  0.23484070625E+02  0.10566000000E+00 0.  1.
        994    1    1    2    0    0 -0.76154811767E+01  0.64648750338E+01  0.54087026785E+01  0.17157646758E+03  0.17120000000E+03 0.  0.
        998    1    1    2    0    0  0.13967755269E+02  0.64366420052E+01  0.14760254680E+04  0.14761394618E+04  0.10000000000E+02 0.  1.
</event>
<event>
 5    1  0.2275000E-008  0.3863322E+03  0.7957747E-01  0.3424042E+00
         13   -1    0    0    0    0  0.00000000000E+00  0.00000000000E+00  0.14999999963E+04  0.15000000000E+04  0.10566000000E+00 0.  1.
        994   -1    0    0    0    0 -0.00000000000E+00 -0.00000000000E+00  0.11368683772E-12  0.17120000000E+03  0.17120000000E+03 0.  0.
         13    1    1    2    0    0 -0.67745757893E+01  0.95312096193E+01  0.67985834851E+02  0.68984228185E+02  0.10566000000E+00 0.  1.
        994    1    1    2    0    0  0.11678553442E+02 -0.92322309001E+01  0.16961988511E+01  0.17185441452E+03  0.17120000000E+03 0.  0.
        998    1    1    2    0    0 -0.49039776526E+01 -0.29897871918E+00  0.14303179626E+04  0.14303613573E+04  0.10000000000E+02 0.  1.
</event>
<event>
 5    1  0.1364103E-008  0.3813509E+03  0.7957747E-01  0.3445297E+00
         13   -1    0    0    0    0  0.00000000000E+00  0.00000000000E+00  0.14999999963E+04  0.15000000000E+04  0.10566000000E+00 0.  1.
        994   -1    0    0    0    0 -0.00000000000E+00 -0.00000000000E+00  0.11368683772E-12  0.17120000000E+03  0.17120000000E+03 0.  0.
         13    1    1    2    0    0  0.94962204600E+01  0.15124975490E+02  0.45725427370E+02  0.49089397621E+02  0.10566000000E+00 0.  1.
        994    1    1    2    0    0 -0.73387702741E+01 -0.40892442698E+01  0.36876884657E+01  0.17144567219E+03  0.17120000000E+03 0.  0.
        998    1    1    2    0    0 -0.21574501860E+01 -0.11035731220E+02  0.14505868804E+04  0.14506649302E+04  0.10000000000E+02 0.  1.
</event>
<event>
 5    1  0.1364103E-008  0.3845155E+03  0.7957747E-01  0.3431730E+00
         13   -1    0    0    0    0  0.00000000000E+00  0.00000000000E+00  0.14999999963E+04  0.15000000000E+04  0.10566000000E+00 0. -1.
        994   -1    0    0    0    0 -0.00000000000E+00 -0.00000000000E+00  0.11368683772E-12  0.17120000000E+03  0.17120000000E+03 0.  0.
         13    1    1    2    0    0 -0.31651209716E+01  0.13646070927E+02  0.50232969235E+02  0.52149742135E+02  0.10566000000E+00 0. -1.
        994    1    1    2    0    0  0.20287991685E+01 -0.16567037918E+02  0.27890208673E+01  0.17203430300E+03  0.17120000000E+03 0.  0.
        998    1    1    2    0    0  0.11363218031E+01  0.29209669904E+01  0.14469780062E+04  0.14470159549E+04  0.10000000000E+02 0. -1.
</event>
<event>
 5    1  0.1364103E-008  0.3828694E+03  0.7957747E-01  0.3438759E+00
         13   -1    0    0    0    0  0.00000000000E+00  0.00000000000E+00  0.14999999963E+04  0.15000000000E+04  0.10566000000E+00 0. -1.
        994   -1    0    0    0    0 -0.00000000000E+00 -0.00000000000E+00  0.11368683772E-12  0.17120000000E+03  0.17120000000E+03 0.  0.
         13    1    1    2    0    0  0.49895601272E+01 -0.12208504124E+02  0.31402414269E+02  0.34059742647E+02  0.10566000000E+00 0. -1.
        994    1    1    2    0    0 -0.25283363376E+01  0.86232167755E+01  0.29591068991E+01  0.17146121621E+03  0.17120000000E+03 0.  0.
        998    1    1    2    0    0 -0.24612237896E+01  0.35852873488E+01  0.14656384751E+04  0.14656790411E+04  0.10000000000E+02 0. -1.
</event>
<event>
 5    1  0.1364103E-008  0.3837211E+03  0.7957747E-01  0.3435115E+00
         13   -1    0    0    0    0  0.00000000000E+00  0.00000000000E+00  0.14999999963E+04  0.15000000000E+04  0.10566000000E+00 0.  1.
        994   -1    0    0    0    0 -0.00000000000E+00 -0.00000000000E+00  0.11368683772E-12  0.17120000000E+03  0.17120000000E+03 0.  0.
         13    1    1    2    0    0  0.66515423754E+01 -0.20675287443E+02  0.11749292063E+03  0.11948350551E+03  0.10566000000E+00 0.  1.
        994    1    1    2    0    0 -0.10452396410E+02 -0.67005790047E+01  0.27756637884E+01  0.17167205556E+03  0.17120000000E+03 0.  0.
        998    1    1    2    0    0  0.38008540346E+01  0.27375866448E+02  0.13797314119E+04  0.13800444389E+04  0.10000000000E+02 0.  1.
</event>
<event>
 5    1  0.1364103E-008  0.3850448E+03  0.7957747E-01  0.3429482E+00
         13   -1    0    0    0    0  0.00000000000E+00  0.00000000000E+00  0.14999999963E+04  0.15000000000E+04  0.10566000000E+00 0.  1.
        994   -1    0    0    0    0 -0.00000000000E+00 -0.00000000000E+00  0.11368683772E-12  0.17120000000E+03  0.17120000000E+03 0.  0.
         13    1    1    2    0    0 -0.11229606179E+02  0.11277652174E+02  0.79294361462E+02  0.80875808603E+02  0.10566000000E+00 0.  1.
        994    1    1    2    0    0  0.58459112103E+01 -0.76418843538E+01  0.19123725564E+01  0.17148081596E+03  0.17120000000E+03 0.  0.
        998    1    1    2    0    0  0.53836949690E+01 -0.36357678199E+01  0.14187932623E+04  0.14188433754E+04  0.10000000000E+02 0.  1.
</event>
<event>
 5    1  0.1364103E-008  0.3773607E+03  0.7957747E-01  0.3462732E+00
         13   -1    0    0    0    0  0.00000000000E+00  0.00000000000E+00  0.14999999963E+04  0.15000000000E+04  0.10566000000E+00 0.  1.
        994   -1    0    0    0    0 -0.00000000000E+00 -0.00000000000E+00  0.11368683772E-12  0.17120000000E+03  0.17120000000E+03 0.  0.
         13    1    1    2    0    0 -0.61397733109E+01  0.34753782124E+02  0.15592926222E+03  0.15987328785E+03  0.10566000000E+00 0.  1.
        994    1    1    2    0    0  0.10197795394E+02  0.36223723401E+02  0.10262099584E+02  0.17558731120E+03  0.17120000000E+03 0.  0.
        998    1    1    2    0    0 -0.40580220833E+01 -0.70977505526E+02  0.13338086345E+04  0.13357394009E+04  0.10000000000E+02 0.  1.
</event>
<event>
 5    1  0.1364103E-008  0.3839969E+03  0.7957747E-01  0.3433937E+00
         13   -1    0    0    0    0  0.00000000000E+00  0.00000000000E+00  0.14999999963E+04  0.15000000000E+04  0.10566000000E+00 0.  1.
        994   -1    0    0    0    0 -0.00000000000E+00 -0.00000000000E+00  0.11368683772E-12  0.17120000000E+03  0.17120000000E+03 0.  0.
         13    1    1    2    0    0  0.72573066326E+01 -0.25854751351E+02  0.15014776968E+03  0.15253032672E+03  0.10566000000E+00 0.  1.
        994    1    1    2    0    0 -0.63249031890E+00  0.31266201782E+02  0.53623456669E+01  0.17411539326E+03  0.17120000000E+03 0.  0.
        998    1    1    2    0    0 -0.66248163137E+01 -0.54114504313E+01  0.13444898809E+04  0.13445542800E+04  0.10000000000E+02 0.  1.
</event>
<event>
 5    1  0.1364103E-008  0.3838121E+03  0.7957747E-01  0.3434726E+00
         13   -1    0    0    0    0  0.00000000000E+00  0.00000000000E+00  0.14999999963E+04  0.15000000000E+04  0.10566000000E+00 0.  1.
        994   -1    0    0    0    0 -0.00000000000E+00 -0.00000000000E+00  0.11368683772E-12  0.17120000000E+03  0.17120000000E+03 0.  0.
         13    1    1    2    0    0 -0.13852418559E+02  0.16850928962E+02  0.10569371314E+03  0.10792133927E+03  0.10566000000E+00 0.  1.
        994    1    1    2    0    0  0.99267763231E+01 -0.11040715757E+02  0.29491287844E+01  0.17186790175E+03  0.17120000000E+03 0.  0.
        998    1    1    2    0    0  0.39256422354E+01 -0.58102132050E+01  0.13913571543E+04  0.13914107590E+04  0.10000000000E+02 0.  1.
</event>
<event>
 5    1  0.1364103E-008  0.3826325E+03  0.7957747E-01  0.3439776E+00
         13   -1    0    0    0    0  0.00000000000E+00  0.00000000000E+00  0.14999999963E+04  0.15000000000E+04  0.10566000000E+00 0. -1.
        994   -1    0    0    0    0 -0.00000000000E+00 -0.00000000000E+00  0.11368683772E-12  0.17120000000E+03  0.17120000000E+03 0.  0.
         13    1    1    2    0    0 -0.11294381309E+02 -0.18297556362E+01  0.22299329006E+02  0.25063565050E+02  0.10566000000E+00 0. -1.
        994    1    1    2    0    0  0.61442173658E+01  0.67145263228E+01  0.30847297355E+01  0.17146950699E+03  0.17120000000E+03 0.  0.
        998    1    1    2    0    0  0.51501639437E+01 -0.48847706865E+01  0.14746159375E+04  0.14746669280E+04  0.10000000000E+02 0. -1.
</event>
<event>
 5    1  0.1364103E-008  0.3794560E+03  0.7957747E-01  0.3453530E+00
         13   -1    0    0    0    0  0.00000000000E+00  0.00000000000E+00  0.14999999963E+04  0.15000000000E+04  0.10566000000E+00 0. -1.
        994   -1    0    0    0    0 -0.00000000000E+00 -0.00000000000E+00  0.11368683772E-12  0.17120000000E+03  0.17120000000E+03 0.  0.
         13    1    1    2    0    0 -0.84009808587E+01 -0.24698015925E+02  0.72896132931E+02  0.77423677453E+02  0.10566000000E+00 0. -1.
        994    1    1    2    0    0  0.65619629986E+01  0.24010776546E+02  0.64856705443E+01  0.17312157772E+03  0.17120000000E+03 0.  0.
        998    1    1    2    0    0  0.18390178601E+01  0.68723937962E+00  0.14206181928E+04  0.14206547448E+04  0.10000000000E+02 0. -1.
</event>
<event>
 5    1  0.1364103E-008  0.3761492E+03  0.7957747E-01  0.3468099E+00
         13   -1    0    0    0    0  0.00000000000E+00  0.00000000000E+00  0.14999999963E+04  0.15000000000E+04  0.10566000000E+00 0. -1.
        994   -1    0    0    0    0 -0.00000000000E+00 -0.00000000000E+00  0.11368683772E-12  0.17120000000E+03  0.17120000000E+03 0.  0.
         13    1    1    2    0    0  0.39430312986E+02  0.12823623677E+02  0.15496021520E+03  0.16041157803E+03  0.10566000000E+00 0. -1.
        994    1    1    2    0    0 -0.38727432639E+01 -0.37409007238E+01  0.61879702838E+01  0.17139639277E+03  0.17120000000E+03 0.  0.
        998    1    1    2    0    0 -0.35557569722E+02 -0.90827229536E+01  0.13388518108E+04  0.13393920292E+04  0.10000000000E+02 0. -1.
</event>
<event>
 5    1  0.1364103E-008  0.3800606E+03  0.7957747E-01  0.3450895E+00
         13   -1    0    0    0    0  0.00000000000E+00  0.00000000000E+00  0.14999999963E+04  0.15000000000E+04  0.10566000000E+00 0.  1.
        994   -1    0    0    0    0 -0.00000000000E+00 -0.00000000000E+00  0.11368683772E-12  0.17120000000E+03  0.17120000000E+03 0.  0.
         13    1    1    2    0    0  0.18615523416E+02 -0.38670691128E+02  0.20403109015E+03  0.20849617976E+03  0.10566000000E+00 0.  1.
        994    1    1    2    0    0 -0.12485379446E+02  0.34857147796E+02  0.86980627679E+01  0.17537389130E+03  0.17120000000E+03 0.  0.
        998    1    1    2    0    0 -0.61301439699E+01  0.38135433320E+01  0.12872708434E+04  0.12873299289E+04  0.10000000000E+02 0.  1.
</event>
<event>
 5    1  0.1364103E-008  0.2710967E+03  0.7957747E-01  0.4126741E+00
         13   -1    0    0    0    0  0.00000000000E+00  0.00000000000E+00  0.14999999963E+04  0.15000000000E+04  0.10566000000E+00 0. -1.
        994   -1    0    0    0    0 -0.00000000000E+00 -0.00000000000E+00  0.11368683772E-12  0.17120000000E+03  0.17120000000E+03 0.  0.
         13    1    1    2    0    0 -0.11205845126E+03  0.17770443139E+03  0.53394088081E+03  0.57378466066E+03  0.10566000000E+00 0. -1.
        994    1    1    2    0    0  0.53159530799E+02 -0.10434487636E+03  0.10743106982E+03  0.23359080397E+03  0.17120000000E+03 0.  0.
        998    1    1    2    0    0  0.58898920463E+02 -0.73359555038E+02  0.85862804564E+03  0.86382453537E+03  0.10000000000E+02 0. -1.
</event>
<event>
 5    1  0.1364103E-008  0.3792559E+03  0.7957747E-01  0.3454405E+00
         13   -1    0    0    0    0  0.00000000000E+00  0.00000000000E+00  0.14999999963E+04  0.15000000000E+04  0.10566000000E+00 0.  1.
        994   -1    0    0    0    0 -0.00000000000E+00 -0.00000000000E+00  0.11368683772E-12  0.17120000000E+03  0.17120000000E+03 0.  0.
         13    1    1    2    0    0 -0.22864641046E+02 -0.38163561911E+02  0.20028570573E+03  0.20516730819E+03  0.10566000000E+00 0.  1.
        994    1    1    2    0    0  0.20064999781E+02  0.31886887944E+02  0.92805090450E+01  0.17554186306E+03  0.17120000000E+03 0.  0.
        998    1    1    2    0    0  0.27996412644E+01  0.62766739673E+01  0.12904337815E+04  0.12904908287E+04  0.10000000000E+02 0.  1.
</event>
<event>
 5    1  0.1364103E-008  0.3722485E+03  0.7957747E-01  0.3485621E+00
         13   -1    0    0    0    0  0.00000000000E+00  0.00000000000E+00  0.14999999963E+04  0.15000000000E+04  0.10566000000E+00 0. -1.
        994   -1    0    0    0    0 -0.00000000000E+00 -0.00000000000E+00  0.11368683772E-12  0.17120000000E+03  0.17120000000E+03 0.  0.
         13    1    1    2    0    0 -0.39106655031E+02 -0.21497677118E+02  0.74494734768E+02  0.86838685282E+02  0.10566000000E+00 0. -1.
        994    1    1    2    0    0  0.39899767999E+02  0.17097680502E+02  0.18802142721E+02  0.17761554756E+03  0.17120000000E+03 0.  0.
        998    1    1    2    0    0 -0.79311296773E+00  0.43999966157E+01  0.14067031188E+04  0.14067457672E+04  0.10000000000E+02 0. -1.
</event>
<event>
 5    1  0.1364103E-008  0.3797312E+03  0.7957747E-01  0.3452330E+00
         13   -1    0    0    0    0  0.00000000000E+00  0.00000000000E+00  0.14999999963E+04  0.15000000000E+04  0.10566000000E+00 0. -1.
        994   -1    0    0    0    0 -0.00000000000E+00 -0.00000000000E+00  0.11368683772E-12  0.17120000000E+03  0.17120000000E+03 0.  0.
         13    1    1    2    0    0  0.55521591372E+01 -0.31224572212E+02  0.11440788719E+03  0.11872226495E+03  0.10566000000E+00 0. -1.
        994    1    1    2    0    0 -0.12086711155E+02  0.20396132236E+02  0.61518706462E+01  0.17294327483E+03  0.17120000000E+03 0.  0.
        998    1    1    2    0    0  0.65345520176E+01  0.10828439976E+02  0.13794402384E+04  0.13795344602E+04  0.10000000000E+02 0. -1.
</event>
<event>
 5    1  0.1364103E-008  0.3816268E+03  0.7957747E-01  0.3444106E+00
         13   -1    0    0    0    0  0.00000000000E+00  0.00000000000E+00  0.14999999963E+04  0.15000000000E+04  0.10566000000E+00 0.  1.
        994   -1    0    0    0    0 -0.00000000000E+00 -0.00000000000E+00  0.11368683772E-12  0.17120000000E+03  0.17120000000E+03 0.  0.
         13    1    1    2    0    0 -0.28767328790E+02 -0.16633707468E+02  0.18240423910E+03  0.18540646439E+03  0.10566000000E+00 0.  1.
        994    1    1    2    0    0  0.19484764076E+01  0.11116553479E+02  0.37378512541E+01  0.17161231265E+03  0.17120000000E+03 0.  0.
        998    1    1    2    0    0  0.26818852383E+02  0.55171539883E+01  0.13138579059E+04  0.13141812230E+04  0.10000000000E+02 0.  1.
</event>
<event>
 5    1  0.1364103E-008  0.4130375E+03  0.7957747E-01  0.3318822E+00
         13   -1    0    0    0    0  0.00000000000E+00  0.00000000000E+00  0.14999999963E+04  0.15000000000E+04  0.10566000000E+00 0. -1.
        994   -1    0    0    0    0 -0.00000000000E+00 -0.00000000000E+00  0.11368683772E-12  0.17120000000E+03  0.17120000000E+03 0.  0.
         13    1    1    2    0    0  0.93912150812E+02 -0.69530081999E+02  0.18947244140E+03  0.22260669709E+03  0.10566000000E+00 0. -1.
        994    1    1    2    0    0 -0.88244973220E+02 -0.65126321888E+01  0.69013507751E+02  0.20469952108E+03  0.17120000000E+03 0.  0.
        998    1    1    2    0    0 -0.56671775919E+01  0.76042714188E+02  0.12415140471E+04  0.12438937818E+04  0.10000000000E+02 0. -1.
</event>
<event>
 5    1  0.1364103E-008  0.3763509E+03  0.7957747E-01  0.3467203E+00
         13   -1    0    0    0    0  0.00000000000E+00  0.00000000000E+00  0.14999999963E+04  0.15000000000E+04  0.10566000000E+00 0. -1.
        994   -1    0    0    0    0 -0.00000000000E+00 -0.00000000000E+00  0.11368683772E-12  0.17120000000E+03  0.17120000000E+03 0.  0.
         13    1    1    2    0    0 -0.21085711083E+02  0.16864618687E+02  0.57017432619E+02  0.63087410486E+02  0.10566000000E+00 0. -1.
        994    1    1    2    0    0  0.21897751841E+02 -0.13266811881E+02  0.82079479597E+01  0.17329838500E+03  0.17120000000E+03 0.  0.
        998    1    1    2    0    0 -0.81204075740E+00 -0.35978068056E+01  0.14347746157E+04  0.14348142045E+04  0.10000000000E+02 0.  0.
</event>
<event>
 5    1  0.1364103E-008  0.3734386E+03  0.7957747E-01  0.3480236E+00
         13   -1    0    0    0    0  0.00000000000E+00  0.00000000000E+00  0.14999999963E+04  0.15000000000E+04  0.10566000000E+00 0.  1.
        994   -1    0    0    0    0 -0.00000000000E+00 -0.00000000000E+00  0.11368683772E-12  0.17120000000E+03  0.17120000000E+03 0.  0.
         13    1    1    2    0    0  0.12157302783E+02 -0.64918979002E+01  0.90919834749E+01  0.16511210642E+02  0.10566000000E+00 0.  1.
        994    1    1    2    0    0 -0.19673934832E+02  0.70012888549E+01  0.89743436251E+01  0.17270223102E+03  0.17120000000E+03 0.  0.
        998    1    1    2    0    0  0.75166320494E+01 -0.50939095465E+00  0.14819336692E+04  0.14819865583E+04  0.10000000000E+02 0.  1.
</event>
<event>
 5    1  0.1364103E-008  0.3771357E+03  0.7957747E-01  0.3463726E+00
         13   -1    0    0    0    0  0.00000000000E+00  0.00000000000E+00  0.14999999963E+04  0.15000000000E+04  0.10566000000E+00 0. -1.
        994   -1    0    0    0    0 -0.00000000000E+00 -0.00000000000E+00  0.11368683772E-12  0.17120000000E+03  0.17120000000E+03 0.  0.
         13    1    1    2    0    0 -0.35154134702E+02 -0.97187246844E+01  0.12594229849E+03  0.13111727769E+03  0.10566000000E+00 0. -1.
        994    1    1    2    0    0  0.27192458737E+01  0.19832034734E+02  0.69395845887E+01  0.17250594695E+03  0.17120000000E+03 0.  0.
        998    1    1    2    0    0  0.32434888829E+02 -0.10113310050E+02  0.13671181132E+04  0.13675767754E+04  0.10000000000E+02 0. -1.
</event>
<event>
 5    1  0.1364103E-008  0.3813637E+03  0.7957747E-01  0.3445242E+00
         13   -1    0    0    0    0  0.00000000000E+00  0.00000000000E+00  0.14999999963E+04  0.15000000000E+04  0.10566000000E+00 0. -1.
        994   -1    0    0    0    0 -0.00000000000E+00 -0.00000000000E+00  0.11368683772E-12  0.17120000000E+03  0.17120000000E+03 0.  0.
         13    1    1    2    0    0 -0.37007532971E+02 -0.11842941295E+02  0.22464071253E+03  0.22797647607E+03  0.10566000000E+00 0. -1.
        994    1    1    2    0    0  0.22172334788E+02 -0.64689700626E+01  0.52236772848E+01  0.17282993609E+03  0.17120000000E+03 0.  0.
        998    1    1    2    0    0  0.14835198184E+02  0.18311911358E+02  0.12701356065E+04  0.12703935878E+04  0.10000000000E+02 0. -1.
</event>
<event>
 5    1  0.1364103E-008  0.3833985E+03  0.7957747E-01  0.3436493E+00
         13   -1    0    0    0    0  0.00000000000E+00  0.00000000000E+00  0.14999999963E+04  0.15000000000E+04  0.10566000000E+00 0.  1.
        994   -1    0    0    0    0 -0.00000000000E+00 -0.00000000000E+00  0.11368683772E-12  0.17120000000E+03  0.17120000000E+03 0.  0.
         13    1    1    2    0    0 -0.99439144175E+01  0.46294596886E+01  0.23785489262E+02  0.26193014229E+02  0.10566000000E+00 0.  1.
        994    1    1    2    0    0  0.92097886260E+01 -0.31975785065E+01  0.27416073014E+01  0.17149927442E+03  0.17120000000E+03 0.  0.
        998    1    1    2    0    0  0.73412579147E+00 -0.14318811820E+01  0.14734728997E+04  0.14735077114E+04  0.10000000000E+02 0.  1.
</event>
<event>
 5    1  0.1364103E-008  0.3790185E+03  0.7957747E-01  0.3455443E+00
         13   -1    0    0    0    0  0.00000000000E+00  0.00000000000E+00  0.14999999963E+04  0.15000000000E+04  0.10566000000E+00 0.  1.
        994   -1    0    0    0    0 -0.00000000000E+00 -0.00000000000E+00  0.11368683772E-12  0.17120000000E+03  0.17120000000E+03 0.  0.
         13    1    1    2    0    0 -0.21354362390E+02  0.26497718705E+01  0.47019604487E+02  0.51709616651E+02  0.10566000000E+00 0.  1.
        994    1    1    2    0    0  0.20768445833E+02 -0.65432022574E+01  0.62212265858E+01  0.17269130117E+03  0.17120000000E+03 0.  0.
        998    1    1    2    0    0  0.58591655692E+00  0.38934303869E+01  0.14467591652E+04  0.14467990822E+04  0.10000000000E+02 0.  1.
</event>
<event>
 5    1  0.1364103E-008  0.3801005E+03  0.7957747E-01  0.3450721E+00
         13   -1    0    0    0    0  0.00000000000E+00  0.00000000000E+00  0.14999999963E+04  0.15000000000E+04  0.10566000000E+00 0.  1.
        994   -1    0    0    0    0 -0.00000000000E+00 -0.00000000000E+00  0.11368683772E-12  0.17120000000E+03  0.17120000000E+03 0.  0.
         13    1    1    2    0    0 -0.17323651031E+02  0.56097990932E+01  0.39804127350E+02  0.43771662626E+02  0.10566000000E+00 0.  1.
        994    1    1    2    0    0  0.62491993374E+01 -0.19882732604E+01  0.42261633405E+01  0.17137767118E+03  0.17120000000E+03 0.  0.
        998    1    1    2    0    0  0.11074451694E+02 -0.36215258328E+01  0.14559697056E+04  0.14560506662E+04  0.10000000000E+02 0.  1.
</event>
<event>
 5    1  0.1364103E-008  0.3768118E+03  0.7957747E-01  0.3465159E+00
         13   -1    0    0    0    0  0.00000000000E+00  0.00000000000E+00  0.14999999963E+04  0.15000000000E+04  0.10566000000E+00 0. -1.
        994   -1    0    0    0    0 -0.00000000000E+00 -0.00000000000E+00  0.11368683772E-12  0.17120000000E+03  0.17120000000E+03 0.  0.
         13    1    1    2    0    0  0.20677306732E+03  0.38035302063E+02  0.10129835500E+04  0.10345711524E+04  0.10566000000E+00 0. -1.
        994    1    1    2    0    0 -0.20004831777E+03 -0.44471682290E+02  0.16410336778E+03  0.31342688986E+03  0.17120000000E+03 0.  0.
        998    1    1    2    0    0 -0.67247495452E+01  0.64363802265E+01  0.32291307849E+03  0.32320195777E+03  0.10000000000E+02 0.  1.
</event>
<event>
 5    1  0.1364103E-008  0.3263645E+03  0.7957747E-01  0.3724099E+00
         13   -1    0    0    0    0  0.00000000000E+00  0.00000000000E+00  0.14999999963E+04  0.15000000000E+04  0.10566000000E+00 0.  1.
        994   -1    0    0    0    0 -0.00000000000E+00 -0.00000000000E+00  0.11368683772E-12  0.17120000000E+03  0.17120000000E+03 0.  0.
         13    1    1    2    0    0 -0.11250618050E+03  0.20579563099E+03  0.73304038909E+03  0.76964778022E+03  0.10566000000E+00 0.  1.
        994    1    1    2    0    0  0.98845573203E+02 -0.21513072426E+03  0.25084899840E+03  0.38507964872E+03  0.17120000000E+03 0.  0.
        998    1    1    2    0    0  0.13660607301E+02  0.93350932689E+01  0.51611060878E+03  0.51647257106E+03  0.10000000000E+02 0.  1.
</event>
<event>
 5    1  0.1364103E-008  0.3695397E+03  0.7957747E-01  0.3498009E+00
         13   -1    0    0    0    0  0.00000000000E+00  0.00000000000E+00  0.14999999963E+04  0.15000000000E+04  0.10566000000E+00 0. -1.
        994   -1    0    0    0    0 -0.00000000000E+00 -0.00000000000E+00  0.11368683772E-12  0.17120000000E+03  0.17120000000E+03 0.  0.
         13    1    1    2    0    0 -0.15702588666E+02  0.26983237144E+02  0.50737142354E+02  0.59572939796E+02  0.10566000000E+00 0. -1.
        994    1    1    2    0    0  0.46364313854E+02  0.30035306471E+02  0.20154044845E+02  0.18101766421E+03  0.17120000000E+03 0.  0.
        998    1    1    2    0    0 -0.30661725188E+02 -0.57018543615E+02  0.14291088091E+04  0.14306093960E+04  0.10000000000E+02 0. -1.
</event>
<event>
 5    1  0.1364103E-008  0.3781197E+03  0.7957747E-01  0.3459387E+00
         13   -1    0    0    0    0  0.00000000000E+00  0.00000000000E+00  0.14999999963E+04  0.15000000000E+04  0.10566000000E+00 0. -1.
        994   -1    0    0    0    0 -0.00000000000E+00 -0.00000000000E+00  0.11368683772E-12  0.17120000000E+03  0.17120000000E+03 0.  0.
         13    1    1    2    0    0 -0.11917525644E+02 -0.95160096416E+01  0.20501347418E+02  0.25551874040E+02  0.10566000000E+00 0. -1.
        994    1    1    2    0    0  0.14326014062E+02  0.56349016161E+01  0.58829135575E+01  0.17199138196E+03  0.17120000000E+03 0.  0.
        998    1    1    2    0    0 -0.24084884182E+01  0.38811080255E+01  0.14736157353E+04  0.14736567440E+04  0.10000000000E+02 0. -1.
</event>
<event>
 5    1  0.1364103E-008  0.3838108E+03  0.7957747E-01  0.3434732E+00
         13   -1    0    0    0    0  0.00000000000E+00  0.00000000000E+00  0.14999999963E+04  0.15000000000E+04  0.10566000000E+00 0.  1.
        994   -1    0    0    0    0 -0.00000000000E+00 -0.00000000000E+00  0.11368683772E-12  0.17120000000E+03  0.17120000000E+03 0.  0.
         13    1    1    2    0    0  0.49963372283E+01 -0.99618183359E+01  0.27302117921E+02  0.29489286482E+02  0.10566000000E+00 0.  1.
        994    1    1    2    0    0 -0.81889866334E+01  0.41946498118E+01  0.25012562811E+01  0.17146530516E+03  0.17120000000E+03 0.  0.
        998    1    1    2    0    0  0.31926494051E+01  0.57671685241E+01  0.14701966221E+04  0.14702454084E+04  0.10000000000E+02 0.  1.
</event>
<event>
 5    1  0.1364103E-008  0.3851664E+03  0.7957747E-01  0.3428967E+00
         13   -1    0    0    0    0  0.00000000000E+00  0.00000000000E+00  0.14999999963E+04  0.15000000000E+04  0.10566000000E+00 0. -1.
        994   -1    0    0    0    0 -0.00000000000E+00 -0.00000000000E+00  0.11368683772E-12  0.17120000000E+03  0.17120000000E+03 0.  0.
         13    1    1    2    0    0  0.12788274258E+02  0.33480921713E+01  0.55463440493E+02  0.57017138433E+02  0.10566000000E+00 0. -1.
        994    1    1    2    0    0 -0.10472941360E+02 -0.73927929911E+01  0.20878631494E+01  0.17169197728E+03  0.17120000000E+03 0.  0.
        998    1    1    2    0    0 -0.23153328979E+01  0.40447008198E+01  0.14424486926E+04  0.14424908843E+04  0.10000000000E+02 0. -1.
</event>
<event>
 5    1  0.1364103E-008  0.3793685E+03  0.7957747E-01  0.3453913E+00
         13   -1    0    0    0    0  0.00000000000E+00  0.00000000000E+00  0.14999999963E+04  0.15000000000E+04  0.10566000000E+00 0. -1.
        994   -1    0    0    0    0 -0.00000000000E+00 -0.00000000000E+00  0.11368683772E-12  0.17120000000E+03  0.17120000000E+03 0.  0.
         13    1    1    2    0    0 -0.67885648725E+01 -0.17487716042E+02  0.37250785898E+02  0.41707757545E+02  0.10566000000E+00 0. -1.
        994    1    1    2    0    0  0.75258412966E+01  0.15206960300E+02  0.54172633417E+01  0.17212401538E+03  0.17120000000E+03 0.  0.
        998    1    1    2    0    0 -0.73727642404E+00  0.22807557424E+01  0.14573319470E+04  0.14573682271E+04  0.10000000000E+02 0. -1.
</event>
<event>
 5    1  0.1364103E-008  0.3776956E+03  0.7957747E-01  0.3461254E+00
         13   -1    0    0    0    0  0.00000000000E+00  0.00000000000E+00  0.14999999963E+04  0.15000000000E+04  0.10566000000E+00 0. -1.
        994   -1    0    0    0    0 -0.00000000000E+00 -0.00000000000E+00  0.11368683772E-12  0.17120000000E+03  0.17120000000E+03 0.  0.
         13    1    1    2    0    0 -0.32076443529E+02  0.51853743026E+02  0.33555446918E+03  0.34104914872E+03  0.10566000000E+00 0. -1.
        994    1    1    2    0    0  0.68905422302E+01 -0.42229435297E+02  0.11493106375E+02  0.17683986053E+03  0.17120000000E+03 0.  0.
        998    1    1    2    0    0  0.25185901299E+02 -0.96243077285E+01  0.11529524207E+04  0.11533109907E+04  0.10000000000E+02 0. -1.
</event>
<event>
 5    1  0.1364103E-008  0.3730386E+03  0.7957747E-01  0.3482042E+00
         13   -1    0    0    0    0  0.00000000000E+00  0.00000000000E+00  0.14999999963E+04  0.15000000000E+04  0.10566000000E+00 0. -1.
        994   -1    0    0    0    0 -0.00000000000E+00 -0.00000000000E+00  0.11368683772E-12  0.17120000000E+03  0.17120000000E+03 0.  0.
         13    1    1    2    0    0 -0.94016714368E+01  0.16742905346E+02  0.20498415118E+02  0.28087586077E+02  0.10566000000E+00 0. -1.
        994    1    1    2    0    0  0.13972407736E+02 -0.12177754574E+02  0.88657977129E+01  0.17242844386E+03  0.17120000000E+03 0.  0.
        998    1    1    2    0    0 -0.45707362997E+01 -0.45651507716E+01  0.14706357834E+04  0.14706839701E+04  0.10000000000E+02 0. -1.
</event>
<event>
 5    1  0.1364103E-008  0.3831636E+03  0.7957747E-01  0.3437498E+00
         13   -1    0    0    0    0  0.00000000000E+00  0.00000000000E+00  0.14999999963E+04  0.15000000000E+04  0.10566000000E+00 0.  1.
        994   -1    0    0    0    0 -0.00000000000E+00 -0.00000000000E+00  0.11368683772E-12  0.17120000000E+03  0.17120000000E+03 0.  0.
         13    1    1    2    0    0 -0.90414952994E+01 -0.79465381319E+01  0.28466912754E+02  0.30907481155E+02  0.10566000000E+00 0.  1.
        994    1    1    2    0    0 -0.26873880748E+01  0.27311415807E+01  0.25931893190E+01  0.17126250559E+03  0.17120000000E+03 0.  0.
        998    1    1    2    0    0  0.11728883374E+02  0.52153965512E+01  0.14689398942E+04  0.14690300133E+04  0.10000000000E+02 0.  1.
</event>
<event>
 5    1  0.1364103E-008  0.3780501E+03  0.7957747E-01  0.3459693E+00
         13   -1    0    0    0    0  0.00000000000E+00  0.00000000000E+00  0.14999999963E+04  0.15000000000E+04  0.10566000000E+00 0.  1.
        994   -1    0    0    0    0 -0.00000000000E+00 -0.00000000000E+00  0.11368683772E-12  0.17120000000E+03  0.17120000000E+03 0.  0.
         13    1    1    2    0    0 -0.15151688963E+02  0.93828393124E+01  0.29187226329E+02  0.34198197274E+02  0.10566000000E+00 0.  1.
        994    1    1    2    0    0  0.13406403186E+02  0.46851931214E+01  0.57995633526E+01  0.17188588545E+03  0.17120000000E+03 0.  0.
        998    1    1    2    0    0  0.17452857769E+01 -0.14068032434E+02  0.14650132066E+04  0.14651159173E+04  0.10000000000E+02 0.  1.
</event>
<event>
 5    1  0.1364103E-008  0.3848514E+03  0.7957747E-01  0.3430303E+00
         13   -1    0    0    0    0  0.00000000000E+00  0.00000000000E+00  0.14999999963E+04  0.15000000000E+04  0.10566000000E+00 0. -1.
        994   -1    0    0    0    0 -0.00000000000E+00 -0.00000000000E+00  0.11368683772E-12  0.17120000000E+03  0.17120000000E+03 0.  0.
         13    1    1    2    0    0  0.18419587506E+02 -0.37875621000E+01  0.10143233318E+03  0.10316082691E+03  0.10566000000E+00 0. -1.
        994    1    1    2    0    0 -0.12820059607E+02  0.12113676636E+02  0.27281683446E+01  0.17212779553E+03  0.17120000000E+03 0.  0.
        998    1    1    2    0    0 -0.55995278989E+01 -0.83261145359E+01  0.13958394948E+04  0.13959113776E+04  0.10000000000E+02 0. -1.
</event>
<event>
 5    1  0.1364103E-008  0.3756822E+03  0.7957747E-01  0.3470177E+00
         13   -1    0    0    0    0  0.00000000000E+00  0.00000000000E+00  0.14999999963E+04  0.15000000000E+04  0.10566000000E+00 0.  1.
        994   -1    0    0    0    0 -0.00000000000E+00 -0.00000000000E+00  0.11368683772E-12  0.17120000000E+03  0.17120000000E+03 0.  0.
         13    1    1    2    0    0  0.29610840563E+02 -0.74480848627E+02  0.19281084310E+03  0.20880668349E+03  0.10566000000E+00 0.  1.
        994    1    1    2    0    0 -0.48004904876E+02  0.71589467121E+02  0.40977652842E+02  0.19600543545E+03  0.17120000000E+03 0.  0.
        998    1    1    2    0    0  0.18394064314E+02  0.28913815058E+01  0.12662115003E+04  0.12663878811E+04  0.10000000000E+02 0.  1.
</event>
<event>
 5    1  0.1364103E-008  0.3838467E+03  0.7957747E-01  0.3434578E+00
         13   -1    0    0    0    0  0.00000000000E+00  0.00000000000E+00  0.14999999963E+04  0.15000000000E+04  0.10566000000E+00 0.  1.
        994   -1    0    0    0    0 -0.00000000000E+00 -0.00000000000E+00  0.11368683772E-12  0.17120000000E+03  0.17120000000E+03 0.  0.
         13    1    1    2    0    0  0.19899847133E+02  0.35555417265E+01  0.96754196570E+02  0.98843469743E+02  0.10566000000E+00 0.  1.
        994    1    1    2    0    0 -0.45841501275E+01 -0.68192273731E+01  0.24267362929E+01  0.17141425070E+03  0.17120000000E+03 0.  0.
        998    1    1    2    0    0 -0.15315697005E+02  0.32636856465E+01  0.14008190634E+04  0.14009422796E+04  0.10000000000E+02 0.  1.
</event>
<event>
 5    1  0.1364103E-008  0.3850002E+03  0.7957747E-01  0.3429671E+00
         13   -1    0    0    0    0  0.00000000000E+00  0.00000000000E+00  0.14999999963E+04  0.15000000000E+04  0.10566000000E+00 0. -1.
        994   -1    0    0    0    0 -0.00000000000E+00 -0.00000000000E+00  0.11368683772E-12  0.17120000000E+03  0.17120000000E+03 0.  0.
         13    1    1    2    0    0 -0.15975655626E+02 -0.11169178649E+02  0.11283766643E+03  0.11450904878E+03  0.10566000000E+00 0. -1.
        994    1    1    2    0    0  0.15137561778E+02  0.67372962946E+01  0.25334247084E+01  0.17201858963E+03  0.17120000000E+03 0.  0.
        998    1    1    2    0    0  0.83809384754E+00  0.44318823545E+01  0.13846289051E+04  0.13846723616E+04  0.10000000000E+02 0. -1.
</event>
<event>
 5    1  0.1364103E-008  0.2769066E+03  0.7957747E-01  0.4076056E+00
         13   -1    0    0    0    0  0.00000000000E+00  0.00000000000E+00  0.14999999963E+04  0.15000000000E+04  0.10566000000E+00 0. -1.
        994   -1    0    0    0    0 -0.00000000000E+00 -0.00000000000E+00  0.11368683772E-12  0.17120000000E+03  0.17120000000E+03 0.  0.
         13    1    1    2    0    0 -0.48809325826E+02  0.19973236507E+03  0.40665682404E+03  0.45568097573E+03  0.10566000000E+00 0. -1.
        994    1    1    2    0    0  0.50320454004E+02 -0.19341683885E+03  0.22255214312E+03  0.34464636666E+03  0.17120000000E+03 0.  0.
        998    1    1    2    0    0 -0.15111281783E+01 -0.63155262206E+01  0.87079102912E+03  0.87087265761E+03  0.10000000000E+02 0. -1.
</event>
<event>
 5    1  0.1364103E-008  0.3828332E+03  0.7957747E-01  0.3438914E+00
         13   -1    0    0    0    0  0.00000000000E+00  0.00000000000E+00  0.14999999963E+04  0.15000000000E+04  0.10566000000E+00 0.  1.
        994   -1    0    0    0    0 -0.00000000000E+00 -0.00000000000E+00  0.11368683772E-12  0.17120000000E+03  0.17120000000E+03 0.  0.
         13    1    1    2    0    0  0.57837435005E+01  0.20642971358E+02  0.86577373081E+02  0.89192133335E+02  0.10566000000E+00 0.  1.
        994    1    1    2    0    0 -0.97908438946E+01 -0.59227359241E+01  0.31435055419E+01  0.17161078361E+03  0.17120000000E+03 0.  0.
        998    1    1    2    0    0  0.40071003941E+01 -0.14720235434E+02  0.14102791177E+04  0.14103970831E+04  0.10000000000E+02 0.  1.
</event>
<event>
 5    1  0.1364103E-008  0.3851511E+03  0.7957747E-01  0.3429032E+00
         13   -1    0    0    0    0  0.00000000000E+00  0.00000000000E+00  0.14999999963E+04  0.15000000000E+04  0.10566000000E+00 0. -1.
        994   -1    0    0    0    0 -0.00000000000E+00 -0.00000000000E+00  0.11368683772E-12  0.17120000000E+03  0.17120000000E+03 0.  0.
         13    1    1    2    0    0 -0.10440204729E+02  0.12647311873E+01  0.35204847941E+02  0.36742208730E+02  0.10566000000E+00 0. -1.
        994    1    1    2    0    0  0.91208752842E+01  0.38562402676E+01  0.18775242373E+01  0.17149643160E+03  0.17120000000E+03 0.  0.
        998    1    1    2    0    0  0.13193294448E+01 -0.51209714549E+01  0.14629176241E+04  0.14629613597E+04  0.10000000000E+02 0. -1.
</event>
<event>
 5    1  0.1364103E-008  0.3818798E+03  0.7957747E-01  0.3443014E+00
         13   -1    0    0    0    0  0.00000000000E+00  0.00000000000E+00  0.14999999963E+04  0.15000000000E+04  0.10566000000E+00 0. -1.
        994   -1    0    0    0    0 -0.00000000000E+00 -0.00000000000E+00  0.11368683772E-12  0.17120000000E+03  0.17120000000E+03 0.  0.
         13    1    1    2    0    0 -0.17185697984E+02  0.10949341744E+02  0.64280109738E+02  0.67432781136E+02  0.10566000000E+00 0. -1.
        994    1    1    2    0    0  0.67870523101E+01 -0.12462504005E+02  0.38565578450E+01  0.17183041385E+03  0.17120000000E+03 0.  0.
        998    1    1    2    0    0  0.10398645674E+02  0.15131622609E+01  0.14318633287E+04  0.14319368050E+04  0.10000000000E+02 0. -1.
</event>
<event>
 5    1  0.1364103E-008  0.3817515E+03  0.7957747E-01  0.3443568E+00
         13   -1    0    0    0    0  0.00000000000E+00  0.00000000000E+00  0.14999999963E+04  0.15000000000E+04  0.10566000000E+00 0.  1.
        994   -1    0    0    0    0 -0.00000000000E+00 -0.00000000000E+00  0.11368683772E-12  0.17120000000E+03  0.17120000000E+03 0.  0.
         13    1    1    2    0    0  0.86533827498E+01  0.25753481566E+02  0.12266966092E+03  0.12564226884E+03  0.10566000000E+00 0.  1.
        994    1    1    2    0    0  0.43772476778E+01 -0.45525944003E+01  0.33842083018E+01  0.17134987388E+03  0.17120000000E+03 0.  0.
        998    1    1    2    0    0 -0.13030630428E+02 -0.21200887165E+02  0.13739461271E+04  0.13742078573E+04  0.10000000000E+02 0.  1.
</event>
<event>
 5    1  0.1364103E-008  0.3782162E+03  0.7957747E-01  0.3458963E+00
         13   -1    0    0    0    0  0.00000000000E+00  0.00000000000E+00  0.14999999963E+04  0.15000000000E+04  0.10566000000E+00 0.  1.
        994   -1    0    0    0    0 -0.00000000000E+00 -0.00000000000E+00  0.11368683772E-12  0.17120000000E+03  0.17120000000E+03 0.  0.
         13    1    1    2    0    0  0.94173092117E+01  0.23125193526E+02  0.57127519251E+02  0.62346009561E+02  0.10566000000E+00 0.  1.
        994    1    1    2    0    0 -0.28604559914E+01 -0.30567540164E+02  0.82124074113E+01  0.17412478386E+03  0.17120000000E+03 0.  0.
        998    1    1    2    0    0 -0.65568532203E+01  0.74423466386E+01  0.14346600696E+04  0.14347292066E+04  0.10000000000E+02 0.  1.
</event>
<event>
 5    1  0.1364103E-008  0.3910248E+03  0.7957747E-01  0.3404515E+00
         13   -1    0    0    0    0  0.00000000000E+00  0.00000000000E+00  0.14999999963E+04  0.15000000000E+04  0.10566000000E+00 0.  1.
        994   -1    0    0    0    0 -0.00000000000E+00 -0.00000000000E+00  0.11368683772E-12  0.17120000000E+03  0.17120000000E+03 0.  0.
         13    1    1    2    0    0 -0.45615026859E+01 -0.14382746854E+03  0.42889878660E+03  0.45239510201E+03  0.10566000000E+00 0.  1.
        994    1    1    2    0    0 -0.37460827047E+02  0.98205720503E+02  0.65581776138E+02  0.21132459976E+03  0.17120000000E+03 0.  0.
        998    1    1    2    0    0  0.42022329733E+02  0.45621748035E+02  0.10055194335E+04  0.10074802982E+04  0.10000000000E+02 0.  1.
</event>
<event>
 5    1  0.1364103E-008  0.3818121E+03  0.7957747E-01  0.3443306E+00
         13   -1    0    0    0    0  0.00000000000E+00  0.00000000000E+00  0.14999999963E+04  0.15000000000E+04  0.10566000000E+00 0. -1.
        994   -1    0    0    0    0 -0.00000000000E+00 -0.00000000000E+00  0.11368683772E-12  0.17120000000E+03  0.17120000000E+03 0.  0.
         13    1    1    2    0    0 -0.24071491555E+02  0.20301941670E+02  0.14044459473E+03  0.14393158408E+03  0.10566000000E+00 0. -1.
        994    1    1    2    0    0  0.31270735718E+02 -0.11643061291E+02  0.69299345177E+01  0.17455911257E+03  0.17120000000E+03 0.  0.
        998    1    1    2    0    0 -0.71992441626E+01 -0.86588803792E+01  0.13526254670E+04  0.13527093034E+04  0.10000000000E+02 0. -1.
</event>
<event>
 5    1  0.1364103E-008  0.3821086E+03  0.7957747E-01  0.3442028E+00
         13   -1    0    0    0    0  0.00000000000E+00  0.00000000000E+00  0.14999999963E+04  0.15000000000E+04  0.10566000000E+00 0.  1.
        994   -1    0    0    0    0 -0.00000000000E+00 -0.00000000000E+00  0.11368683772E-12  0.17120000000E+03  0.17120000000E+03 0.  0.
         13    1    1    2    0    0  0.36369711431E+01  0.13577030008E+02  0.31329420296E+02  0.34338128124E+02  0.10566000000E+00 0.  1.
        994    1    1    2    0    0 -0.19855959257E+01 -0.65227263168E+01  0.32268341479E+01  0.17136610227E+03  0.17120000000E+03 0.  0.
        998    1    1    2    0    0 -0.16513752174E+01 -0.70543036911E+01  0.14654437418E+04  0.14654957696E+04  0.10000000000E+02 0.  1.
</event>
<event>
 5    1  0.1364103E-008  0.3740902E+03  0.7957747E-01  0.3477302E+00
         13   -1    0    0    0    0  0.00000000000E+00  0.00000000000E+00  0.14999999963E+04  0.15000000000E+04  0.10566000000E+00 0. -1.
        994   -1    0    0    0    0 -0.00000000000E+00 -0.00000000000E+00  0.11368683772E-12  0.17120000000E+03  0.17120000000E+03 0.  0.
         13    1    1    2    0    0 -0.13631618936E+02  0.13601604310E+02  0.81607599074E+01  0.20914919099E+02  0.10566000000E+00 0. -1.
        994    1    1    2    0    0  0.21553750622E+02 -0.91713331577E+01  0.15066526705E+02  0.17345062048E+03  0.17120000000E+03 0.  0.
        998    1    1    2    0    0 -0.79221316857E+01 -0.44302711523E+01  0.14767727097E+04  0.14768344604E+04  0.10000000000E+02 0. -1.
</event>
<event>
 5    1  0.1364103E-008  0.3842185E+03  0.7957747E-01  0.3432993E+00
         13   -1    0    0    0    0  0.00000000000E+00  0.00000000000E+00  0.14999999963E+04  0.15000000000E+04  0.10566000000E+00 0. -1.
        994   -1    0    0    0    0 -0.00000000000E+00 -0.00000000000E+00  0.11368683772E-12  0.17120000000E+03  0.17120000000E+03 0.  0.
         13    1    1    2    0    0 -0.13961013153E+02 -0.61441254277E+01  0.55364337238E+02  0.57427181434E+02  0.10566000000E+00 0. -1.
        994    1    1    2    0    0  0.14123728584E+02  0.87144772373E+01  0.29272336522E+01  0.17202741212E+03  0.17120000000E+03 0.  0.
        998    1    1    2    0    0 -0.16271543072E+00 -0.25703518096E+01  0.14417084254E+04  0.14417454064E+04  0.10000000000E+02 0. -1.
</event>
<event>
 5    1  0.1364103E-008  0.3736940E+03  0.7957747E-01  0.3479085E+00
         13   -1    0    0    0    0  0.00000000000E+00  0.00000000000E+00  0.14999999963E+04  0.15000000000E+04  0.10566000000E+00 0.  1.
        994   -1    0    0    0    0 -0.00000000000E+00 -0.00000000000E+00  0.11368683772E-12  0.17120000000E+03  0.17120000000E+03 0.  0.
         13    1    1    2    0    0 -0.10491152082E+02  0.16070019670E+01  0.42627785969E+01  0.11438058084E+02  0.10566000000E+00 0.  1.
        994    1    1    2    0    0  0.66522160781E+01 -0.52142772408E+01  0.75948951659E+01  0.17157669742E+03  0.17120000000E+03 0.  0.
        998    1    1    2    0    0  0.38389360041E+01  0.36072752739E+01  0.14881423225E+04  0.14881852445E+04  0.10000000000E+02 0.  1.
</event>
<event>
 5    1  0.1700549E-008  0.3861858E+03  0.7957747E-01  0.3424659E+00
         13   -1    0    0    0    0  0.00000000000E+00  0.00000000000E+00  0.14999999963E+04  0.15000000000E+04  0.10566000000E+00 0.  1.
        994   -1    0    0    0    0 -0.00000000000E+00 -0.00000000000E+00  0.11368683772E-12  0.17120000000E+03  0.17120000000E+03 0.  0.
         13    1    1    2    0    0  0.55674167995E+01 -0.10415558104E+02  0.63571543753E+02  0.64659356010E+02  0.10566000000E+00 0.  1.
        994    1    1    2    0    0 -0.89630487992E+01  0.13852378440E+02  0.19348936583E+01  0.17200409427E+03  0.17120000000E+03 0.  0.
        998    1    1    2    0    0  0.33956319998E+01 -0.34368203366E+01  0.14344935589E+04  0.14345365497E+04  0.10000000000E+02 0.  1.
</event>
<event>
 5    1  0.1364103E-008  0.3790806E+03  0.7957747E-01  0.3455172E+00
         13   -1    0    0    0    0  0.00000000000E+00  0.00000000000E+00  0.14999999963E+04  0.15000000000E+04  0.10566000000E+00 0. -1.
        994   -1    0    0    0    0 -0.00000000000E+00 -0.00000000000E+00  0.11368683772E-12  0.17120000000E+03  0.17120000000E+03 0.  0.
         13    1    1    2    0    0  0.24685189127E+02  0.21418207171E+02  0.10766964118E+03  0.11252049128E+03  0.10566000000E+00 0. -1.
        994    1    1    2    0    0 -0.23177527704E+02 -0.22007030182E+02  0.80307943892E+01  0.17434288292E+03  0.17120000000E+03 0.  0.
        998    1    1    2    0    0 -0.15076614235E+01  0.58882301134E+00  0.13842995607E+04  0.13843366258E+04  0.10000000000E+02 0. -1.
</event>
<event>
 5    1  0.1364103E-008  0.3846294E+03  0.7957747E-01  0.3431245E+00
         13   -1    0    0    0    0  0.00000000000E+00  0.00000000000E+00  0.14999999963E+04  0.15000000000E+04  0.10566000000E+00 0. -1.
        994   -1    0    0    0    0 -0.00000000000E+00 -0.00000000000E+00  0.11368683772E-12  0.17120000000E+03  0.17120000000E+03 0.  0.
         13    1    1    2    0    0 -0.33924658328E+02 -0.16784324651E+03  0.40993265146E+03  0.44426009019E+03  0.10566000000E+00 0. -1.
        994    1    1    2    0    0 -0.17561832891E+02  0.20782511637E+03  0.20361024268E+03  0.33803293906E+03  0.17120000000E+03 0.  0.
        998    1    1    2    0    0  0.51486491220E+02 -0.39981869854E+02  0.88645710215E+03  0.88890697075E+03  0.10000000000E+02 0. -1.
</event>
<event>
 5    1  0.1364103E-008  0.3712969E+03  0.7957747E-01  0.3489952E+00
         13   -1    0    0    0    0  0.00000000000E+00  0.00000000000E+00  0.14999999963E+04  0.15000000000E+04  0.10566000000E+00 0. -1.
        994   -1    0    0    0    0 -0.00000000000E+00 -0.00000000000E+00  0.11368683772E-12  0.17120000000E+03  0.17120000000E+03 0.  0.
         13    1    1    2    0    0  0.29633119286E+02 -0.67656025161E+02  0.20022420399E+03  0.21341322013E+03  0.10566000000E+00 0. -1.
        994    1    1    2    0    0 -0.33310601377E+02  0.66206729487E+02  0.31175476552E+02  0.18914089334E+03  0.17120000000E+03 0.  0.
        998    1    1    2    0    0  0.36774820911E+01  0.14492956737E+01  0.12686003157E+04  0.12686458865E+04  0.10000000000E+02 0.  0.
</event>
<event>
 5    1  0.1364103E-008  0.3773283E+03  0.7957747E-01  0.3462875E+00
         13   -1    0    0    0    0  0.00000000000E+00  0.00000000000E+00  0.14999999963E+04  0.15000000000E+04  0.10566000000E+00 0. -1.
        994   -1    0    0    0    0 -0.00000000000E+00 -0.00000000000E+00  0.11368683772E-12  0.17120000000E+03  0.17120000000E+03 0.  0.
         13    1    1    2    0    0  0.47822617374E+02  0.10151387369E+02  0.19758990629E+03  0.20354811625E+03  0.10566000000E+00 0. -1.
        994    1    1    2    0    0 -0.43118532208E+02 -0.55587350392E-01  0.11784318344E+02  0.17693931465E+03  0.17120000000E+03 0.  0.
        998    1    1    2    0    0 -0.47040851657E+01 -0.10095800019E+02  0.12906257716E+04  0.12907125691E+04  0.10000000000E+02 0. -1.
</event>
<event>
 5    1  0.1364103E-008  0.3704867E+03  0.7957747E-01  0.3493657E+00
         13   -1    0    0    0    0  0.00000000000E+00  0.00000000000E+00  0.14999999963E+04  0.15000000000E+04  0.10566000000E+00 0.  1.
        994   -1    0    0    0    0 -0.00000000000E+00 -0.00000000000E+00  0.11368683772E-12  0.17120000000E+03  0.17120000000E+03 0.  0.
         13    1    1    2    0    0 -0.10980978442E+03 -0.22361395383E+02  0.38061693262E+03  0.39677132119E+03  0.10566000000E+00 0.  1.
        994    1    1    2    0    0  0.11877512892E+03  0.20812545165E+02  0.64009933114E+02  0.21896895859E+03  0.17120000000E+03 0.  0.
        998    1    1    2    0    0 -0.89653445019E+01  0.15488502181E+01  0.10553731305E+04  0.10554597202E+04  0.10000000000E+02 0.  1.
</event>
<event>
 5    1  0.1364103E-008  0.3754273E+03  0.7957747E-01  0.3471314E+00
         13   -1    0    0    0    0  0.00000000000E+00  0.00000000000E+00  0.14999999963E+04  0.15000000000E+04  0.10566000000E+00 0.  1.
        994   -1    0    0    0    0 -0.00000000000E+00 -0.00000000000E+00  0.11368683772E-12  0.17120000000E+03  0.17120000000E+03 0.  0.
         13    1    1    2    0    0 -0.53270394086E+02  0.33233757821E+02  0.27694477572E+03  0.28397295207E+03  0.10566000000E+00 0.  1.
        994    1    1    2    0    0  0.45512515588E+02 -0.18610551619E+02  0.14710609760E+02  0.17872768041E+03  0.17120000000E+03 0.  0.
        998    1    1    2    0    0  0.77578784984E+01 -0.14623206201E+02  0.12083446108E+04  0.12084993675E+04  0.10000000000E+02 0.  1.
</event>
<event>
 5    1  0.1364103E-008  0.3830732E+03  0.7957747E-01  0.3437885E+00
         13   -1    0    0    0    0  0.00000000000E+00  0.00000000000E+00  0.14999999963E+04  0.15000000000E+04  0.10566000000E+00 0.  1.
        994   -1    0    0    0    0 -0.00000000000E+00 -0.00000000000E+00  0.11368683772E-12  0.17120000000E+03  0.17120000000E+03 0.  0.
         13    1    1    2    0    0  0.11282199391E+02 -0.77488538057E+01  0.35369445711E+02  0.37925474451E+02  0.10566000000E+00 0.  1.
        994    1    1    2    0    0 -0.86710150983E+01  0.32919576262E+01  0.28745042275E+01  0.17147514765E+03  0.17120000000E+03 0.  0.
        998    1    1    2    0    0 -0.26111842926E+01  0.44568961795E+01  0.14617560463E+04  0.14617993779E+04  0.10000000000E+02 0.  1.
</event>
<event>
 5    1  0.1364103E-008  0.3777937E+03  0.7957747E-01  0.3460822E+00
         13   -1    0    0    0    0  0.00000000000E+00  0.00000000000E+00  0.14999999963E+04  0.15000000000E+04  0.10566000000E+00 0.  1.
        994   -1    0    0    0    0 -0.00000000000E+00 -0.00000000000E+00  0.11368683772E-12  0.17120000000E+03  0.17120000000E+03 0.  0.
         13    1    1    2    0    0  0.88472982902E+02  0.75538729617E+02  0.35205908171E+03  0.37078184496E+03  0.10566000000E+00 0.  1.
        994    1    1    2    0    0 -0.95257502891E+02 -0.53891479626E+02  0.59543477862E+02  0.21173839800E+03  0.17120000000E+03 0.  0.
        998    1    1    2    0    0  0.67845199890E+01 -0.21647249991E+02  0.10883974367E+04  0.10886797570E+04  0.10000000000E+02 0.  1.
</event>
<event>
 5    1  0.1364103E-008  0.3819321E+03  0.7957747E-01  0.3442789E+00
         13   -1    0    0    0    0  0.00000000000E+00  0.00000000000E+00  0.14999999963E+04  0.15000000000E+04  0.10566000000E+00 0. -1.
        994   -1    0    0    0    0 -0.00000000000E+00 -0.00000000000E+00  0.11368683772E-12  0.17120000000E+03  0.17120000000E+03 0.  0.
         13    1    1    2    0    0  0.15131575200E+02  0.55236640628E+02  0.26269597032E+03  0.26886657476E+03  0.10566000000E+00 0. -1.
        994    1    1    2    0    0 -0.60647253985E+02 -0.99891519915E+02  0.49935623288E+02  0.21321212827E+03  0.17120000000E+03 0.  0.
        998    1    1    2    0    0  0.45515678785E+02  0.44654879287E+02  0.11873684027E+04  0.11891212970E+04  0.10000000000E+02 0. -1.
</event>
<event>
 5    1  0.1364103E-008  0.3746706E+03  0.7957747E-01  0.3474697E+00
         13   -1    0    0    0    0  0.00000000000E+00  0.00000000000E+00  0.14999999963E+04  0.15000000000E+04  0.10566000000E+00 0.  1.
        994   -1    0    0    0    0 -0.00000000000E+00 -0.00000000000E+00  0.11368683772E-12  0.17120000000E+03  0.17120000000E+03 0.  0.
         13    1    1    2    0    0 -0.16758471008E+02 -0.66450727921E+02  0.31568192271E+03  0.32303503383E+03  0.10566000000E+00 0.  1.
        994    1    1    2    0    0  0.28305004956E+02  0.43950076915E+02  0.16205080945E+02  0.17973543673E+03  0.17120000000E+03 0.  0.
        998    1    1    2    0    0 -0.11546533948E+02  0.22500651006E+02  0.11681129926E+04  0.11684295294E+04  0.10000000000E+02 0.  1.
</event>
<event>
 5    1  0.1364103E-008  0.3789878E+03  0.7957747E-01  0.3455578E+00
         13   -1    0    0    0    0  0.00000000000E+00  0.00000000000E+00  0.14999999963E+04  0.15000000000E+04  0.10566000000E+00 0. -1.
        994   -1    0    0    0    0 -0.00000000000E+00 -0.00000000000E+00  0.11368683772E-12  0.17120000000E+03  0.17120000000E+03 0.  0.
         13    1    1    2    0    0  0.31355300706E+02 -0.13636636306E+02  0.13214564426E+03  0.13649760142E+03  0.10566000000E+00 0. -1.
        994    1    1    2    0    0  0.34589075006E+01  0.34313935354E+02  0.86447559000E+01  0.17485302973E+03  0.17120000000E+03 0.  0.
        998    1    1    2    0    0 -0.34814208207E+02 -0.20677299048E+02  0.13592095961E+04  0.13598493689E+04  0.10000000000E+02 0. -1.
</event>
<event>
 5    1  0.1450984E-008  0.3857257E+03  0.7957747E-01  0.3426600E+00
         13   -1    0    0    0    0  0.00000000000E+00  0.00000000000E+00  0.14999999963E+04  0.15000000000E+04  0.10566000000E+00 0. -1.
        994   -1    0    0    0    0 -0.00000000000E+00 -0.00000000000E+00  0.11368683772E-12  0.17120000000E+03  0.17120000000E+03 0.  0.
         13    1    1    2    0    0 -0.37432233089E+01 -0.11031166498E+02  0.51119353787E+02  0.52429932774E+02  0.10566000000E+00 0. -1.
        994    1    1    2    0    0  0.73263291628E+01  0.14418392458E+02  0.21289350235E+01  0.17197539796E+03  0.17120000000E+03 0.  0.
        998    1    1    2    0    0 -0.35831058539E+01 -0.33872259605E+01  0.14467517075E+04  0.14467946693E+04  0.10000000000E+02 0. -1.
</event>
<event>
 5    1  0.1364103E-008  0.3780061E+03  0.7957747E-01  0.3459886E+00
         13   -1    0    0    0    0  0.00000000000E+00  0.00000000000E+00  0.14999999963E+04  0.15000000000E+04  0.10566000000E+00 0. -1.
        994   -1    0    0    0    0 -0.00000000000E+00 -0.00000000000E+00  0.11368683772E-12  0.17120000000E+03  0.17120000000E+03 0.  0.
         13    1    1    2    0    0  0.10846962037E+02 -0.12761718484E+01  0.92577973255E+01  0.14317931952E+02  0.10566000000E+00 0. -1.
        994    1    1    2    0    0 -0.88093115099E+01  0.35780410821E+01  0.54473165053E+01  0.17155034131E+03  0.17120000000E+03 0.  0.
        998    1    1    2    0    0 -0.20376505275E+01 -0.23018692337E+01  0.14852948824E+04  0.14853317267E+04  0.10000000000E+02 0. -1.
</event>
<event>
 5    1  0.1364103E-008  0.3800101E+03  0.7957747E-01  0.3451115E+00
         13   -1    0    0    0    0  0.00000000000E+00  0.00000000000E+00  0.14999999963E+04  0.15000000000E+04  0.10566000000E+00 0. -1.
        994   -1    0    0    0    0 -0.00000000000E+00 -0.00000000000E+00  0.11368683772E-12  0.17120000000E+03  0.17120000000E+03 0.  0.
         13    1    1    2    0    0  0.37466758045E+02 -0.13630244144E+03  0.85212988957E+03  0.86377512893E+03  0.10566000000E+00 0. -1.
        994    1    1    2    0    0 -0.14152964714E+02  0.15117520176E+03  0.85493887797E+02  0.24428035715E+03  0.17120000000E+03 0.  0.
        998    1    1    2    0    0 -0.23313793331E+02 -0.14872760323E+02  0.56237621891E+03  0.56314451392E+03  0.10000000000E+02 0. -1.
</event>
<event>
 5    1  0.1364103E-008  0.3828850E+03  0.7957747E-01  0.3438692E+00
         13   -1    0    0    0    0  0.00000000000E+00  0.00000000000E+00  0.14999999963E+04  0.15000000000E+04  0.10566000000E+00 0.  1.
        994   -1    0    0    0    0 -0.00000000000E+00 -0.00000000000E+00  0.11368683772E-12  0.17120000000E+03  0.17120000000E+03 0.  0.
         13    1    1    2    0    0 -0.11063943238E+02 -0.17024737231E+01  0.22747307755E+02  0.25352720384E+02  0.10566000000E+00 0.  1.
        994    1    1    2    0    0  0.30606376928E+01 -0.34271912992E+01  0.27537491117E+01  0.17128378872E+03  0.17120000000E+03 0.  0.
        998    1    1    2    0    0  0.80033055449E+01  0.51296650222E+01  0.14744989394E+04  0.14745634909E+04  0.10000000000E+02 0.  1.
</event>
<event>
 5    1  0.1364103E-008  0.3750131E+03  0.7957747E-01  0.3473164E+00
         13   -1    0    0    0    0  0.00000000000E+00  0.00000000000E+00  0.14999999963E+04  0.15000000000E+04  0.10566000000E+00 0. -1.
        994   -1    0    0    0    0 -0.00000000000E+00 -0.00000000000E+00  0.11368683772E-12  0.17120000000E+03  0.17120000000E+03 0.  0.
         13    1    1    2    0    0 -0.15486901675E+02 -0.54358163127E+01  0.17125051894E+02  0.23720682724E+02  0.10566000000E+00 0. -1.
        994    1    1    2    0    0  0.14476670198E+02  0.66164951399E+01  0.75336408818E+01  0.17210330541E+03  0.17120000000E+03 0.  0.
        998    1    1    2    0    0  0.10102314767E+01 -0.11806788272E+01  0.14753413035E+04  0.14753760119E+04  0.10000000000E+02 0. -1.
</event>
<event>
 5    1  0.1364103E-008  0.3818351E+03  0.7957747E-01  0.3443207E+00
         13   -1    0    0    0    0  0.00000000000E+00  0.00000000000E+00  0.14999999963E+04  0.15000000000E+04  0.10566000000E+00 0.  1.
        994   -1    0    0    0    0 -0.00000000000E+00 -0.00000000000E+00  0.11368683772E-12  0.17120000000E+03  0.17120000000E+03 0.  0.
         13    1    1    2    0    0 -0.29153557109E+02 -0.11123511150E+02  0.14752368113E+03  0.15078763229E+03  0.10566000000E+00 0.  1.
        994    1    1    2    0    0  0.18827734962E+02  0.10867883617E+02  0.47815783683E+01  0.17264095108E+03  0.17120000000E+03 0.  0.
        998    1    1    2    0    0  0.10325822147E+02  0.25562753324E+00  0.13476947368E+04  0.13477714166E+04  0.10000000000E+02 0.  1.
</event>
<event>
 5    1  0.1364103E-008  0.3757932E+03  0.7957747E-01  0.3469683E+00
         13   -1    0    0    0    0  0.00000000000E+00  0.00000000000E+00  0.14999999963E+04  0.15000000000E+04  0.10566000000E+00 0. -1.
        994   -1    0    0    0    0 -0.00000000000E+00 -0.00000000000E+00  0.11368683772E-12  0.17120000000E+03  0.17120000000E+03 0.  0.
         13    1    1    2    0    0 -0.74920108835E+01  0.10393238239E+03  0.32750840397E+03  0.34368566477E+03  0.10566000000E+00 0. -1.
        994    1    1    2    0    0  0.57046905688E+01 -0.87689866213E+02  0.42133910683E+02  0.19699432114E+03  0.17120000000E+03 0.  0.
        998    1    1    2    0    0  0.17873203148E+01 -0.16242516176E+02  0.11303576816E+04  0.11305200141E+04  0.10000000000E+02 0. -1.
</event>
<event>
 5    1  0.1364103E-008  0.3796063E+03  0.7957747E-01  0.3452874E+00
         13   -1    0    0    0    0  0.00000000000E+00  0.00000000000E+00  0.14999999963E+04  0.15000000000E+04  0.10566000000E+00 0. -1.
        994   -1    0    0    0    0 -0.00000000000E+00 -0.00000000000E+00  0.11368683772E-12  0.17120000000E+03  0.17120000000E+03 0.  0.
         13    1    1    2    0    0  0.18649864925E+01 -0.17574413512E+02  0.33538783670E+02  0.37910412276E+02  0.10566000000E+00 0. -1.
        994    1    1    2    0    0 -0.99572826041E+01  0.18487943104E+02  0.58093800345E+01  0.17258082284E+03  0.17120000000E+03 0.  0.
        998    1    1    2    0    0  0.80922961115E+01 -0.91352959230E+00  0.14606518326E+04  0.14607087649E+04  0.10000000000E+02 0. -1.
</event>
<event>
 5    1  0.1364103E-008  0.3695320E+03  0.7957747E-01  0.3498044E+00
         13   -1    0    0    0    0  0.00000000000E+00  0.00000000000E+00  0.14999999963E+04  0.15000000000E+04  0.10566000000E+00 0.  1.
        994   -1    0    0    0    0 -0.00000000000E+00 -0.00000000000E+00  0.11368683772E-12  0.17120000000E+03  0.17120000000E+03 0.  0.
         13    1    1    2    0    0 -0.15655227240E+01  0.84005772975E+02  0.32109270150E+03  0.33190353248E+03  0.10566000000E+00 0.  1.
        994    1    1    2    0    0  0.41137410817E+02 -0.69958398922E+02  0.32683937446E+02  0.19226061457E+03  0.17120000000E+03 0.  0.
        998    1    1    2    0    0 -0.39571888093E+02 -0.14047374053E+02  0.11462233573E+04  0.11470358529E+04  0.10000000000E+02 0.  1.
</event>
<event>
 5    1  0.1364103E-008  0.3836991E+03  0.7957747E-01  0.3435208E+00
         13   -1    0    0    0    0  0.00000000000E+00  0.00000000000E+00  0.14999999963E+04  0.15000000000E+04  0.10566000000E+00 0.  1.
        994   -1    0    0    0    0 -0.00000000000E+00 -0.00000000000E+00  0.11368683772E-12  0.17120000000E+03  0.17120000000E+03 0.  0.
         13    1    1    2    0    0 -0.70284291977E+01  0.47710732215E+02  0.54449151748E+02  0.72735370182E+02  0.10566000000E+00 0.  1.
        994    1    1    2    0    0  0.46895078544E+01 -0.49421728873E+02  0.27483137113E+02  0.18035870257E+03  0.17120000000E+03 0.  0.
        998    1    1    2    0    0  0.23389213432E+01  0.17109966582E+01  0.14180677074E+04  0.14181059272E+04  0.10000000000E+02 0.  1.
</event>
<event>
 5    1  0.1364103E-008  0.3762042E+03  0.7957747E-01  0.3467855E+00
         13   -1    0    0    0    0  0.00000000000E+00  0.00000000000E+00  0.14999999963E+04  0.15000000000E+04  0.10566000000E+00 0.  1.
        994   -1    0    0    0    0 -0.00000000000E+00 -0.00000000000E+00  0.11368683772E-12  0.17120000000E+03  0.17120000000E+03 0.  0.
         13    1    1    2    0    0 -0.36761186416E+02 -0.27123079288E+01  0.13455191012E+03  0.13950974561E+03  0.10566000000E+00 0.  1.
        994    1    1    2    0    0 -0.17493184208E+02  0.11451502408E+02  0.75430011789E+01  0.17263685953E+03  0.17120000000E+03 0.  0.
        998    1    1    2    0    0  0.54254370624E+02 -0.87391944793E+01  0.13579050850E+04  0.13590533949E+04  0.10000000000E+02 0.  1.
</event>
<event>
 5    1  0.1364103E-008  0.3855188E+03  0.7957747E-01  0.3427475E+00
         13   -1    0    0    0    0  0.00000000000E+00  0.00000000000E+00  0.14999999963E+04  0.15000000000E+04  0.10566000000E+00 0. -1.
        994   -1    0    0    0    0 -0.00000000000E+00 -0.00000000000E+00  0.11368683772E-12  0.17120000000E+03  0.17120000000E+03 0.  0.
         13    1    1    2    0    0  0.13059053622E+02  0.29419237258E+01  0.61891691877E+02  0.63322874889E+02  0.10566000000E+00 0. -1.
        994    1    1    2    0    0 -0.20826195753E+02  0.10687529565E+02  0.31738360737E+01  0.17282206732E+03  0.17120000000E+03 0.  0.
        998    1    1    2    0    0  0.77671421315E+01 -0.13629453291E+02  0.14349344683E+04  0.14350550578E+04  0.10000000000E+02 0. -1.
</event>
<event>
 5    1  0.1364103E-008  0.3841137E+03  0.7957747E-01  0.3433440E+00
         13   -1    0    0    0    0  0.00000000000E+00  0.00000000000E+00  0.14999999963E+04  0.15000000000E+04  0.10566000000E+00 0.  1.
        994   -1    0    0    0    0 -0.00000000000E+00 -0.00000000000E+00  0.11368683772E-12  0.17120000000E+03  0.17120000000E+03 0.  0.
         13    1    1    2    0    0 -0.69674969826E+01 -0.13826611130E+02  0.56033648987E+02  0.58133485810E+02  0.10566000000E+00 0.  1.
        994    1    1    2    0    0  0.18022042229E+01  0.15946714508E+02  0.29206817530E+01  0.17197533552E+03  0.17120000000E+03 0.  0.
        998    1    1    2    0    0  0.51652927597E+01 -0.21201033784E+01  0.14410456655E+04  0.14410911787E+04  0.10000000000E+02 0.  1.
</event>
<event>
 5    1  0.1364103E-008  0.3835711E+03  0.7957747E-01  0.3435755E+00
         13   -1    0    0    0    0  0.00000000000E+00  0.00000000000E+00  0.14999999963E+04  0.15000000000E+04  0.10566000000E+00 0. -1.
        994   -1    0    0    0    0 -0.00000000000E+00 -0.00000000000E+00  0.11368683772E-12  0.17120000000E+03  0.17120000000E+03 0.  0.
         13    1    1    2    0    0  0.17065400895E+02 -0.27034103903E+02  0.19296061198E+03  0.19559110312E+03  0.10566000000E+00 0. -1.
        994    1    1    2    0    0 -0.17270951375E+02  0.26740633305E+02  0.56965028527E+01  0.17422754482E+03  0.17120000000E+03 0.  0.
        998    1    1    2    0    0  0.20555047961E+00  0.29347059829E+00  0.13013428814E+04  0.13013813521E+04  0.10000000000E+02 0. -1.
</event>
<event>
 5    1  0.1364103E-008  0.3776708E+03  0.7957747E-01  0.3461363E+00
         13   -1    0    0    0    0  0.00000000000E+00  0.00000000000E+00  0.14999999963E+04  0.15000000000E+04  0.10566000000E+00 0.  1.
        994   -1    0    0    0    0 -0.00000000000E+00 -0.00000000000E+00  0.11368683772E-12  0.17120000000E+03  0.17120000000E+03 0.  0.
         13    1    1    2    0    0  0.98411304088E+01 -0.53149120682E+01  0.93043863417E+01  0.14549189230E+02  0.10566000000E+00 0.  1.
        994    1    1    2    0    0 -0.11658743531E+02  0.30642845401E+01  0.58032561760E+01  0.17172196692E+03  0.17120000000E+03 0.  0.
        998    1    1    2    0    0  0.18176131226E+01  0.22506275281E+01  0.14848923538E+04  0.14849288439E+04  0.10000000000E+02 0.  1.
</event>
<event>
 5    1  0.1364103E-008  0.3775420E+03  0.7957747E-01  0.3461932E+00
         13   -1    0    0    0    0  0.00000000000E+00  0.00000000000E+00  0.14999999963E+04  0.15000000000E+04  0.10566000000E+00 0. -1.
        994   -1    0    0    0    0 -0.00000000000E+00 -0.00000000000E+00  0.11368683772E-12  0.17120000000E+03  0.17120000000E+03 0.  0.
         13    1    1    2    0    0  0.12006763716E+02 -0.28150861107E+02  0.82357196504E+02  0.87859844844E+02  0.10566000000E+00 0. -1.
        994    1    1    2    0    0 -0.95135050755E+01  0.25090408351E+02  0.78096737507E+01  0.17346603810E+03  0.17120000000E+03 0.  0.
        998    1    1    2    0    0 -0.24932586409E+01  0.30604527557E+01  0.14098331260E+04  0.14098741171E+04  0.10000000000E+02 0. -1.
</event>
<event>
 5    1  0.1364103E-008  0.3821853E+03  0.7957747E-01  0.3441698E+00
         13   -1    0    0    0    0  0.00000000000E+00  0.00000000000E+00  0.14999999963E+04  0.15000000000E+04  0.10566000000E+00 0.  1.
        994   -1    0    0    0    0 -0.00000000000E+00 -0.00000000000E+00  0.11368683772E-12  0.17120000000E+03  0.17120000000E+03 0.  0.
         13    1    1    2    0    0 -0.74799430316E+01 -0.82520160420E+01  0.19759094015E+02  0.22682113588E+02  0.10566000000E+00 0.  1.
        994    1    1    2    0    0 -0.47348147753E+01  0.27917939603E+01  0.31343488674E+01  0.17131688979E+03  0.17120000000E+03 0.  0.
        998    1    1    2    0    0  0.12214757807E+02  0.54602220817E+01  0.14771065534E+04  0.14772009966E+04  0.10000000000E+02 0.  1.
</event>
<event>
 5    1  0.1364103E-008  0.3827825E+03  0.7957747E-01  0.3439132E+00
         13   -1    0    0    0    0  0.00000000000E+00  0.00000000000E+00  0.14999999963E+04  0.15000000000E+04  0.10566000000E+00 0. -1.
        994   -1    0    0    0    0 -0.00000000000E+00 -0.00000000000E+00  0.11368683772E-12  0.17120000000E+03  0.17120000000E+03 0.  0.
         13    1    1    2    0    0 -0.39747562427E+01  0.20650461725E+02  0.78261908920E+02  0.81038125647E+02  0.10566000000E+00 0. -1.
        994    1    1    2    0    0  0.69670969192E+01 -0.16396108816E+02  0.37870816740E+01  0.17216606754E+03  0.17120000000E+03 0.  0.
        998    1    1    2    0    0 -0.29923406764E+01 -0.42543529096E+01  0.14179510057E+04  0.14179958068E+04  0.10000000000E+02 0. -1.
</event>
<event>
 5    1  0.1364103E-008  0.3757882E+03  0.7957747E-01  0.3469705E+00
         13   -1    0    0    0    0  0.00000000000E+00  0.00000000000E+00  0.14999999963E+04  0.15000000000E+04  0.10566000000E+00 0. -1.
        994   -1    0    0    0    0 -0.00000000000E+00 -0.00000000000E+00  0.11368683772E-12  0.17120000000E+03  0.17120000000E+03 0.  0.
         13    1    1    2    0    0 -0.70559926863E+01  0.25125788532E+02  0.52244907552E+02  0.58400631943E+02  0.10566000000E+00 0. -1.
        994    1    1    2    0    0 -0.67412623378E+01 -0.17205887835E+02  0.74330911911E+01  0.17235480277E+03  0.17120000000E+03 0.  0.
        998    1    1    2    0    0  0.13797255024E+02 -0.79199006979E+01  0.14403219975E+04  0.14404445653E+04  0.10000000000E+02 0. -1.
</event>
<event>
 5    1  0.1364103E-008  0.3727649E+03  0.7957747E-01  0.3483280E+00
         13   -1    0    0    0    0  0.00000000000E+00  0.00000000000E+00  0.14999999963E+04  0.15000000000E+04  0.10566000000E+00 0.  1.
        994   -1    0    0    0    0 -0.00000000000E+00 -0.00000000000E+00  0.11368683772E-12  0.17120000000E+03  0.17120000000E+03 0.  0.
         13    1    1    2    0    0  0.12860172872E+02  0.49164227091E+02  0.15337288860E+03  0.16157276810E+03  0.10566000000E+00 0.  1.
        994    1    1    2    0    0 -0.17063410185E+02 -0.38782731758E+02  0.14004884971E+02  0.17692042576E+03  0.17120000000E+03 0.  0.
        998    1    1    2    0    0  0.42032373123E+01 -0.10381495333E+02  0.13326222227E+04  0.13327068061E+04  0.10000000000E+02 0.  1.
</event>
<event>
 5    1  0.1364103E-008  0.3860445E+03  0.7957747E-01  0.3425255E+00
         13   -1    0    0    0    0  0.00000000000E+00  0.00000000000E+00  0.14999999963E+04  0.15000000000E+04  0.10566000000E+00 0.  1.
        994   -1    0    0    0    0 -0.00000000000E+00 -0.00000000000E+00  0.11368683772E-12  0.17120000000E+03  0.17120000000E+03 0.  0.
         13    1    1    2    0    0  0.25765000389E+01  0.10841409800E+02  0.61575027516E+02  0.62575312197E+02  0.10566000000E+00 0.  1.
        994    1    1    2    0    0  0.22478726690E+01  0.34924436589E+01  0.11690005046E+01  0.17125436244E+03  0.17120000000E+03 0.  0.
        998    1    1    2    0    0 -0.48243727079E+01 -0.14333853459E+02  0.14372559683E+04  0.14373703254E+04  0.10000000000E+02 0.  1.
</event>
<event>
 5    1  0.1364103E-008  0.3819828E+03  0.7957747E-01  0.3442570E+00
         13   -1    0    0    0    0  0.00000000000E+00  0.00000000000E+00  0.14999999963E+04  0.15000000000E+04  0.10566000000E+00 0.  1.
        994   -1    0    0    0    0 -0.00000000000E+00 -0.00000000000E+00  0.11368683772E-12  0.17120000000E+03  0.17120000000E+03 0.  0.
         13    1    1    2    0    0 -0.43660123225E+02  0.16322398401E+02  0.25963978760E+03  0.26379055615E+03  0.10566000000E+00 0.  1.
        994    1    1    2    0    0  0.72337055851E+02  0.18515667657E+02  0.21879138146E+02  0.18805216373E+03  0.17120000000E+03 0.  0.
        998    1    1    2    0    0 -0.28676932626E+02 -0.34838066058E+02  0.12184810705E+04  0.12193572801E+04  0.10000000000E+02 0.  1.
</event>
<event>
 5    1  0.1364103E-008  0.3704118E+03  0.7957747E-01  0.3494000E+00
         13   -1    0    0    0    0  0.00000000000E+00  0.00000000000E+00  0.14999999963E+04  0.15000000000E+04  0.10566000000E+00 0. -1.
        994   -1    0    0    0    0 -0.00000000000E+00 -0.00000000000E+00  0.11368683772E-12  0.17120000000E+03  0.17120000000E+03 0.  0.
         13    1    1    2    0    0  0.25831503544E+02 -0.50444257482E+01  0.25876919303E+02  0.36909875685E+02  0.10566000000E+00 0. -1.
        994    1    1    2    0    0 -0.27822326348E+02  0.15872022928E+01  0.13880421734E+02  0.17400777903E+03  0.17120000000E+03 0.  0.
        998    1    1    2    0    0  0.19908228046E+01  0.34572234554E+01  0.14602426552E+04  0.14602823453E+04  0.10000000000E+02 0. -1.
</event>
<event>
 5    1  0.1364103E-008  0.3705723E+03  0.7957747E-01  0.3493265E+00
         13   -1    0    0    0    0  0.00000000000E+00  0.00000000000E+00  0.14999999963E+04  0.15000000000E+04  0.10566000000E+00 0.  1.
        994   -1    0    0    0    0 -0.00000000000E+00 -0.00000000000E+00  0.11368683772E-12  0.17120000000E+03  0.17120000000E+03 0.  0.
         13    1    1    2    0    0 -0.73049922456E+02 -0.39193740403E+02  0.26235465792E+03  0.27514072428E+03  0.10566000000E+00 0.  1.
        994    1    1    2    0    0  0.70898480182E+02  0.24465871184E+02  0.31216185394E+02  0.18949686957E+03  0.17120000000E+03 0.  0.
        998    1    1    2    0    0  0.21514422731E+01  0.14727869218E+02  0.12064291530E+04  0.12065624062E+04  0.10000000000E+02 0.  1.
</event>
<event>
 5    1  0.1364103E-008  0.3844714E+03  0.7957747E-01  0.3431917E+00
         13   -1    0    0    0    0  0.00000000000E+00  0.00000000000E+00  0.14999999963E+04  0.15000000000E+04  0.10566000000E+00 0. -1.
        994   -1    0    0    0    0 -0.00000000000E+00 -0.00000000000E+00  0.11368683772E-12  0.17120000000E+03  0.17120000000E+03 0.  0.
         13    1    1    2    0    0 -0.18789392055E+02  0.23545612192E+01  0.89600270869E+02  0.91579500524E+02  0.10566000000E+00 0. -1.
        994    1    1    2    0    0  0.19103100237E+02 -0.72082314932E+01  0.32673662064E+01  0.17244420176E+03  0.17120000000E+03 0.  0.
        998    1    1    2    0    0 -0.31370818189E+00  0.48536702740E+01  0.14071323592E+04  0.14071762977E+04  0.10000000000E+02 0. -1.
</event>
<event>
 5    1  0.1364103E-008  0.3820218E+03  0.7957747E-01  0.3442402E+00
         13   -1    0    0    0    0  0.00000000000E+00  0.00000000000E+00  0.14999999963E+04  0.15000000000E+04  0.10566000000E+00 0. -1.
        994   -1    0    0    0    0 -0.00000000000E+00 -0.00000000000E+00  0.11368683772E-12  0.17120000000E+03  0.17120000000E+03 0.  0.
         13    1    1    2    0    0  0.38194768248E+01 -0.10894193896E+02  0.20751089119E+02  0.23746383462E+02  0.10566000000E+00 0. -1.
        994    1    1    2    0    0  0.19553119830E+02  0.49711847833E+01  0.44688698403E+01  0.17244259326E+03  0.17120000000E+03 0.  0.
        998    1    1    2    0    0 -0.23372596655E+02  0.59230091123E+01  0.14747800373E+04  0.14750110233E+04  0.10000000000E+02 0. -1.
</event>
<event>
 5    1  0.1364103E-008  0.3828983E+03  0.7957747E-01  0.3438635E+00
         13   -1    0    0    0    0  0.00000000000E+00  0.00000000000E+00  0.14999999963E+04  0.15000000000E+04  0.10566000000E+00 0.  1.
        994   -1    0    0    0    0 -0.00000000000E+00 -0.00000000000E+00  0.11368683772E-12  0.17120000000E+03  0.17120000000E+03 0.  0.
         13    1    1    2    0    0 -0.20531456434E+00  0.14929581550E+02  0.40487373690E+02  0.43152904325E+02  0.10566000000E+00 0.  1.
        994    1    1    2    0    0 -0.29112542294E+01 -0.11816443098E+02  0.31677524180E+01  0.17166123145E+03  0.17120000000E+03 0.  0.
        998    1    1    2    0    0  0.31165687937E+01 -0.31131384522E+01  0.14563448702E+04  0.14563858642E+04  0.10000000000E+02 0.  0.
</event>
<event>
 5    1  0.1364103E-008  0.3750237E+03  0.7957747E-01  0.3473117E+00
         13   -1    0    0    0    0  0.00000000000E+00  0.00000000000E+00  0.14999999963E+04  0.15000000000E+04  0.10566000000E+00 0. -1.
        994   -1    0    0    0    0 -0.00000000000E+00 -0.00000000000E+00  0.11368683772E-12  0.17120000000E+03  0.17120000000E+03 0.  0.
         13    1    1    2    0    0  0.17123104563E+02 -0.58231820653E+02  0.23639713111E+03  0.24406507412E+03  0.10566000000E+00 0. -1.
        994    1    1    2    0    0 -0.20728078700E+02  0.54238538121E+02  0.18213527760E+02  0.18169382174E+03  0.17120000000E+03 0.  0.
        998    1    1    2    0    0  0.36049741370E+01  0.39932825315E+01  0.12453893374E+04  0.12454411041E+04  0.10000000000E+02 0. -1.
</event>
<event>
 5    1  0.1364103E-008  0.3700449E+03  0.7957747E-01  0.3495685E+00
         13   -1    0    0    0    0  0.00000000000E+00  0.00000000000E+00  0.14999999963E+04  0.15000000000E+04  0.10566000000E+00 0. -1.
        994   -1    0    0    0    0 -0.00000000000E+00 -0.00000000000E+00  0.11368683772E-12  0.17120000000E+03  0.17120000000E+03 0.  0.
         13    1    1    2    0    0  0.43714818112E+02 -0.70855159600E+02  0.28476013104E+03  0.29668128077E+03  0.10566000000E+00 0. -1.
        994    1    1    2    0    0 -0.44038712964E+02  0.79811168409E+02  0.38546313028E+02  0.19774855016E+03  0.17120000000E+03 0.  0.
        998    1    1    2    0    0  0.32389485212E+00 -0.89560088089E+01  0.11766935522E+04  0.11767701691E+04  0.10000000000E+02 0.  0.
</event>
<event>
 5    1  0.1364103E-008  0.3787215E+03  0.7957747E-01  0.3456744E+00
         13   -1    0    0    0    0  0.00000000000E+00  0.00000000000E+00  0.14999999963E+04  0.15000000000E+04  0.10566000000E+00 0.  1.
        994   -1    0    0    0    0 -0.00000000000E+00 -0.00000000000E+00  0.11368683772E-12  0.17120000000E+03  0.17120000000E+03 0.  0.
         13    1    1    2    0    0  0.28269122664E+02  0.78917310459E+02  0.38550718124E+03  0.39451601126E+03  0.10566000000E+00 0.  1.
        994    1    1    2    0    0 -0.53012967341E+02 -0.10576168924E+03  0.53300660613E+02  0.21481692214E+03  0.17120000000E+03 0.  0.
        998    1    1    2    0    0  0.24743844677E+02  0.26844378776E+02  0.10611921544E+04  0.10618670666E+04  0.10000000000E+02 0.  1.
</event>
<event>
 5    1  0.1364103E-008  0.3750757E+03  0.7957747E-01  0.3472884E+00
         13   -1    0    0    0    0  0.00000000000E+00  0.00000000000E+00  0.14999999963E+04  0.15000000000E+04  0.10566000000E+00 0. -1.
        994   -1    0    0    0    0 -0.00000000000E+00 -0.00000000000E+00  0.11368683772E-12  0.17120000000E+03  0.17120000000E+03 0.  0.
         13    1    1    2    0    0 -0.25735065701E+02 -0.15292016405E+02  0.66906153785E+02  0.73297912322E+02  0.10566000000E+00 0. -1.
        994    1    1    2    0    0  0.30679399093E+02 -0.29745434877E+02  0.12870666761E+02  0.17692119853E+03  0.17120000000E+03 0.  0.
        998    1    1    2    0    0 -0.49443333921E+01  0.45037451282E+02  0.14202231757E+04  0.14209808892E+04  0.10000000000E+02 0. -1.
</event>
<event>
 5    1  0.1364103E-008  0.3815587E+03  0.7957747E-01  0.3444399E+00
         13   -1    0    0    0    0  0.00000000000E+00  0.00000000000E+00  0.14999999963E+04  0.15000000000E+04  0.10566000000E+00 0.  1.
        994   -1    0    0    0    0 -0.00000000000E+00 -0.00000000000E+00  0.11368683772E-12  0.17120000000E+03  0.17120000000E+03 0.  0.
         13    1    1    2    0    0 -0.16992847532E+02  0.12216510244E+02  0.69012712623E+02  0.72116334193E+02  0.10566000000E+00 0.  1.
        994    1    1    2    0    0  0.40121123356E+01  0.82421311703E+01  0.36278895030E+01  0.17148361833E+03  0.17120000000E+03 0.  0.
        998    1    1    2    0    0  0.12980735197E+02 -0.20458641414E+02  0.14273593942E+04  0.14276000475E+04  0.10000000000E+02 0.  1.
</event>
<event>
 5    1  0.1364103E-008  0.3699632E+03  0.7957747E-01  0.3496060E+00
         13   -1    0    0    0    0  0.00000000000E+00  0.00000000000E+00  0.14999999963E+04  0.15000000000E+04  0.10566000000E+00 0.  1.
        994   -1    0    0    0    0 -0.00000000000E+00 -0.00000000000E+00  0.11368683772E-12  0.17120000000E+03  0.17120000000E+03 0.  0.
         13    1    1    2    0    0  0.30116354990E+02 -0.21136397012E+02  0.68338888544E+02  0.77614154431E+02  0.10566000000E+00 0.  1.
        994    1    1    2    0    0 -0.15227007865E+02  0.28528516965E+02  0.12913144094E+02  0.17470525848E+03  0.17120000000E+03 0.  0.
        998    1    1    2    0    0 -0.14889347125E+02 -0.73921199529E+01  0.14187479636E+04  0.14188805871E+04  0.10000000000E+02 0.  1.
</event>
<event>
 5    1  0.1364103E-008  0.3851719E+03  0.7957747E-01  0.3428944E+00
         13   -1    0    0    0    0  0.00000000000E+00  0.00000000000E+00  0.14999999963E+04  0.15000000000E+04  0.10566000000E+00 0.  1.
        994   -1    0    0    0    0 -0.00000000000E+00 -0.00000000000E+00  0.11368683772E-12  0.17120000000E+03  0.17120000000E+03 0.  0.
         13    1    1    2    0    0  0.99951265115E+01 -0.69891657131E+01  0.48296435938E+02  0.49812728090E+02  0.10566000000E+00 0.  1.
        994    1    1    2    0    0 -0.90448462087E+01  0.52354806300E+00  0.18146662853E+01  0.17144916553E+03  0.17120000000E+03 0.  0.
        998    1    1    2    0    0 -0.95028030276E+00  0.64656176501E+01  0.14498888941E+04  0.14499381064E+04  0.10000000000E+02 0.  1.
</event>
<event>
 5    1  0.1364103E-008  0.3817769E+03  0.7957747E-01  0.3443458E+00
         13   -1    0    0    0    0  0.00000000000E+00  0.00000000000E+00  0.14999999963E+04  0.15000000000E+04  0.10566000000E+00 0.  1.
        994   -1    0    0    0    0 -0.00000000000E+00 -0.00000000000E+00  0.11368683772E-12  0.17120000000E+03  0.17120000000E+03 0.  0.
         13    1    1    2    0    0 -0.12137020045E+01  0.23005031074E+02  0.76918207874E+02  0.80293999738E+02  0.10566000000E+00 0.  1.
        994    1    1    2    0    0 -0.52177346219E+01 -0.24774489387E+02  0.53720598247E+01  0.17314531211E+03  0.17120000000E+03 0.  0.
        998    1    1    2    0    0  0.64314366263E+01  0.17694583135E+01  0.14177097286E+04  0.14177606882E+04  0.10000000000E+02 0.  1.
</event>
<event>
 5    1  0.1364103E-008  0.3757400E+03  0.7957747E-01  0.3469920E+00
         13   -1    0    0    0    0  0.00000000000E+00  0.00000000000E+00  0.14999999963E+04  0.15000000000E+04  0.10566000000E+00 0.  1.
        994   -1    0    0    0    0 -0.00000000000E+00 -0.00000000000E+00  0.11368683772E-12  0.17120000000E+03  0.17120000000E+03 0.  0.
         13    1    1    2    0    0  0.48576098911E+01  0.20879397080E+02  0.34187136412E+02  0.40352410788E+02  0.10566000000E+00 0.  1.
        994    1    1    2    0    0  0.35777508412E+01 -0.12908401423E+02  0.69078132216E+01  0.17186211046E+03  0.17120000000E+03 0.  0.
        998    1    1    2    0    0 -0.84353607323E+01 -0.79709956571E+01  0.14589050466E+04  0.14589854788E+04  0.10000000000E+02 0.  1.
</event>
<event>
 5    1  0.1364103E-008  0.3852715E+03  0.7957747E-01  0.3428522E+00
         13   -1    0    0    0    0  0.00000000000E+00  0.00000000000E+00  0.14999999963E+04  0.15000000000E+04  0.10566000000E+00 0. -1.
        994   -1    0    0    0    0 -0.00000000000E+00 -0.00000000000E+00  0.11368683772E-12  0.17120000000E+03  0.17120000000E+03 0.  0.
         13    1    1    2    0    0 -0.12118141350E+02  0.19842236465E+00  0.48837666473E+02  0.50319156907E+02  0.10566000000E+00 0. -1.
        994    1    1    2    0    0  0.93298065495E+01 -0.52899178873E+01  0.18734606010E+01  0.17154584920E+03  0.17120000000E+03 0.  0.
        998    1    1    2    0    0  0.27883348007E+01  0.50914955226E+01  0.14492888692E+04  0.14493349939E+04  0.10000000000E+02 0. -1.
</event>
<event>
 5    1  0.1364103E-008  0.3708099E+03  0.7957747E-01  0.3492177E+00
         13   -1    0    0    0    0  0.00000000000E+00  0.00000000000E+00  0.14999999963E+04  0.15000000000E+04  0.10566000000E+00 0.  1.
        994   -1    0    0    0    0 -0.00000000000E+00 -0.00000000000E+00  0.11368683772E-12  0.17120000000E+03  0.17120000000E+03 0.  0.
         13    1    1    2    0    0 -0.38208864472E+02  0.12847316558E+03  0.73461551854E+03  0.74674309026E+03  0.10566000000E+00 0.  1.
        994    1    1    2    0    0 -0.46742961149E+01 -0.94407447946E+02  0.43386728345E+02  0.20031590917E+03  0.17120000000E+03 0.  0.
        998    1    1    2    0    0  0.42883160587E+02 -0.34065717634E+02  0.72199774939E+03  0.72414100057E+03  0.10000000000E+02 0.  1.
</event>
<event>
 5    1  0.1364103E-008  0.3853893E+03  0.7957747E-01  0.3428023E+00
         13   -1    0    0    0    0  0.00000000000E+00  0.00000000000E+00  0.14999999963E+04  0.15000000000E+04  0.10566000000E+00 0.  1.
        994   -1    0    0    0    0 -0.00000000000E+00 -0.00000000000E+00  0.11368683772E-12  0.17120000000E+03  0.17120000000E+03 0.  0.
         13    1    1    2    0    0  0.12852771013E+02 -0.10629683106E+02  0.92671914858E+02  0.94160919989E+02  0.10566000000E+00 0.  1.
        994    1    1    2    0    0 -0.15702453871E+02  0.72337090223E+01  0.24193144070E+01  0.17208772962E+03  0.17120000000E+03 0.  0.
        998    1    1    2    0    0  0.28496828578E+01  0.33959740841E+01  0.14049087670E+04  0.14049513504E+04  0.10000000000E+02 0.  1.
</event>
<event>
 5    1  0.1364103E-008  0.2332085E+03  0.7957747E-01  0.4529663E+00
         13   -1    0    0    0    0  0.00000000000E+00  0.00000000000E+00  0.14999999963E+04  0.15000000000E+04  0.10566000000E+00 0.  1.
        994   -1    0    0    0    0 -0.00000000000E+00 -0.00000000000E+00  0.11368683772E-12  0.17120000000E+03  0.17120000000E+03 0.  0.
         13    1    1    2    0    0 -0.12801015848E+03  0.88813776028E+02  0.21834475476E+03  0.26823297818E+03  0.10566000000E+00 0.  1.
        994    1    1    2    0    0  0.10968456789E+03 -0.92569026288E+02  0.14548556489E+03  0.26659935981E+03  0.17120000000E+03 0.  0.
        998    1    1    2    0    0  0.18325590584E+02  0.37552502601E+01  0.11361696766E+04  0.11363676620E+04  0.10000000000E+02 0.  1.
</event>
<event>
 5    1  0.1364103E-008  0.3820622E+03  0.7957747E-01  0.3442228E+00
         13   -1    0    0    0    0  0.00000000000E+00  0.00000000000E+00  0.14999999963E+04  0.15000000000E+04  0.10566000000E+00 0. -1.
        994   -1    0    0    0    0 -0.00000000000E+00 -0.00000000000E+00  0.11368683772E-12  0.17120000000E+03  0.17120000000E+03 0.  0.
         13    1    1    2    0    0 -0.26924674444E+02 -0.12329952371E+01  0.13383659450E+03  0.13652363738E+03  0.10566000000E+00 0. -1.
        994    1    1    2    0    0 -0.33735041192E+01 -0.92164983351E+01  0.34156464774E+01  0.17151510433E+03  0.17120000000E+03 0.  0.
        998    1    1    2    0    0  0.30298178563E+02  0.10449493572E+02  0.13627477553E+04  0.13631612583E+04  0.10000000000E+02 0. -1.
</event>
<event>
 5    1  0.1364103E-008  0.3771030E+03  0.7957747E-01  0.3463870E+00
         13   -1    0    0    0    0  0.00000000000E+00  0.00000000000E+00  0.14999999963E+04  0.15000000000E+04  0.10566000000E+00 0. -1.
        994   -1    0    0    0    0 -0.00000000000E+00 -0.00000000000E+00  0.11368683772E-12  0.17120000000E+03  0.17120000000E+03 0.  0.
         13    1    1    2    0    0 -0.30668094124E+02 -0.15274878696E+02  0.13214030223E+03  0.13650979655E+03  0.10566000000E+00 0. -1.
        994    1    1    2    0    0  0.16595241354E+02 -0.79314976001E+02  0.28096837678E+02  0.19148143446E+03  0.17120000000E+03 0.  0.
        998    1    1    2    0    0  0.14072852769E+02  0.94589854697E+02  0.13397628564E+04  0.13432087690E+04  0.10000000000E+02 0. -1.
</event>
<event>
 5    1  0.1364103E-008  0.3852708E+03  0.7957747E-01  0.3428524E+00
         13   -1    0    0    0    0  0.00000000000E+00  0.00000000000E+00  0.14999999963E+04  0.15000000000E+04  0.10566000000E+00 0. -1.
        994   -1    0    0    0    0 -0.00000000000E+00 -0.00000000000E+00  0.11368683772E-12  0.17120000000E+03  0.17120000000E+03 0.  0.
         13    1    1    2    0    0 -0.27894433156E+00 -0.10757508815E+02  0.40017969105E+02  0.41439725158E+02  0.10566000000E+00 0. -1.
        994    1    1    2    0    0  0.58555464936E+01  0.76292901835E+00  0.16103216306E+01  0.17130937692E+03  0.17120000000E+03 0.  0.
        998    1    1    2    0    0 -0.55766021620E+01  0.99945797968E+01  0.14583717055E+04  0.14584508979E+04  0.10000000000E+02 0. -1.
</event>
<event>
 5    1  0.1364103E-008  0.3830619E+03  0.7957747E-01  0.3437934E+00
         13   -1    0    0    0    0  0.00000000000E+00  0.00000000000E+00  0.14999999963E+04  0.15000000000E+04  0.10566000000E+00 0.  1.
        994   -1    0    0    0    0 -0.00000000000E+00 -0.00000000000E+00  0.11368683772E-12  0.17120000000E+03  0.17120000000E+03 0.  0.
         13    1    1    2    0    0  0.21476973205E+02  0.30720324157E+02  0.19825219583E+03  0.20176457323E+03  0.10566000000E+00 0.  1.
        994    1    1    2    0    0 -0.65898517960E+02 -0.27553784205E+02  0.19666951921E+02  0.18654236701E+03  0.17120000000E+03 0.  0.
        998    1    1    2    0    0  0.44421544755E+02 -0.31665399522E+01  0.12820808485E+04  0.12828930598E+04  0.10000000000E+02 0.  1.
</event>
<event>
 5    1  0.1364103E-008  0.3862367E+03  0.7957747E-01  0.3424444E+00
         13   -1    0    0    0    0  0.00000000000E+00  0.00000000000E+00  0.14999999963E+04  0.15000000000E+04  0.10566000000E+00 0.  1.
        994   -1    0    0    0    0 -0.00000000000E+00 -0.00000000000E+00  0.11368683772E-12  0.17120000000E+03  0.17120000000E+03 0.  0.
         13    1    1    2    0    0  0.10788768637E+02 -0.79888830433E+00  0.55591128456E+02  0.56634092897E+02  0.10566000000E+00 0.  1.
        994    1    1    2    0    0 -0.14400849748E+02 -0.27743777631E+01  0.17222059469E+01  0.17183564135E+03  0.17120000000E+03 0.  0.
        998    1    1    2    0    0  0.36120811103E+01  0.35732660674E+01  0.14426866619E+04  0.14427302658E+04  0.10000000000E+02 0.  1.
</event>
<event>
 5    1  0.1364103E-008  0.3831176E+03  0.7957747E-01  0.3437695E+00
         13   -1    0    0    0    0  0.00000000000E+00  0.00000000000E+00  0.14999999963E+04  0.15000000000E+04  0.10566000000E+00 0. -1.
        994   -1    0    0    0    0 -0.00000000000E+00 -0.00000000000E+00  0.11368683772E-12  0.17120000000E+03  0.17120000000E+03 0.  0.
         13    1    1    2    0    0  0.52109779521E+01 -0.10223799086E+02  0.23184745885E+02  0.25869363439E+02  0.10566000000E+00 0. -1.
        994    1    1    2    0    0 -0.17019857928E+02  0.22292979261E+02  0.51748720313E+01  0.17355941861E+03  0.17120000000E+03 0.  0.
        998    1    1    2    0    0  0.11808879976E+02 -0.12069180175E+02  0.14716403784E+04  0.14717712179E+04  0.10000000000E+02 0. -1.
</event>
<event>
 5    1  0.1364103E-008  0.3821133E+03  0.7957747E-01  0.3442008E+00
         13   -1    0    0    0    0  0.00000000000E+00  0.00000000000E+00  0.14999999963E+04  0.15000000000E+04  0.10566000000E+00 0.  1.
        994   -1    0    0    0    0 -0.00000000000E+00 -0.00000000000E+00  0.11368683772E-12  0.17120000000E+03  0.17120000000E+03 0.  0.
         13    1    1    2    0    0 -0.21088664787E+02  0.15668603192E+02  0.12964020826E+03  0.13227558985E+03  0.10566000000E+00 0.  1.
        994    1    1    2    0    0  0.17433978806E+02  0.30875500642E+02  0.72551025167E+01  0.17498376116E+03  0.17120000000E+03 0.  0.
        998    1    1    2    0    0  0.36546859811E+01 -0.46544103833E+02  0.13631046855E+04  0.13639406490E+04  0.10000000000E+02 0.  1.
</event>
<event>
 5    1  0.1364103E-008  0.3687939E+03  0.7957747E-01  0.3501453E+00
         13   -1    0    0    0    0  0.00000000000E+00  0.00000000000E+00  0.14999999963E+04  0.15000000000E+04  0.10566000000E+00 0.  1.
        994   -1    0    0    0    0 -0.00000000000E+00 -0.00000000000E+00  0.11368683772E-12  0.17120000000E+03  0.17120000000E+03 0.  0.
         13    1    1    2    0    0 -0.25761987453E+02 -0.70901865192E+01  0.31385503948E+02  0.41219070398E+02  0.10566000000E+00 0.  1.
        994    1    1    2    0    0  0.24374313760E+02  0.11809604356E+02  0.12452124987E+02  0.17377591704E+03  0.17120000000E+03 0.  0.
        998    1    1    2    0    0  0.13876736930E+01 -0.47194178365E+01  0.14561623673E+04  0.14562050126E+04  0.10000000000E+02 0.  1.
</event>
<event>
 5    1  0.1364103E-008  0.3738641E+03  0.7957747E-01  0.3478319E+00
         13   -1    0    0    0    0  0.00000000000E+00  0.00000000000E+00  0.14999999963E+04  0.15000000000E+04  0.10566000000E+00 0.  1.
        994   -1    0    0    0    0 -0.00000000000E+00 -0.00000000000E+00  0.11368683772E-12  0.17120000000E+03  0.17120000000E+03 0.  0.
         13    1    1    2    0    0  0.20007514331E+02  0.14587886150E+01  0.25214344526E+02  0.32221158077E+02  0.10566000000E+00 0.  1.
        994    1    1    2    0    0 -0.54165629170E+01  0.56406515857E+01  0.74719253577E+01  0.17154132380E+03  0.17120000000E+03 0.  0.
        998    1    1    2    0    0 -0.14590951414E+02 -0.70994402006E+01  0.14673137264E+04  0.14674375181E+04  0.10000000000E+02 0.  1.
</event>
<event>
 5    1  0.3371256E-008  0.3863934E+03  0.7957747E-01  0.3423784E+00
         13   -1    0    0    0    0  0.00000000000E+00  0.00000000000E+00  0.14999999963E+04  0.15000000000E+04  0.10566000000E+00 0. -1.
        994   -1    0    0    0    0 -0.00000000000E+00 -0.00000000000E+00  0.11368683772E-12  0.17120000000E+03  0.17120000000E+03 0.  0.
         13    1    1    2    0    0  0.55303213277E+01 -0.85277617609E+01  0.56121239217E+02  0.57034303975E+02  0.10566000000E+00 0. -1.
        994    1    1    2    0    0 -0.48139564036E+00  0.76083396749E+01  0.11302255970E+01  0.17137338178E+03  0.17120000000E+03 0.  0.
        998    1    1    2    0    0 -0.50489256874E+01  0.91942208602E+00  0.14427485315E+04  0.14427923142E+04  0.10000000000E+02 0. -1.
</event>
<event>
 5    1  0.1364103E-008  0.3835862E+03  0.7957747E-01  0.3435691E+00
         13   -1    0    0    0    0  0.00000000000E+00  0.00000000000E+00  0.14999999963E+04  0.15000000000E+04  0.10566000000E+00 0. -1.
        994   -1    0    0    0    0 -0.00000000000E+00 -0.00000000000E+00  0.11368683772E-12  0.17120000000E+03  0.17120000000E+03 0.  0.
         13    1    1    2    0    0  0.23668004667E+02 -0.55109140906E+01  0.11754558450E+03  0.12003133016E+03  0.10566000000E+00 0. -1.
        994    1    1    2    0    0 -0.24656027984E+02  0.24290462234E+01  0.43642786728E+01  0.17303845500E+03  0.17120000000E+03 0.  0.
        998    1    1    2    0    0  0.98802331705E+00  0.30818678672E+01  0.13780901331E+04  0.13781302148E+04  0.10000000000E+02 0.  0.
</event>
<event>
 5    1  0.1364103E-008  0.3844806E+03  0.7957747E-01  0.3431878E+00
         13   -1    0    0    0    0  0.00000000000E+00  0.00000000000E+00  0.14999999963E+04  0.15000000000E+04  0.10566000000E+00 0.  1.
        994   -1    0    0    0    0 -0.00000000000E+00 -0.00000000000E+00  0.11368683772E-12  0.17120000000E+03  0.17120000000E+03 0.  0.
         13    1    1    2    0    0 -0.17214269401E+02  0.30162206916E+01  0.77672024293E+02  0.79613963474E+02  0.10566000000E+00 0.  1.
        994    1    1    2    0    0  0.21949142855E+02  0.21456298901E+02  0.49979799731E+01  0.17400160183E+03  0.17120000000E+03 0.  0.
        998    1    1    2    0    0 -0.47348734544E+01 -0.24472519592E+02  0.14173299920E+04  0.14175844347E+04  0.10000000000E+02 0.  1.
</event>
<event>
 5    1  0.1364103E-008  0.3836580E+03  0.7957747E-01  0.3435384E+00
         13   -1    0    0    0    0  0.00000000000E+00  0.00000000000E+00  0.14999999963E+04  0.15000000000E+04  0.10566000000E+00 0.  1.
        994   -1    0    0    0    0 -0.00000000000E+00 -0.00000000000E+00  0.11368683772E-12  0.17120000000E+03  0.17120000000E+03 0.  0.
         13    1    1    2    0    0 -0.19058874622E+02 -0.19071039411E+02  0.14347059663E+03  0.14598208283E+03  0.10566000000E+00 0.  1.
        994    1    1    2    0    0  0.14598939200E+02  0.25180135685E+02  0.51011341146E+01  0.17373148773E+03  0.17120000000E+03 0.  0.
        998    1    1    2    0    0  0.44599354224E+01 -0.61090962737E+01  0.13514282655E+04  0.13514864294E+04  0.10000000000E+02 0.  1.
</event>
<event>
 5    1  0.1364103E-008  0.3829576E+03  0.7957747E-01  0.3438380E+00
         13   -1    0    0    0    0  0.00000000000E+00  0.00000000000E+00  0.14999999963E+04  0.15000000000E+04  0.10566000000E+00 0.  1.
        994   -1    0    0    0    0 -0.00000000000E+00 -0.00000000000E+00  0.11368683772E-12  0.17120000000E+03  0.17120000000E+03 0.  0.
         13    1    1    2    0    0 -0.12361661918E+02 -0.44627462137E+01  0.31002403002E+02  0.33673237817E+02  0.10566000000E+00 0.  1.
        994    1    1    2    0    0  0.13949408787E+02  0.64325111929E+01  0.34290954317E+01  0.17192196457E+03  0.17120000000E+03 0.  0.
        998    1    1    2    0    0 -0.15877468696E+01 -0.19697649792E+01  0.14655684978E+04  0.14656047976E+04  0.10000000000E+02 0.  1.
</event>
<event>
 5    1  0.1364103E-008  0.3842309E+03  0.7957747E-01  0.3432940E+00
         13   -1    0    0    0    0  0.00000000000E+00  0.00000000000E+00  0.14999999963E+04  0.15000000000E+04  0.10566000000E+00 0.  1.
        994   -1    0    0    0    0 -0.00000000000E+00 -0.00000000000E+00  0.11368683772E-12  0.17120000000E+03  0.17120000000E+03 0.  0.
         13    1    1    2    0    0 -0.16207520951E+02  0.13662056806E+02  0.12053794740E+03  0.12238767691E+03  0.10566000000E+00 0.  1.
        994    1    1    2    0    0  0.83950965571E+00 -0.39361800919E+01  0.20658493129E+01  0.17125976183E+03  0.17120000000E+03 0.  0.
        998    1    1    2    0    0  0.15368011295E+02 -0.97258767138E+01  0.13773961996E+04  0.13775525613E+04  0.10000000000E+02 0.  1.
</event>
<event>
 5    1  0.1364103E-008  0.3756456E+03  0.7957747E-01  0.3470340E+00
         13   -1    0    0    0    0  0.00000000000E+00  0.00000000000E+00  0.14999999963E+04  0.15000000000E+04  0.10566000000E+00 0. -1.
        994   -1    0    0    0    0 -0.00000000000E+00 -0.00000000000E+00  0.11368683772E-12  0.17120000000E+03  0.17120000000E+03 0.  0.
         13    1    1    2    0    0  0.68694377921E+02 -0.73058062352E+02  0.28797706661E+03  0.30493802664E+03  0.10566000000E+00 0. -1.
        994    1    1    2    0    0 -0.70386959643E+02  0.68748544953E+02  0.49344523225E+02  0.20353134524E+03  0.17120000000E+03 0.  0.
        998    1    1    2    0    0  0.16925817224E+01  0.43095173989E+01  0.11626784064E+04  0.11627306281E+04  0.10000000000E+02 0.  0.
</event>
<event>
 5    1  0.1364103E-008  0.3852742E+03  0.7957747E-01  0.3428510E+00
         13   -1    0    0    0    0  0.00000000000E+00  0.00000000000E+00  0.14999999963E+04  0.15000000000E+04  0.10566000000E+00 0.  1.
        994   -1    0    0    0    0 -0.00000000000E+00 -0.00000000000E+00  0.11368683772E-12  0.17120000000E+03  0.17120000000E+03 0.  0.
         13    1    1    2    0    0  0.44341440566E+01  0.10084692521E+02  0.40165992290E+02  0.41649498886E+02  0.10566000000E+00 0.  1.
        994    1    1    2    0    0 -0.92532872032E+01 -0.64404722198E+01  0.19117782756E+01  0.17158146142E+03  0.17120000000E+03 0.  0.
        998    1    1    2    0    0  0.48191431466E+01 -0.36442203008E+01  0.14579222257E+04  0.14579690397E+04  0.10000000000E+02 0.  1.
</event>
<event>
 5    1  0.1364103E-008  0.3822557E+03  0.7957747E-01  0.3441395E+00
         13   -1    0    0    0    0  0.00000000000E+00  0.00000000000E+00  0.14999999963E+04  0.15000000000E+04  0.10566000000E+00 0. -1.
        994   -1    0    0    0    0 -0.00000000000E+00 -0.00000000000E+00  0.11368683772E-12  0.17120000000E+03  0.17120000000E+03 0.  0.
         13    1    1    2    0    0 -0.68516971804E+01 -0.21313242993E+02  0.76892043519E+02  0.80084939918E+02  0.10566000000E+00 0. -1.
        994    1    1    2    0    0  0.12515832741E+02  0.25387403477E+02  0.56617601821E+01  0.17361642161E+03  0.17120000000E+03 0.  0.
        998    1    1    2    0    0 -0.56641355604E+01 -0.40741604839E+01  0.14174461926E+04  0.14174986385E+04  0.10000000000E+02 0. -1.
</event>
<event>
 5    1  0.1364103E-008  0.3837512E+03  0.7957747E-01  0.3434986E+00
         13   -1    0    0    0    0  0.00000000000E+00  0.00000000000E+00  0.14999999963E+04  0.15000000000E+04  0.10566000000E+00 0. -1.
        994   -1    0    0    0    0 -0.00000000000E+00 -0.00000000000E+00  0.11368683772E-12  0.17120000000E+03  0.17120000000E+03 0.  0.
         13    1    1    2    0    0  0.10989982746E+01  0.15664034168E+02  0.50038982661E+02  0.52445025630E+02  0.10566000000E+00 0. -1.
        994    1    1    2    0    0 -0.11637943754E+01 -0.27099531246E+02  0.46846193590E+01  0.17339874472E+03  0.17120000000E+03 0.  0.
        998    1    1    2    0    0  0.64796100751E-01  0.11435497078E+02  0.14452763943E+04  0.14453562297E+04  0.10000000000E+02 0. -1.
</event>
<event>
 5    1  0.1364103E-008  0.3854175E+03  0.7957747E-01  0.3427903E+00
         13   -1    0    0    0    0  0.00000000000E+00  0.00000000000E+00  0.14999999963E+04  0.15000000000E+04  0.10566000000E+00 0.  1.
        994   -1    0    0    0    0 -0.00000000000E+00 -0.00000000000E+00  0.11368683772E-12  0.17120000000E+03  0.17120000000E+03 0.  0.
         13    1    1    2    0    0  0.12095232465E+02 -0.65313498214E+01  0.65256099958E+02  0.66688251774E+02  0.10566000000E+00 0.  1.
        994    1    1    2    0    0 -0.11652534844E+02  0.42676112827E+01  0.19288980638E+01  0.17165999744E+03  0.17120000000E+03 0.  0.
        998    1    1    2    0    0 -0.44269762075E+00  0.22637385387E+01  0.14328149983E+04  0.14328517508E+04  0.10000000000E+02 0.  1.
</event>
<event>
 5    1  0.1460471E-008  0.3855687E+03  0.7957747E-01  0.3427264E+00
         13   -1    0    0    0    0  0.00000000000E+00  0.00000000000E+00  0.14999999963E+04  0.15000000000E+04  0.10566000000E+00 0. -1.
        994   -1    0    0    0    0 -0.00000000000E+00 -0.00000000000E+00  0.11368683772E-12  0.17120000000E+03  0.17120000000E+03 0.  0.
         13    1    1    2    0    0 -0.64039527626E+01 -0.95712775957E+01  0.48466709977E+02  0.49816193209E+02  0.10566000000E+00 0. -1.
        994    1    1    2    0    0  0.83219010825E+01  0.77715355156E+01  0.17737567209E+01  0.17158740343E+03  0.17120000000E+03 0.  0.
        998    1    1    2    0    0 -0.19179483199E+01  0.17997420802E+01  0.14497595296E+04  0.14497964034E+04  0.10000000000E+02 0. -1.
</event>
<event>
 5    1  0.1364103E-008  0.3848291E+03  0.7957747E-01  0.3430397E+00
         13   -1    0    0    0    0  0.00000000000E+00  0.00000000000E+00  0.14999999963E+04  0.15000000000E+04  0.10566000000E+00 0. -1.
        994   -1    0    0    0    0 -0.00000000000E+00 -0.00000000000E+00  0.11368683772E-12  0.17120000000E+03  0.17120000000E+03 0.  0.
         13    1    1    2    0    0 -0.12630702960E+02 -0.74193130602E+01  0.68447197748E+02  0.69997220710E+02  0.10566000000E+00 0. -1.
        994    1    1    2    0    0  0.10362939360E+02 -0.24784014000E+02  0.40931475518E+01  0.17334310404E+03  0.17120000000E+03 0.  0.
        998    1    1    2    0    0  0.22677635993E+01  0.32203327061E+02  0.14274596510E+04  0.14278596752E+04  0.10000000000E+02 0. -1.
</event>
<event>
 5    1  0.1364103E-008  0.3705927E+03  0.7957747E-01  0.3493171E+00
         13   -1    0    0    0    0  0.00000000000E+00  0.00000000000E+00  0.14999999963E+04  0.15000000000E+04  0.10566000000E+00 0. -1.
        994   -1    0    0    0    0 -0.00000000000E+00 -0.00000000000E+00  0.11368683772E-12  0.17120000000E+03  0.17120000000E+03 0.  0.
         13    1    1    2    0    0 -0.17520959276E+02 -0.10153118726E+03  0.42446874098E+03  0.43679433288E+03  0.10566000000E+00 0. -1.
        994    1    1    2    0    0  0.17327060263E+02  0.98919974735E+02  0.44610197755E+02  0.20343278537E+03  0.17120000000E+03 0.  0.
        998    1    1    2    0    0  0.19389901325E+00  0.26112125212E+01  0.10309210575E+04  0.10309728818E+04  0.10000000000E+02 0.  0.
</event>
<event>
 5    1  0.1364103E-008  0.3728954E+03  0.7957747E-01  0.3482689E+00
         13   -1    0    0    0    0  0.00000000000E+00  0.00000000000E+00  0.14999999963E+04  0.15000000000E+04  0.10566000000E+00 0. -1.
        994   -1    0    0    0    0 -0.00000000000E+00 -0.00000000000E+00  0.11368683772E-12  0.17120000000E+03  0.17120000000E+03 0.  0.
         13    1    1    2    0    0 -0.91238527009E+02 -0.16409538103E+02  0.32410762131E+03  0.33710458779E+03  0.10566000000E+00 0. -1.
        994    1    1    2    0    0  0.58340524043E+02  0.29489844633E+02  0.27727865748E+02  0.18534169046E+03  0.17120000000E+03 0.  0.
        998    1    1    2    0    0  0.32898002965E+02 -0.13080306530E+02  0.11481645092E+04  0.11487537218E+04  0.10000000000E+02 0. -1.
</event>
<event>
 5    1  0.1364103E-008  0.3700670E+03  0.7957747E-01  0.3495583E+00
         13   -1    0    0    0    0  0.00000000000E+00  0.00000000000E+00  0.14999999963E+04  0.15000000000E+04  0.10566000000E+00 0. -1.
        994   -1    0    0    0    0 -0.00000000000E+00 -0.00000000000E+00  0.11368683772E-12  0.17120000000E+03  0.17120000000E+03 0.  0.
         13    1    1    2    0    0  0.43815800923E+00 -0.15206712408E+02  0.81678795733E+01  0.17267353748E+02  0.10566000000E+00 0. -1.
        994    1    1    2    0    0 -0.39803103725E+01  0.21146899927E+02  0.10836338153E+02  0.17288695865E+03  0.17120000000E+03 0.  0.
        998    1    1    2    0    0  0.35421523632E+01 -0.59401875191E+01  0.14809957786E+04  0.14810456876E+04  0.10000000000E+02 0. -1.
</event>
<event>
 5    1  0.1364103E-008  0.3702104E+03  0.7957747E-01  0.3494925E+00
         13   -1    0    0    0    0  0.00000000000E+00  0.00000000000E+00  0.14999999963E+04  0.15000000000E+04  0.10566000000E+00 0. -1.
        994   -1    0    0    0    0 -0.00000000000E+00 -0.00000000000E+00  0.11368683772E-12  0.17120000000E+03  0.17120000000E+03 0.  0.
         13    1    1    2    0    0 -0.42875973596E+01 -0.19900358470E+02  0.14511024928E+02  0.24999775335E+02  0.10566000000E+00 0. -1.
        994    1    1    2    0    0 -0.92973790437E+01 -0.39334748660E+00  0.11353126759E+02  0.17182819753E+03  0.17120000000E+03 0.  0.
        998    1    1    2    0    0  0.13584976403E+02  0.20293705956E+02  0.14741358446E+04  0.14743720271E+04  0.10000000000E+02 0. -1.
</event>
<event>
 5    1  0.1364103E-008  0.3696062E+03  0.7957747E-01  0.3497703E+00
         13   -1    0    0    0    0  0.00000000000E+00  0.00000000000E+00  0.14999999963E+04  0.15000000000E+04  0.10566000000E+00 0.  1.
        994   -1    0    0    0    0 -0.00000000000E+00 -0.00000000000E+00  0.11368683772E-12  0.17120000000E+03  0.17120000000E+03 0.  0.
         13    1    1    2    0    0 -0.76834867114E+02 -0.43307699912E+02  0.28812500938E+03  0.30132239524E+03  0.10566000000E+00 0.  1.
        994    1    1    2    0    0  0.10165394868E+03  0.33709943063E+01  0.47774027814E+02  0.20478448823E+03  0.17120000000E+03 0.  0.
        998    1    1    2    0    0 -0.24819081564E+02  0.39936705606E+02  0.11641009591E+04  0.11650931165E+04  0.10000000000E+02 0.  1.
</event>
<event>
 5    1  0.1364103E-008  0.3772316E+03  0.7957747E-01  0.3463302E+00
         13   -1    0    0    0    0  0.00000000000E+00  0.00000000000E+00  0.14999999963E+04  0.15000000000E+04  0.10566000000E+00 0. -1.
        994   -1    0    0    0    0 -0.00000000000E+00 -0.00000000000E+00  0.11368683772E-12  0.17120000000E+03  0.17120000000E+03 0.  0.
         13    1    1    2    0    0  0.28107950486E+02 -0.16816836425E+02  0.89858197964E+02  0.95641882945E+02  0.10566000000E+00 0. -1.
        994    1    1    2    0    0 -0.27397014823E+02  0.18007781917E+02  0.91721856032E+01  0.17455212866E+03  0.17120000000E+03 0.  0.
        998    1    1    2    0    0 -0.71093566289E+00 -0.11909454920E+01  0.14009696127E+04  0.14010059884E+04  0.10000000000E+02 0. -1.
</event>
<event>
 5    1  0.1364103E-008  0.3769532E+03  0.7957747E-01  0.3464533E+00
         13   -1    0    0    0    0  0.00000000000E+00  0.00000000000E+00  0.14999999963E+04  0.15000000000E+04  0.10566000000E+00 0. -1.
        994   -1    0    0    0    0 -0.00000000000E+00 -0.00000000000E+00  0.11368683772E-12  0.17120000000E+03  0.17120000000E+03 0.  0.
         13    1    1    2    0    0  0.45727189288E+02  0.32523019817E+01  0.17631628492E+03  0.18217847513E+03  0.10566000000E+00 0. -1.
        994    1    1    2    0    0 -0.34050742547E+02  0.10918157569E+02  0.10009277714E+02  0.17518072061E+03  0.17120000000E+03 0.  0.
        998    1    1    2    0    0 -0.11676446741E+02 -0.14170459551E+02  0.13136744336E+04  0.13138408043E+04  0.10000000000E+02 0. -1.
</event>
<event>
 5    1  0.1364103E-008  0.3836385E+03  0.7957747E-01  0.3435467E+00
         13   -1    0    0    0    0  0.00000000000E+00  0.00000000000E+00  0.14999999963E+04  0.15000000000E+04  0.10566000000E+00 0.  1.
        994   -1    0    0    0    0 -0.00000000000E+00 -0.00000000000E+00  0.11368683772E-12  0.17120000000E+03  0.17120000000E+03 0.  0.
         13    1    1    2    0    0 -0.10309877458E+02 -0.11193944529E+02  0.48018232265E+02  0.50372212192E+02  0.10566000000E+00 0.  1.
        994    1    1    2    0    0  0.97787358075E+01  0.14068948398E+02  0.32778813819E+01  0.17208644191E+03  0.17120000000E+03 0.  0.
        998    1    1    2    0    0  0.53114164999E+00 -0.28750038691E+01  0.14487038826E+04  0.14487413459E+04  0.10000000000E+02 0.  1.
</event>
<event>
 5    1  0.1364103E-008  0.3728086E+03  0.7957747E-01  0.3483082E+00
         13   -1    0    0    0    0  0.00000000000E+00  0.00000000000E+00  0.14999999963E+04  0.15000000000E+04  0.10566000000E+00 0. -1.
        994   -1    0    0    0    0 -0.00000000000E+00 -0.00000000000E+00  0.11368683772E-12  0.17120000000E+03  0.17120000000E+03 0.  0.
         13    1    1    2    0    0  0.18854373390E+02  0.56315072229E+02  0.21309814669E+03  0.22121868376E+03  0.10566000000E+00 0. -1.
        994    1    1    2    0    0 -0.28376237954E+01 -0.44117500853E+02  0.14531032074E+02  0.17741194121E+03  0.17120000000E+03 0.  0.
        998    1    1    2    0    0 -0.16016749595E+02 -0.12197571376E+02  0.12723708175E+04  0.12725693750E+04  0.10000000000E+02 0. -1.
</event>
<event>
 5    1  0.1364103E-008  0.3742610E+03  0.7957747E-01  0.3476535E+00
         13   -1    0    0    0    0  0.00000000000E+00  0.00000000000E+00  0.14999999963E+04  0.15000000000E+04  0.10566000000E+00 0. -1.
        994   -1    0    0    0    0 -0.00000000000E+00 -0.00000000000E+00  0.11368683772E-12  0.17120000000E+03  0.17120000000E+03 0.  0.
         13    1    1    2    0    0 -0.12903072524E+02 -0.19097788397E+02  0.34090183676E+02  0.41150535711E+02  0.10566000000E+00 0. -1.
        994    1    1    2    0    0  0.13921351106E+02  0.18089781665E+02  0.88362950107E+01  0.17294092728E+03  0.17120000000E+03 0.  0.
        998    1    1    2    0    0 -0.10182785819E+01  0.10080067322E+01  0.14570735176E+04  0.14571085370E+04  0.10000000000E+02 0. -1.
</event>
<event>
 5    1  0.1364103E-008  0.3723556E+03  0.7957747E-01  0.3485135E+00
         13   -1    0    0    0    0  0.00000000000E+00  0.00000000000E+00  0.14999999963E+04  0.15000000000E+04  0.10566000000E+00 0. -1.
        994   -1    0    0    0    0 -0.00000000000E+00 -0.00000000000E+00  0.11368683772E-12  0.17120000000E+03  0.17120000000E+03 0.  0.
         13    1    1    2    0    0 -0.96426583227E+02  0.74138914424E+01  0.31094577557E+03  0.32563835500E+03  0.10566000000E+00 0. -1.
        994    1    1    2    0    0  0.89008136122E+02 -0.21220612798E+02  0.42322386445E+02  0.19867910584E+03  0.17120000000E+03 0.  0.
        998    1    1    2    0    0  0.74184471056E+01  0.13806721356E+02  0.11467318343E+04  0.11468825392E+04  0.10000000000E+02 0. -1.
</event>
<event>
 5    1  0.1364103E-008  0.3881029E+03  0.7957747E-01  0.3416618E+00
         13   -1    0    0    0    0  0.00000000000E+00  0.00000000000E+00  0.14999999963E+04  0.15000000000E+04  0.10566000000E+00 0. -1.
        994   -1    0    0    0    0 -0.00000000000E+00 -0.00000000000E+00  0.11368683772E-12  0.17120000000E+03  0.17120000000E+03 0.  0.
         13    1    1    2    0    0 -0.35149656910E+02  0.61408111540E+02  0.10512819910E+03  0.12672175801E+03  0.10566000000E+00 0. -1.
        994    1    1    2    0    0  0.39900413158E+02 -0.60800425714E+02  0.40885204817E+02  0.19044625150E+03  0.17120000000E+03 0.  0.
        998    1    1    2    0    0 -0.47507562478E+01 -0.60768582576E+00  0.13539865924E+04  0.13540319905E+04  0.10000000000E+02 0. -1.
</event>
<event>
 5    1  0.1364103E-008  0.3902381E+03  0.7957747E-01  0.3407756E+00
         13   -1    0    0    0    0  0.00000000000E+00  0.00000000000E+00  0.14999999963E+04  0.15000000000E+04  0.10566000000E+00 0.  1.
        994   -1    0    0    0    0 -0.00000000000E+00 -0.00000000000E+00  0.11368683772E-12  0.17120000000E+03  0.17120000000E+03 0.  0.
         13    1    1    2    0    0  0.43508892338E+02 -0.26065018789E+02  0.55311432319E+02  0.75045150584E+02  0.10566000000E+00 0.  1.
        994    1    1    2    0    0 -0.11398476870E+02 -0.18786451644E+02  0.23889025726E+02  0.17424976783E+03  0.17120000000E+03 0.  0.
        998    1    1    2    0    0 -0.32110415468E+02  0.44851470433E+02  0.14207995382E+04  0.14219050816E+04  0.10000000000E+02 0.  1.
</event>
<event>
 5    1  0.1364103E-008  0.3862777E+03  0.7957747E-01  0.3424272E+00
         13   -1    0    0    0    0  0.00000000000E+00  0.00000000000E+00  0.14999999963E+04  0.15000000000E+04  0.10566000000E+00 0.  1.
        994   -1    0    0    0    0 -0.00000000000E+00 -0.00000000000E+00  0.11368683772E-12  0.17120000000E+03  0.17120000000E+03 0.  0.
         13    1    1    2    0    0 -0.83902402637E+01  0.66196486559E+01  0.64300298279E+02  0.65182477728E+02  0.10566000000E+00 0.  1.
        994    1    1    2    0    0 -0.15251739732E+01  0.60598259284E+01  0.11250209567E+01  0.17131769704E+03  0.17120000000E+03 0.  0.
        998    1    1    2    0    0  0.99154142368E+01 -0.12679474584E+02  0.14345746770E+04  0.14346998252E+04  0.10000000000E+02 0.  1.
</event>
<event>
 5    1  0.1364103E-008  0.3853038E+03  0.7957747E-01  0.3428385E+00
         13   -1    0    0    0    0  0.00000000000E+00  0.00000000000E+00  0.14999999963E+04  0.15000000000E+04  0.10566000000E+00 0. -1.
        994   -1    0    0    0    0 -0.00000000000E+00 -0.00000000000E+00  0.11368683772E-12  0.17120000000E+03  0.17120000000E+03 0.  0.
         13    1    1    2    0    0 -0.60104866478E+01  0.10730328781E+02  0.51485976010E+02  0.52934703128E+02  0.10566000000E+00 0. -1.
        994    1    1    2    0    0 -0.99173705077E+00 -0.90928148839E+01  0.17542977108E+01  0.17145314341E+03  0.17120000000E+03 0.  0.
        998    1    1    2    0    0  0.70022236986E+01 -0.16375138974E+01  0.14467597226E+04  0.14468121535E+04  0.10000000000E+02 0. -1.
</event>
<event>
 5    1  0.1364103E-008  0.3751898E+03  0.7957747E-01  0.3472374E+00
         13   -1    0    0    0    0  0.00000000000E+00  0.00000000000E+00  0.14999999963E+04  0.15000000000E+04  0.10566000000E+00 0.  1.
        994   -1    0    0    0    0 -0.00000000000E+00 -0.00000000000E+00  0.11368683772E-12  0.17120000000E+03  0.17120000000E+03 0.  0.
         13    1    1    2    0    0  0.48459113852E+02 -0.48319162009E+02  0.27561663287E+03  0.28398515210E+03  0.10566000000E+00 0.  1.
        994    1    1    2    0    0 -0.67848777615E+02  0.38649679535E+02  0.27584160188E+02  0.19017775960E+03  0.17120000000E+03 0.  0.
        998    1    1    2    0    0  0.19389663763E+02  0.96694824748E+01  0.11967992032E+04  0.11970370883E+04  0.10000000000E+02 0.  1.
</event>
<event>
 5    1  0.1364103E-008  0.3773504E+03  0.7957747E-01  0.3462777E+00
         13   -1    0    0    0    0  0.00000000000E+00  0.00000000000E+00  0.14999999963E+04  0.15000000000E+04  0.10566000000E+00 0. -1.
        994   -1    0    0    0    0 -0.00000000000E+00 -0.00000000000E+00  0.11368683772E-12  0.17120000000E+03  0.17120000000E+03 0.  0.
         13    1    1    2    0    0 -0.11353667502E+02  0.56749131321E+02  0.28266376056E+03  0.28852761110E+03  0.10566000000E+00 0. -1.
        994    1    1    2    0    0  0.94533183695E+00 -0.42947074251E+02  0.11725457222E+02  0.17689621586E+03  0.17120000000E+03 0.  0.
        998    1    1    2    0    0  0.10408335665E+02 -0.13802057070E+02  0.12056107785E+04  0.12057761730E+04  0.10000000000E+02 0. -1.
</event>
<event>
 5    1  0.1364103E-008  0.3808727E+03  0.7957747E-01  0.3447367E+00
         13   -1    0    0    0    0  0.00000000000E+00  0.00000000000E+00  0.14999999963E+04  0.15000000000E+04  0.10566000000E+00 0. -1.
        994   -1    0    0    0    0 -0.00000000000E+00 -0.00000000000E+00  0.11368683772E-12  0.17120000000E+03  0.17120000000E+03 0.  0.
         13    1    1    2    0    0 -0.37307488184E+02 -0.15651482618E+01  0.18943679784E+03  0.19308187357E+03  0.10566000000E+00 0. -1.
        994    1    1    2    0    0  0.20141323264E+02  0.51488802315E+01  0.51351868201E+01  0.17253403726E+03  0.17120000000E+03 0.  0.
        998    1    1    2    0    0  0.17166164920E+02 -0.35837319697E+01  0.13054280116E+04  0.13055840892E+04  0.10000000000E+02 0. -1.
</event>
<event>
 5    1  0.1364103E-008  0.3805228E+03  0.7957747E-01  0.3448885E+00
         13   -1    0    0    0    0  0.00000000000E+00  0.00000000000E+00  0.14999999963E+04  0.15000000000E+04  0.10566000000E+00 0.  1.
        994   -1    0    0    0    0 -0.00000000000E+00 -0.00000000000E+00  0.11368683772E-12  0.17120000000E+03  0.17120000000E+03 0.  0.
         13    1    1    2    0    0  0.99731165828E+01  0.58305837806E+01  0.15893196648E+02  0.19648501859E+02  0.10566000000E+00 0.  1.
        994    1    1    2    0    0  0.43738039984E+01 -0.95049690281E+01  0.42348923746E+01  0.17157170195E+03  0.17120000000E+03 0.  0.
        998    1    1    2    0    0 -0.14346920581E+02  0.36743852475E+01  0.14798719073E+04  0.14799797962E+04  0.10000000000E+02 0.  1.
</event>
<event>
 5    1  0.1364103E-008  0.3798250E+03  0.7957747E-01  0.3451921E+00
         13   -1    0    0    0    0  0.00000000000E+00  0.00000000000E+00  0.14999999963E+04  0.15000000000E+04  0.10566000000E+00 0. -1.
        994   -1    0    0    0    0 -0.00000000000E+00 -0.00000000000E+00  0.11368683772E-12  0.17120000000E+03  0.17120000000E+03 0.  0.
         13    1    1    2    0    0  0.32747370165E+02 -0.22671781993E+02  0.17410840004E+03  0.17860611994E+03  0.10566000000E+00 0. -1.
        994    1    1    2    0    0 -0.28688083646E+02  0.17166742482E+02  0.79691236628E+01  0.17461572129E+03  0.17120000000E+03 0.  0.
        998    1    1    2    0    0 -0.40592865198E+01  0.55050395117E+01  0.13179224726E+04  0.13179781588E+04  0.10000000000E+02 0. -1.
</event>
<event>
 5    1  0.1364103E-008  0.3842568E+03  0.7957747E-01  0.3432830E+00
         13   -1    0    0    0    0  0.00000000000E+00  0.00000000000E+00  0.14999999963E+04  0.15000000000E+04  0.10566000000E+00 0.  1.
        994   -1    0    0    0    0 -0.00000000000E+00 -0.00000000000E+00  0.11368683772E-12  0.17120000000E+03  0.17120000000E+03 0.  0.
         13    1    1    2    0    0 -0.12876296669E+02  0.15188869495E+01  0.40818632230E+02  0.42828471075E+02  0.10566000000E+00 0.  1.
        994    1    1    2    0    0  0.13342631033E+02  0.28304681036E+01  0.26130820708E+01  0.17176235196E+03  0.17120000000E+03 0.  0.
        998    1    1    2    0    0 -0.46633436375E+00 -0.43493550531E+01  0.14565682820E+04  0.14566091770E+04  0.10000000000E+02 0.  1.
</event>
<event>
 5    1  0.1364103E-008  0.3784930E+03  0.7957747E-01  0.3457747E+00
         13   -1    0    0    0    0  0.00000000000E+00  0.00000000000E+00  0.14999999963E+04  0.15000000000E+04  0.10566000000E+00 0.  1.
        994   -1    0    0    0    0 -0.00000000000E+00 -0.00000000000E+00  0.11368683772E-12  0.17120000000E+03  0.17120000000E+03 0.  0.
         13    1    1    2    0    0 -0.16120724514E+02  0.24251082804E+01  0.25079085126E+02  0.29912047470E+02  0.10566000000E+00 0.  1.
        994    1    1    2    0    0  0.13052515100E+02  0.75784451032E+01  0.56614892670E+01  0.17195724306E+03  0.17120000000E+03 0.  0.
        998    1    1    2    0    0  0.30682094137E+01 -0.10003553384E+02  0.14692594219E+04  0.14693307095E+04  0.10000000000E+02 0.  1.
</event>
<event>
 5    1  0.1518627E-008  0.3860043E+03  0.7957747E-01  0.3425424E+00
         13   -1    0    0    0    0  0.00000000000E+00  0.00000000000E+00  0.14999999963E+04  0.15000000000E+04  0.10566000000E+00 0.  1.
        994   -1    0    0    0    0 -0.00000000000E+00 -0.00000000000E+00  0.11368683772E-12  0.17120000000E+03  0.17120000000E+03 0.  0.
         13    1    1    2    0    0  0.12182102639E+02 -0.65793781337E+01  0.81801665141E+02  0.82965145846E+02  0.10566000000E+00 0.  1.
        994    1    1    2    0    0 -0.13082282666E+02  0.62255078516E+01  0.18206958197E+01  0.17182158770E+03  0.17120000000E+03 0.  0.
        998    1    1    2    0    0  0.90018002721E+00  0.35387028208E+00  0.14163776353E+04  0.14164132665E+04  0.10000000000E+02 0.  0.
</event>
<event>
 5    1  0.2729761E-008  0.3861916E+03  0.7957747E-01  0.3424634E+00
         13   -1    0    0    0    0  0.00000000000E+00  0.00000000000E+00  0.14999999963E+04  0.15000000000E+04  0.10566000000E+00 0.  1.
        994   -1    0    0    0    0 -0.00000000000E+00 -0.00000000000E+00  0.11368683772E-12  0.17120000000E+03  0.17120000000E+03 0.  0.
         13    1    1    2    0    0 -0.81559691654E+01  0.63686691535E+01  0.50700692553E+02  0.51746025637E+02  0.10566000000E+00 0.  1.
        994    1    1    2    0    0  0.10095041230E+02 -0.56257753686E+01  0.14773366564E+01  0.17159598401E+03  0.17120000000E+03 0.  0.
        998    1    1    2    0    0 -0.19390720646E+01 -0.74289378496E+00  0.14478219671E+04  0.14478579903E+04  0.10000000000E+02 0.  1.
</event>
<event>
 5    1  0.1364103E-008  0.3822677E+03  0.7957747E-01  0.3441343E+00
         13   -1    0    0    0    0  0.00000000000E+00  0.00000000000E+00  0.14999999963E+04  0.15000000000E+04  0.10566000000E+00 0.  1.
        994   -1    0    0    0    0 -0.00000000000E+00 -0.00000000000E+00  0.11368683772E-12  0.17120000000E+03  0.17120000000E+03 0.  0.
         13    1    1    2    0    0  0.44686502614E+01 -0.21072198638E+02  0.73286446921E+02  0.76386653657E+02  0.10566000000E+00 0.  1.
        994    1    1    2    0    0 -0.35748992707E+01  0.22019667063E+02  0.46457403882E+01  0.17270978127E+03  0.17120000000E+03 0.  0.
        998    1    1    2    0    0 -0.89375099070E+00 -0.94746842551E+00  0.14220678090E+04  0.14221035651E+04  0.10000000000E+02 0.  0.
</event>
<event>
 5    1  0.1364103E-008  0.3830724E+03  0.7957747E-01  0.3437889E+00
         13   -1    0    0    0    0  0.00000000000E+00  0.00000000000E+00  0.14999999963E+04  0.15000000000E+04  0.10566000000E+00 0.  1.
        994   -1    0    0    0    0 -0.00000000000E+00 -0.00000000000E+00  0.11368683772E-12  0.17120000000E+03  0.17120000000E+03 0.  0.
         13    1    1    2    0    0 -0.16226339205E+01  0.19214597580E+02  0.70207894541E+02  0.72807920729E+02  0.10566000000E+00 0.  1.
        994    1    1    2    0    0 -0.69413997142E+01 -0.15285345148E+02  0.35233985036E+01  0.17205719730E+03  0.17120000000E+03 0.  0.
        998    1    1    2    0    0  0.85640336347E+01 -0.39292524316E+01  0.14262687032E+04  0.14263348820E+04  0.10000000000E+02 0.  1.
</event>
<event>
 5    1  0.1364103E-008  0.3727300E+03  0.7957747E-01  0.3483438E+00
         13   -1    0    0    0    0  0.00000000000E+00  0.00000000000E+00  0.14999999963E+04  0.15000000000E+04  0.10566000000E+00 0.  1.
        994   -1    0    0    0    0 -0.00000000000E+00 -0.00000000000E+00  0.11368683772E-12  0.17120000000E+03  0.17120000000E+03 0.  0.
         13    1    1    2    0    0 -0.74257732673E+01  0.32580301099E+02  0.65790184649E+02  0.73790092075E+02  0.10566000000E+00 0.  1.
        994    1    1    2    0    0  0.11256718929E+02 -0.30531070181E+02  0.11484743015E+02  0.17464306253E+03  0.17120000000E+03 0.  0.
        998    1    1    2    0    0 -0.38309456615E+01 -0.20492309174E+01  0.14227250686E+04  0.14227668454E+04  0.10000000000E+02 0.  1.
</event>
<event>
 5    1  0.1364103E-008  0.3840178E+03  0.7957747E-01  0.3433849E+00
         13   -1    0    0    0    0  0.00000000000E+00  0.00000000000E+00  0.14999999963E+04  0.15000000000E+04  0.10566000000E+00 0. -1.
        994   -1    0    0    0    0 -0.00000000000E+00 -0.00000000000E+00  0.11368683772E-12  0.17120000000E+03  0.17120000000E+03 0.  0.
         13    1    1    2    0    0  0.93396469771E+01  0.38464886281E+01  0.23475122863E+02  0.25556154600E+02  0.10566000000E+00 0. -1.
        994    1    1    2    0    0 -0.26870788199E+01 -0.10420119784E+02  0.25007100255E+01  0.17155609240E+03  0.17120000000E+03 0.  0.
        998    1    1    2    0    0 -0.66525681572E+01  0.65736311554E+01  0.14740241634E+04  0.14740877530E+04  0.10000000000E+02 0. -1.
</event>
<event>
 5    1  0.1561135E-008  0.3861149E+03  0.7957747E-01  0.3424958E+00
         13   -1    0    0    0    0  0.00000000000E+00  0.00000000000E+00  0.14999999963E+04  0.15000000000E+04  0.10566000000E+00 0.  1.
        994   -1    0    0    0    0 -0.00000000000E+00 -0.00000000000E+00  0.11368683772E-12  0.17120000000E+03  0.17120000000E+03 0.  0.
         13    1    1    2    0    0 -0.64716036508E+01  0.95026373926E+01  0.60896040994E+02  0.61971935132E+02  0.10566000000E+00 0.  1.
        994    1    1    2    0    0  0.98910180031E+01 -0.59746032132E+01  0.15152904263E+01  0.17159622439E+03  0.17120000000E+03 0.  0.
        998    1    1    2    0    0 -0.34194143523E+01 -0.35280341794E+01  0.14375886649E+04  0.14376318405E+04  0.10000000000E+02 0.  1.
</event>
<event>
 5    1  0.1364103E-008  0.3817743E+03  0.7957747E-01  0.3443469E+00
         13   -1    0    0    0    0  0.00000000000E+00  0.00000000000E+00  0.14999999963E+04  0.15000000000E+04  0.10566000000E+00 0.  1.
        994   -1    0    0    0    0 -0.00000000000E+00 -0.00000000000E+00  0.11368683772E-12  0.17120000000E+03  0.17120000000E+03 0.  0.
         13    1    1    2    0    0  0.12618864424E+02 -0.51066876829E+01  0.26862562361E+02  0.30115152650E+02  0.10566000000E+00 0.  1.
        994    1    1    2    0    0 -0.14140834514E+02  0.53640570929E+01  0.40007289679E+01  0.17191329833E+03  0.17120000000E+03 0.  0.
        998    1    1    2    0    0  0.15219700894E+01 -0.25736941001E+00  0.14691367049E+04  0.14691715490E+04  0.10000000000E+02 0.  1.
</event>
<event>
 5    1  0.1364103E-008  0.3822186E+03  0.7957747E-01  0.3441555E+00
         13   -1    0    0    0    0  0.00000000000E+00  0.00000000000E+00  0.14999999963E+04  0.15000000000E+04  0.10566000000E+00 0.  1.
        994   -1    0    0    0    0 -0.00000000000E+00 -0.00000000000E+00  0.11368683772E-12  0.17120000000E+03  0.17120000000E+03 0.  0.
         13    1    1    2    0    0 -0.10345816818E+02 -0.51165461520E+01  0.20808836045E+02  0.23795667500E+02  0.10566000000E+00 0.  1.
        994    1    1    2    0    0  0.80867613981E+01  0.52651080526E+01  0.33264429685E+01  0.17150400081E+03  0.17120000000E+03 0.  0.
        998    1    1    2    0    0  0.22590554199E+01 -0.14856190058E+00  0.14758647173E+04  0.14759003317E+04  0.10000000000E+02 0.  1.
</event>
<event>
 5    1  0.1364103E-008  0.3816000E+03  0.7957747E-01  0.3444221E+00
         13   -1    0    0    0    0  0.00000000000E+00  0.00000000000E+00  0.14999999963E+04  0.15000000000E+04  0.10566000000E+00 0. -1.
        994   -1    0    0    0    0 -0.00000000000E+00 -0.00000000000E+00  0.11368683772E-12  0.17120000000E+03  0.17120000000E+03 0.  0.
         13    1    1    2    0    0  0.45486502335E+01  0.22989542042E+02  0.80371440200E+02  0.83718509460E+02  0.10566000000E+00 0. -1.
        994    1    1    2    0    0 -0.85232269338E+01 -0.15867683187E+02  0.44072086045E+01  0.17220131316E+03  0.17120000000E+03 0.  0.
        998    1    1    2    0    0  0.39745767003E+01 -0.71218588548E+01  0.14152213475E+04  0.14152801774E+04  0.10000000000E+02 0. -1.
</event>
<event>
 5    1  0.1364103E-008  0.3843860E+03  0.7957747E-01  0.3432280E+00
         13   -1    0    0    0    0  0.00000000000E+00  0.00000000000E+00  0.14999999963E+04  0.15000000000E+04  0.10566000000E+00 0.  1.
        994   -1    0    0    0    0 -0.00000000000E+00 -0.00000000000E+00  0.11368683772E-12  0.17120000000E+03  0.17120000000E+03 0.  0.
         13    1    1    2    0    0 -0.18919665640E+02 -0.26282875564E+01  0.10672259934E+03  0.10841856860E+03  0.10566000000E+00 0.  1.
        994    1    1    2    0    0 -0.49716873119E+01  0.37856388452E+01  0.20639480613E+01  0.17132643876E+03  0.17120000000E+03 0.  0.
        998    1    1    2    0    0  0.23891352952E+02 -0.11573512888E+01  0.13912134489E+04  0.13914549926E+04  0.10000000000E+02 0.  1.
</event>
<event>
 5    1  0.1364103E-008  0.3804822E+03  0.7957747E-01  0.3449061E+00
         13   -1    0    0    0    0  0.00000000000E+00  0.00000000000E+00  0.14999999963E+04  0.15000000000E+04  0.10566000000E+00 0. -1.
        994   -1    0    0    0    0 -0.00000000000E+00 -0.00000000000E+00  0.11368683772E-12  0.17120000000E+03  0.17120000000E+03 0.  0.
         13    1    1    2    0    0  0.13282209771E+02 -0.30103123996E+02  0.16603439662E+03  0.16926324822E+03  0.10566000000E+00 0. -1.
        994    1    1    2    0    0 -0.34051181387E+01 -0.89785650834E+01  0.41977416181E+01  0.17152046669E+03  0.17120000000E+03 0.  0.
        998    1    1    2    0    0 -0.98770916323E+01  0.39081689079E+02  0.13297678580E+04  0.13304162851E+04  0.10000000000E+02 0. -1.
</event>
<event>
 5    1  0.1364103E-008  0.3839199E+03  0.7957747E-01  0.3434266E+00
         13   -1    0    0    0    0  0.00000000000E+00  0.00000000000E+00  0.14999999963E+04  0.15000000000E+04  0.10566000000E+00 0.  1.
        994   -1    0    0    0    0 -0.00000000000E+00 -0.00000000000E+00  0.11368683772E-12  0.17120000000E+03  0.17120000000E+03 0.  0.
         13    1    1    2    0    0  0.14401515871E+02 -0.13473948069E+02  0.89203166679E+02  0.91357359011E+02  0.10566000000E+00 0.  1.
        994    1    1    2    0    0 -0.59787164346E+01  0.12137549713E+02  0.27717111249E+01  0.17175618634E+03  0.17120000000E+03 0.  0.
        998    1    1    2    0    0 -0.84227994368E+01  0.13363983555E+01  0.14080251185E+04  0.14080864546E+04  0.10000000000E+02 0.  1.
</event>
<event>
 5    1  0.1364103E-008  0.3834308E+03  0.7957747E-01  0.3436355E+00
         13   -1    0    0    0    0  0.00000000000E+00  0.00000000000E+00  0.14999999963E+04  0.15000000000E+04  0.10566000000E+00 0.  1.
        994   -1    0    0    0    0 -0.00000000000E+00 -0.00000000000E+00  0.11368683772E-12  0.17120000000E+03  0.17120000000E+03 0.  0.
         13    1    1    2    0    0  0.66387307344E+01 -0.15338704857E+02  0.54954481766E+02  0.57440010817E+02  0.10566000000E+00 0.  1.
        994    1    1    2    0    0 -0.70796532747E+01  0.18163938042E+02  0.36684820905E+01  0.17234543190E+03  0.17120000000E+03 0.  0.
        998    1    1    2    0    0  0.44092254030E+00 -0.28252331853E+01  0.14413770324E+04  0.14414145573E+04  0.10000000000E+02 0.  1.
</event>
<event>
 5    1  0.1364103E-008  0.3733366E+03  0.7957747E-01  0.3480696E+00
         13   -1    0    0    0    0  0.00000000000E+00  0.00000000000E+00  0.14999999963E+04  0.15000000000E+04  0.10566000000E+00 0. -1.
        994   -1    0    0    0    0 -0.00000000000E+00 -0.00000000000E+00  0.11368683772E-12  0.17120000000E+03  0.17120000000E+03 0.  0.
         13    1    1    2    0    0  0.10583339079E+02 -0.11955563638E+02  0.13602936617E+02  0.20976024805E+02  0.10566000000E+00 0. -1.
        994    1    1    2    0    0  0.41154216980E+01  0.18379434866E+02  0.87489819184E+01  0.17245499415E+03  0.17120000000E+03 0.  0.
        998    1    1    2    0    0 -0.14698760777E+02 -0.64238712276E+01  0.14776480777E+04  0.14777689810E+04  0.10000000000E+02 0. -1.
</event>
<event>
 5    1  0.1364103E-008  0.3775731E+03  0.7957747E-01  0.3461794E+00
         13   -1    0    0    0    0  0.00000000000E+00  0.00000000000E+00  0.14999999963E+04  0.15000000000E+04  0.10566000000E+00 0.  1.
        994   -1    0    0    0    0 -0.00000000000E+00 -0.00000000000E+00  0.11368683772E-12  0.17120000000E+03  0.17120000000E+03 0.  0.
         13    1    1    2    0    0  0.49973769613E+02 -0.38345865490E+02  0.10920817081E+03  0.12607227604E+03  0.10566000000E+00 0.  1.
        994    1    1    2    0    0 -0.55901458243E+02  0.67592392822E+02  0.43180476029E+02  0.19714892369E+03  0.17120000000E+03 0.  0.
        998    1    1    2    0    0  0.59276886302E+01 -0.29246527332E+02  0.13476113494E+04  0.13479788003E+04  0.10000000000E+02 0.  1.
</event>
<event>
 5    1  0.1364103E-008  0.3782810E+03  0.7957747E-01  0.3458678E+00
         13   -1    0    0    0    0  0.00000000000E+00  0.00000000000E+00  0.14999999963E+04  0.15000000000E+04  0.10566000000E+00 0. -1.
        994   -1    0    0    0    0 -0.00000000000E+00 -0.00000000000E+00  0.11368683772E-12  0.17120000000E+03  0.17120000000E+03 0.  0.
         13    1    1    2    0    0  0.23731490021E+02 -0.37972250899E+01  0.61311374152E+02  0.65853612668E+02  0.10566000000E+00 0. -1.
        994    1    1    2    0    0  0.77770453217E+01 -0.84633895622E+01  0.54477043240E+01  0.17167186397E+03  0.17120000000E+03 0.  0.
        998    1    1    2    0    0 -0.31508535342E+02  0.12260614652E+02  0.14332409178E+04  0.14336745234E+04  0.10000000000E+02 0. -1.
</event>
<event>
 5    1  0.1364103E-008  0.3713376E+03  0.7957747E-01  0.3489766E+00
         13   -1    0    0    0    0  0.00000000000E+00  0.00000000000E+00  0.14999999963E+04  0.15000000000E+04  0.10566000000E+00 0.  1.
        994   -1    0    0    0    0 -0.00000000000E+00 -0.00000000000E+00  0.11368683772E-12  0.17120000000E+03  0.17120000000E+03 0.  0.
         13    1    1    2    0    0 -0.22583136508E+02 -0.19096086584E+02  0.48953604527E+02  0.57193750861E+02  0.10566000000E+00 0.  1.
        994    1    1    2    0    0 -0.20581318894E+01  0.18958522989E+02  0.98242124462E+01  0.17253873957E+03  0.17120000000E+03 0.  0.
        998    1    1    2    0    0  0.24641268397E+02  0.13756359421E+00  0.14412221793E+04  0.14414675096E+04  0.10000000000E+02 0.  1.
</event>
<event>
 5    1  0.1364103E-008  0.3773795E+03  0.7957747E-01  0.3462649E+00
         13   -1    0    0    0    0  0.00000000000E+00  0.00000000000E+00  0.14999999963E+04  0.15000000000E+04  0.10566000000E+00 0.  1.
        994   -1    0    0    0    0 -0.00000000000E+00 -0.00000000000E+00  0.11368683772E-12  0.17120000000E+03  0.17120000000E+03 0.  0.
         13    1    1    2    0    0  0.86150760644E+01 -0.17024486532E+02  0.31586729721E+02  0.36902375747E+02  0.10566000000E+00 0.  1.
        994    1    1    2    0    0 -0.21354590262E+02 -0.23964379836E+01  0.70205126755E+01  0.17268609973E+03  0.17120000000E+03 0.  0.
        998    1    1    2    0    0  0.12739514197E+02  0.19420924516E+02  0.14613927539E+04  0.14616115245E+04  0.10000000000E+02 0.  1.
</event>
<event>
 5    1  0.1364103E-008  0.2431119E+03  0.7957747E-01  0.4410107E+00
         13   -1    0    0    0    0  0.00000000000E+00  0.00000000000E+00  0.14999999963E+04  0.15000000000E+04  0.10566000000E+00 0.  1.
        994   -1    0    0    0    0 -0.00000000000E+00 -0.00000000000E+00  0.11368683772E-12  0.17120000000E+03  0.17120000000E+03 0.  0.
         13    1    1    2    0    0  0.22053200138E+02  0.13271151935E+03  0.61208667911E+03  0.62669674079E+03  0.10566000000E+00 0.  1.
        994    1    1    2    0    0 -0.93158310969E+02  0.78280013199E+02  0.11367740280E+03  0.23882676415E+03  0.17120000000E+03 0.  0.
        998    1    1    2    0    0  0.71105110831E+02 -0.21099153255E+03  0.77423591437E+03  0.80567649506E+03  0.10000000000E+02 0. -1.
</event>
<event>
 5    1  0.1364103E-008  0.3781518E+03  0.7957747E-01  0.3459246E+00
         13   -1    0    0    0    0  0.00000000000E+00  0.00000000000E+00  0.14999999963E+04  0.15000000000E+04  0.10566000000E+00 0.  1.
        994   -1    0    0    0    0 -0.00000000000E+00 -0.00000000000E+00  0.11368683772E-12  0.17120000000E+03  0.17120000000E+03 0.  0.
         13    1    1    2    0    0 -0.19292547250E+02 -0.13190040308E+02  0.50507830234E+02  0.55652777305E+02  0.10566000000E+00 0.  1.
        994    1    1    2    0    0  0.22854454234E+02  0.76762287340E+01  0.70265107092E+01  0.17303196935E+03  0.17120000000E+03 0.  0.
        998    1    1    2    0    0 -0.35619069839E+01  0.55138115737E+01  0.14424656553E+04  0.14425152533E+04  0.10000000000E+02 0.  1.
</event>
<event>
 5    1  0.1364103E-008  0.3727326E+03  0.7957747E-01  0.3483426E+00
         13   -1    0    0    0    0  0.00000000000E+00  0.00000000000E+00  0.14999999963E+04  0.15000000000E+04  0.10566000000E+00 0.  1.
        994   -1    0    0    0    0 -0.00000000000E+00 -0.00000000000E+00  0.11368683772E-12  0.17120000000E+03  0.17120000000E+03 0.  0.
         13    1    1    2    0    0  0.41203835258E+01  0.16302370881E+02  0.14383386305E+02  0.22127761351E+02  0.10566000000E+00 0.  1.
        994    1    1    2    0    0  0.27843296333E+01 -0.18945654296E+02  0.91047953606E+01  0.17250805085E+03  0.17120000000E+03 0.  0.
        998    1    1    2    0    0 -0.69047131591E+01  0.26432834145E+01  0.14765118146E+04  0.14765641878E+04  0.10000000000E+02 0.  1.
</event>
<event>
 5    1  0.1364103E-008  0.3833548E+03  0.7957747E-01  0.3436680E+00
         13   -1    0    0    0    0  0.00000000000E+00  0.00000000000E+00  0.14999999963E+04  0.15000000000E+04  0.10566000000E+00 0.  1.
        994   -1    0    0    0    0 -0.00000000000E+00 -0.00000000000E+00  0.11368683772E-12  0.17120000000E+03  0.17120000000E+03 0.  0.
         13    1    1    2    0    0 -0.97907665644E+01  0.27733829517E+01  0.20119494688E+02  0.22546751284E+02  0.10566000000E+00 0.  1.
        994    1    1    2    0    0  0.10826747332E+02  0.38926391100E+01  0.28869578995E+01  0.17161044730E+03  0.17120000000E+03 0.  0.
        998    1    1    2    0    0 -0.10359807680E+01 -0.66660220617E+01  0.14769935437E+04  0.14770428014E+04  0.10000000000E+02 0.  1.
</event>
<event>
 5    1  0.1364103E-008  0.3708922E+03  0.7957747E-01  0.3491800E+00
         13   -1    0    0    0    0  0.00000000000E+00  0.00000000000E+00  0.14999999963E+04  0.15000000000E+04  0.10566000000E+00 0.  1.
        994   -1    0    0    0    0 -0.00000000000E+00 -0.00000000000E+00  0.11368683772E-12  0.17120000000E+03  0.17120000000E+03 0.  0.
         13    1    1    2    0    0 -0.41684085775E+02 -0.33660149304E+02  0.16847396933E+03  0.17678817315E+03  0.10566000000E+00 0.  1.
        994    1    1    2    0    0  0.30615584128E+02 -0.31742985281E+01  0.12076123089E+02  0.17436359400E+03  0.17120000000E+03 0.  0.
        998    1    1    2    0    0  0.11068501647E+02  0.36834447832E+02  0.13194499039E+04  0.13200482329E+04  0.10000000000E+02 0.  1.
</event>
<event>
 5    1  0.1364103E-008  0.3835059E+03  0.7957747E-01  0.3436034E+00
         13   -1    0    0    0    0  0.00000000000E+00  0.00000000000E+00  0.14999999963E+04  0.15000000000E+04  0.10566000000E+00 0.  1.
        994   -1    0    0    0    0 -0.00000000000E+00 -0.00000000000E+00  0.11368683772E-12  0.17120000000E+03  0.17120000000E+03 0.  0.
         13    1    1    2    0    0 -0.26987692714E+01  0.10528052879E+02  0.24332193538E+02  0.26649391352E+02  0.10566000000E+00 0.  1.
        994    1    1    2    0    0 -0.53946924701E+01 -0.61375545387E+01  0.25944490365E+01  0.17141453686E+03  0.17120000000E+03 0.  0.
        998    1    1    2    0    0  0.80934617415E+01 -0.43904983405E+01  0.14730733537E+04  0.14731360718E+04  0.10000000000E+02 0.  1.
</event>
<event>
 5    1  0.1364103E-008  0.3800153E+03  0.7957747E-01  0.3451092E+00
         13   -1    0    0    0    0  0.00000000000E+00  0.00000000000E+00  0.14999999963E+04  0.15000000000E+04  0.10566000000E+00 0. -1.
        994   -1    0    0    0    0 -0.00000000000E+00 -0.00000000000E+00  0.11368683772E-12  0.17120000000E+03  0.17120000000E+03 0.  0.
         13    1    1    2    0    0 -0.85838364337E+01  0.77190004427E+01  0.14584920687E+02  0.18600975545E+02  0.10566000000E+00 0. -1.
        994    1    1    2    0    0  0.54297220861E+01  0.24095957822E+01  0.42433740286E+01  0.17135557842E+03  0.17120000000E+03 0.  0.
        998    1    1    2    0    0  0.31541143475E+01 -0.10128596225E+02  0.14811717016E+04  0.14812434460E+04  0.10000000000E+02 0. -1.
</event>
<event>
 5    1  0.1364103E-008  0.3720096E+03  0.7957747E-01  0.3486706E+00
         13   -1    0    0    0    0  0.00000000000E+00  0.00000000000E+00  0.14999999963E+04  0.15000000000E+04  0.10566000000E+00 0. -1.
        994   -1    0    0    0    0 -0.00000000000E+00 -0.00000000000E+00  0.11368683772E-12  0.17120000000E+03  0.17120000000E+03 0.  0.
         13    1    1    2    0    0  0.47190984518E+02 -0.12123923982E+02  0.87717163151E+02  0.10034087117E+03  0.10566000000E+00 0. -1.
        994    1    1    2    0    0 -0.54735192841E+02  0.68122413044E+01  0.22795041513E+02  0.18130472108E+03  0.17120000000E+03 0.  0.
        998    1    1    2    0    0  0.75442083232E+01  0.53116826777E+01  0.13894877916E+04  0.13895544078E+04  0.10000000000E+02 0. -1.
</event>
<event>
 5    1  0.1364103E-008  0.3849847E+03  0.7957747E-01  0.3429737E+00
         13   -1    0    0    0    0  0.00000000000E+00  0.00000000000E+00  0.14999999963E+04  0.15000000000E+04  0.10566000000E+00 0.  1.
        994   -1    0    0    0    0 -0.00000000000E+00 -0.00000000000E+00  0.11368683772E-12  0.17120000000E+03  0.17120000000E+03 0.  0.
         13    1    1    2    0    0 -0.11329088265E+02 -0.10551934972E+02  0.68913220514E+02  0.70630975487E+02  0.10566000000E+00 0.  1.
        994    1    1    2    0    0  0.11527553247E+02  0.16306275380E+02  0.29503406002E+01  0.17238597278E+03  0.17120000000E+03 0.  0.
        998    1    1    2    0    0 -0.19846498236E+00 -0.57543404079E+01  0.14281364352E+04  0.14281830517E+04  0.10000000000E+02 0.  1.
</event>
<event>
 5    1  0.1364103E-008  0.3765269E+03  0.7957747E-01  0.3466422E+00
         13   -1    0    0    0    0  0.00000000000E+00  0.00000000000E+00  0.14999999963E+04  0.15000000000E+04  0.10566000000E+00 0. -1.
        994   -1    0    0    0    0 -0.00000000000E+00 -0.00000000000E+00  0.11368683772E-12  0.17120000000E+03  0.17120000000E+03 0.  0.
         13    1    1    2    0    0  0.41795765106E+02  0.20530212107E+02  0.16695338390E+03  0.17332576021E+03  0.10566000000E+00 0. -1.
        994    1    1    2    0    0 -0.40351316724E+02 -0.13825428955E+02  0.12074287564E+02  0.17684625998E+03  0.17120000000E+03 0.  0.
        998    1    1    2    0    0 -0.14444483820E+01 -0.67047831513E+01  0.13209723248E+04  0.13210279798E+04  0.10000000000E+02 0. -1.
</event>
<event>
 5    1  0.1364103E-008  0.3857208E+03  0.7957747E-01  0.3426621E+00
         13   -1    0    0    0    0  0.00000000000E+00  0.00000000000E+00  0.14999999963E+04  0.15000000000E+04  0.10566000000E+00 0. -1.
        994   -1    0    0    0    0 -0.00000000000E+00 -0.00000000000E+00  0.11368683772E-12  0.17120000000E+03  0.17120000000E+03 0.  0.
         13    1    1    2    0    0  0.12510391217E+02  0.53761839954E+01  0.76902551824E+02  0.78098827673E+02  0.10566000000E+00 0. -1.
        994    1    1    2    0    0 -0.35175142839E+01  0.55042201301E+00  0.13142901569E+01  0.17124206034E+03  0.17120000000E+03 0.  0.
        998    1    1    2    0    0 -0.89928769335E+01 -0.59266060084E+01  0.14217831543E+04  0.14218591120E+04  0.10000000000E+02 0. -1.
</event>
<event>
 5    1  0.1364103E-008  0.3775130E+03  0.7957747E-01  0.3462059E+00
         13   -1    0    0    0    0  0.00000000000E+00  0.00000000000E+00  0.14999999963E+04  0.15000000000E+04  0.10566000000E+00 0. -1.
        994   -1    0    0    0    0 -0.00000000000E+00 -0.00000000000E+00  0.11368683772E-12  0.17120000000E+03  0.17120000000E+03 0.  0.
         13    1    1    2    0    0 -0.40907692292E+01  0.44672982489E+02  0.22586426257E+03  0.23027610824E+03  0.10566000000E+00 0. -1.
        994    1    1    2    0    0 -0.90466897205E+01  0.89509302398E+00  0.56724570891E+01  0.17153501262E+03  0.17120000000E+03 0.  0.
        998    1    1    2    0    0  0.13137458950E+02 -0.45568075513E+02  0.12684632766E+04  0.12693888791E+04  0.10000000000E+02 0. -1.
</event>
<event>
 5    1  0.1364103E-008  0.3797303E+03  0.7957747E-01  0.3452334E+00
         13   -1    0    0    0    0  0.00000000000E+00  0.00000000000E+00  0.14999999963E+04  0.15000000000E+04  0.10566000000E+00 0. -1.
        994   -1    0    0    0    0 -0.00000000000E+00 -0.00000000000E+00  0.11368683772E-12  0.17120000000E+03  0.17120000000E+03 0.  0.
         13    1    1    2    0    0 -0.95304858981E+01 -0.11159532466E+02  0.23473726883E+02  0.27683792084E+02  0.10566000000E+00 0. -1.
        994    1    1    2    0    0  0.11517177064E+02  0.34351089194E+01  0.47527850478E+01  0.17168714077E+03  0.17120000000E+03 0.  0.
        998    1    1    2    0    0 -0.19866911659E+01  0.77244235470E+01  0.14717734843E+04  0.14718290671E+04  0.10000000000E+02 0. -1.
</event>
<event>
 5    1  0.1364103E-008  0.3834801E+03  0.7957747E-01  0.3436144E+00
         13   -1    0    0    0    0  0.00000000000E+00  0.00000000000E+00  0.14999999963E+04  0.15000000000E+04  0.10566000000E+00 0. -1.
        994   -1    0    0    0    0 -0.00000000000E+00 -0.00000000000E+00  0.11368683772E-12  0.17120000000E+03  0.17120000000E+03 0.  0.
         13    1    1    2    0    0  0.59144922361E+01  0.11774305113E+02  0.36024667580E+02  0.38358875344E+02  0.10566000000E+00 0. -1.
        994    1    1    2    0    0 -0.47335276589E+00 -0.69622065111E+01  0.25475675273E+01  0.17136109968E+03  0.17120000000E+03 0.  0.
        998    1    1    2    0    0 -0.54411394702E+01 -0.48120986020E+01  0.14614277612E+04  0.14614800250E+04  0.10000000000E+02 0. -1.
</event>
<event>
 5    1  0.1364103E-008  0.3746111E+03  0.7957747E-01  0.3474964E+00
         13   -1    0    0    0    0  0.00000000000E+00  0.00000000000E+00  0.14999999963E+04  0.15000000000E+04  0.10566000000E+00 0.  1.
        994   -1    0    0    0    0 -0.00000000000E+00 -0.00000000000E+00  0.11368683772E-12  0.17120000000E+03  0.17120000000E+03 0.  0.
         13    1    1    2    0    0 -0.82986707908E+02 -0.14716168842E+02  0.22346742287E+03  0.23883270204E+03  0.10566000000E+00 0.  1.
        994    1    1    2    0    0  0.98859950055E+02 -0.66741379122E+02  0.65846201345E+02  0.21879868291E+03  0.17120000000E+03 0.  0.
        998    1    1    2    0    0 -0.15873242147E+02  0.81457547964E+02  0.12106863721E+04  0.12135686150E+04  0.10000000000E+02 0.  1.
</event>
<event>
 5    1  0.1364103E-008  0.3720329E+03  0.7957747E-01  0.3486600E+00
         13   -1    0    0    0    0  0.00000000000E+00  0.00000000000E+00  0.14999999963E+04  0.15000000000E+04  0.10566000000E+00 0.  1.
        994   -1    0    0    0    0 -0.00000000000E+00 -0.00000000000E+00  0.11368683772E-12  0.17120000000E+03  0.17120000000E+03 0.  0.
         13    1    1    2    0    0 -0.97601138372E+01  0.17189508088E+02  0.19476329056E+02  0.27750271493E+02  0.10566000000E+00 0.  1.
        994    1    1    2    0    0  0.33405430657E+02 -0.16106135018E+02  0.12947404397E+02  0.17564852878E+03  0.17120000000E+03 0.  0.
        998    1    1    2    0    0 -0.23645316820E+02 -0.10833730701E+01  0.14675762628E+04  0.14678011997E+04  0.10000000000E+02 0.  1.
</event>
<event>
 5    1  0.1364103E-008  0.3830326E+03  0.7957747E-01  0.3438059E+00
         13   -1    0    0    0    0  0.00000000000E+00  0.00000000000E+00  0.14999999963E+04  0.15000000000E+04  0.10566000000E+00 0.  1.
        994   -1    0    0    0    0 -0.00000000000E+00 -0.00000000000E+00  0.11368683772E-12  0.17120000000E+03  0.17120000000E+03 0.  0.
         13    1    1    2    0    0 -0.14141255162E+02 -0.79213724531E+01  0.48943990391E+02  0.51558205928E+02  0.10566000000E+00 0.  1.
        994    1    1    2    0    0  0.81766792155E+01  0.12950534806E+02  0.33868603319E+01  0.17191708832E+03  0.17120000000E+03 0.  0.
        998    1    1    2    0    0  0.59645759461E+01 -0.50291623530E+01  0.14476691456E+04  0.14477247057E+04  0.10000000000E+02 0.  1.
</event>
<event>
 5    1  0.1364103E-008  0.3854363E+03  0.7957747E-01  0.3427824E+00
         13   -1    0    0    0    0  0.00000000000E+00  0.00000000000E+00  0.14999999963E+04  0.15000000000E+04  0.10566000000E+00 0.  1.
        994   -1    0    0    0    0 -0.00000000000E+00 -0.00000000000E+00  0.11368683772E-12  0.17120000000E+03  0.17120000000E+03 0.  0.
         13    1    1    2    0    0 -0.13895256179E+01  0.12636018963E+02  0.59715382358E+02  0.61053565095E+02  0.10566000000E+00 0.  1.
        994    1    1    2    0    0  0.25114749402E+01 -0.21564971704E+01  0.14496647194E+01  0.17123813686E+03  0.17120000000E+03 0.  0.
        998    1    1    2    0    0 -0.11219493222E+01 -0.10479521792E+02  0.14388349492E+04  0.14389082980E+04  0.10000000000E+02 0.  1.
</event>
<event>
 5    1  0.1364103E-008  0.3801794E+03  0.7957747E-01  0.3450378E+00
         13   -1    0    0    0    0  0.00000000000E+00  0.00000000000E+00  0.14999999963E+04  0.15000000000E+04  0.10566000000E+00 0. -1.
        994   -1    0    0    0    0 -0.00000000000E+00 -0.00000000000E+00  0.11368683772E-12  0.17120000000E+03  0.17120000000E+03 0.  0.
         13    1    1    2    0    0  0.13265302656E+02  0.34030185641E+02  0.14901173914E+03  0.15342272112E+03  0.10566000000E+00 0. -1.
        994    1    1    2    0    0 -0.18375719272E+02 -0.31881545707E+02  0.85798158645E+01  0.17532014504E+03  0.17120000000E+03 0.  0.
        998    1    1    2    0    0  0.51104166155E+01 -0.21486399338E+01  0.13424084413E+04  0.13424571338E+04  0.10000000000E+02 0.  1.
</event>
<event>
 5    1  0.1364103E-008  0.3829763E+03  0.7957747E-01  0.3438300E+00
         13   -1    0    0    0    0  0.00000000000E+00  0.00000000000E+00  0.14999999963E+04  0.15000000000E+04  0.10566000000E+00 0.  1.
        994   -1    0    0    0    0 -0.00000000000E+00 -0.00000000000E+00  0.11368683772E-12  0.17120000000E+03  0.17120000000E+03 0.  0.
         13    1    1    2    0    0 -0.98033332983E+01 -0.14270091329E+02  0.55774235410E+02  0.58399634844E+02  0.10566000000E+00 0.  1.
        994    1    1    2    0    0  0.13795483111E+02  0.54607881631E+01  0.33672602442E+01  0.17187470437E+03  0.17120000000E+03 0.  0.
        998    1    1    2    0    0 -0.39921498128E+01  0.88093031661E+01  0.14408585006E+04  0.14409256608E+04  0.10000000000E+02 0.  1.
</event>
<event>
 5    1  0.1364103E-008  0.3727672E+03  0.7957747E-01  0.3483269E+00
         13   -1    0    0    0    0  0.00000000000E+00  0.00000000000E+00  0.14999999963E+04  0.15000000000E+04  0.10566000000E+00 0.  1.
        994   -1    0    0    0    0 -0.00000000000E+00 -0.00000000000E+00  0.11368683772E-12  0.17120000000E+03  0.17120000000E+03 0.  0.
         13    1    1    2    0    0 -0.37059540456E+02  0.38568264243E+02  0.20337939617E+03  0.21029529356E+03  0.10566000000E+00 0.  1.
        994    1    1    2    0    0  0.16910014231E+02  0.20518621489E+01  0.88241966933E+01  0.17227148681E+03  0.17120000000E+03 0.  0.
        998    1    1    2    0    0  0.20149526225E+02 -0.40620126392E+02  0.12877964034E+04  0.12886332196E+04  0.10000000000E+02 0.  1.
</event>
<event>
 5    1  0.1364103E-008  0.3761619E+03  0.7957747E-01  0.3468042E+00
         13   -1    0    0    0    0  0.00000000000E+00  0.00000000000E+00  0.14999999963E+04  0.15000000000E+04  0.10566000000E+00 0.  1.
        994   -1    0    0    0    0 -0.00000000000E+00 -0.00000000000E+00  0.11368683772E-12  0.17120000000E+03  0.17120000000E+03 0.  0.
         13    1    1    2    0    0 -0.16240680243E+02 -0.10251298328E+02  0.27215475801E+02  0.33309789841E+02  0.10566000000E+00 0.  1.
        994    1    1    2    0    0  0.17132752813E+02  0.12366671123E+02  0.75964185234E+01  0.17266618473E+03  0.17120000000E+03 0.  0.
        998    1    1    2    0    0 -0.89207257004E+00 -0.21153727953E+01  0.14651881020E+04  0.14652240254E+04  0.10000000000E+02 0.  1.
</event>
<event>
 5    1  0.1364103E-008  0.3685359E+03  0.7957747E-01  0.3502647E+00
         13   -1    0    0    0    0  0.00000000000E+00  0.00000000000E+00  0.14999999963E+04  0.15000000000E+04  0.10566000000E+00 0. -1.
        994   -1    0    0    0    0 -0.00000000000E+00 -0.00000000000E+00  0.11368683772E-12  0.17120000000E+03  0.17120000000E+03 0.  0.
         13    1    1    2    0    0 -0.21285757902E+02  0.10835688831E+02  0.23460804994E+02  0.33480086274E+02  0.10566000000E+00 0. -1.
        994    1    1    2    0    0  0.18102922857E+02 -0.15064205913E+02  0.12098237998E+02  0.17323525472E+03  0.17120000000E+03 0.  0.
        998    1    1    2    0    0  0.31828350457E+01  0.42285170814E+01  0.14644409533E+04  0.14644846590E+04  0.10000000000E+02 0. -1.
</event>
<event>
 5    1  0.1364103E-008  0.3846426E+03  0.7957747E-01  0.3431189E+00
         13   -1    0    0    0    0  0.00000000000E+00  0.00000000000E+00  0.14999999963E+04  0.15000000000E+04  0.10566000000E+00 0. -1.
        994   -1    0    0    0    0 -0.00000000000E+00 -0.00000000000E+00  0.11368683772E-12  0.17120000000E+03  0.17120000000E+03 0.  0.
         13    1    1    2    0    0  0.47386877950E+01 -0.95016101639E+01  0.30633241119E+02  0.32421326055E+02  0.10566000000E+00 0. -1.
        994    1    1    2    0    0 -0.76484279583E+01  0.58772406554E+01  0.21140660037E+01  0.17148454648E+03  0.17120000000E+03 0.  0.
        998    1    1    2    0    0  0.29097401633E+01  0.36243695084E+01  0.14672526892E+04  0.14672941275E+04  0.10000000000E+02 0. -1.
</event>
<event>
 5    1  0.1364103E-008  0.3855379E+03  0.7957747E-01  0.3427394E+00
         13   -1    0    0    0    0  0.00000000000E+00  0.00000000000E+00  0.14999999963E+04  0.15000000000E+04  0.10566000000E+00 0. -1.
        994   -1    0    0    0    0 -0.00000000000E+00 -0.00000000000E+00  0.11368683772E-12  0.17120000000E+03  0.17120000000E+03 0.  0.
         13    1    1    2    0    0  0.52967562162E+01  0.10570015521E+02  0.50798731670E+02  0.52156525554E+02  0.10566000000E+00 0. -1.
        994    1    1    2    0    0 -0.61039286049E+01 -0.84037345576E+01  0.17175608869E+01  0.17152338241E+03  0.17120000000E+03 0.  0.
        998    1    1    2    0    0  0.80717238871E+00 -0.21662809629E+01  0.14474837037E+04  0.14475200920E+04  0.10000000000E+02 0. -1.
</event>
<event>
 5    1  0.1364103E-008  0.3846289E+03  0.7957747E-01  0.3431247E+00
         13   -1    0    0    0    0  0.00000000000E+00  0.00000000000E+00  0.14999999963E+04  0.15000000000E+04  0.10566000000E+00 0. -1.
        994   -1    0    0    0    0 -0.00000000000E+00 -0.00000000000E+00  0.11368683772E-12  0.17120000000E+03  0.17120000000E+03 0.  0.
         13    1    1    2    0    0 -0.66689952792E+01  0.80212907214E+01  0.28419219364E+02  0.30273417319E+02  0.10566000000E+00 0. -1.
        994    1    1    2    0    0  0.95987913558E+01 -0.14226592207E+02  0.27848509363E+01  0.17208058611E+03  0.17120000000E+03 0.  0.
        998    1    1    2    0    0 -0.29297960767E+01  0.62053014852E+01  0.14687959260E+04  0.14688459966E+04  0.10000000000E+02 0. -1.
</event>
<event>
 5    1  0.1364103E-008  0.3849595E+03  0.7957747E-01  0.3429844E+00
         13   -1    0    0    0    0  0.00000000000E+00  0.00000000000E+00  0.14999999963E+04  0.15000000000E+04  0.10566000000E+00 0.  1.
        994   -1    0    0    0    0 -0.00000000000E+00 -0.00000000000E+00  0.11368683772E-12  0.17120000000E+03  0.17120000000E+03 0.  0.
         13    1    1    2    0    0 -0.43368909562E+01 -0.13512065365E+02  0.60005759642E+02  0.61661064602E+02  0.10566000000E+00 0.  1.
        994    1    1    2    0    0  0.16584346453E+02  0.75890905735E+01  0.27450962768E+01  0.17219062227E+03  0.17120000000E+03 0.  0.
        998    1    1    2    0    0 -0.12247455497E+02  0.59229747917E+01  0.14372491404E+04  0.14373483131E+04  0.10000000000E+02 0.  1.
</event>
<event>
 5    1  0.1364103E-008  0.3833210E+03  0.7957747E-01  0.3436824E+00
         13   -1    0    0    0    0  0.00000000000E+00  0.00000000000E+00  0.14999999963E+04  0.15000000000E+04  0.10566000000E+00 0. -1.
        994   -1    0    0    0    0 -0.00000000000E+00 -0.00000000000E+00  0.11368683772E-12  0.17120000000E+03  0.17120000000E+03 0.  0.
         13    1    1    2    0    0  0.78415979411E+01  0.11243272865E+02  0.37075337016E+02  0.39528390074E+02  0.10566000000E+00 0. -1.
        994    1    1    2    0    0 -0.92198314397E+01 -0.70568501259E+01  0.29119059375E+01  0.17161795833E+03  0.17120000000E+03 0.  0.
        998    1    1    2    0    0  0.13782334985E+01 -0.41864227389E+01  0.14600127533E+04  0.14600536516E+04  0.10000000000E+02 0. -1.
</event>
<event>
 5    1  0.1364103E-008  0.3839071E+03  0.7957747E-01  0.3434320E+00
         13   -1    0    0    0    0  0.00000000000E+00  0.00000000000E+00  0.14999999963E+04  0.15000000000E+04  0.10566000000E+00 0. -1.
        994   -1    0    0    0    0 -0.00000000000E+00 -0.00000000000E+00  0.11368683772E-12  0.17120000000E+03  0.17120000000E+03 0.  0.
         13    1    1    2    0    0  0.83547190993E+01 -0.10834301964E+02  0.41754875474E+02  0.43939324303E+02  0.10566000000E+00 0. -1.
        994    1    1    2    0    0 -0.82005415930E+01  0.10351993550E+02  0.27495248271E+01  0.17173063949E+03  0.17120000000E+03 0.  0.
        998    1    1    2    0    0 -0.15417750621E+00  0.48230841341E+00  0.14554955960E+04  0.14555300362E+04  0.10000000000E+02 0. -1.
</event>
<event>
 5    1  0.1364103E-008  0.2710029E+03  0.7957747E-01  0.4127579E+00
         13   -1    0    0    0    0  0.00000000000E+00  0.00000000000E+00  0.14999999963E+04  0.15000000000E+04  0.10566000000E+00 0.  1.
        994   -1    0    0    0    0 -0.00000000000E+00 -0.00000000000E+00  0.11368683772E-12  0.17120000000E+03  0.17120000000E+03 0.  0.
         13    1    1    2    0    0 -0.18070535068E+03 -0.84012895796E+02  0.51109630704E+03  0.54857272686E+03  0.10566000000E+00 0.  1.
        994    1    1    2    0    0  0.14741566712E+03 -0.97751654343E+01  0.13600159749E+03  0.26388028970E+03  0.17120000000E+03 0.  0.
        998    1    1    2    0    0  0.33289683559E+02  0.93788061230E+02  0.85290209174E+03  0.85874698344E+03  0.10000000000E+02 0.  1.
</event>
<event>
 5    1  0.1364103E-008  0.3842955E+03  0.7957747E-01  0.3432665E+00
         13   -1    0    0    0    0  0.00000000000E+00  0.00000000000E+00  0.14999999963E+04  0.15000000000E+04  0.10566000000E+00 0. -1.
        994   -1    0    0    0    0 -0.00000000000E+00 -0.00000000000E+00  0.11368683772E-12  0.17120000000E+03  0.17120000000E+03 0.  0.
         13    1    1    2    0    0  0.14759148822E+02  0.12982299032E+02  0.98155423971E+02  0.10010430051E+03  0.10566000000E+00 0. -1.
        994    1    1    2    0    0 -0.11809037214E+02 -0.34734095400E+01  0.24798789234E+01  0.17165986058E+03  0.17120000000E+03 0.  0.
        998    1    1    2    0    0 -0.29501116075E+01 -0.95088894918E+01  0.13993646934E+04  0.13994358389E+04  0.10000000000E+02 0. -1.
</event>
<event>
 5    1  0.1364103E-008  0.3837897E+03  0.7957747E-01  0.3434822E+00
         13   -1    0    0    0    0  0.00000000000E+00  0.00000000000E+00  0.14999999963E+04  0.15000000000E+04  0.10566000000E+00 0.  1.
        994   -1    0    0    0    0 -0.00000000000E+00 -0.00000000000E+00  0.11368683772E-12  0.17120000000E+03  0.17120000000E+03 0.  0.
         13    1    1    2    0    0 -0.60329936005E+01 -0.15229999768E+02  0.62732943122E+02  0.64836588601E+02  0.10566000000E+00 0.  1.
        994    1    1    2    0    0 -0.23217025961E+01  0.22761950492E+01  0.22671480435E+01  0.17124587974E+03  0.17120000000E+03 0.  0.
        998    1    1    2    0    0  0.83546961965E+01  0.12953804719E+02  0.14349999051E+04  0.14351175317E+04  0.10000000000E+02 0.  1.
</event>
<event>
 5    1  0.1364103E-008  0.3844686E+03  0.7957747E-01  0.3431929E+00
         13   -1    0    0    0    0  0.00000000000E+00  0.00000000000E+00  0.14999999963E+04  0.15000000000E+04  0.10566000000E+00 0.  1.
        994   -1    0    0    0    0 -0.00000000000E+00 -0.00000000000E+00  0.11368683772E-12  0.17120000000E+03  0.17120000000E+03 0.  0.
         13    1    1    2    0    0 -0.82548029988E+01 -0.78122283908E+01  0.33202732558E+02  0.35094234546E+02  0.10566000000E+00 0.  1.
        994    1    1    2    0    0  0.97703434446E+01  0.58977760829E+01  0.23233670072E+01  0.17159569169E+03  0.17120000000E+03 0.  0.
        998    1    1    2    0    0 -0.15155404457E+01  0.19144523079E+01  0.14644738967E+04  0.14645100738E+04  0.10000000000E+02 0.  1.
</event>
<event>
 5    1  0.1364103E-008  0.3950745E+03  0.7957747E-01  0.3388037E+00
         13   -1    0    0    0    0  0.00000000000E+00  0.00000000000E+00  0.14999999963E+04  0.15000000000E+04  0.10566000000E+00 0.  1.
        994   -1    0    0    0    0 -0.00000000000E+00 -0.00000000000E+00  0.11368683772E-12  0.17120000000E+03  0.17120000000E+03 0.  0.
         13    1    1    2    0    0 -0.92250675268E+02  0.68773960153E+02  0.21536800101E+03  0.24417909760E+03  0.10566000000E+00 0.  1.
        994    1    1    2    0    0  0.11079301228E+03 -0.49986080450E+02  0.84131396923E+02  0.22618848723E+03  0.17120000000E+03 0.  0.
        998    1    1    2    0    0 -0.18542337009E+02 -0.18787879703E+02  0.12005005983E+04  0.12008324152E+04  0.10000000000E+02 0.  1.
</event>
<event>
 5    1  0.1364103E-008  0.3824770E+03  0.7957747E-01  0.3440444E+00
         13   -1    0    0    0    0  0.00000000000E+00  0.00000000000E+00  0.14999999963E+04  0.15000000000E+04  0.10566000000E+00 0.  1.
        994   -1    0    0    0    0 -0.00000000000E+00 -0.00000000000E+00  0.11368683772E-12  0.17120000000E+03  0.17120000000E+03 0.  0.
         13    1    1    2    0    0 -0.91476364982E+01  0.13976733431E+02  0.63772831464E+02  0.65924301497E+02  0.10566000000E+00 0.  1.
        994    1    1    2    0    0 -0.18577838902E+02  0.44756348022E+02  0.10713695872E+02  0.17824839429E+03  0.17120000000E+03 0.  0.
        998    1    1    2    0    0  0.27725475400E+02 -0.58733081453E+02  0.14255134689E+04  0.14270273042E+04  0.10000000000E+02 0.  1.
</event>
<event>
 5    1  0.1364103E-008  0.3787435E+03  0.7957747E-01  0.3456648E+00
         13   -1    0    0    0    0  0.00000000000E+00  0.00000000000E+00  0.14999999963E+04  0.15000000000E+04  0.10566000000E+00 0.  1.
        994   -1    0    0    0    0 -0.00000000000E+00 -0.00000000000E+00  0.11368683772E-12  0.17120000000E+03  0.17120000000E+03 0.  0.
         13    1    1    2    0    0  0.11504051503E+02  0.24367644208E+02  0.70372104404E+02  0.75354956887E+02  0.10566000000E+00 0.  1.
        994    1    1    2    0    0 -0.10673398747E+02 -0.28665364711E+02  0.79158983600E+01  0.17409114286E+03  0.17120000000E+03 0.  0.
        998    1    1    2    0    0 -0.83065275592E+00  0.42977205027E+01  0.14217119935E+04  0.14217539003E+04  0.10000000000E+02 0.  1.
</event>
<event>
 5    1  0.1364103E-008  0.3841776E+03  0.7957747E-01  0.3433168E+00
         13   -1    0    0    0    0  0.00000000000E+00  0.00000000000E+00  0.14999999963E+04  0.15000000000E+04  0.10566000000E+00 0.  1.
        994   -1    0    0    0    0 -0.00000000000E+00 -0.00000000000E+00  0.11368683772E-12  0.17120000000E+03  0.17120000000E+03 0.  0.
         13    1    1    2    0    0  0.16517440945E+02  0.96014644763E+01  0.94356048036E+02  0.96270914302E+02  0.10566000000E+00 0.  1.
        994    1    1    2    0    0 -0.57329916690E+01  0.19184111389E+01  0.21595115821E+01  0.17132031691E+03  0.17120000000E+03 0.  0.
        998    1    1    2    0    0 -0.10784449276E+02 -0.11519875615E+02  0.14034844367E+04  0.14036087688E+04  0.10000000000E+02 0.  1.
</event>
<event>
 5    1  0.1364103E-008  0.3737477E+03  0.7957747E-01  0.3478842E+00
         13   -1    0    0    0    0  0.00000000000E+00  0.00000000000E+00  0.14999999963E+04  0.15000000000E+04  0.10566000000E+00 0. -1.
        994   -1    0    0    0    0 -0.00000000000E+00 -0.00000000000E+00  0.11368683772E-12  0.17120000000E+03  0.17120000000E+03 0.  0.
         13    1    1    2    0    0  0.43710670876E+02  0.24153727621E+02  0.15756323464E+03  0.16528826147E+03  0.10566000000E+00 0. -1.
        994    1    1    2    0    0 -0.37944648467E+02 -0.18202040320E+02  0.13393255990E+02  0.17680477914E+03  0.17120000000E+03 0.  0.
        998    1    1    2    0    0 -0.57660224084E+01 -0.59516873009E+01  0.13290435056E+04  0.13291069594E+04  0.10000000000E+02 0. -1.
</event>
<event>
 5    1  0.1364103E-008  0.3746516E+03  0.7957747E-01  0.3474782E+00
         13   -1    0    0    0    0  0.00000000000E+00  0.00000000000E+00  0.14999999963E+04  0.15000000000E+04  0.10566000000E+00 0.  1.
        994   -1    0    0    0    0 -0.00000000000E+00 -0.00000000000E+00  0.11368683772E-12  0.17120000000E+03  0.17120000000E+03 0.  0.
         13    1    1    2    0    0  0.45198285196E+02  0.72771457623E+01  0.17408132388E+03  0.18000044534E+03  0.10566000000E+00 0.  1.
        994    1    1    2    0    0 -0.34490080935E+01  0.14538979544E+02  0.76179692148E+01  0.17201962399E+03  0.17120000000E+03 0.  0.
        998    1    1    2    0    0 -0.41749277103E+02 -0.21816125306E+02  0.13183007032E+04  0.13191799307E+04  0.10000000000E+02 0.  1.
</event>
<event>
 5    1  0.1461988E-008  0.3861070E+03  0.7957747E-01  0.3424991E+00
         13   -1    0    0    0    0  0.00000000000E+00  0.00000000000E+00  0.14999999963E+04  0.15000000000E+04  0.10566000000E+00 0. -1.
        994   -1    0    0    0    0 -0.00000000000E+00 -0.00000000000E+00  0.11368683772E-12  0.17120000000E+03  0.17120000000E+03 0.  0.
         13    1    1    2    0    0  0.87458997447E+01 -0.50352871998E+01  0.46780674325E+02  0.47856948648E+02  0.10566000000E+00 0. -1.
        994    1    1    2    0    0 -0.72056317586E+01  0.72574930911E+01  0.14243386916E+01  0.17151111065E+03  0.17120000000E+03 0.  0.
        998    1    1    2    0    0 -0.15402679861E+01 -0.22222058913E+01  0.14517949833E+04  0.14518319407E+04  0.10000000000E+02 0.  0.
</event>
<event>
 5    1  0.1364103E-008  0.3688320E+03  0.7957747E-01  0.3501276E+00
         13   -1    0    0    0    0  0.00000000000E+00  0.00000000000E+00  0.14999999963E+04  0.15000000000E+04  0.10566000000E+00 0. -1.
        994   -1    0    0    0    0 -0.00000000000E+00 -0.00000000000E+00  0.11368683772E-12  0.17120000000E+03  0.17120000000E+03 0.  0.
         13    1    1    2    0    0 -0.11076668320E+02 -0.55773570127E+02  0.18069903370E+03  0.18943477941E+03  0.10566000000E+00 0. -1.
        994    1    1    2    0    0 -0.21139342760E+01  0.10171717810E+02  0.10255655520E+02  0.17182127642E+03  0.17120000000E+03 0.  0.
        998    1    1    2    0    0  0.13190602596E+02  0.45601852317E+02  0.13090453071E+04  0.13099439442E+04  0.10000000000E+02 0. -1.
</event>
<event>
 5    1  0.1364103E-008  0.3849097E+03  0.7957747E-01  0.3430055E+00
         13   -1    0    0    0    0  0.00000000000E+00  0.00000000000E+00  0.14999999963E+04  0.15000000000E+04  0.10566000000E+00 0. -1.
        994   -1    0    0    0    0 -0.00000000000E+00 -0.00000000000E+00  0.11368683772E-12  0.17120000000E+03  0.17120000000E+03 0.  0.
         13    1    1    2    0    0 -0.57124855706E+01  0.96422762971E+01  0.37808210156E+02  0.39434476069E+02  0.10566000000E+00 0. -1.
        994    1    1    2    0    0  0.21924165766E+01 -0.42773281451E+01  0.17510027829E+01  0.17127640888E+03  0.17120000000E+03 0.  0.
        998    1    1    2    0    0  0.35200689940E+01 -0.53649481520E+01  0.14604407833E+04  0.14604891151E+04  0.10000000000E+02 0. -1.
</event>
<event>
 5    1  0.1364103E-008  0.3735755E+03  0.7957747E-01  0.3479618E+00
         13   -1    0    0    0    0  0.00000000000E+00  0.00000000000E+00  0.14999999963E+04  0.15000000000E+04  0.10566000000E+00 0. -1.
        994   -1    0    0    0    0 -0.00000000000E+00 -0.00000000000E+00  0.11368683772E-12  0.17120000000E+03  0.17120000000E+03 0.  0.
         13    1    1    2    0    0  0.14954133303E+02  0.47652822981E+02  0.19272015307E+03  0.19908662990E+03  0.10566000000E+00 0. -1.
        994    1    1    2    0    0  0.28757816734E+01 -0.39942646228E+01  0.74947915638E+01  0.17143464110E+03  0.17120000000E+03 0.  0.
        998    1    1    2    0    0 -0.17829914977E+02 -0.43658558358E+02  0.12997850516E+04  0.13006787290E+04  0.10000000000E+02 0. -1.
</event>
<event>
 5    1  0.1364103E-008  0.3827261E+03  0.7957747E-01  0.3439374E+00
         13   -1    0    0    0    0  0.00000000000E+00  0.00000000000E+00  0.14999999963E+04  0.15000000000E+04  0.10566000000E+00 0. -1.
        994   -1    0    0    0    0 -0.00000000000E+00 -0.00000000000E+00  0.11368683772E-12  0.17120000000E+03  0.17120000000E+03 0.  0.
         13    1    1    2    0    0  0.11480765324E+02 -0.33402915097E+02  0.19118437685E+03  0.19441975163E+03  0.10566000000E+00 0. -1.
        994    1    1    2    0    0 -0.19203068664E+02  0.35615146240E+02  0.82064931014E+01  0.17610787324E+03  0.17120000000E+03 0.  0.
        998    1    1    2    0    0  0.77223033396E+01 -0.22122311428E+01  0.13006091263E+04  0.13006723751E+04  0.10000000000E+02 0. -1.
</event>
<event>
 5    1  0.1364103E-008  0.3847746E+03  0.7957747E-01  0.3430629E+00
         13   -1    0    0    0    0  0.00000000000E+00  0.00000000000E+00  0.14999999963E+04  0.15000000000E+04  0.10566000000E+00 0.  1.
        994   -1    0    0    0    0 -0.00000000000E+00 -0.00000000000E+00  0.11368683772E-12  0.17120000000E+03  0.17120000000E+03 0.  0.
         13    1    1    2    0    0  0.11778410621E+02 -0.16807235910E+01  0.39105758580E+02  0.40875754509E+02  0.10566000000E+00 0.  1.
        994    1    1    2    0    0 -0.15159123723E+02 -0.13672788960E+01  0.25049019127E+01  0.17189352232E+03  0.17120000000E+03 0.  0.
        998    1    1    2    0    0  0.33807131024E+01  0.30480024870E+01  0.14583893358E+04  0.14584307232E+04  0.10000000000E+02 0.  1.
</event>
<event>
 5    1  0.1364103E-008  0.3808150E+03  0.7957747E-01  0.3447617E+00
         13   -1    0    0    0    0  0.00000000000E+00  0.00000000000E+00  0.14999999963E+04  0.15000000000E+04  0.10566000000E+00 0. -1.
        994   -1    0    0    0    0 -0.00000000000E+00 -0.00000000000E+00  0.11368683772E-12  0.17120000000E+03  0.17120000000E+03 0.  0.
         13    1    1    2    0    0  0.30183970247E+02  0.10682438439E+01  0.11086389549E+03  0.11490442851E+03  0.10566000000E+00 0. -1.
        994    1    1    2    0    0 -0.34434561755E+02  0.48305595119E+01  0.77637789420E+01  0.17486792048E+03  0.17120000000E+03 0.  0.
        998    1    1    2    0    0  0.42505915074E+01 -0.58988033558E+01  0.13813723218E+04  0.13814276510E+04  0.10000000000E+02 0. -1.
</event>
<event>
 5    1  0.1364103E-008  0.3826067E+03  0.7957747E-01  0.3439886E+00
         13   -1    0    0    0    0  0.00000000000E+00  0.00000000000E+00  0.14999999963E+04  0.15000000000E+04  0.10566000000E+00 0.  1.
        994   -1    0    0    0    0 -0.00000000000E+00 -0.00000000000E+00  0.11368683772E-12  0.17120000000E+03  0.17120000000E+03 0.  0.
         13    1    1    2    0    0  0.17823825383E+02 -0.24459360823E+02  0.15392969819E+03  0.15687674216E+03  0.10566000000E+00 0.  1.
        994    1    1    2    0    0 -0.19578575842E+02  0.15711128683E+02  0.49144087848E+01  0.17310040904E+03  0.17120000000E+03 0.  0.
        998    1    1    2    0    0  0.17547504586E+01  0.87482321395E+01  0.13411558893E+04  0.13412228488E+04  0.10000000000E+02 0.  1.
</event>
<event>
 5    1  0.1364103E-008  0.3780415E+03  0.7957747E-01  0.3459731E+00
         13   -1    0    0    0    0  0.00000000000E+00  0.00000000000E+00  0.14999999963E+04  0.15000000000E+04  0.10566000000E+00 0.  1.
        994   -1    0    0    0    0 -0.00000000000E+00 -0.00000000000E+00  0.11368683772E-12  0.17120000000E+03  0.17120000000E+03 0.  0.
         13    1    1    2    0    0  0.28301975242E+02 -0.42262076372E+02  0.22195802420E+03  0.22771135363E+03  0.10566000000E+00 0.  1.
        994    1    1    2    0    0 -0.24866911318E+02  0.39418040841E+02  0.12468774733E+02  0.17786808473E+03  0.17120000000E+03 0.  0.
        998    1    1    2    0    0 -0.34350639240E+01  0.28440355313E+01  0.12655731973E+04  0.12656205616E+04  0.10000000000E+02 0.  1.
</event>
<event>
 5    1  0.1364103E-008  0.2980760E+03  0.7957747E-01  0.3909851E+00
         13   -1    0    0    0    0  0.00000000000E+00  0.00000000000E+00  0.14999999963E+04  0.15000000000E+04  0.10566000000E+00 0.  1.
        994   -1    0    0    0    0 -0.00000000000E+00 -0.00000000000E+00  0.11368683772E-12  0.17120000000E+03  0.17120000000E+03 0.  0.
         13    1    1    2    0    0  0.18728208522E+03  0.29447230322E+02  0.57657423010E+03  0.60694280850E+03  0.10566000000E+00 0.  1.
        994    1    1    2    0    0 -0.21003316009E+03 -0.65742641503E+02  0.20896110935E+03  0.34843967694E+03  0.17120000000E+03 0.  0.
        998    1    1    2    0    0  0.22751074871E+02  0.36295411181E+02  0.71446465683E+03  0.71581751455E+03  0.10000000000E+02 0.  1.
</event>
<event>
 5    1  0.1364103E-008  0.3744564E+03  0.7957747E-01  0.3475658E+00
         13   -1    0    0    0    0  0.00000000000E+00  0.00000000000E+00  0.14999999963E+04  0.15000000000E+04  0.10566000000E+00 0. -1.
        994   -1    0    0    0    0 -0.00000000000E+00 -0.00000000000E+00  0.11368683772E-12  0.17120000000E+03  0.17120000000E+03 0.  0.
         13    1    1    2    0    0  0.76440136386E+02 -0.48572507210E+01  0.33159916645E+03  0.34033028912E+03  0.10566000000E+00 0. -1.
        994    1    1    2    0    0 -0.73902777572E+02  0.13062175085E+02  0.26387427541E+02  0.18878023541E+03  0.17120000000E+03 0.  0.
        998    1    1    2    0    0 -0.25373588136E+01 -0.82049243637E+01  0.11420134023E+04  0.11420894755E+04  0.10000000000E+02 0. -1.
</event>
<event>
 5    1  0.1364103E-008  0.3838362E+03  0.7957747E-01  0.3434623E+00
         13   -1    0    0    0    0  0.00000000000E+00  0.00000000000E+00  0.14999999963E+04  0.15000000000E+04  0.10566000000E+00 0. -1.
        994   -1    0    0    0    0 -0.00000000000E+00 -0.00000000000E+00  0.11368683772E-12  0.17120000000E+03  0.17120000000E+03 0.  0.
         13    1    1    2    0    0 -0.72656917216E+01 -0.17345671630E+02  0.81239831116E+02  0.83388152182E+02  0.10566000000E+00 0. -1.
        994    1    1    2    0    0  0.58090122896E+01  0.69480380397E+01  0.24798464148E+01  0.17145731100E+03  0.17120000000E+03 0.  0.
        998    1    1    2    0    0  0.14566794320E+01  0.10397633590E+02  0.14162803187E+04  0.14163545368E+04  0.10000000000E+02 0. -1.
</event>
<event>
 5    1  0.1364103E-008  0.3853760E+03  0.7957747E-01  0.3428079E+00
         13   -1    0    0    0    0  0.00000000000E+00  0.00000000000E+00  0.14999999963E+04  0.15000000000E+04  0.10566000000E+00 0.  1.
        994   -1    0    0    0    0 -0.00000000000E+00 -0.00000000000E+00  0.11368683772E-12  0.17120000000E+03  0.17120000000E+03 0.  0.
         13    1    1    2    0    0  0.10427458379E+02 -0.65538351927E+01  0.55098300597E+02  0.56458113117E+02  0.10566000000E+00 0.  1.
        994    1    1    2    0    0  0.10010521300E+01  0.37124600628E+01  0.14921616311E+01  0.17124967449E+03  0.17120000000E+03 0.  0.
        998    1    1    2    0    0 -0.11428510509E+02  0.28413751299E+01  0.14434095341E+04  0.14434922124E+04  0.10000000000E+02 0.  1.
</event>
<event>
 5    1  0.1364103E-008  0.3820214E+03  0.7957747E-01  0.3442404E+00
         13   -1    0    0    0    0  0.00000000000E+00  0.00000000000E+00  0.14999999963E+04  0.15000000000E+04  0.10566000000E+00 0. -1.
        994   -1    0    0    0    0 -0.00000000000E+00 -0.00000000000E+00  0.11368683772E-12  0.17120000000E+03  0.17120000000E+03 0.  0.
         13    1    1    2    0    0 -0.30084759202E+02  0.10022582918E+03  0.39835380138E+03  0.41186899836E+03  0.10566000000E+00 0. -1.
        994    1    1    2    0    0 -0.44616810987E+02 -0.39303580735E+02  0.30464297031E+02  0.18377416759E+03  0.17120000000E+03 0.  0.
        998    1    1    2    0    0  0.74701570188E+02 -0.60922248449E+02  0.10711818979E+04  0.10755568340E+04  0.10000000000E+02 0. -1.
</event>
<event>
 5    1  0.1364103E-008  0.3784179E+03  0.7957747E-01  0.3458076E+00
         13   -1    0    0    0    0  0.00000000000E+00  0.00000000000E+00  0.14999999963E+04  0.15000000000E+04  0.10566000000E+00 0. -1.
        994   -1    0    0    0    0 -0.00000000000E+00 -0.00000000000E+00  0.11368683772E-12  0.17120000000E+03  0.17120000000E+03 0.  0.
         13    1    1    2    0    0  0.15648387211E+01 -0.22338965360E+02  0.52553467212E+02  0.57125792543E+02  0.10566000000E+00 0. -1.
        994    1    1    2    0    0 -0.86214188867E+01 -0.58825809172E+01  0.53000761875E+01  0.17159972153E+03  0.17120000000E+03 0.  0.
        998    1    1    2    0    0  0.70565801656E+01  0.28221546277E+02  0.14421464529E+04  0.14424744859E+04  0.10000000000E+02 0. -1.
</event>
<event>
 5    1  0.1364103E-008  0.3843085E+03  0.7957747E-01  0.3432610E+00
         13   -1    0    0    0    0  0.00000000000E+00  0.00000000000E+00  0.14999999963E+04  0.15000000000E+04  0.10566000000E+00 0.  1.
        994   -1    0    0    0    0 -0.00000000000E+00 -0.00000000000E+00  0.11368683772E-12  0.17120000000E+03  0.17120000000E+03 0.  0.
         13    1    1    2    0    0  0.11340977652E+00  0.16704111870E+02  0.74435834256E+02  0.76287251887E+02  0.10566000000E+00 0.  1.
        994    1    1    2    0    0 -0.29066117409E+01 -0.18748447235E+01  0.20132834593E+01  0.17124677149E+03  0.17120000000E+03 0.  0.
        998    1    1    2    0    0  0.27932019644E+01 -0.14829267146E+02  0.14235508786E+04  0.14236659766E+04  0.10000000000E+02 0.  1.
</event>
<event>
 5    1  0.1364103E-008  0.3830656E+03  0.7957747E-01  0.3437918E+00
         13   -1    0    0    0    0  0.00000000000E+00  0.00000000000E+00  0.14999999963E+04  0.15000000000E+04  0.10566000000E+00 0. -1.
        994   -1    0    0    0    0 -0.00000000000E+00 -0.00000000000E+00  0.11368683772E-12  0.17120000000E+03  0.17120000000E+03 0.  0.
         13    1    1    2    0    0 -0.14032743224E+02  0.11362248979E+02  0.66940622567E+02  0.69333085161E+02  0.10566000000E+00 0. -1.
        994    1    1    2    0    0 -0.43673274377E+01 -0.13226017165E+01  0.26624787017E+01  0.17128149818E+03  0.17120000000E+03 0.  0.
        998    1    1    2    0    0  0.18400070662E+02 -0.10039647262E+02  0.14303968950E+04  0.14305854167E+04  0.10000000000E+02 0. -1.
</event>
<event>
 5    1  0.1364103E-008  0.3776072E+03  0.7957747E-01  0.3461644E+00
         13   -1    0    0    0    0  0.00000000000E+00  0.00000000000E+00  0.14999999963E+04  0.15000000000E+04  0.10566000000E+00 0. -1.
        994   -1    0    0    0    0 -0.00000000000E+00 -0.00000000000E+00  0.11368683772E-12  0.17120000000E+03  0.17120000000E+03 0.  0.
         13    1    1    2    0    0 -0.13574367812E+02 -0.12233818400E+02  0.29266962686E+02  0.34503565657E+02  0.10566000000E+00 0. -1.
        994    1    1    2    0    0  0.11173818725E+02  0.21757254953E+01  0.57826954573E+01  0.17167547167E+03  0.17120000000E+03 0.  0.
        998    1    1    2    0    0  0.24005490863E+01  0.10058092905E+02  0.14649503381E+04  0.14650209627E+04  0.10000000000E+02 0. -1.
</event>
<event>
 5    1  0.1364103E-008  0.3851215E+03  0.7957747E-01  0.3429157E+00
         13   -1    0    0    0    0  0.00000000000E+00  0.00000000000E+00  0.14999999963E+04  0.15000000000E+04  0.10566000000E+00 0. -1.
        994   -1    0    0    0    0 -0.00000000000E+00 -0.00000000000E+00  0.11368683772E-12  0.17120000000E+03  0.17120000000E+03 0.  0.
         13    1    1    2    0    0 -0.10197482301E+02  0.23313399816E+01  0.35350509659E+02  0.36865885159E+02  0.10566000000E+00 0. -1.
        994    1    1    2    0    0  0.29475379075E+01 -0.24105070316E+01  0.16174893756E+01  0.17124997751E+03  0.17120000000E+03 0.  0.
        998    1    1    2    0    0  0.72499443933E+01  0.79167050009E-01  0.14630319972E+04  0.14630841373E+04  0.10000000000E+02 0. -1.
</event>
<event>
 5    1  0.1364103E-008  0.3731190E+03  0.7957747E-01  0.3481678E+00
         13   -1    0    0    0    0  0.00000000000E+00  0.00000000000E+00  0.14999999963E+04  0.15000000000E+04  0.10566000000E+00 0.  1.
        994   -1    0    0    0    0 -0.00000000000E+00 -0.00000000000E+00  0.11368683772E-12  0.17120000000E+03  0.17120000000E+03 0.  0.
         13    1    1    2    0    0  0.94341614688E+02  0.17385044157E+03  0.75893130658E+03  0.78428378510E+03  0.10566000000E+00 0.  1.
        994    1    1    2    0    0 -0.12214841209E+03 -0.17872255131E+03  0.19008111132E+03  0.33511528435E+03  0.17120000000E+03 0.  0.
        998    1    1    2    0    0  0.27806797402E+02  0.48721097437E+01  0.55098757838E+03  0.55180093055E+03  0.10000000000E+02 0.  1.
</event>
<event>
 5    1  0.1364103E-008  0.4087888E+03  0.7957747E-01  0.3334649E+00
         13   -1    0    0    0    0  0.00000000000E+00  0.00000000000E+00  0.14999999963E+04  0.15000000000E+04  0.10566000000E+00 0. -1.
        994   -1    0    0    0    0 -0.00000000000E+00 -0.00000000000E+00  0.11368683772E-12  0.17120000000E+03  0.17120000000E+03 0.  0.
         13    1    1    2    0    0 -0.69418853883E+02 -0.44907761835E+02  0.82443905892E+02  0.11675912440E+03  0.10566000000E+00 0. -1.
        994    1    1    2    0    0  0.86489652520E+02  0.55340855208E+02  0.77419207811E+02  0.21411736031E+03  0.17120000000E+03 0.  0.
        998    1    1    2    0    0 -0.17070798638E+02 -0.10433093374E+02  0.13401368826E+04  0.13403235153E+04  0.10000000000E+02 0. -1.
</event>
<event>
 5    1  0.1364103E-008  0.3852524E+03  0.7957747E-01  0.3428602E+00
         13   -1    0    0    0    0  0.00000000000E+00  0.00000000000E+00  0.14999999963E+04  0.15000000000E+04  0.10566000000E+00 0.  1.
        994   -1    0    0    0    0 -0.00000000000E+00 -0.00000000000E+00  0.11368683772E-12  0.17120000000E+03  0.17120000000E+03 0.  0.
         13    1    1    2    0    0  0.13741607476E+02  0.49464117456E+01  0.70372450606E+02  0.71872051129E+02  0.10566000000E+00 0.  1.
        994    1    1    2    0    0 -0.10282752127E+02 -0.39592876057E+01  0.19039344116E+01  0.17156478635E+03  0.17120000000E+03 0.  0.
        998    1    1    2    0    0 -0.34588553488E+01 -0.98712413990E+00  0.14277236113E+04  0.14277631625E+04  0.10000000000E+02 0.  1.
</event>
<event>
 5    1  0.1364103E-008  0.3799299E+03  0.7957747E-01  0.3451464E+00
         13   -1    0    0    0    0  0.00000000000E+00  0.00000000000E+00  0.14999999963E+04  0.15000000000E+04  0.10566000000E+00 0. -1.
        994   -1    0    0    0    0 -0.00000000000E+00 -0.00000000000E+00  0.11368683772E-12  0.17120000000E+03  0.17120000000E+03 0.  0.
         13    1    1    2    0    0 -0.12210681578E+02  0.57585487012E+01  0.20021290561E+02  0.24147978539E+02  0.10566000000E+00 0. -1.
        994    1    1    2    0    0  0.95386004316E+01 -0.64270588414E+01  0.46110213444E+01  0.17164787648E+03  0.17120000000E+03 0.  0.
        998    1    1    2    0    0  0.26720811468E+01  0.66851014014E+00  0.14753676844E+04  0.14754041450E+04  0.10000000000E+02 0. -1.
</event>
<event>
 5    1  0.1364103E-008  0.3854277E+03  0.7957747E-01  0.3427860E+00
         13   -1    0    0    0    0  0.00000000000E+00  0.00000000000E+00  0.14999999963E+04  0.15000000000E+04  0.10566000000E+00 0.  1.
        994   -1    0    0    0    0 -0.00000000000E+00 -0.00000000000E+00  0.11368683772E-12  0.17120000000E+03  0.17120000000E+03 0.  0.
         13    1    1    2    0    0  0.67046968233E+01  0.11486672252E+02  0.67008307631E+02  0.68315598911E+02  0.10566000000E+00 0.  1.
        994    1    1    2    0    0  0.35379784982E+01 -0.10825100715E+01  0.14628863661E+01  0.17124622377E+03  0.17120000000E+03 0.  0.
        998    1    1    2    0    0 -0.10242675321E+02 -0.10404162181E+02  0.14315288023E+04  0.14316381773E+04  0.10000000000E+02 0.  1.
</event>
<event>
 5    1  0.1364103E-008  0.3684401E+03  0.7957747E-01  0.3503091E+00
         13   -1    0    0    0    0  0.00000000000E+00  0.00000000000E+00  0.14999999963E+04  0.15000000000E+04  0.10566000000E+00 0. -1.
        994   -1    0    0    0    0 -0.00000000000E+00 -0.00000000000E+00  0.11368683772E-12  0.17120000000E+03  0.17120000000E+03 0.  0.
         13    1    1    2    0    0 -0.35283952230E+01  0.14663234260E+02  0.65671983964E+01  0.16449901843E+02  0.10566000000E+00 0. -1.
        994    1    1    2    0    0  0.71398884105E+01 -0.15455130301E+02  0.11124751246E+02  0.17240370979E+03  0.17120000000E+03 0.  0.
        998    1    1    2    0    0 -0.36114931875E+01  0.79189604030E+00  0.14823080466E+04  0.14823463884E+04  0.10000000000E+02 0. -1.
</event>
<event>
 5    1  0.1364103E-008  0.3840453E+03  0.7957747E-01  0.3433731E+00
         13   -1    0    0    0    0  0.00000000000E+00  0.00000000000E+00  0.14999999963E+04  0.15000000000E+04  0.10566000000E+00 0. -1.
        994   -1    0    0    0    0 -0.00000000000E+00 -0.00000000000E+00  0.11368683772E-12  0.17120000000E+03  0.17120000000E+03 0.  0.
         13    1    1    2    0    0 -0.40325893436E+01 -0.12568022583E+02  0.41420590269E+02  0.43472904558E+02  0.10566000000E+00 0. -1.
        994    1    1    2    0    0 -0.55474159535E+01  0.81590261834E+01  0.24260563958E+01  0.17150122239E+03  0.17120000000E+03 0.  0.
        998    1    1    2    0    0  0.95800052971E+01  0.44089963992E+01  0.14561533496E+04  0.14562258731E+04  0.10000000000E+02 0. -1.
</event>
<event>
 5    1  0.1364103E-008  0.3853206E+03  0.7957747E-01  0.3428314E+00
         13   -1    0    0    0    0  0.00000000000E+00  0.00000000000E+00  0.14999999963E+04  0.15000000000E+04  0.10566000000E+00 0. -1.
        994   -1    0    0    0    0 -0.00000000000E+00 -0.00000000000E+00  0.11368683772E-12  0.17120000000E+03  0.17120000000E+03 0.  0.
         13    1    1    2    0    0  0.12190520032E+02 -0.63546628597E+00  0.50487428429E+02  0.51942315981E+02  0.10566000000E+00 0. -1.
        994    1    1    2    0    0 -0.94633488514E+01 -0.56211953807E+01  0.18691628693E+01  0.17156365168E+03  0.17120000000E+03 0.  0.
        998    1    1    2    0    0 -0.27271711811E+01  0.62566616666E+01  0.14476434050E+04  0.14476940323E+04  0.10000000000E+02 0. -1.
</event>
<event>
 5    1  0.1364103E-008  0.3723264E+03  0.7957747E-01  0.3485267E+00
         13   -1    0    0    0    0  0.00000000000E+00  0.00000000000E+00  0.14999999963E+04  0.15000000000E+04  0.10566000000E+00 0.  1.
        994   -1    0    0    0    0 -0.00000000000E+00 -0.00000000000E+00  0.11368683772E-12  0.17120000000E+03  0.17120000000E+03 0.  0.
         13    1    1    2    0    0  0.52551386733E+02 -0.71082408226E+00  0.15819534023E+03  0.16669712161E+03  0.10566000000E+00 0.  1.
        994    1    1    2    0    0 -0.44682428043E+02 -0.12673186815E+02  0.15493899132E+02  0.17806355593E+03  0.17120000000E+03 0.  0.
        998    1    1    2    0    0 -0.78689586904E+01  0.13384010898E+02  0.13263107569E+04  0.13264393225E+04  0.10000000000E+02 0.  1.
</event>
<event>
 5    1  0.1364103E-008  0.3854303E+03  0.7957747E-01  0.3427849E+00
         13   -1    0    0    0    0  0.00000000000E+00  0.00000000000E+00  0.14999999963E+04  0.15000000000E+04  0.10566000000E+00 0.  1.
        994   -1    0    0    0    0 -0.00000000000E+00 -0.00000000000E+00  0.11368683772E-12  0.17120000000E+03  0.17120000000E+03 0.  0.
         13    1    1    2    0    0 -0.37869609592E+01 -0.10130831832E+02  0.41241056604E+02  0.42635791780E+02  0.10566000000E+00 0.  1.
        994    1    1    2    0    0 -0.40096247734E+00  0.86189339649E+01  0.16611858969E+01  0.17142533749E+03  0.17120000000E+03 0.  0.
        998    1    1    2    0    0  0.41879234366E+01  0.15118978669E+01  0.14570977538E+04  0.14571388707E+04  0.10000000000E+02 0.  1.
</event>
<event>
 5    1  0.1364103E-008  0.3825424E+03  0.7957747E-01  0.3440162E+00
         13   -1    0    0    0    0  0.00000000000E+00  0.00000000000E+00  0.14999999963E+04  0.15000000000E+04  0.10566000000E+00 0. -1.
        994   -1    0    0    0    0 -0.00000000000E+00 -0.00000000000E+00  0.11368683772E-12  0.17120000000E+03  0.17120000000E+03 0.  0.
         13    1    1    2    0    0 -0.20072565436E+02  0.86899434852E+01  0.83799031270E+02  0.86606649899E+02  0.10566000000E+00 0. -1.
        994    1    1    2    0    0  0.87087042584E+01 -0.96890806065E+01  0.34180408932E+01  0.17172898071E+03  0.17120000000E+03 0.  0.
        998    1    1    2    0    0  0.11363861177E+02  0.99913712135E+00  0.14127829241E+04  0.14128643694E+04  0.10000000000E+02 0. -1.
</event>
<event>
 5    1  0.1364103E-008  0.3836781E+03  0.7957747E-01  0.3435298E+00
         13   -1    0    0    0    0  0.00000000000E+00  0.00000000000E+00  0.14999999963E+04  0.15000000000E+04  0.10566000000E+00 0. -1.
        994   -1    0    0    0    0 -0.00000000000E+00 -0.00000000000E+00  0.11368683772E-12  0.17120000000E+03  0.17120000000E+03 0.  0.
         13    1    1    2    0    0  0.16917214530E+02 -0.11813594409E+02  0.95541298253E+02  0.97744073970E+02  0.10566000000E+00 0. -1.
        994    1    1    2    0    0 -0.81876145698E+01  0.24024690661E+01  0.25283578687E+01  0.17143115669E+03  0.17120000000E+03 0.  0.
        998    1    1    2    0    0 -0.87295999605E+01  0.94111253425E+01  0.14019303402E+04  0.14020247693E+04  0.10000000000E+02 0. -1.
</event>
<event>
 5    1  0.1364103E-008  0.3806616E+03  0.7957747E-01  0.3448283E+00
         13   -1    0    0    0    0  0.00000000000E+00  0.00000000000E+00  0.14999999963E+04  0.15000000000E+04  0.10566000000E+00 0. -1.
        994   -1    0    0    0    0 -0.00000000000E+00 -0.00000000000E+00  0.11368683772E-12  0.17120000000E+03  0.17120000000E+03 0.  0.
         13    1    1    2    0    0 -0.26015139385E+02 -0.49063287967E+01  0.83200891324E+02  0.87311276595E+02  0.10566000000E+00 0. -1.
        994    1    1    2    0    0  0.38540557610E+02 -0.15409080998E+02  0.95676463932E+01  0.17641937030E+03  0.17120000000E+03 0.  0.
        998    1    1    2    0    0 -0.12525418225E+02  0.20315409794E+02  0.14072314586E+04  0.14074693531E+04  0.10000000000E+02 0. -1.
</event>
<event>
 5    1  0.1364103E-008  0.3852114E+03  0.7957747E-01  0.3428776E+00
         13   -1    0    0    0    0  0.00000000000E+00  0.00000000000E+00  0.14999999963E+04  0.15000000000E+04  0.10566000000E+00 0. -1.
        994   -1    0    0    0    0 -0.00000000000E+00 -0.00000000000E+00  0.11368683772E-12  0.17120000000E+03  0.17120000000E+03 0.  0.
         13    1    1    2    0    0  0.33515804557E+01  0.13560429898E+02  0.58249600271E+02  0.59901130593E+02  0.10566000000E+00 0. -1.
        994    1    1    2    0    0 -0.11465900869E+02 -0.22899573595E+02  0.36835722850E+01  0.17314406157E+03  0.17120000000E+03 0.  0.
        998    1    1    2    0    0  0.81143204137E+01  0.93391436969E+01  0.14380668237E+04  0.14381548078E+04  0.10000000000E+02 0. -1.
</event>
<event>
 5    1  0.1364103E-008  0.3792990E+03  0.7957747E-01  0.3454216E+00
         13   -1    0    0    0    0  0.00000000000E+00  0.00000000000E+00  0.14999999963E+04  0.15000000000E+04  0.10566000000E+00 0. -1.
        994   -1    0    0    0    0 -0.00000000000E+00 -0.00000000000E+00  0.11368683772E-12  0.17120000000E+03  0.17120000000E+03 0.  0.
         13    1    1    2    0    0 -0.20996178219E+02 -0.19028835596E+02  0.93469798193E+02  0.97670622104E+02  0.10566000000E+00 0. -1.
        994    1    1    2    0    0 -0.13309404753E+01  0.84839676195E+01  0.47345612249E+01  0.17148062625E+03  0.17120000000E+03 0.  0.
        998    1    1    2    0    0  0.22327118694E+02  0.10544867976E+02  0.14017956369E+04  0.14020487516E+04  0.10000000000E+02 0. -1.
</event>
<event>
 5    1  0.1364103E-008  0.3854141E+03  0.7957747E-01  0.3427918E+00
         13   -1    0    0    0    0  0.00000000000E+00  0.00000000000E+00  0.14999999963E+04  0.15000000000E+04  0.10566000000E+00 0.  1.
        994   -1    0    0    0    0 -0.00000000000E+00 -0.00000000000E+00  0.11368683772E-12  0.17120000000E+03  0.17120000000E+03 0.  0.
         13    1    1    2    0    0 -0.93767984164E+00 -0.15738277262E+02  0.88903145499E+02  0.90290381871E+02  0.10566000000E+00 0.  1.
        994    1    1    2    0    0 -0.47980933613E+01  0.86999218635E+01  0.17489204312E+01  0.17149696517E+03  0.17120000000E+03 0.  0.
        998    1    1    2    0    0  0.57357732029E+01  0.70383553984E+01  0.14093479303E+04  0.14094126530E+04  0.10000000000E+02 0.  1.
</event>
<event>
 5    1  0.1364103E-008  0.3803646E+03  0.7957747E-01  0.3449572E+00
         13   -1    0    0    0    0  0.00000000000E+00  0.00000000000E+00  0.14999999963E+04  0.15000000000E+04  0.10566000000E+00 0.  1.
        994   -1    0    0    0    0 -0.00000000000E+00 -0.00000000000E+00  0.11368683772E-12  0.17120000000E+03  0.17120000000E+03 0.  0.
         13    1    1    2    0    0 -0.26208629792E+02  0.39070279430E+00  0.77470730312E+02  0.81784901683E+02  0.10566000000E+00 0.  1.
        994    1    1    2    0    0  0.37883629842E+02 -0.92139900423E+01  0.90412495898E+01  0.17581595837E+03  0.17120000000E+03 0.  0.
        998    1    1    2    0    0 -0.11675000051E+02  0.88232872480E+01  0.14134880164E+04  0.14135991399E+04  0.10000000000E+02 0.  1.
</event>
<event>
 5    1  0.1364103E-008  0.3825590E+03  0.7957747E-01  0.3440091E+00
         13   -1    0    0    0    0  0.00000000000E+00  0.00000000000E+00  0.14999999963E+04  0.15000000000E+04  0.10566000000E+00 0. -1.
        994   -1    0    0    0    0 -0.00000000000E+00 -0.00000000000E+00  0.11368683772E-12  0.17120000000E+03  0.17120000000E+03 0.  0.
         13    1    1    2    0    0 -0.20513380455E+02 -0.62198628944E+01  0.83547758980E+02  0.86253838562E+02  0.10566000000E+00 0. -1.
        994    1    1    2    0    0  0.37261348450E+01  0.62241984285E+01  0.30213950696E+01  0.17138026011E+03  0.17120000000E+03 0.  0.
        998    1    1    2    0    0  0.16787245610E+02 -0.43355341870E-02  0.14134308422E+04  0.14135659013E+04  0.10000000000E+02 0. -1.
</event>
<event>
 5    1  0.1364103E-008  0.3838194E+03  0.7957747E-01  0.3434695E+00
         13   -1    0    0    0    0  0.00000000000E+00  0.00000000000E+00  0.14999999963E+04  0.15000000000E+04  0.10566000000E+00 0. -1.
        994   -1    0    0    0    0 -0.00000000000E+00 -0.00000000000E+00  0.11368683772E-12  0.17120000000E+03  0.17120000000E+03 0.  0.
         13    1    1    2    0    0 -0.42523351239E+01 -0.15869680607E+02  0.59750811407E+02  0.61968538343E+02  0.10566000000E+00 0. -1.
        994    1    1    2    0    0 -0.12103709307E+01  0.13464407340E+02  0.28209856524E+01  0.17175608642E+03  0.17120000000E+03 0.  0.
        998    1    1    2    0    0  0.54627060546E+01  0.24052732669E+01  0.14374281992E+04  0.14374753752E+04  0.10000000000E+02 0. -1.
</event>
<event>
 5    1  0.1364103E-008  0.3824271E+03  0.7957747E-01  0.3440658E+00
         13   -1    0    0    0    0  0.00000000000E+00  0.00000000000E+00  0.14999999963E+04  0.15000000000E+04  0.10566000000E+00 0.  1.
        994   -1    0    0    0    0 -0.00000000000E+00 -0.00000000000E+00  0.11368683772E-12  0.17120000000E+03  0.17120000000E+03 0.  0.
         13    1    1    2    0    0 -0.65705242570E+01  0.20272925938E+02  0.83123574430E+02  0.85812021916E+02  0.10566000000E+00 0.  1.
        994    1    1    2    0    0  0.79115321252E+01  0.27593122910E+01  0.31458323201E+01  0.17143378432E+03  0.17120000000E+03 0.  0.
        998    1    1    2    0    0 -0.13410078682E+01 -0.23032238229E+02  0.14137305895E+04  0.14139541938E+04  0.10000000000E+02 0.  1.
</event>
<event>
 5    1  0.1364103E-008  0.3695412E+03  0.7957747E-01  0.3498002E+00
         13   -1    0    0    0    0  0.00000000000E+00  0.00000000000E+00  0.14999999963E+04  0.15000000000E+04  0.10566000000E+00 0. -1.
        994   -1    0    0    0    0 -0.00000000000E+00 -0.00000000000E+00  0.11368683772E-12  0.17120000000E+03  0.17120000000E+03 0.  0.
         13    1    1    2    0    0  0.11296969767E+02  0.71758163961E+02  0.24666560256E+03  0.25713962408E+03  0.10566000000E+00 0. -1.
        994    1    1    2    0    0  0.35918812107E+01 -0.62331714069E+02  0.23132747475E+02  0.18369188386E+03  0.17120000000E+03 0.  0.
        998    1    1    2    0    0 -0.14888850978E+02 -0.94264498917E+01  0.12302016462E+04  0.12303684921E+04  0.10000000000E+02 0. -1.
</event>
<event>
 5    1  0.1364103E-008  0.3951156E+03  0.7957747E-01  0.3387872E+00
         13   -1    0    0    0    0  0.00000000000E+00  0.00000000000E+00  0.14999999963E+04  0.15000000000E+04  0.10566000000E+00 0. -1.
        994   -1    0    0    0    0 -0.00000000000E+00 -0.00000000000E+00  0.11368683772E-12  0.17120000000E+03  0.17120000000E+03 0.  0.
         13    1    1    2    0    0  0.12051027291E+03  0.25917941298E+02  0.24867206643E+03  0.27754688494E+03  0.10566000000E+00 0. -1.
        994    1    1    2    0    0 -0.11795169756E+03 -0.18614287461E+02  0.82004969574E+02  0.22426178830E+03  0.17120000000E+03 0.  0.
        998    1    1    2    0    0 -0.25585753515E+01 -0.73036538368E+01  0.11693229603E+04  0.11693913268E+04  0.10000000000E+02 0. -1.
</event>
<event>
 5    1  0.1364103E-008  0.3771768E+03  0.7957747E-01  0.3463544E+00
         13   -1    0    0    0    0  0.00000000000E+00  0.00000000000E+00  0.14999999963E+04  0.15000000000E+04  0.10566000000E+00 0.  1.
        994   -1    0    0    0    0 -0.00000000000E+00 -0.00000000000E+00  0.11368683772E-12  0.17120000000E+03  0.17120000000E+03 0.  0.
         13    1    1    2    0    0 -0.44964349076E+02 -0.24130607748E+02  0.19365137568E+03  0.20026219160E+03  0.10566000000E+00 0.  1.
        994    1    1    2    0    0  0.43136859189E+02  0.44378900089E+02  0.18601143496E+02  0.18299103238E+03  0.17120000000E+03 0.  0.
        998    1    1    2    0    0  0.18274898878E+01 -0.20248292341E+02  0.12877474771E+04  0.12879467760E+04  0.10000000000E+02 0.  1.
</event>
<event>
 5    1  0.1364103E-008  0.3826173E+03  0.7957747E-01  0.3439841E+00
         13   -1    0    0    0    0  0.00000000000E+00  0.00000000000E+00  0.14999999963E+04  0.15000000000E+04  0.10566000000E+00 0. -1.
        994   -1    0    0    0    0 -0.00000000000E+00 -0.00000000000E+00  0.11368683772E-12  0.17120000000E+03  0.17120000000E+03 0.  0.
         13    1    1    2    0    0  0.44133053930E+00 -0.21875695728E+02  0.83131905405E+02  0.85963164766E+02  0.10566000000E+00 0. -1.
        994    1    1    2    0    0 -0.37680460200E+01  0.15761337012E+02  0.36886154835E+01  0.17200483656E+03  0.17120000000E+03 0.  0.
        998    1    1    2    0    0  0.33267154807E+01  0.61143587154E+01  0.14131794754E+04  0.14132319987E+04  0.10000000000E+02 0. -1.
</event>
<event>
 5    1  0.1364103E-008  0.3800353E+03  0.7957747E-01  0.3451005E+00
         13   -1    0    0    0    0  0.00000000000E+00  0.00000000000E+00  0.14999999963E+04  0.15000000000E+04  0.10566000000E+00 0.  1.
        994   -1    0    0    0    0 -0.00000000000E+00 -0.00000000000E+00  0.11368683772E-12  0.17120000000E+03  0.17120000000E+03 0.  0.
         13    1    1    2    0    0 -0.25964808769E+02  0.44936030691E+02  0.26340463156E+03  0.26846867460E+03  0.10566000000E+00 0.  1.
        994    1    1    2    0    0  0.22893774529E+02 -0.50361713183E+02  0.14413558279E+02  0.18049270824E+03  0.17120000000E+03 0.  0.
        998    1    1    2    0    0  0.30710342395E+01  0.54256824919E+01  0.12221818064E+04  0.12222386172E+04  0.10000000000E+02 0.  1.
</event>
<event>
 5    1  0.1364103E-008  0.3822555E+03  0.7957747E-01  0.3441396E+00
         13   -1    0    0    0    0  0.00000000000E+00  0.00000000000E+00  0.14999999963E+04  0.15000000000E+04  0.10566000000E+00 0. -1.
        994   -1    0    0    0    0 -0.00000000000E+00 -0.00000000000E+00  0.11368683772E-12  0.17120000000E+03  0.17120000000E+03 0.  0.
         13    1    1    2    0    0  0.39263391470E+00  0.15008344303E+02  0.36621330207E+02  0.39579509222E+02  0.10566000000E+00 0. -1.
        994    1    1    2    0    0 -0.18552331055E+01 -0.94068020728E+01  0.33040027418E+01  0.17150010568E+03  0.17120000000E+03 0.  0.
        998    1    1    2    0    0  0.14625991908E+01 -0.56015422302E+01  0.14600746633E+04  0.14601203851E+04  0.10000000000E+02 0. -1.
</event>
<event>
 5    1  0.1364103E-008  0.3881485E+03  0.7957747E-01  0.3416428E+00
         13   -1    0    0    0    0  0.00000000000E+00  0.00000000000E+00  0.14999999963E+04  0.15000000000E+04  0.10566000000E+00 0. -1.
        994   -1    0    0    0    0 -0.00000000000E+00 -0.00000000000E+00  0.11368683772E-12  0.17120000000E+03  0.17120000000E+03 0.  0.
         13    1    1    2    0    0 -0.39404573453E+02  0.43394902155E+02  0.81161137382E+02  0.10011483071E+03  0.10566000000E+00 0. -1.
        994    1    1    2    0    0 -0.14655057139E+01 -0.20619673624E+02  0.22475049718E+02  0.17390194509E+03  0.17120000000E+03 0.  0.
        998    1    1    2    0    0  0.40870079167E+02 -0.22775228532E+02  0.13963638092E+04  0.13971832242E+04  0.10000000000E+02 0. -1.
</event>
<event>
 5    1  0.1364103E-008  0.3802846E+03  0.7957747E-01  0.3449920E+00
         13   -1    0    0    0    0  0.00000000000E+00  0.00000000000E+00  0.14999999963E+04  0.15000000000E+04  0.10566000000E+00 0. -1.
        994   -1    0    0    0    0 -0.00000000000E+00 -0.00000000000E+00  0.11368683772E-12  0.17120000000E+03  0.17120000000E+03 0.  0.
         13    1    1    2    0    0  0.43595805675E+01 -0.18692970764E+02  0.44478188775E+02  0.48443302318E+02  0.10566000000E+00 0. -1.
        994    1    1    2    0    0  0.12519141118E+01  0.14568885299E+02  0.47040031870E+01  0.17188771729E+03  0.17120000000E+03 0.  0.
        998    1    1    2    0    0 -0.56114946792E+01  0.41240854653E+01  0.14508178043E+04  0.14508689804E+04  0.10000000000E+02 0. -1.
</event>
<event>
 5    1  0.1364103E-008  0.3841118E+03  0.7957747E-01  0.3433448E+00
         13   -1    0    0    0    0  0.00000000000E+00  0.00000000000E+00  0.14999999963E+04  0.15000000000E+04  0.10566000000E+00 0.  1.
        994   -1    0    0    0    0 -0.00000000000E+00 -0.00000000000E+00  0.11368683772E-12  0.17120000000E+03  0.17120000000E+03 0.  0.
         13    1    1    2    0    0 -0.28390785580E+02  0.83294946133E+01  0.16217493104E+03  0.16485186261E+03  0.10566000000E+00 0.  1.
        994    1    1    2    0    0  0.41598552130E+02 -0.31052435911E+02  0.11010385620E+02  0.17923549288E+03  0.17120000000E+03 0.  0.
        998    1    1    2    0    0 -0.13207766550E+02  0.22722941298E+02  0.13268146796E+04  0.13271126445E+04  0.10000000000E+02 0.  1.
</event>
<event>
 5    1  0.1364103E-008  0.3676609E+03  0.7957747E-01  0.3506710E+00
         13   -1    0    0    0    0  0.00000000000E+00  0.00000000000E+00  0.14999999963E+04  0.15000000000E+04  0.10566000000E+00 0.  1.
        994   -1    0    0    0    0 -0.00000000000E+00 -0.00000000000E+00  0.11368683772E-12  0.17120000000E+03  0.17120000000E+03 0.  0.
         13    1    1    2    0    0 -0.88592767369E+02  0.21957083834E+03  0.12046802753E+04  0.12277274161E+04  0.10566000000E+00 0.  1.
        994    1    1    2    0    0  0.48947745643E+02 -0.20833216173E+03  0.20039693240E+03  0.33950926634E+03  0.17120000000E+03 0.  0.
        998    1    1    2    0    0  0.39645021726E+02 -0.11238676618E+02  0.94922788621E+02  0.10396331757E+03  0.10000000000E+02 0.  1.
</event>
<event>
 5    1  0.1364103E-008  0.3742335E+03  0.7957747E-01  0.3476658E+00
         13   -1    0    0    0    0  0.00000000000E+00  0.00000000000E+00  0.14999999963E+04  0.15000000000E+04  0.10566000000E+00 0. -1.
        994   -1    0    0    0    0 -0.00000000000E+00 -0.00000000000E+00  0.11368683772E-12  0.17120000000E+03  0.17120000000E+03 0.  0.
         13    1    1    2    0    0  0.38592264198E+02 -0.59016158229E+01  0.11244672107E+03  0.11903137473E+03  0.10566000000E+00 0. -1.
        994    1    1    2    0    0 -0.94826903452E+01 -0.41150654558E+01  0.74371302836E+01  0.17167296260E+03  0.17120000000E+03 0.  0.
        998    1    1    2    0    0 -0.29109573853E+02  0.10016681279E+02  0.13801161449E+04  0.13804956627E+04  0.10000000000E+02 0. -1.
</event>
<event>
 5    1  0.1364103E-008  0.2795188E+03  0.7957747E-01  0.4054036E+00
         13   -1    0    0    0    0  0.00000000000E+00  0.00000000000E+00  0.14999999963E+04  0.15000000000E+04  0.10566000000E+00 0.  1.
        994   -1    0    0    0    0 -0.00000000000E+00 -0.00000000000E+00  0.11368683772E-12  0.17120000000E+03  0.17120000000E+03 0.  0.
         13    1    1    2    0    0  0.18260679610E+03 -0.41883793343E+01  0.50100634977E+03  0.53326368541E+03  0.10566000000E+00 0.  1.
        994    1    1    2    0    0 -0.17429926659E+03  0.41783261281E+01  0.14559388939E+03  0.28443753861E+03  0.17120000000E+03 0.  0.
        998    1    1    2    0    0 -0.83075295154E+01  0.10053206284E-01  0.85339975712E+03  0.85349877598E+03  0.10000000000E+02 0.  1.
</event>
<event>
 5    1  0.1364103E-008  0.3847517E+03  0.7957747E-01  0.3430726E+00
         13   -1    0    0    0    0  0.00000000000E+00  0.00000000000E+00  0.14999999963E+04  0.15000000000E+04  0.10566000000E+00 0. -1.
        994   -1    0    0    0    0 -0.00000000000E+00 -0.00000000000E+00  0.11368683772E-12  0.17120000000E+03  0.17120000000E+03 0.  0.
         13    1    1    2    0    0  0.13516430083E+02  0.43456051974E+02  0.26633856280E+03  0.27019874821E+03  0.10566000000E+00 0. -1.
        994    1    1    2    0    0 -0.44531532925E+02 -0.89467927686E+02  0.35347386567E+02  0.20136147905E+03  0.17120000000E+03 0.  0.
        998    1    1    2    0    0  0.31015102842E+02  0.46011875712E+02  0.11983140469E+04  0.11996397727E+04  0.10000000000E+02 0. -1.
</event>
<event>
 5    1  0.1364103E-008  0.3813282E+03  0.7957747E-01  0.3445395E+00
         13   -1    0    0    0    0  0.00000000000E+00  0.00000000000E+00  0.14999999963E+04  0.15000000000E+04  0.10566000000E+00 0. -1.
        994   -1    0    0    0    0 -0.00000000000E+00 -0.00000000000E+00  0.11368683772E-12  0.17120000000E+03  0.17120000000E+03 0.  0.
         13    1    1    2    0    0  0.23223955235E+02  0.41960176342E+01  0.74552255453E+02  0.78198520561E+02  0.10566000000E+00 0. -1.
        994    1    1    2    0    0 -0.29515732120E+02  0.82412106410E+01  0.65960552116E+01  0.17404609717E+03  0.17120000000E+03 0.  0.
        998    1    1    2    0    0  0.62917768856E+01 -0.12437228275E+02  0.14188516856E+04  0.14189553823E+04  0.10000000000E+02 0. -1.
</event>
<event>
 5    1  0.1364103E-008  0.3830909E+03  0.7957747E-01  0.3437809E+00
         13   -1    0    0    0    0  0.00000000000E+00  0.00000000000E+00  0.14999999963E+04  0.15000000000E+04  0.10566000000E+00 0.  1.
        994   -1    0    0    0    0 -0.00000000000E+00 -0.00000000000E+00  0.11368683772E-12  0.17120000000E+03  0.17120000000E+03 0.  0.
         13    1    1    2    0    0  0.98465399940E+01  0.48538042844E+01  0.22687126343E+02  0.25203782090E+02  0.10566000000E+00 0.  1.
        994    1    1    2    0    0 -0.70691632009E+01  0.52419457636E+01  0.28372687884E+01  0.17144952948E+03  0.17120000000E+03 0.  0.
        998    1    1    2    0    0 -0.27773767932E+01 -0.10095750048E+02  0.14744756011E+04  0.14745466884E+04  0.10000000000E+02 0.  1.
</event>
<event>
 5    1  0.1364103E-008  0.3852241E+03  0.7957747E-01  0.3428722E+00
         13   -1    0    0    0    0  0.00000000000E+00  0.00000000000E+00  0.14999999963E+04  0.15000000000E+04  0.10566000000E+00 0.  1.
        994   -1    0    0    0    0 -0.00000000000E+00 -0.00000000000E+00  0.11368683772E-12  0.17120000000E+03  0.17120000000E+03 0.  0.
         13    1    1    2    0    0  0.20745233651E+01 -0.13490349321E+02  0.60252385744E+02  0.61779076749E+02  0.10566000000E+00 0.  1.
        994    1    1    2    0    0 -0.33578953331E+01  0.11820112250E+02  0.20152474736E+01  0.17165224070E+03  0.17120000000E+03 0.  0.
        998    1    1    2    0    0  0.12833719680E+01  0.16702370714E+01  0.14377323631E+04  0.14377686826E+04  0.10000000000E+02 0.  1.
</event>
<event>
 5    1  0.1364103E-008  0.3788904E+03  0.7957747E-01  0.3456004E+00
         13   -1    0    0    0    0  0.00000000000E+00  0.00000000000E+00  0.14999999963E+04  0.15000000000E+04  0.10566000000E+00 0. -1.
        994   -1    0    0    0    0 -0.00000000000E+00 -0.00000000000E+00  0.11368683772E-12  0.17120000000E+03  0.17120000000E+03 0.  0.
         13    1    1    2    0    0 -0.10359192003E+02 -0.24311598410E+01  0.10073375109E+02  0.14652898937E+02  0.10566000000E+00 0. -1.
        994    1    1    2    0    0  0.35596840284E+01 -0.22087051163E+01  0.47531966491E+01  0.17131719881E+03  0.17120000000E+03 0.  0.
        998    1    1    2    0    0  0.67995079742E+01  0.46398649573E+01  0.14851734245E+04  0.14852299023E+04  0.10000000000E+02 0. -1.
</event>
<event>
 5    1  0.1364103E-008  0.3784666E+03  0.7957747E-01  0.3457863E+00
         13   -1    0    0    0    0  0.00000000000E+00  0.00000000000E+00  0.14999999963E+04  0.15000000000E+04  0.10566000000E+00 0. -1.
        994   -1    0    0    0    0 -0.00000000000E+00 -0.00000000000E+00  0.11368683772E-12  0.17120000000E+03  0.17120000000E+03 0.  0.
         13    1    1    2    0    0 -0.17678955910E+02 -0.23519709735E+02  0.79626318032E+02  0.84888655988E+02  0.10566000000E+00 0. -1.
        994    1    1    2    0    0  0.19591443327E+02  0.31977835556E+02  0.96492241181E+01  0.17552479638E+03  0.17120000000E+03 0.  0.
        998    1    1    2    0    0 -0.19124874171E+01 -0.84581258209E+01  0.14107244541E+04  0.14107865476E+04  0.10000000000E+02 0. -1.
</event>
<event>
 5    1  0.1364103E-008  0.3758397E+03  0.7957747E-01  0.3469476E+00
         13   -1    0    0    0    0  0.00000000000E+00  0.00000000000E+00  0.14999999963E+04  0.15000000000E+04  0.10566000000E+00 0. -1.
        994   -1    0    0    0    0 -0.00000000000E+00 -0.00000000000E+00  0.11368683772E-12  0.17120000000E+03  0.17120000000E+03 0.  0.
         13    1    1    2    0    0  0.16510568950E+02  0.51985131663E+01  0.21961858369E+02  0.27963508601E+02  0.10566000000E+00 0. -1.
        994    1    1    2    0    0 -0.14394567495E+01  0.36968169807E+01  0.63015243271E+01  0.17136186186E+03  0.17120000000E+03 0.  0.
        998    1    1    2    0    0 -0.15071112200E+02 -0.88953301470E+01  0.14717366136E+04  0.14718746295E+04  0.10000000000E+02 0. -1.
</event>
<event>
 5    1  0.1707358E-008  0.3862404E+03  0.7957747E-01  0.3424429E+00
         13   -1    0    0    0    0  0.00000000000E+00  0.00000000000E+00  0.14999999963E+04  0.15000000000E+04  0.10566000000E+00 0. -1.
        994   -1    0    0    0    0 -0.00000000000E+00 -0.00000000000E+00  0.11368683772E-12  0.17120000000E+03  0.17120000000E+03 0.  0.
         13    1    1    2    0    0 -0.47885278748E+01  0.89506369086E+01  0.53052409556E+02  0.54014935194E+02  0.10566000000E+00 0. -1.
        994    1    1    2    0    0 -0.33742097100E+01 -0.51288153705E+01  0.11390243876E+01  0.17131382727E+03  0.17120000000E+03 0.  0.
        998    1    1    2    0    0  0.81627375848E+01 -0.38218215381E+01  0.14458085623E+04  0.14458712375E+04  0.10000000000E+02 0. -1.
</event>
<event>
 5    1  0.1364103E-008  0.3806367E+03  0.7957747E-01  0.3448391E+00
         13   -1    0    0    0    0  0.00000000000E+00  0.00000000000E+00  0.14999999963E+04  0.15000000000E+04  0.10566000000E+00 0. -1.
        994   -1    0    0    0    0 -0.00000000000E+00 -0.00000000000E+00  0.11368683772E-12  0.17120000000E+03  0.17120000000E+03 0.  0.
         13    1    1    2    0    0 -0.44519743618E+01 -0.11861104145E+02  0.18972341842E+02  0.22813741172E+02  0.10566000000E+00 0. -1.
        994    1    1    2    0    0  0.96006526276E+01  0.16164414905E+02  0.49920646240E+01  0.17230154250E+03  0.17120000000E+03 0.  0.
        998    1    1    2    0    0 -0.51486782658E+01 -0.43033107595E+01  0.14760355898E+04  0.14760847163E+04  0.10000000000E+02 0. -1.
</event>
<event>
 5    1  0.2479562E-008  0.3862978E+03  0.7957747E-01  0.3424187E+00
         13   -1    0    0    0    0  0.00000000000E+00  0.00000000000E+00  0.14999999963E+04  0.15000000000E+04  0.10566000000E+00 0.  1.
        994   -1    0    0    0    0 -0.00000000000E+00 -0.00000000000E+00  0.11368683772E-12  0.17120000000E+03  0.17120000000E+03 0.  0.
         13    1    1    2    0    0  0.48631061206E+01 -0.96739562290E+01  0.57240326685E+02  0.58255483804E+02  0.10566000000E+00 0.  1.
        994    1    1    2    0    0 -0.49220981792E+01  0.13701683413E+02  0.16816442895E+01  0.17182616537E+03  0.17120000000E+03 0.  0.
        998    1    1    2    0    0  0.58992058662E-01 -0.40277271839E+01  0.14410780253E+04  0.14411183508E+04  0.10000000000E+02 0.  1.
</event>
<event>
 5    1  0.1364103E-008  0.3814172E+03  0.7957747E-01  0.3445011E+00
         13   -1    0    0    0    0  0.00000000000E+00  0.00000000000E+00  0.14999999963E+04  0.15000000000E+04  0.10566000000E+00 0. -1.
        994   -1    0    0    0    0 -0.00000000000E+00 -0.00000000000E+00  0.11368683772E-12  0.17120000000E+03  0.17120000000E+03 0.  0.
         13    1    1    2    0    0  0.16725069606E+02  0.22547635654E+01  0.40710298837E+02  0.44069848054E+02  0.10566000000E+00 0. -1.
        994    1    1    2    0    0 -0.76272196653E+01 -0.12486240070E+02  0.41320887425E+01  0.17187377586E+03  0.17120000000E+03 0.  0.
        998    1    1    2    0    0 -0.90978499406E+01  0.10231476505E+02  0.14551576087E+04  0.14552563761E+04  0.10000000000E+02 0. -1.
</event>
<event>
 5    1  0.1364103E-008  0.3850383E+03  0.7957747E-01  0.3429510E+00
         13   -1    0    0    0    0  0.00000000000E+00  0.00000000000E+00  0.14999999963E+04  0.15000000000E+04  0.10566000000E+00 0. -1.
        994   -1    0    0    0    0 -0.00000000000E+00 -0.00000000000E+00  0.11368683772E-12  0.17120000000E+03  0.17120000000E+03 0.  0.
         13    1    1    2    0    0 -0.57062951026E+01 -0.15510730532E+02  0.79513818167E+02  0.81213317928E+02  0.10566000000E+00 0. -1.
        994    1    1    2    0    0  0.10784817134E+02  0.17429231122E+02  0.29936860974E+01  0.17244852140E+03  0.17120000000E+03 0.  0.
        998    1    1    2    0    0 -0.50785220311E+01 -0.19185005906E+01  0.14174924920E+04  0.14175381607E+04  0.10000000000E+02 0. -1.
</event>
<event>
 5    1  0.1364103E-008  0.3798449E+03  0.7957747E-01  0.3451834E+00
         13   -1    0    0    0    0  0.00000000000E+00  0.00000000000E+00  0.14999999963E+04  0.15000000000E+04  0.10566000000E+00 0.  1.
        994   -1    0    0    0    0 -0.00000000000E+00 -0.00000000000E+00  0.11368683772E-12  0.17120000000E+03  0.17120000000E+03 0.  0.
         13    1    1    2    0    0 -0.81313131131E+01  0.71747049127E+01  0.12070613488E+02  0.16226691515E+02  0.10566000000E+00 0.  1.
        994    1    1    2    0    0  0.69941194827E+01 -0.63869880355E+01  0.45115770852E+01  0.17152115220E+03  0.17120000000E+03 0.  0.
        998    1    1    2    0    0  0.11371936304E+01 -0.78771687715E+00  0.14834178057E+04  0.14834521563E+04  0.10000000000E+02 0.  1.
</event>
<event>
 5    1  0.1364103E-008  0.3833720E+03  0.7957747E-01  0.3436606E+00
         13   -1    0    0    0    0  0.00000000000E+00  0.00000000000E+00  0.14999999963E+04  0.15000000000E+04  0.10566000000E+00 0.  1.
        994   -1    0    0    0    0 -0.00000000000E+00 -0.00000000000E+00  0.11368683772E-12  0.17120000000E+03  0.17120000000E+03 0.  0.
         13    1    1    2    0    0 -0.42329076691E+01 -0.22643192442E+02  0.65454457964E+01  0.23947561379E+02  0.10566000000E+00 0.  1.
        994    1    1    2    0    0  0.24187384759E+01  0.23441295365E+02  0.20231973965E+02  0.17399459013E+03  0.17120000000E+03 0.  0.
        998    1    1    2    0    0  0.18141691931E+01 -0.79810292364E+00  0.14732225765E+04  0.14732578485E+04  0.10000000000E+02 0.  1.
</event>
<event>
 5    1  0.1364103E-008  0.3841154E+03  0.7957747E-01  0.3433432E+00
         13   -1    0    0    0    0  0.00000000000E+00  0.00000000000E+00  0.14999999963E+04  0.15000000000E+04  0.10566000000E+00 0. -1.
        994   -1    0    0    0    0 -0.00000000000E+00 -0.00000000000E+00  0.11368683772E-12  0.17120000000E+03  0.17120000000E+03 0.  0.
         13    1    1    2    0    0  0.13449286583E+02 -0.33477259785E+01  0.46716407300E+02  0.48729092479E+02  0.10566000000E+00 0. -1.
        994    1    1    2    0    0 -0.58458315723E+01  0.84206071861E+00  0.21850022495E+01  0.17131578167E+03  0.17120000000E+03 0.  0.
        998    1    1    2    0    0 -0.76034550103E+01  0.25056652599E+01  0.14510985867E+04  0.14511551259E+04  0.10000000000E+02 0. -1.
</event>
<event>
 5    1  0.1640194E-008  0.3861345E+03  0.7957747E-01  0.3424875E+00
         13   -1    0    0    0    0  0.00000000000E+00  0.00000000000E+00  0.14999999963E+04  0.15000000000E+04  0.10566000000E+00 0. -1.
        994   -1    0    0    0    0 -0.00000000000E+00 -0.00000000000E+00  0.11368683772E-12  0.17120000000E+03  0.17120000000E+03 0.  0.
         13    1    1    2    0    0  0.81702844393E+01  0.63832106788E+01  0.51888080376E+02  0.52913920432E+02  0.10566000000E+00 0. -1.
        994    1    1    2    0    0 -0.65302769929E+01  0.78898150071E+00  0.12096853008E+01  0.17133058789E+03  0.17120000000E+03 0.  0.
        998    1    1    2    0    0 -0.16400074464E+01 -0.71721921795E+01  0.14469022306E+04  0.14469554917E+04  0.10000000000E+02 0. -1.
</event>
<event>
 5    1  0.1364103E-008  0.3815597E+03  0.7957747E-01  0.3444395E+00
         13   -1    0    0    0    0  0.00000000000E+00  0.00000000000E+00  0.14999999963E+04  0.15000000000E+04  0.10566000000E+00 0. -1.
        994   -1    0    0    0    0 -0.00000000000E+00 -0.00000000000E+00  0.11368683772E-12  0.17120000000E+03  0.17120000000E+03 0.  0.
         13    1    1    2    0    0 -0.53186425843E+01 -0.26488297432E+02  0.10055723788E+03  0.10412342251E+03  0.10566000000E+00 0. -1.
        994    1    1    2    0    0  0.31613013276E+01  0.29022285318E+02  0.61875504660E+01  0.17378150837E+03  0.17120000000E+03 0.  0.
        998    1    1    2    0    0  0.21573412568E+01 -0.25339878853E+01  0.13932552079E+04  0.13932950691E+04  0.10000000000E+02 0. -1.
</event>
<event>
 5    1  0.1364103E-008  0.3759326E+03  0.7957747E-01  0.3469062E+00
         13   -1    0    0    0    0  0.00000000000E+00  0.00000000000E+00  0.14999999963E+04  0.15000000000E+04  0.10566000000E+00 0.  1.
        994   -1    0    0    0    0 -0.00000000000E+00 -0.00000000000E+00  0.11368683772E-12  0.17120000000E+03  0.17120000000E+03 0.  0.
         13    1    1    2    0    0  0.56577275475E+02 -0.98225632679E+01  0.25427301673E+03  0.26067652186E+03  0.10566000000E+00 0.  1.
        994    1    1    2    0    0 -0.40358376937E+02 -0.78679534703E+01  0.11951147822E+02  0.17647371820E+03  0.17120000000E+03 0.  0.
        998    1    1    2    0    0 -0.16218898538E+02  0.17690516738E+02  0.12337758317E+04  0.12340497599E+04  0.10000000000E+02 0.  1.
</event>
<event>
 5    1  0.1559436E-008  0.3863290E+03  0.7957747E-01  0.3424055E+00
         13   -1    0    0    0    0  0.00000000000E+00  0.00000000000E+00  0.14999999963E+04  0.15000000000E+04  0.10566000000E+00 0. -1.
        994   -1    0    0    0    0 -0.00000000000E+00 -0.00000000000E+00  0.11368683772E-12  0.17120000000E+03  0.17120000000E+03 0.  0.
         13    1    1    2    0    0 -0.11719960216E+02 -0.24752311105E+01  0.70291620715E+02  0.71305030280E+02  0.10566000000E+00 0. -1.
        994    1    1    2    0    0  0.15066809102E+02  0.56358516926E+01  0.18195663439E+01  0.17196372403E+03  0.17120000000E+03 0.  0.
        998    1    1    2    0    0 -0.33468488866E+01 -0.31606205820E+01  0.14278888092E+04  0.14279312457E+04  0.10000000000E+02 0. -1.
</event>
<event>
 5    1  0.1364103E-008  0.3813919E+03  0.7957747E-01  0.3445120E+00
         13   -1    0    0    0    0  0.00000000000E+00  0.00000000000E+00  0.14999999963E+04  0.15000000000E+04  0.10566000000E+00 0.  1.
        994   -1    0    0    0    0 -0.00000000000E+00 -0.00000000000E+00  0.11368683772E-12  0.17120000000E+03  0.17120000000E+03 0.  0.
         13    1    1    2    0    0 -0.13728932374E+02  0.17278630222E+01  0.26990578153E+02  0.30331033082E+02  0.10566000000E+00 0.  1.
        994    1    1    2    0    0  0.41945614170E+01 -0.22310206401E+01  0.35073098191E+01  0.17130181850E+03  0.17120000000E+03 0.  0.
        998    1    1    2    0    0  0.95343709573E+01  0.50315761791E+00  0.14695021083E+04  0.14695671484E+04  0.10000000000E+02 0.  1.
</event>
<event>
 5    1  0.1364103E-008  0.3852925E+03  0.7957747E-01  0.3428433E+00
         13   -1    0    0    0    0  0.00000000000E+00  0.00000000000E+00  0.14999999963E+04  0.15000000000E+04  0.10566000000E+00 0. -1.
        994   -1    0    0    0    0 -0.00000000000E+00 -0.00000000000E+00  0.11368683772E-12  0.17120000000E+03  0.17120000000E+03 0.  0.
         13    1    1    2    0    0  0.10176096738E+02 -0.11811407158E+02  0.78991222860E+02  0.80515133589E+02  0.10566000000E+00 0. -1.
        994    1    1    2    0    0 -0.56436574233E+01  0.15626564580E+02  0.23924638569E+01  0.17202094138E+03  0.17120000000E+03 0.  0.
        998    1    1    2    0    0 -0.45324393148E+01 -0.38151574219E+01  0.14186163096E+04  0.14186639250E+04  0.10000000000E+02 0. -1.
</event>
<event>
 5    1  0.1364103E-008  0.3832037E+03  0.7957747E-01  0.3437327E+00
         13   -1    0    0    0    0  0.00000000000E+00  0.00000000000E+00  0.14999999963E+04  0.15000000000E+04  0.10566000000E+00 0.  1.
        994   -1    0    0    0    0 -0.00000000000E+00 -0.00000000000E+00  0.11368683772E-12  0.17120000000E+03  0.17120000000E+03 0.  0.
         13    1    1    2    0    0 -0.10571870438E+02  0.19226691355E+02  0.10471796642E+03  0.10699202662E+03  0.10566000000E+00 0.  1.
        994    1    1    2    0    0  0.13668625506E+01  0.24233822897E+01  0.25502301093E+01  0.17124159766E+03  0.17120000000E+03 0.  0.
        998    1    1    2    0    0  0.92050078872E+01 -0.21650073645E+02  0.13927317997E+04  0.13929663757E+04  0.10000000000E+02 0.  1.
</event>
<event>
 5    1  0.1364103E-008  0.3711813E+03  0.7957747E-01  0.3490479E+00
         13   -1    0    0    0    0  0.00000000000E+00  0.00000000000E+00  0.14999999963E+04  0.15000000000E+04  0.10566000000E+00 0. -1.
        994   -1    0    0    0    0 -0.00000000000E+00 -0.00000000000E+00  0.11368683772E-12  0.17120000000E+03  0.17120000000E+03 0.  0.
         13    1    1    2    0    0 -0.19222757362E+02  0.77066763307E+01  0.20457323776E+02  0.29110488158E+02  0.10566000000E+00 0. -1.
        994    1    1    2    0    0  0.15350127490E+02 -0.34204926243E+02  0.13508762477E+02  0.17577693266E+03  0.17120000000E+03 0.  0.
        998    1    1    2    0    0  0.38726298728E+01  0.26498249912E+02  0.14660339100E+04  0.14663125792E+04  0.10000000000E+02 0. -1.
</event>
<event>
 5    1  0.1364103E-008  0.3831411E+03  0.7957747E-01  0.3437595E+00
         13   -1    0    0    0    0  0.00000000000E+00  0.00000000000E+00  0.14999999963E+04  0.15000000000E+04  0.10566000000E+00 0. -1.
        994   -1    0    0    0    0 -0.00000000000E+00 -0.00000000000E+00  0.11368683772E-12  0.17120000000E+03  0.17120000000E+03 0.  0.
         13    1    1    2    0    0 -0.45209669246E+01 -0.15403235484E+02  0.48343145414E+02  0.50938881788E+02  0.10566000000E+00 0. -1.
        994    1    1    2    0    0  0.97134177814E+00  0.17034506566E+02  0.35196527762E+01  0.17208412441E+03  0.17120000000E+03 0.  0.
        998    1    1    2    0    0  0.35496251464E+01 -0.16312710822E+01  0.14481371981E+04  0.14481769938E+04  0.10000000000E+02 0. -1.
</event>
<event>
 5    1  0.1364103E-008  0.3825890E+03  0.7957747E-01  0.3439962E+00
         13   -1    0    0    0    0  0.00000000000E+00  0.00000000000E+00  0.14999999963E+04  0.15000000000E+04  0.10566000000E+00 0. -1.
        994   -1    0    0    0    0 -0.00000000000E+00 -0.00000000000E+00  0.11368683772E-12  0.17120000000E+03  0.17120000000E+03 0.  0.
         13    1    1    2    0    0  0.10260380878E+02  0.89518012005E+01  0.31845355661E+02  0.34634491503E+02  0.10566000000E+00 0. -1.
        994    1    1    2    0    0 -0.46310956701E+01 -0.74834782452E+01  0.30886798858E+01  0.17145386971E+03  0.17120000000E+03 0.  0.
        998    1    1    2    0    0 -0.56292852075E+01 -0.14683229553E+01  0.14650659607E+04  0.14651116388E+04  0.10000000000E+02 0. -1.
</event>
<event>
 5    1  0.1364103E-008  0.3792144E+03  0.7957747E-01  0.3454586E+00
         13   -1    0    0    0    0  0.00000000000E+00  0.00000000000E+00  0.14999999963E+04  0.15000000000E+04  0.10566000000E+00 0. -1.
        994   -1    0    0    0    0 -0.00000000000E+00 -0.00000000000E+00  0.11368683772E-12  0.17120000000E+03  0.17120000000E+03 0.  0.
         13    1    1    2    0    0 -0.10598713857E+02 -0.53329487088E+02  0.81497721215E+02  0.97970692841E+02  0.10566000000E+00 0. -1.
        994    1    1    2    0    0  0.12596797947E+02  0.59057988453E+02  0.29192116160E+02  0.18386991316E+03  0.17120000000E+03 0.  0.
        998    1    1    2    0    0 -0.19980840894E+01 -0.57285013654E+01  0.13893101589E+04  0.13893593940E+04  0.10000000000E+02 0. -1.
</event>
<event>
 5    1  0.1364103E-008  0.3853938E+03  0.7957747E-01  0.3428004E+00
         13   -1    0    0    0    0  0.00000000000E+00  0.00000000000E+00  0.14999999963E+04  0.15000000000E+04  0.10566000000E+00 0. -1.
        994   -1    0    0    0    0 -0.00000000000E+00 -0.00000000000E+00  0.11368683772E-12  0.17120000000E+03  0.17120000000E+03 0.  0.
         13    1    1    2    0    0  0.98940055668E+01 -0.99900168633E+01  0.68565403680E+02  0.69992267637E+02  0.10566000000E+00 0. -1.
        994    1    1    2    0    0 -0.11139345913E+02  0.38589008763E+01  0.18913565868E+01  0.17161583078E+03  0.17120000000E+03 0.  0.
        998    1    1    2    0    0  0.12453403458E+01  0.61311159870E+01  0.14295432360E+04  0.14295919016E+04  0.10000000000E+02 0. -1.
</event>
<event>
 5    1  0.1364103E-008  0.3713047E+03  0.7957747E-01  0.3489916E+00
         13   -1    0    0    0    0  0.00000000000E+00  0.00000000000E+00  0.14999999963E+04  0.15000000000E+04  0.10566000000E+00 0. -1.
        994   -1    0    0    0    0 -0.00000000000E+00 -0.00000000000E+00  0.11368683772E-12  0.17120000000E+03  0.17120000000E+03 0.  0.
         13    1    1    2    0    0 -0.33206494326E+02 -0.32588076282E+02  0.14740185388E+03  0.15457028069E+03  0.10566000000E+00 0. -1.
        994    1    1    2    0    0 -0.84446971275E+01 -0.62658688289E+01  0.89693978088E+01  0.17175699147E+03  0.17120000000E+03 0.  0.
        998    1    1    2    0    0  0.41651191454E+02  0.38853945111E+02  0.13436287446E+04  0.13448727278E+04  0.10000000000E+02 0. -1.
</event>
<event>
 5    1  0.1364103E-008  0.3847527E+03  0.7957747E-01  0.3430722E+00
         13   -1    0    0    0    0  0.00000000000E+00  0.00000000000E+00  0.14999999963E+04  0.15000000000E+04  0.10566000000E+00 0.  1.
        994   -1    0    0    0    0 -0.00000000000E+00 -0.00000000000E+00  0.11368683772E-12  0.17120000000E+03  0.17120000000E+03 0.  0.
         13    1    1    2    0    0  0.57571919593E+01  0.11220940943E+02  0.49107434702E+02  0.50701144779E+02  0.10566000000E+00 0.  1.
        994    1    1    2    0    0  0.25632444859E+01  0.65004519788E+01  0.19136882919E+01  0.17135322670E+03  0.17120000000E+03 0.  0.
        998    1    1    2    0    0 -0.83204364452E+01 -0.17721392921E+02  0.14489788733E+04  0.14491456285E+04  0.10000000000E+02 0.  1.
</event>
<event>
 5    1  0.1364103E-008  0.3860473E+03  0.7957747E-01  0.3425242E+00
         13   -1    0    0    0    0  0.00000000000E+00  0.00000000000E+00  0.14999999963E+04  0.15000000000E+04  0.10566000000E+00 0. -1.
        994   -1    0    0    0    0 -0.00000000000E+00 -0.00000000000E+00  0.11368683772E-12  0.17120000000E+03  0.17120000000E+03 0.  0.
         13    1    1    2    0    0 -0.10440685567E+02 -0.31160490148E+01  0.57216106996E+02  0.58244413812E+02  0.10566000000E+00 0. -1.
        994    1    1    2    0    0 -0.14361708722E+01  0.33604141343E+01  0.11548216130E+01  0.17124289353E+03  0.17120000000E+03 0.  0.
        998    1    1    2    0    0  0.11876856439E+02 -0.24436511947E+00  0.14416290677E+04  0.14417126927E+04  0.10000000000E+02 0. -1.
</event>
<event>
 5    1  0.1364103E-008  0.3775539E+03  0.7957747E-01  0.3461879E+00
         13   -1    0    0    0    0  0.00000000000E+00  0.00000000000E+00  0.14999999963E+04  0.15000000000E+04  0.10566000000E+00 0.  1.
        994   -1    0    0    0    0 -0.00000000000E+00 -0.00000000000E+00  0.11368683772E-12  0.17120000000E+03  0.17120000000E+03 0.  0.
         13    1    1    2    0    0  0.28921976685E+02 -0.87939609016E+01  0.79434985937E+02  0.84992603434E+02  0.10566000000E+00 0.  1.
        994    1    1    2    0    0 -0.27899442465E+02  0.10212312386E+02  0.83535566152E+01  0.17395945540E+03  0.17120000000E+03 0.  0.
        998    1    1    2    0    0 -0.10225342199E+01 -0.14183514839E+01  0.14122114537E+04  0.14122479412E+04  0.10000000000E+02 0.  0.
</event>
<event>
 5    1  0.1364103E-008  0.3844028E+03  0.7957747E-01  0.3432209E+00
         13   -1    0    0    0    0  0.00000000000E+00  0.00000000000E+00  0.14999999963E+04  0.15000000000E+04  0.10566000000E+00 0. -1.
        994   -1    0    0    0    0 -0.00000000000E+00 -0.00000000000E+00  0.11368683772E-12  0.17120000000E+03  0.17120000000E+03 0.  0.
         13    1    1    2    0    0 -0.71459924195E+00 -0.20129894319E+02  0.10269694167E+03  0.10465369697E+03  0.10566000000E+00 0. -1.
        994    1    1    2    0    0 -0.38540327959E+01  0.15901015954E+02  0.28094936560E+01  0.17200299164E+03  0.17120000000E+03 0.  0.
        998    1    1    2    0    0  0.45686320379E+01  0.42288783651E+01  0.13944935610E+04  0.13945433114E+04  0.10000000000E+02 0. -1.
</event>
<event>
 5    1  0.1364103E-008  0.3723165E+03  0.7957747E-01  0.3485312E+00
         13   -1    0    0    0    0  0.00000000000E+00  0.00000000000E+00  0.14999999963E+04  0.15000000000E+04  0.10566000000E+00 0.  1.
        994   -1    0    0    0    0 -0.00000000000E+00 -0.00000000000E+00  0.11368683772E-12  0.17120000000E+03  0.17120000000E+03 0.  0.
         13    1    1    2    0    0 -0.27460487485E+02 -0.52912710392E+01  0.27529679087E+02  0.39242455540E+02  0.10566000000E+00 0.  1.
        994    1    1    2    0    0  0.12402291836E+02  0.10886539948E+02  0.13129369307E+02  0.17249392434E+03  0.17120000000E+03 0.  0.
        998    1    1    2    0    0  0.15058195648E+02 -0.55952689084E+01  0.14593409479E+04  0.14594636201E+04  0.10000000000E+02 0.  1.
</event>
<event>
 5    1  0.1364103E-008  0.3767703E+03  0.7957747E-01  0.3465343E+00
         13   -1    0    0    0    0  0.00000000000E+00  0.00000000000E+00  0.14999999963E+04  0.15000000000E+04  0.10566000000E+00 0.  1.
        994   -1    0    0    0    0 -0.00000000000E+00 -0.00000000000E+00  0.11368683772E-12  0.17120000000E+03  0.17120000000E+03 0.  0.
         13    1    1    2    0    0 -0.12231996974E+02  0.65053791675E+02  0.36180314734E+03  0.36780857270E+03  0.10566000000E+00 0.  1.
        994    1    1    2    0    0  0.16752357221E+02 -0.40174135819E+02  0.12201258156E+02  0.17706753898E+03  0.17120000000E+03 0.  0.
        998    1    1    2    0    0 -0.45203602467E+01 -0.24879655855E+02  0.11259955908E+04  0.11263238883E+04  0.10000000000E+02 0.  1.
</event>
<event>
 5    1  0.1364103E-008  0.3783744E+03  0.7957747E-01  0.3458268E+00
         13   -1    0    0    0    0  0.00000000000E+00  0.00000000000E+00  0.14999999963E+04  0.15000000000E+04  0.10566000000E+00 0. -1.
        994   -1    0    0    0    0 -0.00000000000E+00 -0.00000000000E+00  0.11368683772E-12  0.17120000000E+03  0.17120000000E+03 0.  0.
         13    1    1    2    0    0  0.38302215719E+01 -0.52917934747E+02  0.22798607862E+03  0.23407828097E+03  0.10566000000E+00 0. -1.
        994    1    1    2    0    0 -0.36135721918E+01  0.60379268073E+02  0.17352932283E+02  0.18239867921E+03  0.17120000000E+03 0.  0.
        998    1    1    2    0    0 -0.21664938018E+00 -0.74613333258E+01  0.12546609854E+04  0.12547230398E+04  0.10000000000E+02 0. -1.
</event>
<event>
 5    1  0.1364103E-008  0.3846712E+03  0.7957747E-01  0.3431068E+00
         13   -1    0    0    0    0  0.00000000000E+00  0.00000000000E+00  0.14999999963E+04  0.15000000000E+04  0.10566000000E+00 0.  1.
        994   -1    0    0    0    0 -0.00000000000E+00 -0.00000000000E+00  0.11368683772E-12  0.17120000000E+03  0.17120000000E+03 0.  0.
         13    1    1    2    0    0  0.17480882733E+02 -0.12071860754E+02  0.11471443585E+03  0.11666500777E+03  0.10566000000E+00 0.  1.
        994    1    1    2    0    0 -0.21496434941E+02  0.12474461262E+02  0.38296908960E+01  0.17303703485E+03  0.17120000000E+03 0.  0.
        998    1    1    2    0    0  0.40155522083E+01 -0.40260050842E+00  0.13814558695E+04  0.13814979574E+04  0.10000000000E+02 0.  1.
</event>
<event>
 5    1  0.1364103E-008  0.3811963E+03  0.7957747E-01  0.3445966E+00
         13   -1    0    0    0    0  0.00000000000E+00  0.00000000000E+00  0.14999999963E+04  0.15000000000E+04  0.10566000000E+00 0.  1.
        994   -1    0    0    0    0 -0.00000000000E+00 -0.00000000000E+00  0.11368683772E-12  0.17120000000E+03  0.17120000000E+03 0.  0.
         13    1    1    2    0    0 -0.34842561214E+02 -0.20475895827E+02  0.41752750691E+02  0.58108258760E+02  0.10566000000E+00 0.  1.
        994    1    1    2    0    0  0.18596103876E+02  0.23765829279E+02  0.20307091494E+02  0.17502127781E+03  0.17120000000E+03 0.  0.
        998    1    1    2    0    0  0.16246457337E+02 -0.32899334521E+01  0.14379401541E+04  0.14380704634E+04  0.10000000000E+02 0.  1.
</event>
<event>
 5    1  0.1364103E-008  0.3692271E+03  0.7957747E-01  0.3499451E+00
         13   -1    0    0    0    0  0.00000000000E+00  0.00000000000E+00  0.14999999963E+04  0.15000000000E+04  0.10566000000E+00 0.  1.
        994   -1    0    0    0    0 -0.00000000000E+00 -0.00000000000E+00  0.11368683772E-12  0.17120000000E+03  0.17120000000E+03 0.  0.
         13    1    1    2    0    0  0.33691564562E+02  0.91387136406E+01  0.60204660667E+02  0.69593461903E+02  0.10566000000E+00 0.  1.
        994    1    1    2    0    0 -0.23416746108E+02  0.16738959933E+02  0.12551448996E+02  0.17405607042E+03  0.17120000000E+03 0.  0.
        998    1    1    2    0    0 -0.10274818454E+02 -0.25877673573E+02  0.14272438866E+04  0.14275504677E+04  0.10000000000E+02 0.  1.
</event>
<event>
 5    1  0.1364103E-008  0.3842354E+03  0.7957747E-01  0.3432921E+00
         13   -1    0    0    0    0  0.00000000000E+00  0.00000000000E+00  0.14999999963E+04  0.15000000000E+04  0.10566000000E+00 0. -1.
        994   -1    0    0    0    0 -0.00000000000E+00 -0.00000000000E+00  0.11368683772E-12  0.17120000000E+03  0.17120000000E+03 0.  0.
         13    1    1    2    0    0 -0.91056565926E+01 -0.10112825725E+02  0.49432919393E+02  0.51271892006E+02  0.10566000000E+00 0. -1.
        994    1    1    2    0    0 -0.97733579513E+01  0.16515764232E+00  0.23252818858E+01  0.17149458516E+03  0.17120000000E+03 0.  0.
        998    1    1    2    0    0  0.18879014544E+02  0.99476680824E+01  0.14482417950E+04  0.14484335228E+04  0.10000000000E+02 0. -1.
</event>
<event>
 5    1  0.1364103E-008  0.3728912E+03  0.7957747E-01  0.3482708E+00
         13   -1    0    0    0    0  0.00000000000E+00  0.00000000000E+00  0.14999999963E+04  0.15000000000E+04  0.10566000000E+00 0. -1.
        994   -1    0    0    0    0 -0.00000000000E+00 -0.00000000000E+00  0.11368683772E-12  0.17120000000E+03  0.17120000000E+03 0.  0.
         13    1    1    2    0    0 -0.30271340212E+02 -0.50452524862E+02  0.24880228869E+03  0.25566462666E+03  0.10566000000E+00 0. -1.
        994    1    1    2    0    0  0.30788622610E+02  0.14227034908E+00  0.11017905174E+02  0.17429513406E+03  0.17120000000E+03 0.  0.
        998    1    1    2    0    0 -0.51728239802E+00  0.50310254513E+02  0.12401798024E+04  0.12412402393E+04  0.10000000000E+02 0. -1.
</event>
<event>
 5    1  0.1364103E-008  0.3787386E+03  0.7957747E-01  0.3456669E+00
         13   -1    0    0    0    0  0.00000000000E+00  0.00000000000E+00  0.14999999963E+04  0.15000000000E+04  0.10566000000E+00 0.  1.
        994   -1    0    0    0    0 -0.00000000000E+00 -0.00000000000E+00  0.11368683772E-12  0.17120000000E+03  0.17120000000E+03 0.  0.
         13    1    1    2    0    0 -0.10910540277E+02 -0.42228651513E+01  0.12043934485E+02  0.16791069088E+02  0.10566000000E+00 0.  1.
        994    1    1    2    0    0  0.13711577655E+02  0.69271320171E+01  0.55638459027E+01  0.17197787329E+03  0.17120000000E+03 0.  0.
        998    1    1    2    0    0 -0.28010373776E+01 -0.27042668659E+01  0.14823922159E+04  0.14824310576E+04  0.10000000000E+02 0.  1.
</event>
<event>
 5    1  0.1364103E-008  0.3700540E+03  0.7957747E-01  0.3495643E+00
         13   -1    0    0    0    0  0.00000000000E+00  0.00000000000E+00  0.14999999963E+04  0.15000000000E+04  0.10566000000E+00 0.  1.
        994   -1    0    0    0    0 -0.00000000000E+00 -0.00000000000E+00  0.11368683772E-12  0.17120000000E+03  0.17120000000E+03 0.  0.
         13    1    1    2    0    0 -0.15635412663E+02 -0.20490782045E+02  0.33315214008E+02  0.42121881801E+02  0.10566000000E+00 0.  1.
        994    1    1    2    0    0 -0.22087357787E+01  0.71361625966E+01  0.94337797001E+01  0.17162237479E+03  0.17120000000E+03 0.  0.
        998    1    1    2    0    0  0.17844148442E+02  0.13354619449E+02  0.14572510026E+04  0.14574557434E+04  0.10000000000E+02 0.  1.
</event>
<event>
 5    1  0.1364103E-008  0.3700814E+03  0.7957747E-01  0.3495517E+00
         13   -1    0    0    0    0  0.00000000000E+00  0.00000000000E+00  0.14999999963E+04  0.15000000000E+04  0.10566000000E+00 0.  1.
        994   -1    0    0    0    0 -0.00000000000E+00 -0.00000000000E+00  0.11368683772E-12  0.17120000000E+03  0.17120000000E+03 0.  0.
         13    1    1    2    0    0 -0.79268691881E+02  0.59405434581E+01  0.31238829670E+03  0.32234341106E+03  0.10566000000E+00 0.  1.
        994    1    1    2    0    0  0.35229901494E+02  0.32339941992E+02  0.19022637429E+02  0.17876889702E+03  0.17120000000E+03 0.  0.
        998    1    1    2    0    0  0.44038790388E+02 -0.38280485450E+02  0.11685890621E+04  0.11700876919E+04  0.10000000000E+02 0.  1.
</event>
<event>
 5    1  0.1364103E-008  0.3832775E+03  0.7957747E-01  0.3437010E+00
         13   -1    0    0    0    0  0.00000000000E+00  0.00000000000E+00  0.14999999963E+04  0.15000000000E+04  0.10566000000E+00 0. -1.
        994   -1    0    0    0    0 -0.00000000000E+00 -0.00000000000E+00  0.11368683772E-12  0.17120000000E+03  0.17120000000E+03 0.  0.
         13    1    1    2    0    0 -0.22161474408E+02 -0.91901462594E+01  0.12285317267E+03  0.12517389079E+03  0.10566000000E+00 0. -1.
        994    1    1    2    0    0  0.67623098796E+01 -0.16494240950E+01  0.26479863736E+01  0.17136190144E+03  0.17120000000E+03 0.  0.
        998    1    1    2    0    0  0.15399164529E+02  0.10839570354E+02  0.13744988372E+04  0.13746642078E+04  0.10000000000E+02 0. -1.
</event>
<event>
 5    1  0.1364103E-008  0.3784370E+03  0.7957747E-01  0.3457993E+00
         13   -1    0    0    0    0  0.00000000000E+00  0.00000000000E+00  0.14999999963E+04  0.15000000000E+04  0.10566000000E+00 0.  1.
        994   -1    0    0    0    0 -0.00000000000E+00 -0.00000000000E+00  0.11368683772E-12  0.17120000000E+03  0.17120000000E+03 0.  0.
         13    1    1    2    0    0 -0.39260676235E+01 -0.27873305406E+02  0.75479440748E+02  0.80557385142E+02  0.10566000000E+00 0.  1.
        994    1    1    2    0    0  0.89898891615E+01  0.26473296033E+02  0.75552664558E+01  0.17363229988E+03  0.17120000000E+03 0.  0.
        998    1    1    2    0    0 -0.50638215380E+01  0.14000093724E+01  0.14169652891E+04  0.14170103150E+04  0.10000000000E+02 0.  1.
</event>
<event>
 5    1  0.1364103E-008  0.3839154E+03  0.7957747E-01  0.3434285E+00
         13   -1    0    0    0    0  0.00000000000E+00  0.00000000000E+00  0.14999999963E+04  0.15000000000E+04  0.10566000000E+00 0. -1.
        994   -1    0    0    0    0 -0.00000000000E+00 -0.00000000000E+00  0.11368683772E-12  0.17120000000E+03  0.17120000000E+03 0.  0.
         13    1    1    2    0    0 -0.58194369057E+01 -0.89826300533E+01  0.25559910931E+02  0.27710534087E+02  0.10566000000E+00 0. -1.
        994    1    1    2    0    0  0.32561748422E+01  0.90028782994E+01  0.24721124123E+01  0.17148529334E+03  0.17120000000E+03 0.  0.
        998    1    1    2    0    0  0.25632620635E+01 -0.20248246126E-01  0.14719679729E+04  0.14720041726E+04  0.10000000000E+02 0. -1.
</event>
<event>
 5    1  0.1364103E-008  0.3860138E+03  0.7957747E-01  0.3425384E+00
         13   -1    0    0    0    0  0.00000000000E+00  0.00000000000E+00  0.14999999963E+04  0.15000000000E+04  0.10566000000E+00 0.  1.
        994   -1    0    0    0    0 -0.00000000000E+00 -0.00000000000E+00  0.11368683772E-12  0.17120000000E+03  0.17120000000E+03 0.  0.
         13    1    1    2    0    0  0.12548718748E+02 -0.25000913820E+01  0.75200251201E+02  0.76281123117E+02  0.10566000000E+00 0.  1.
        994    1    1    2    0    0 -0.33414243313E+01  0.13061278486E+02  0.17236511312E+01  0.17173867673E+03  0.17120000000E+03 0.  0.
        998    1    1    2    0    0 -0.92072944171E+01 -0.10561187104E+02  0.14230760939E+04  0.14231802002E+04  0.10000000000E+02 0.  1.
</event>
<event>
 5    1  0.1364103E-008  0.3831480E+03  0.7957747E-01  0.3437565E+00
         13   -1    0    0    0    0  0.00000000000E+00  0.00000000000E+00  0.14999999963E+04  0.15000000000E+04  0.10566000000E+00 0. -1.
        994   -1    0    0    0    0 -0.00000000000E+00 -0.00000000000E+00  0.11368683772E-12  0.17120000000E+03  0.17120000000E+03 0.  0.
         13    1    1    2    0    0 -0.47772164612E+01 -0.13612160842E+02  0.39804790922E+02  0.42338460816E+02  0.10566000000E+00 0. -1.
        994    1    1    2    0    0 -0.81984954388E+00  0.11691775780E+02  0.30070657764E+01  0.17162707309E+03  0.17120000000E+03 0.  0.
        998    1    1    2    0    0  0.55970660051E+01  0.19203850622E+01  0.14571881396E+04  0.14572344661E+04  0.10000000000E+02 0. -1.
</event>
<event>
 5    1  0.1364103E-008  0.3837985E+03  0.7957747E-01  0.3434784E+00
         13   -1    0    0    0    0  0.00000000000E+00  0.00000000000E+00  0.14999999963E+04  0.15000000000E+04  0.10566000000E+00 0.  1.
        994   -1    0    0    0    0 -0.00000000000E+00 -0.00000000000E+00  0.11368683772E-12  0.17120000000E+03  0.17120000000E+03 0.  0.
         13    1    1    2    0    0 -0.37007933339E+01 -0.15578057306E+02  0.59197373131E+02  0.61324643418E+02  0.10566000000E+00 0.  1.
        994    1    1    2    0    0  0.31021192976E+00  0.34249284877E+01  0.22668941302E+01  0.17124954066E+03  0.17120000000E+03 0.  0.
        998    1    1    2    0    0  0.33905814041E+01  0.12153128818E+02  0.14385357290E+04  0.14386258159E+04  0.10000000000E+02 0.  1.
</event>
<event>
 5    1  0.1364103E-008  0.3835262E+03  0.7957747E-01  0.3435947E+00
         13   -1    0    0    0    0  0.00000000000E+00  0.00000000000E+00  0.14999999963E+04  0.15000000000E+04  0.10566000000E+00 0. -1.
        994   -1    0    0    0    0 -0.00000000000E+00 -0.00000000000E+00  0.11368683772E-12  0.17120000000E+03  0.17120000000E+03 0.  0.
         13    1    1    2    0    0 -0.11401294720E+02 -0.80279367289E+01  0.41401797783E+02  0.43687038274E+02  0.10566000000E+00 0. -1.
        994    1    1    2    0    0  0.30067454321E+01  0.28215757499E+01  0.24198185252E+01  0.17126674321E+03  0.17120000000E+03 0.  0.
        998    1    1    2    0    0  0.83945492877E+01  0.52063609791E+01  0.14561783800E+04  0.14562462185E+04  0.10000000000E+02 0. -1.
</event>
<event>
 5    1  0.1364103E-008  0.3828171E+03  0.7957747E-01  0.3438983E+00
         13   -1    0    0    0    0  0.00000000000E+00  0.00000000000E+00  0.14999999963E+04  0.15000000000E+04  0.10566000000E+00 0. -1.
        994   -1    0    0    0    0 -0.00000000000E+00 -0.00000000000E+00  0.11368683772E-12  0.17120000000E+03  0.17120000000E+03 0.  0.
         13    1    1    2    0    0  0.39456350160E+02 -0.17586361126E+02  0.24844956835E+03  0.25217708628E+03  0.10566000000E+00 0. -1.
        994    1    1    2    0    0 -0.52662160524E+02  0.25253708994E+02  0.14098812762E+02  0.18143668177E+03  0.17120000000E+03 0.  0.
        998    1    1    2    0    0  0.13205810364E+02 -0.76673478680E+01  0.12374516152E+04  0.12375862320E+04  0.10000000000E+02 0. -1.
</event>
<event>
 5    1  0.1364103E-008  0.3801226E+03  0.7957747E-01  0.3450625E+00
         13   -1    0    0    0    0  0.00000000000E+00  0.00000000000E+00  0.14999999963E+04  0.15000000000E+04  0.10566000000E+00 0. -1.
        994   -1    0    0    0    0 -0.00000000000E+00 -0.00000000000E+00  0.11368683772E-12  0.17120000000E+03  0.17120000000E+03 0.  0.
         13    1    1    2    0    0  0.18256303072E+02  0.43759539111E+01  0.40706748022E+01  0.19209974801E+02  0.10566000000E+00 0. -1.
        994    1    1    2    0    0  0.32467190674E+02 -0.13792972950E+02  0.20918867187E+02  0.17604375472E+03  0.17120000000E+03 0.  0.
        998    1    1    2    0    0 -0.50723493745E+02  0.94170190389E+01  0.14750104543E+04  0.14759462705E+04  0.10000000000E+02 0. -1.
</event>
<event>
 5    1  0.1364103E-008  0.3843394E+03  0.7957747E-01  0.3432479E+00
         13   -1    0    0    0    0  0.00000000000E+00  0.00000000000E+00  0.14999999963E+04  0.15000000000E+04  0.10566000000E+00 0.  1.
        994   -1    0    0    0    0 -0.00000000000E+00 -0.00000000000E+00  0.11368683772E-12  0.17120000000E+03  0.17120000000E+03 0.  0.
         13    1    1    2    0    0  0.22840734590E+01  0.10304266974E+02  0.27676144223E+02  0.29620517087E+02  0.10566000000E+00 0.  1.
        994    1    1    2    0    0 -0.38717099396E+01 -0.90209360074E+01  0.22761197822E+01  0.17149632108E+03  0.17120000000E+03 0.  0.
        998    1    1    2    0    0  0.15876364806E+01 -0.12833309665E+01  0.14700477323E+04  0.14700831618E+04  0.10000000000E+02 0.  1.
</event>
<event>
 5    1  0.1364103E-008  0.3830900E+03  0.7957747E-01  0.3437813E+00
         13   -1    0    0    0    0  0.00000000000E+00  0.00000000000E+00  0.14999999963E+04  0.15000000000E+04  0.10566000000E+00 0. -1.
        994   -1    0    0    0    0 -0.00000000000E+00 -0.00000000000E+00  0.11368683772E-12  0.17120000000E+03  0.17120000000E+03 0.  0.
         13    1    1    2    0    0 -0.15599946342E+02 -0.16870977862E+02  0.10653470506E+03  0.10898459876E+03  0.10566000000E+00 0. -1.
        994    1    1    2    0    0  0.79633128993E+01  0.21259919777E+01  0.28062373193E+01  0.17142126228E+03  0.17120000000E+03 0.  0.
        998    1    1    2    0    0  0.76366334429E+01  0.14744985884E+02  0.13906590539E+04  0.13907941390E+04  0.10000000000E+02 0. -1.
</event>
<event>
 5    1  0.1364103E-008  0.3792067E+03  0.7957747E-01  0.3454620E+00
         13   -1    0    0    0    0  0.00000000000E+00  0.00000000000E+00  0.14999999963E+04  0.15000000000E+04  0.10566000000E+00 0. -1.
        994   -1    0    0    0    0 -0.00000000000E+00 -0.00000000000E+00  0.11368683772E-12  0.17120000000E+03  0.17120000000E+03 0.  0.
         13    1    1    2    0    0  0.11856712810E+02 -0.17536307976E+02  0.46343615903E+02  0.50949441951E+02  0.10566000000E+00 0. -1.
        994    1    1    2    0    0 -0.10786776039E+02  0.19276145566E+02  0.61712130412E+01  0.17272940744E+03  0.17120000000E+03 0.  0.
        998    1    1    2    0    0 -0.10699367710E+01 -0.17398375894E+01  0.14474851673E+04  0.14475211506E+04  0.10000000000E+02 0. -1.
</event>
<event>
 5    1  0.1364103E-008  0.3811387E+03  0.7957747E-01  0.3446215E+00
         13   -1    0    0    0    0  0.00000000000E+00  0.00000000000E+00  0.14999999963E+04  0.15000000000E+04  0.10566000000E+00 0.  1.
        994   -1    0    0    0    0 -0.00000000000E+00 -0.00000000000E+00  0.11368683772E-12  0.17120000000E+03  0.17120000000E+03 0.  0.
         13    1    1    2    0    0  0.15831790918E+02 -0.35349151997E+02  0.21927850421E+03  0.22267303771E+03  0.10566000000E+00 0.  1.
        994    1    1    2    0    0 -0.17557354260E+02  0.10931500537E+02  0.49853549520E+01  0.17251681703E+03  0.17120000000E+03 0.  0.
        998    1    1    2    0    0  0.17255633414E+01  0.24417651461E+02  0.12757361371E+04  0.12760101453E+04  0.10000000000E+02 0.  1.
</event>
<event>
 5    1  0.1364103E-008  0.3767637E+03  0.7957747E-01  0.3465372E+00
         13   -1    0    0    0    0  0.00000000000E+00  0.00000000000E+00  0.14999999963E+04  0.15000000000E+04  0.10566000000E+00 0.  1.
        994   -1    0    0    0    0 -0.00000000000E+00 -0.00000000000E+00  0.11368683772E-12  0.17120000000E+03  0.17120000000E+03 0.  0.
         13    1    1    2    0    0  0.85109966464E+02 -0.30055611433E+02  0.24109473045E+03  0.25743683960E+03  0.10566000000E+00 0.  1.
        994    1    1    2    0    0 -0.76921964598E+02  0.26662853655E+02  0.38695752566E+02  0.19348048395E+03  0.17120000000E+03 0.  0.
        998    1    1    2    0    0 -0.81880018658E+01  0.33927577784E+01  0.12202095133E+04  0.12202826765E+04  0.10000000000E+02 0.  1.
</event>
<event>
 5    1  0.1364103E-008  0.3690898E+03  0.7957747E-01  0.3500084E+00
         13   -1    0    0    0    0  0.00000000000E+00  0.00000000000E+00  0.14999999963E+04  0.15000000000E+04  0.10566000000E+00 0. -1.
        994   -1    0    0    0    0 -0.00000000000E+00 -0.00000000000E+00  0.11368683772E-12  0.17120000000E+03  0.17120000000E+03 0.  0.
         13    1    1    2    0    0  0.22262558063E+03  0.43410988093E+02  0.76140287319E+03  0.79446901104E+03  0.10566000000E+00 0. -1.
        994    1    1    2    0    0 -0.22978150254E+03 -0.72722971743E+02  0.25018506576E+03  0.38728565253E+03  0.17120000000E+03 0.  0.
        998    1    1    2    0    0  0.71559219132E+01  0.29311983650E+02  0.48841205733E+03  0.48944533643E+03  0.10000000000E+02 0. -1.
</event>
<event>
 5    1  0.1364103E-008  0.3768576E+03  0.7957747E-01  0.3464956E+00
         13   -1    0    0    0    0  0.00000000000E+00  0.00000000000E+00  0.14999999963E+04  0.15000000000E+04  0.10566000000E+00 0.  1.
        994   -1    0    0    0    0 -0.00000000000E+00 -0.00000000000E+00  0.11368683772E-12  0.17120000000E+03  0.17120000000E+03 0.  0.
         13    1    1    2    0    0 -0.47227574323E+01  0.34516513537E+02  0.12561109504E+03  0.13035280014E+03  0.10566000000E+00 0.  1.
        994    1    1    2    0    0 -0.11032353639E+02  0.14498727887E+02  0.68499451371E+01  0.17230289517E+03  0.17120000000E+03 0.  0.
        998    1    1    2    0    0  0.15755111071E+02 -0.49015241425E+02  0.13675389561E+04  0.13685443047E+04  0.10000000000E+02 0.  1.
</event>
<event>
 5    1  0.1364103E-008  0.3823689E+03  0.7957747E-01  0.3440908E+00
         13   -1    0    0    0    0  0.00000000000E+00  0.00000000000E+00  0.14999999963E+04  0.15000000000E+04  0.10566000000E+00 0.  1.
        994   -1    0    0    0    0 -0.00000000000E+00 -0.00000000000E+00  0.11368683772E-12  0.17120000000E+03  0.17120000000E+03 0.  0.
         13    1    1    2    0    0 -0.60045352618E+01  0.31039238232E+02  0.17717662091E+03  0.17997515083E+03  0.10566000000E+00 0.  1.
        994    1    1    2    0    0  0.66343027253E+01 -0.11699135502E+02  0.35423228405E+01  0.17176400029E+03  0.17120000000E+03 0.  0.
        998    1    1    2    0    0 -0.62976746354E+00 -0.19340102730E+02  0.13192810525E+04  0.13194608489E+04  0.10000000000E+02 0.  1.
</event>
<event>
 5    1  0.1364103E-008  0.3834994E+03  0.7957747E-01  0.3436062E+00
         13   -1    0    0    0    0  0.00000000000E+00  0.00000000000E+00  0.14999999963E+04  0.15000000000E+04  0.10566000000E+00 0. -1.
        994   -1    0    0    0    0 -0.00000000000E+00 -0.00000000000E+00  0.11368683772E-12  0.17120000000E+03  0.17120000000E+03 0.  0.
         13    1    1    2    0    0 -0.81698218035E+01 -0.58213996346E+01  0.20091390638E+02  0.22456843585E+02  0.10566000000E+00 0. -1.
        994    1    1    2    0    0  0.70934981684E+01  0.85240465447E+01  0.27835287993E+01  0.17158136588E+03  0.17120000000E+03 0.  0.
        998    1    1    2    0    0  0.10763236351E+01 -0.27026469101E+01  0.14771250768E+04  0.14771617905E+04  0.10000000000E+02 0. -1.
</event>
<event>
 5    1  0.1364103E-008  0.3823058E+03  0.7957747E-01  0.3441179E+00
         13   -1    0    0    0    0  0.00000000000E+00  0.00000000000E+00  0.14999999963E+04  0.15000000000E+04  0.10566000000E+00 0. -1.
        994   -1    0    0    0    0 -0.00000000000E+00 -0.00000000000E+00  0.11368683772E-12  0.17120000000E+03  0.17120000000E+03 0.  0.
         13    1    1    2    0    0  0.11935449943E+02  0.12416384693E+02  0.47738147412E+02  0.50750009424E+02  0.10566000000E+00 0. -1.
        994    1    1    2    0    0 -0.11619354520E+02 -0.12441496924E+02  0.39357238982E+01  0.17208930870E+03  0.17120000000E+03 0.  0.
        998    1    1    2    0    0 -0.31609542265E+00  0.25112230843E-01  0.14483261250E+04  0.14483606819E+04  0.10000000000E+02 0.  0.
</event>
<event>
 5    1  0.1364103E-008  0.3842763E+03  0.7957747E-01  0.3432747E+00
         13   -1    0    0    0    0  0.00000000000E+00  0.00000000000E+00  0.14999999963E+04  0.15000000000E+04  0.10566000000E+00 0. -1.
        994   -1    0    0    0    0 -0.00000000000E+00 -0.00000000000E+00  0.11368683772E-12  0.17120000000E+03  0.17120000000E+03 0.  0.
         13    1    1    2    0    0 -0.10052834098E+02  0.92751966730E+01  0.46291244864E+02  0.48269858730E+02  0.10566000000E+00 0. -1.
        994    1    1    2    0    0  0.40824266997E+01 -0.11246691906E+02  0.24619219179E+01  0.17163523923E+03  0.17120000000E+03 0.  0.
        998    1    1    2    0    0  0.59704073982E+01  0.19714952325E+01  0.14512468295E+04  0.14512949020E+04  0.10000000000E+02 0. -1.
</event>
<event>
 5    1  0.1364103E-008  0.3848509E+03  0.7957747E-01  0.3430305E+00
         13   -1    0    0    0    0  0.00000000000E+00  0.00000000000E+00  0.14999999963E+04  0.15000000000E+04  0.10566000000E+00 0.  1.
        994   -1    0    0    0    0 -0.00000000000E+00 -0.00000000000E+00  0.11368683772E-12  0.17120000000E+03  0.17120000000E+03 0.  0.
         13    1    1    2    0    0  0.10325493068E+02  0.15781618342E+02  0.10391326003E+03  0.10561085200E+03  0.10566000000E+00 0.  1.
        994    1    1    2    0    0 -0.94328070981E+01 -0.87477294479E+01  0.22488960867E+01  0.17169740287E+03  0.17120000000E+03 0.  0.
        998    1    1    2    0    0 -0.89268597004E+00 -0.70338888943E+01  0.13938378402E+04  0.13938917451E+04  0.10000000000E+02 0.  1.
</event>
<event>
 5    1  0.1364103E-008  0.3835667E+03  0.7957747E-01  0.3435774E+00
         13   -1    0    0    0    0  0.00000000000E+00  0.00000000000E+00  0.14999999963E+04  0.15000000000E+04  0.10566000000E+00 0. -1.
        994   -1    0    0    0    0 -0.00000000000E+00 -0.00000000000E+00  0.11368683772E-12  0.17120000000E+03  0.17120000000E+03 0.  0.
         13    1    1    2    0    0 -0.20427959420E+02  0.66630554309E+00  0.87606194800E+02  0.89958890726E+02  0.10566000000E+00 0. -1.
        994    1    1    2    0    0  0.14554983975E+02 -0.35263988936E+01  0.30847765695E+01  0.17188146757E+03  0.17120000000E+03 0.  0.
        998    1    1    2    0    0  0.58729754452E+01  0.28600933506E+01  0.14093090249E+04  0.14093596417E+04  0.10000000000E+02 0. -1.
</event>
<event>
 5    1  0.1364103E-008  0.3746200E+03  0.7957747E-01  0.3474924E+00
         13   -1    0    0    0    0  0.00000000000E+00  0.00000000000E+00  0.14999999963E+04  0.15000000000E+04  0.10566000000E+00 0.  1.
        994   -1    0    0    0    0 -0.00000000000E+00 -0.00000000000E+00  0.11368683772E-12  0.17120000000E+03  0.17120000000E+03 0.  0.
         13    1    1    2    0    0  0.17126798300E+03  0.13364326364E+02  0.85465656440E+03  0.87175064179E+03  0.10566000000E+00 0.  1.
        994    1    1    2    0    0 -0.16646519186E+03 -0.19770142673E+02  0.10947991329E+03  0.26343274294E+03  0.17120000000E+03 0.  0.
        998    1    1    2    0    0 -0.48027911409E+01  0.64058163087E+01  0.53586351859E+03  0.53601661527E+03  0.10000000000E+02 0.  0.
</event>
<event>
 5    1  0.1364103E-008  0.3832133E+03  0.7957747E-01  0.3437285E+00
         13   -1    0    0    0    0  0.00000000000E+00  0.00000000000E+00  0.14999999963E+04  0.15000000000E+04  0.10566000000E+00 0. -1.
        994   -1    0    0    0    0 -0.00000000000E+00 -0.00000000000E+00  0.11368683772E-12  0.17120000000E+03  0.17120000000E+03 0.  0.
         13    1    1    2    0    0 -0.13441483993E+02  0.10964641306E+02  0.58305685355E+02  0.60831414250E+02  0.10566000000E+00 0. -1.
        994    1    1    2    0    0 -0.21764481880E+01 -0.24857865501E+02  0.45821251998E+01  0.17306959951E+03  0.17120000000E+03 0.  0.
        998    1    1    2    0    0  0.15617932181E+02  0.13893224195E+02  0.14371121857E+04  0.14372989862E+04  0.10000000000E+02 0. -1.
</event>
<event>
 5    1  0.1364103E-008  0.3847689E+03  0.7957747E-01  0.3430653E+00
         13   -1    0    0    0    0  0.00000000000E+00  0.00000000000E+00  0.14999999963E+04  0.15000000000E+04  0.10566000000E+00 0. -1.
        994   -1    0    0    0    0 -0.00000000000E+00 -0.00000000000E+00  0.11368683772E-12  0.17120000000E+03  0.17120000000E+03 0.  0.
         13    1    1    2    0    0 -0.10354455211E+02 -0.36766099585E+01  0.33352366033E+02  0.35115860911E+02  0.10566000000E+00 0. -1.
        994    1    1    2    0    0  0.12840824794E+02  0.51086077603E+01  0.23737270612E+01  0.17177327858E+03  0.17120000000E+03 0.  0.
        998    1    1    2    0    0 -0.24863695829E+01 -0.14319978018E+01  0.14642739032E+04  0.14643108605E+04  0.10000000000E+02 0. -1.
</event>
<event>
 5    1  0.1364103E-008  0.3805801E+03  0.7957747E-01  0.3448637E+00
         13   -1    0    0    0    0  0.00000000000E+00  0.00000000000E+00  0.14999999963E+04  0.15000000000E+04  0.10566000000E+00 0.  1.
        994   -1    0    0    0    0 -0.00000000000E+00 -0.00000000000E+00  0.11368683772E-12  0.17120000000E+03  0.17120000000E+03 0.  0.
         13    1    1    2    0    0 -0.19288924231E+02 -0.57219600895E+00  0.46951686949E+02  0.50762802106E+02  0.10566000000E+00 0.  1.
        994    1    1    2    0    0  0.13258320294E+02  0.16590222299E+01  0.44365194968E+01  0.17177793257E+03  0.17120000000E+03 0.  0.
        998    1    1    2    0    0  0.60306039371E+01 -0.10868262209E+01  0.14486117898E+04  0.14486592653E+04  0.10000000000E+02 0.  1.
</event>
<event>
 5    1  0.1364103E-008  0.3726657E+03  0.7957747E-01  0.3483729E+00
         13   -1    0    0    0    0  0.00000000000E+00  0.00000000000E+00  0.14999999963E+04  0.15000000000E+04  0.10566000000E+00 0. -1.
        994   -1    0    0    0    0 -0.00000000000E+00 -0.00000000000E+00  0.11368683772E-12  0.17120000000E+03  0.17120000000E+03 0.  0.
         13    1    1    2    0    0  0.45835310189E+02  0.26092328396E+02  0.19593240648E+03  0.20290688587E+03  0.10566000000E+00 0. -1.
        994    1    1    2    0    0 -0.15653897363E+01 -0.16892557705E+02  0.88690309582E+01  0.17226696915E+03  0.17120000000E+03 0.  0.
        998    1    1    2    0    0 -0.44269920452E+02 -0.91997706907E+01  0.12951985588E+04  0.12960261450E+04  0.10000000000E+02 0. -1.
</event>
<event>
 5    1  0.1364103E-008  0.3800720E+03  0.7957747E-01  0.3450845E+00
         13   -1    0    0    0    0  0.00000000000E+00  0.00000000000E+00  0.14999999963E+04  0.15000000000E+04  0.10566000000E+00 0. -1.
        994   -1    0    0    0    0 -0.00000000000E+00 -0.00000000000E+00  0.11368683772E-12  0.17120000000E+03  0.17120000000E+03 0.  0.
         13    1    1    2    0    0  0.34854504354E+02  0.39920990855E+01  0.14162735384E+03  0.14590781970E+03  0.10566000000E+00 0. -1.
        994    1    1    2    0    0 -0.28825737407E+02 -0.13656004400E+01  0.68850966766E+01  0.17375164045E+03  0.17120000000E+03 0.  0.
        998    1    1    2    0    0 -0.60287669467E+01 -0.26264986455E+01  0.13514875458E+04  0.13515405399E+04  0.10000000000E+02 0. -1.
</event>
<event>
 5    1  0.1364103E-008  0.3769279E+03  0.7957747E-01  0.3464645E+00
         13   -1    0    0    0    0  0.00000000000E+00  0.00000000000E+00  0.14999999963E+04  0.15000000000E+04  0.10566000000E+00 0.  1.
        994   -1    0    0    0    0 -0.00000000000E+00 -0.00000000000E+00  0.11368683772E-12  0.17120000000E+03  0.17120000000E+03 0.  0.
         13    1    1    2    0    0 -0.70955877617E+02 -0.87266807380E+01  0.28896732034E+03  0.29767938275E+03  0.10566000000E+00 0.  1.
        994    1    1    2    0    0 -0.53183953529E+02  0.45127015616E+02  0.32294904217E+02  0.18766294597E+03  0.17120000000E+03 0.  0.
        998    1    1    2    0    0  0.12413983115E+03 -0.36400334878E+02  0.11787377717E+04  0.11858576713E+04  0.10000000000E+02 0.  1.
</event>
<event>
 5    1  0.1364103E-008  0.3846361E+03  0.7957747E-01  0.3431217E+00
         13   -1    0    0    0    0  0.00000000000E+00  0.00000000000E+00  0.14999999963E+04  0.15000000000E+04  0.10566000000E+00 0.  1.
        994   -1    0    0    0    0 -0.00000000000E+00 -0.00000000000E+00  0.11368683772E-12  0.17120000000E+03  0.17120000000E+03 0.  0.
         13    1    1    2    0    0  0.21986413514E+00 -0.11371129747E+02  0.36499168828E+02  0.38230242232E+02  0.10566000000E+00 0.  1.
        994    1    1    2    0    0  0.66199875703E+01  0.12070087514E+01  0.19600312902E+01  0.17134340614E+03  0.17120000000E+03 0.  0.
        998    1    1    2    0    0 -0.68398517055E+01  0.10164120995E+02  0.14615407962E+04  0.14616263516E+04  0.10000000000E+02 0.  1.
</event>
<event>
 5    1  0.1364103E-008  0.3770777E+03  0.7957747E-01  0.3463982E+00
         13   -1    0    0    0    0  0.00000000000E+00  0.00000000000E+00  0.14999999963E+04  0.15000000000E+04  0.10566000000E+00 0.  1.
        994   -1    0    0    0    0 -0.00000000000E+00 -0.00000000000E+00  0.11368683772E-12  0.17120000000E+03  0.17120000000E+03 0.  0.
         13    1    1    2    0    0 -0.49004956528E+01 -0.42267151119E+02  0.58536207384E+02  0.72367296898E+02  0.10566000000E+00 0.  1.
        994    1    1    2    0    0 -0.19818854536E+02  0.15515894594E+02  0.17005771657E+02  0.17387399532E+03  0.17120000000E+03 0.  0.
        998    1    1    2    0    0  0.24719350189E+02  0.26751256526E+02  0.14244580172E+04  0.14249587078E+04  0.10000000000E+02 0.  1.
</event>
<event>
 5    1  0.1364103E-008  0.3860581E+03  0.7957747E-01  0.3425197E+00
         13   -1    0    0    0    0  0.00000000000E+00  0.00000000000E+00  0.14999999963E+04  0.15000000000E+04  0.10566000000E+00 0. -1.
        994   -1    0    0    0    0 -0.00000000000E+00 -0.00000000000E+00  0.11368683772E-12  0.17120000000E+03  0.17120000000E+03 0.  0.
         13    1    1    2    0    0  0.22951192051E+02  0.10514183579E+03  0.35274347340E+03  0.36879470175E+03  0.10566000000E+00 0. -1.
        994    1    1    2    0    0 -0.45147226860E+02 -0.20586350160E+02  0.28876884575E+02  0.18056961087E+03  0.17120000000E+03 0.  0.
        998    1    1    2    0    0  0.22196034810E+02 -0.84555485626E+02  0.11183796383E+04  0.11218356874E+04  0.10000000000E+02 0. -1.
</event>
<event>
 5    1  0.1364103E-008  0.3705983E+03  0.7957747E-01  0.3493145E+00
         13   -1    0    0    0    0  0.00000000000E+00  0.00000000000E+00  0.14999999963E+04  0.15000000000E+04  0.10566000000E+00 0. -1.
        994   -1    0    0    0    0 -0.00000000000E+00 -0.00000000000E+00  0.11368683772E-12  0.17120000000E+03  0.17120000000E+03 0.  0.
         13    1    1    2    0    0 -0.26283829165E+02 -0.94040635057E+02  0.49110569524E+03  0.50071877913E+03  0.10566000000E+00 0. -1.
        994    1    1    2    0    0  0.32217335096E+02  0.58595688674E+02  0.24547343333E+02  0.18542767721E+03  0.17120000000E+03 0.  0.
        998    1    1    2    0    0 -0.59335059313E+01  0.35444946383E+02  0.98434695771E+03  0.98505354366E+03  0.10000000000E+02 0.  1.
</event>
<event>
 5    1  0.1364103E-008  0.3830351E+03  0.7957747E-01  0.3438048E+00
         13   -1    0    0    0    0  0.00000000000E+00  0.00000000000E+00  0.14999999963E+04  0.15000000000E+04  0.10566000000E+00 0. -1.
        994   -1    0    0    0    0 -0.00000000000E+00 -0.00000000000E+00  0.11368683772E-12  0.17120000000E+03  0.17120000000E+03 0.  0.
         13    1    1    2    0    0  0.77731717624E+01 -0.23532559073E+02  0.12505126412E+03  0.12748346308E+03  0.10566000000E+00 0. -1.
        994    1    1    2    0    0 -0.85571699176E+00  0.58026033244E+01  0.27226793054E+01  0.17132208100E+03  0.17120000000E+03 0.  0.
        998    1    1    2    0    0 -0.69174547707E+01  0.17729955749E+02  0.13722260528E+04  0.13723944559E+04  0.10000000000E+02 0. -1.
</event>
<event>
 5    1  0.1364103E-008  0.3772011E+03  0.7957747E-01  0.3463437E+00
         13   -1    0    0    0    0  0.00000000000E+00  0.00000000000E+00  0.14999999963E+04  0.15000000000E+04  0.10566000000E+00 0.  1.
        994   -1    0    0    0    0 -0.00000000000E+00 -0.00000000000E+00  0.11368683772E-12  0.17120000000E+03  0.17120000000E+03 0.  0.
         13    1    1    2    0    0  0.11792258125E+02  0.67943053930E+00  0.10176318800E+02  0.15591266976E+02  0.10566000000E+00 0.  1.
        994    1    1    2    0    0 -0.48458242013E+01  0.21178182686E+02  0.71469575438E+01  0.17272092067E+03  0.17120000000E+03 0.  0.
        998    1    1    2    0    0 -0.69464339239E+01 -0.21857613226E+02  0.14826767199E+04  0.14828878124E+04  0.10000000000E+02 0.  1.
</event>
<event>
 5    1  0.1364103E-008  0.3783347E+03  0.7957747E-01  0.3458442E+00
         13   -1    0    0    0    0  0.00000000000E+00  0.00000000000E+00  0.14999999963E+04  0.15000000000E+04  0.10566000000E+00 0.  1.
        994   -1    0    0    0    0 -0.00000000000E+00 -0.00000000000E+00  0.11368683772E-12  0.17120000000E+03  0.17120000000E+03 0.  0.
         13    1    1    2    0    0  0.23347825506E+02  0.16063625618E+02  0.83316311639E+02  0.88004431553E+02  0.10566000000E+00 0.  1.
        994    1    1    2    0    0 -0.10934932835E+01 -0.76164299441E+01  0.51751803962E+01  0.17145094991E+03  0.17120000000E+03 0.  0.
        998    1    1    2    0    0 -0.22254332223E+02 -0.84471956741E+01  0.14115085042E+04  0.14117446185E+04  0.10000000000E+02 0.  1.
</event>
<event>
 5    1  0.1364103E-008  0.3870687E+03  0.7957747E-01  0.3420946E+00
         13   -1    0    0    0    0  0.00000000000E+00  0.00000000000E+00  0.14999999963E+04  0.15000000000E+04  0.10566000000E+00 0.  1.
        994   -1    0    0    0    0 -0.00000000000E+00 -0.00000000000E+00  0.11368683772E-12  0.17120000000E+03  0.17120000000E+03 0.  0.
         13    1    1    2    0    0  0.10432196121E+03 -0.27667260171E+02  0.23055152604E+03  0.25456348167E+03  0.10566000000E+00 0.  1.
        994    1    1    2    0    0 -0.10978713957E+03  0.24655546087E+02  0.69065583468E+02  0.21619576034E+03  0.17120000000E+03 0.  0.
        998    1    1    2    0    0  0.54651783618E+01  0.30117140845E+01  0.12003828868E+04  0.12004407580E+04  0.10000000000E+02 0.  1.
</event>
<event>
 5    1  0.1364103E-008  0.3851911E+03  0.7957747E-01  0.3428862E+00
         13   -1    0    0    0    0  0.00000000000E+00  0.00000000000E+00  0.14999999963E+04  0.15000000000E+04  0.10566000000E+00 0.  1.
        994   -1    0    0    0    0 -0.00000000000E+00 -0.00000000000E+00  0.11368683772E-12  0.17120000000E+03  0.17120000000E+03 0.  0.
         13    1    1    2    0    0 -0.67724631790E+01  0.10689466590E+02  0.55455899351E+02  0.56881445924E+02  0.10566000000E+00 0.  1.
        994    1    1    2    0    0  0.61560610253E+01  0.55280294792E+01  0.17603231327E+01  0.17140885314E+03  0.17120000000E+03 0.  0.
        998    1    1    2    0    0  0.61640215373E+00 -0.16217496069E+02  0.14427837738E+04  0.14429097009E+04  0.10000000000E+02 0.  1.
</event>
<event>
 5    1  0.1364103E-008  0.3827849E+03  0.7957747E-01  0.3439121E+00
         13   -1    0    0    0    0  0.00000000000E+00  0.00000000000E+00  0.14999999963E+04  0.15000000000E+04  0.10566000000E+00 0. -1.
        994   -1    0    0    0    0 -0.00000000000E+00 -0.00000000000E+00  0.11368683772E-12  0.17120000000E+03  0.17120000000E+03 0.  0.
         13    1    1    2    0    0 -0.12110082886E+01  0.10390184466E+02  0.19062261007E+02  0.21744043622E+02  0.10566000000E+00 0. -1.
        994    1    1    2    0    0  0.11428318606E+00 -0.57472386756E+01  0.28433812210E+01  0.17132007655E+03  0.17120000000E+03 0.  0.
        998    1    1    2    0    0  0.10967251025E+01 -0.46429457903E+01  0.14780943541E+04  0.14781358798E+04  0.10000000000E+02 0. -1.
</event>
<event>
 5    1  0.1364103E-008  0.3834524E+03  0.7957747E-01  0.3436262E+00
         13   -1    0    0    0    0  0.00000000000E+00  0.00000000000E+00  0.14999999963E+04  0.15000000000E+04  0.10566000000E+00 0. -1.
        994   -1    0    0    0    0 -0.00000000000E+00 -0.00000000000E+00  0.11368683772E-12  0.17120000000E+03  0.17120000000E+03 0.  0.
         13    1    1    2    0    0  0.28871244624E+02  0.16187475330E+02  0.19799170646E+03  0.20073940847E+03  0.10566000000E+00 0. -1.
        994    1    1    2    0    0 -0.31366765101E+02 -0.14572827096E+02  0.63643712581E+01  0.17477467341E+03  0.17120000000E+03 0.  0.
        998    1    1    2    0    0  0.24955204767E+01 -0.16146482338E+01  0.12956439186E+04  0.12956859181E+04  0.10000000000E+02 0. -1.
</event>
<event>
 5    1  0.1364103E-008  0.3727788E+03  0.7957747E-01  0.3483217E+00
         13   -1    0    0    0    0  0.00000000000E+00  0.00000000000E+00  0.14999999963E+04  0.15000000000E+04  0.10566000000E+00 0. -1.
        994   -1    0    0    0    0 -0.00000000000E+00 -0.00000000000E+00  0.11368683772E-12  0.17120000000E+03  0.17120000000E+03 0.  0.
         13    1    1    2    0    0 -0.92713199840E+01 -0.17536721067E+02  0.22099318973E+02  0.29696549010E+02  0.10566000000E+00 0. -1.
        994    1    1    2    0    0  0.84810106725E+01  0.54811758067E+01  0.81730960350E+01  0.17169219647E+03  0.17120000000E+03 0.  0.
        998    1    1    2    0    0  0.79030931158E+00  0.12055545261E+02  0.14697275813E+04  0.14698112545E+04  0.10000000000E+02 0. -1.
</event>
<event>
 5    1  0.1364103E-008  0.3850707E+03  0.7957747E-01  0.3429373E+00
         13   -1    0    0    0    0  0.00000000000E+00  0.00000000000E+00  0.14999999963E+04  0.15000000000E+04  0.10566000000E+00 0.  1.
        994   -1    0    0    0    0 -0.00000000000E+00 -0.00000000000E+00  0.11368683772E-12  0.17120000000E+03  0.17120000000E+03 0.  0.
         13    1    1    2    0    0  0.10007045000E+02  0.23162603017E+01  0.31469968613E+02  0.33104019392E+02  0.10566000000E+00 0.  1.
        994    1    1    2    0    0 -0.18341929091E+02  0.45930895098E+01  0.27714373191E+01  0.17226329760E+03  0.17120000000E+03 0.  0.
        998    1    1    2    0    0  0.83348840917E+01 -0.69093498115E+01  0.14657585903E+04  0.14658326830E+04  0.10000000000E+02 0.  1.
</event>
<event>
 5    1  0.1364103E-008  0.3821728E+03  0.7957747E-01  0.3441752E+00
         13   -1    0    0    0    0  0.00000000000E+00  0.00000000000E+00  0.14999999963E+04  0.15000000000E+04  0.10566000000E+00 0. -1.
        994   -1    0    0    0    0 -0.00000000000E+00 -0.00000000000E+00  0.11368683772E-12  0.17120000000E+03  0.17120000000E+03 0.  0.
         13    1    1    2    0    0 -0.38682022426E+02  0.91223473232E+01  0.20690156732E+03  0.21068409005E+03  0.10566000000E+00 0. -1.
        994    1    1    2    0    0  0.49349257011E+02 -0.77924104444E+01  0.11369654706E+02  0.17870304943E+03  0.17120000000E+03 0.  0.
        998    1    1    2    0    0 -0.10667234585E+02 -0.13299368788E+01  0.12817287743E+04  0.12818128605E+04  0.10000000000E+02 0. -1.
</event>
<event>
 5    1  0.1364103E-008  0.3814170E+03  0.7957747E-01  0.3445012E+00
         13   -1    0    0    0    0  0.00000000000E+00  0.00000000000E+00  0.14999999963E+04  0.15000000000E+04  0.10566000000E+00 0.  1.
        994   -1    0    0    0    0 -0.00000000000E+00 -0.00000000000E+00  0.11368683772E-12  0.17120000000E+03  0.17120000000E+03 0.  0.
         13    1    1    2    0    0  0.43370064208E+01  0.11331107334E+02  0.20079141777E+02  0.23460322177E+02  0.10566000000E+00 0.  1.
        994    1    1    2    0    0 -0.52151338390E+01 -0.83339770182E+01  0.37412050890E+01  0.17152285390E+03  0.17120000000E+03 0.  0.
        998    1    1    2    0    0  0.87812741816E+00 -0.29971303162E+01  0.14761796494E+04  0.14762168239E+04  0.10000000000E+02 0.  1.
</event>
<event>
 5    1  0.1364103E-008  0.3761447E+03  0.7957747E-01  0.3468119E+00
         13   -1    0    0    0    0  0.00000000000E+00  0.00000000000E+00  0.14999999963E+04  0.15000000000E+04  0.10566000000E+00 0.  1.
        994   -1    0    0    0    0 -0.00000000000E+00 -0.00000000000E+00  0.11368683772E-12  0.17120000000E+03  0.17120000000E+03 0.  0.
         13    1    1    2    0    0  0.15638316740E+02  0.94474258626E+02  0.51936557127E+03  0.52811982568E+03  0.10566000000E+00 0.  1.
        994    1    1    2    0    0 -0.10926365942E+02 -0.89144673012E+02  0.33913495756E+02  0.19627970703E+03  0.17120000000E+03 0.  0.
        998    1    1    2    0    0 -0.47119507983E+01 -0.53295856146E+01  0.94672092926E+03  0.94680046729E+03  0.10000000000E+02 0. -1.
</event>
<event>
 5    1  0.1364103E-008  0.3868946E+03  0.7957747E-01  0.3421677E+00
         13   -1    0    0    0    0  0.00000000000E+00  0.00000000000E+00  0.14999999963E+04  0.15000000000E+04  0.10566000000E+00 0. -1.
        994   -1    0    0    0    0 -0.00000000000E+00 -0.00000000000E+00  0.11368683772E-12  0.17120000000E+03  0.17120000000E+03 0.  0.
         13    1    1    2    0    0 -0.14923863523E+03  0.16569754192E+03  0.11351783261E+04  0.11568741024E+04  0.10566000000E+00 0. -1.
        994    1    1    2    0    0  0.15910537426E+03 -0.17885281137E+03  0.21799508703E+03  0.36624328829E+03  0.17120000000E+03 0.  0.
        998    1    1    2    0    0 -0.98667390244E+01  0.13155269445E+02  0.14682658319E+03  0.14808260933E+03  0.10000000000E+02 0. -1.
</event>
<event>
 5    1  0.1364103E-008  0.3850186E+03  0.7957747E-01  0.3429593E+00
         13   -1    0    0    0    0  0.00000000000E+00  0.00000000000E+00  0.14999999963E+04  0.15000000000E+04  0.10566000000E+00 0.  1.
        994   -1    0    0    0    0 -0.00000000000E+00 -0.00000000000E+00  0.11368683772E-12  0.17120000000E+03  0.17120000000E+03 0.  0.
         13    1    1    2    0    0  0.13031244276E+02 -0.32997201800E+01  0.56123205926E+02  0.57710717272E+02  0.10566000000E+00 0.  1.
        994    1    1    2    0    0 -0.67514677423E+01  0.49249404350E+01  0.18506025639E+01  0.17141383283E+03  0.17120000000E+03 0.  0.
        998    1    1    2    0    0 -0.62797765338E+01 -0.16252202550E+01  0.14420261878E+04  0.14420754499E+04  0.10000000000E+02 0.  1.
</event>
<event>
 5    1  0.1364103E-008  0.3816976E+03  0.7957747E-01  0.3443800E+00
         13   -1    0    0    0    0  0.00000000000E+00  0.00000000000E+00  0.14999999963E+04  0.15000000000E+04  0.10566000000E+00 0. -1.
        994   -1    0    0    0    0 -0.00000000000E+00 -0.00000000000E+00  0.11368683772E-12  0.17120000000E+03  0.17120000000E+03 0.  0.
         13    1    1    2    0    0  0.35132016386E+01 -0.23878668428E+02  0.98378981848E+02  0.10129643935E+03  0.10566000000E+00 0. -1.
        994    1    1    2    0    0 -0.41400966117E+01 -0.55829492415E+01  0.34392579453E+01  0.17137554731E+03  0.17120000000E+03 0.  0.
        998    1    1    2    0    0  0.62689497317E+00  0.29461617670E+02  0.13981817565E+04  0.13985280133E+04  0.10000000000E+02 0. -1.
</event>
<event>
 5    1  0.1364103E-008  0.4007737E+03  0.7957747E-01  0.3365410E+00
         13   -1    0    0    0    0  0.00000000000E+00  0.00000000000E+00  0.14999999963E+04  0.15000000000E+04  0.10566000000E+00 0. -1.
        994   -1    0    0    0    0 -0.00000000000E+00 -0.00000000000E+00  0.11368683772E-12  0.17120000000E+03  0.17120000000E+03 0.  0.
         13    1    1    2    0    0  0.88604531572E+02  0.10417463015E+03  0.29549509475E+03  0.32560786042E+03  0.10566000000E+00 0. -1.
        994    1    1    2    0    0 -0.31281563218E+02 -0.11251965635E+03  0.84113786792E+02  0.22365996153E+03  0.17120000000E+03 0.  0.
        998    1    1    2    0    0 -0.57322968353E+02  0.83450262075E+01  0.11203911147E+04  0.11219321780E+04  0.10000000000E+02 0. -1.
</event>
<event>
 5    1  0.1364103E-008  0.3858311E+03  0.7957747E-01  0.3426155E+00
         13   -1    0    0    0    0  0.00000000000E+00  0.00000000000E+00  0.14999999963E+04  0.15000000000E+04  0.10566000000E+00 0. -1.
        994   -1    0    0    0    0 -0.00000000000E+00 -0.00000000000E+00  0.11368683772E-12  0.17120000000E+03  0.17120000000E+03 0.  0.
         13    1    1    2    0    0  0.56869219548E+01  0.89322320708E+01  0.48822975705E+02  0.49958182231E+02  0.10566000000E+00 0. -1.
        994    1    1    2    0    0  0.34138058763E+01 -0.13166223458E+01  0.12619918955E+01  0.17124374496E+03  0.17120000000E+03 0.  0.
        998    1    1    2    0    0 -0.91007278311E+01 -0.76156097249E+01  0.14499150287E+04  0.14499980728E+04  0.10000000000E+02 0. -1.
</event>
<event>
 5    1  0.1364103E-008  0.3856084E+03  0.7957747E-01  0.3427096E+00
         13   -1    0    0    0    0  0.00000000000E+00  0.00000000000E+00  0.14999999963E+04  0.15000000000E+04  0.10566000000E+00 0. -1.
        994   -1    0    0    0    0 -0.00000000000E+00 -0.00000000000E+00  0.11368683772E-12  0.17120000000E+03  0.17120000000E+03 0.  0.
         13    1    1    2    0    0  0.88835553876E+01  0.80947287089E+01  0.53613031098E+02  0.54943702612E+02  0.10566000000E+00 0. -1.
        994    1    1    2    0    0 -0.52709914070E+01 -0.10897598023E+02  0.18095026107E+01  0.17163698696E+03  0.17120000000E+03 0.  0.
        998    1    1    2    0    0 -0.36125639806E+01  0.28028693144E+01  0.14445774626E+04  0.14446193104E+04  0.10000000000E+02 0. -1.
</event>
<event>
 5    1  0.1364103E-008  0.3783593E+03  0.7957747E-01  0.3458334E+00
         13   -1    0    0    0    0  0.00000000000E+00  0.00000000000E+00  0.14999999963E+04  0.15000000000E+04  0.10566000000E+00 0. -1.
        994   -1    0    0    0    0 -0.00000000000E+00 -0.00000000000E+00  0.11368683772E-12  0.17120000000E+03  0.17120000000E+03 0.  0.
         13    1    1    2    0    0  0.11203652540E+03 -0.52766346702E+02  0.28191176040E+03  0.30791349789E+03  0.10566000000E+00 0. -1.
        994    1    1    2    0    0 -0.15888045228E+03  0.77438815468E+02  0.13852562801E+03  0.28238016551E+03  0.17120000000E+03 0.  0.
        998    1    1    2    0    0  0.46843926879E+02 -0.24672468766E+02  0.10795626079E+04  0.10809063366E+04  0.10000000000E+02 0. -1.
</event>
<event>
 5    1  0.1364103E-008  0.3796282E+03  0.7957747E-01  0.3452779E+00
         13   -1    0    0    0    0  0.00000000000E+00  0.00000000000E+00  0.14999999963E+04  0.15000000000E+04  0.10566000000E+00 0.  1.
        994   -1    0    0    0    0 -0.00000000000E+00 -0.00000000000E+00  0.11368683772E-12  0.17120000000E+03  0.17120000000E+03 0.  0.
         13    1    1    2    0    0 -0.37013178207E+02  0.69415449070E+02  0.43033750739E+03  0.43746869757E+03  0.10566000000E+00 0.  1.
        994    1    1    2    0    0  0.41805145593E+02 -0.82871192655E+02  0.33718133634E+02  0.19764022188E+03  0.17120000000E+03 0.  0.
        998    1    1    2    0    0 -0.47919673860E+01  0.13455743585E+02  0.10359443553E+04  0.10360910805E+04  0.10000000000E+02 0.  1.
</event>
<event>
 5    1  0.1364103E-008  0.3818086E+03  0.7957747E-01  0.3443321E+00
         13   -1    0    0    0    0  0.00000000000E+00  0.00000000000E+00  0.14999999963E+04  0.15000000000E+04  0.10566000000E+00 0. -1.
        994   -1    0    0    0    0 -0.00000000000E+00 -0.00000000000E+00  0.11368683772E-12  0.17120000000E+03  0.17120000000E+03 0.  0.
         13    1    1    2    0    0  0.53383463937E+01 -0.19720079310E+02  0.62257257011E+02  0.65523710859E+02  0.10566000000E+00 0. -1.
        994    1    1    2    0    0 -0.10127747394E+01  0.18410746914E+02  0.43535574479E+01  0.17224510088E+03  0.17120000000E+03 0.  0.
        998    1    1    2    0    0 -0.43255716543E+01  0.13093323952E+01  0.14333891818E+04  0.14334311883E+04  0.10000000000E+02 0. -1.
</event>
<event>
 5    1  0.1364103E-008  0.3724082E+03  0.7957747E-01  0.3484896E+00
         13   -1    0    0    0    0  0.00000000000E+00  0.00000000000E+00  0.14999999963E+04  0.15000000000E+04  0.10566000000E+00 0.  1.
        994   -1    0    0    0    0 -0.00000000000E+00 -0.00000000000E+00  0.11368683772E-12  0.17120000000E+03  0.17120000000E+03 0.  0.
         13    1    1    2    0    0 -0.40108823745E+01  0.95305308463E+01 -0.12536781000E+01  0.10416384615E+02  0.10566000000E+00 0.  1.
        994    1    1    2    0    0 -0.12871531670E+02  0.19645847567E+01  0.12815842626E+02  0.17217207016E+03  0.17120000000E+03 0.  0.
        998    1    1    2    0    0  0.16882414045E+02 -0.11495115603E+02  0.14884378318E+04  0.14886115452E+04  0.10000000000E+02 0.  1.
</event>
<event>
 5    1  0.1364103E-008  0.3810840E+03  0.7957747E-01  0.3446452E+00
         13   -1    0    0    0    0  0.00000000000E+00  0.00000000000E+00  0.14999999963E+04  0.15000000000E+04  0.10566000000E+00 0. -1.
        994   -1    0    0    0    0 -0.00000000000E+00 -0.00000000000E+00  0.11368683772E-12  0.17120000000E+03  0.17120000000E+03 0.  0.
         13    1    1    2    0    0 -0.61058009651E+01  0.84880882521E+01  0.13636993596E+02  0.17184504822E+02  0.10566000000E+00 0. -1.
        994    1    1    2    0    0  0.74922103100E+01 -0.65437541096E+01  0.39166361730E+01  0.17153347770E+03  0.17120000000E+03 0.  0.
        998    1    1    2    0    0 -0.13864093449E+01 -0.19443341425E+01  0.14824463665E+04  0.14824820175E+04  0.10000000000E+02 0. -1.
</event>
<event>
 5    1  0.1364103E-008  0.4380789E+03  0.7957747E-01  0.3231667E+00
         13   -1    0    0    0    0  0.00000000000E+00  0.00000000000E+00  0.14999999963E+04  0.15000000000E+04  0.10566000000E+00 0. -1.
        994   -1    0    0    0    0 -0.00000000000E+00 -0.00000000000E+00  0.11368683772E-12  0.17120000000E+03  0.17120000000E+03 0.  0.
         13    1    1    2    0    0 -0.81318936035E+01  0.12024565587E+03  0.11454499006E+03  0.16626999537E+03  0.10566000000E+00 0. -1.
        994    1    1    2    0    0  0.12766705733E+02 -0.11599546495E+03  0.12002305442E+03  0.23944291648E+03  0.17120000000E+03 0.  0.
        998    1    1    2    0    0 -0.46348121294E+01 -0.42501909271E+01  0.12654319518E+04  0.12654870881E+04  0.10000000000E+02 0. -1.
</event>
<event>
 5    1  0.1364103E-008  0.3725480E+03  0.7957747E-01  0.3484262E+00
         13   -1    0    0    0    0  0.00000000000E+00  0.00000000000E+00  0.14999999963E+04  0.15000000000E+04  0.10566000000E+00 0. -1.
        994   -1    0    0    0    0 -0.00000000000E+00 -0.00000000000E+00  0.11368683772E-12  0.17120000000E+03  0.17120000000E+03 0.  0.
         13    1    1    2    0    0 -0.12184001700E+02  0.23766796949E+02  0.41238581420E+02  0.49131886756E+02  0.10566000000E+00 0. -1.
        994    1    1    2    0    0  0.78608672782E+01 -0.21060283170E+02  0.96772879108E+01  0.17294050614E+03  0.17120000000E+03 0.  0.
        998    1    1    2    0    0  0.43231344217E+01 -0.27065137780E+01  0.14490841269E+04  0.14491276071E+04  0.10000000000E+02 0. -1.
</event>
<event>
 5    1  0.1364103E-008  0.3784386E+03  0.7957747E-01  0.3457986E+00
         13   -1    0    0    0    0  0.00000000000E+00  0.00000000000E+00  0.14999999963E+04  0.15000000000E+04  0.10566000000E+00 0. -1.
        994   -1    0    0    0    0 -0.00000000000E+00 -0.00000000000E+00  0.11368683772E-12  0.17120000000E+03  0.17120000000E+03 0.  0.
         13    1    1    2    0    0  0.41534308881E+02 -0.14422143778E+02  0.25805428101E+03  0.26177303176E+03  0.10566000000E+00 0. -1.
        994    1    1    2    0    0  0.64452314442E+01 -0.77111846105E+01  0.52628880804E+01  0.17157546843E+03  0.17120000000E+03 0.  0.
        998    1    1    2    0    0 -0.47979540326E+02  0.22133328388E+02  0.12366828272E+04  0.12378514998E+04  0.10000000000E+02 0. -1.
</event>
<event>
 5    1  0.1364103E-008  0.3843620E+03  0.7957747E-01  0.3432383E+00
         13   -1    0    0    0    0  0.00000000000E+00  0.00000000000E+00  0.14999999963E+04  0.15000000000E+04  0.10566000000E+00 0. -1.
        994   -1    0    0    0    0 -0.00000000000E+00 -0.00000000000E+00  0.11368683772E-12  0.17120000000E+03  0.17120000000E+03 0.  0.
         13    1    1    2    0    0 -0.39741095986E+00 -0.10429848535E+02  0.27421774338E+02  0.29341174956E+02  0.10566000000E+00 0. -1.
        994    1    1    2    0    0  0.36034090666E+01  0.75373891790E+01  0.21772934706E+01  0.17141755278E+03  0.17120000000E+03 0.  0.
        998    1    1    2    0    0 -0.32059981068E+01  0.28924593565E+01  0.14704009285E+04  0.14704412723E+04  0.10000000000E+02 0. -1.
</event>
<event>
 5    1  0.1364103E-008  0.3757354E+03  0.7957747E-01  0.3469940E+00
         13   -1    0    0    0    0  0.00000000000E+00  0.00000000000E+00  0.14999999963E+04  0.15000000000E+04  0.10566000000E+00 0. -1.
        994   -1    0    0    0    0 -0.00000000000E+00 -0.00000000000E+00  0.11368683772E-12  0.17120000000E+03  0.17120000000E+03 0.  0.
         13    1    1    2    0    0  0.26656888424E+02  0.15589962460E+02  0.70452018460E+02  0.76922914006E+02  0.10566000000E+00 0. -1.
        994    1    1    2    0    0 -0.26285135673E+02 -0.15167442750E+02  0.94307006060E+01  0.17412448935E+03  0.17120000000E+03 0.  0.
        998    1    1    2    0    0 -0.37175275169E+00 -0.42251970965E+00  0.14201172772E+04  0.14201525966E+04  0.10000000000E+02 0.  0.
</event>
<event>
 5    1  0.1364103E-008  0.3834476E+03  0.7957747E-01  0.3436283E+00
         13   -1    0    0    0    0  0.00000000000E+00  0.00000000000E+00  0.14999999963E+04  0.15000000000E+04  0.10566000000E+00 0. -1.
        994   -1    0    0    0    0 -0.00000000000E+00 -0.00000000000E+00  0.11368683772E-12  0.17120000000E+03  0.17120000000E+03 0.  0.
         13    1    1    2    0    0 -0.13704531202E+02  0.58153627149E+01  0.44159539249E+02  0.46601595355E+02  0.10566000000E+00 0. -1.
        994    1    1    2    0    0  0.15811077545E+02 -0.47718320341E+01  0.33048948244E+01  0.17202651797E+03  0.17120000000E+03 0.  0.
        998    1    1    2    0    0 -0.21065463428E+01 -0.10435306808E+01  0.14525355622E+04  0.14525718867E+04  0.10000000000E+02 0. -1.
</event>
<event>
 5    1  0.1364103E-008  0.3721638E+03  0.7957747E-01  0.3486005E+00
         13   -1    0    0    0    0  0.00000000000E+00  0.00000000000E+00  0.14999999963E+04  0.15000000000E+04  0.10566000000E+00 0.  1.
        994   -1    0    0    0    0 -0.00000000000E+00 -0.00000000000E+00  0.11368683772E-12  0.17120000000E+03  0.17120000000E+03 0.  0.
         13    1    1    2    0    0 -0.63778495371E+02 -0.14880597331E+02  0.25325105651E+03  0.26158218104E+03  0.10566000000E+00 0.  1.
        994    1    1    2    0    0  0.38819847751E+02  0.21287003921E+02  0.14899792527E+02  0.17745861752E+03  0.17120000000E+03 0.  0.
        998    1    1    2    0    0  0.24958647620E+02 -0.64064065895E+01  0.12318491472E+04  0.12321592014E+04  0.10000000000E+02 0.  1.
</event>
<event>
 5    1  0.1364103E-008  0.3800403E+03  0.7957747E-01  0.3450983E+00
         13   -1    0    0    0    0  0.00000000000E+00  0.00000000000E+00  0.14999999963E+04  0.15000000000E+04  0.10566000000E+00 0.  1.
        994   -1    0    0    0    0 -0.00000000000E+00 -0.00000000000E+00  0.11368683772E-12  0.17120000000E+03  0.17120000000E+03 0.  0.
         13    1    1    2    0    0  0.33727920724E+02 -0.37238789665E+02  0.28038243789E+03  0.28484842062E+03  0.10566000000E+00 0.  1.
        994    1    1    2    0    0 -0.19462292058E+02  0.34190788217E+02  0.93036616421E+01  0.17590846748E+03  0.17120000000E+03 0.  0.
        998    1    1    2    0    0 -0.14265628666E+02  0.30480014479E+01  0.12103138967E+04  0.12104431119E+04  0.10000000000E+02 0.  1.
</event>
<event>
 5    1  0.1364103E-008  0.3788839E+03  0.7957747E-01  0.3456033E+00
         13   -1    0    0    0    0  0.00000000000E+00  0.00000000000E+00  0.14999999963E+04  0.15000000000E+04  0.10566000000E+00 0.  1.
        994   -1    0    0    0    0 -0.00000000000E+00 -0.00000000000E+00  0.11368683772E-12  0.17120000000E+03  0.17120000000E+03 0.  0.
         13    1    1    2    0    0  0.83232328805E+02 -0.76704049526E+02  0.38846983212E+03  0.40462322400E+03  0.10566000000E+00 0.  1.
        994    1    1    2    0    0 -0.72355670794E+02  0.29559117694E+02  0.38107177411E+02  0.19201739896E+03  0.17120000000E+03 0.  0.
        998    1    1    2    0    0 -0.10876658011E+02  0.47144931832E+02  0.10734229868E+04  0.10745593770E+04  0.10000000000E+02 0.  1.
</event>
<event>
 5    1  0.1364103E-008  0.3718307E+03  0.7957747E-01  0.3487519E+00
         13   -1    0    0    0    0  0.00000000000E+00  0.00000000000E+00  0.14999999963E+04  0.15000000000E+04  0.10566000000E+00 0.  1.
        994   -1    0    0    0    0 -0.00000000000E+00 -0.00000000000E+00  0.11368683772E-12  0.17120000000E+03  0.17120000000E+03 0.  0.
         13    1    1    2    0    0  0.86484446039E+00  0.10196864103E+02 -0.12174022648E+01  0.10306174159E+02  0.10566000000E+00 0.  1.
        994    1    1    2    0    0 -0.68180956494E+01 -0.12683532689E+02  0.12640027386E+02  0.17226888495E+03  0.17120000000E+03 0.  0.
        998    1    1    2    0    0  0.59532511890E+01  0.24866685853E+01  0.14885773712E+04  0.14886249409E+04  0.10000000000E+02 0.  1.
</event>
<event>
 5    1  0.1364103E-008  0.2428263E+03  0.7957747E-01  0.4413394E+00
         13   -1    0    0    0    0  0.00000000000E+00  0.00000000000E+00  0.14999999963E+04  0.15000000000E+04  0.10566000000E+00 0. -1.
        994   -1    0    0    0    0 -0.00000000000E+00 -0.00000000000E+00  0.11368683772E-12  0.17120000000E+03  0.17120000000E+03 0.  0.
         13    1    1    2    0    0  0.14468942666E+03 -0.10520034816E+03  0.34800970993E+03  0.39129645132E+03  0.10566000000E+00 0. -1.
        994    1    1    2    0    0 -0.57244501904E+02  0.95300152372E+02  0.10570091735E+03  0.22987208610E+03  0.17120000000E+03 0.  0.
        998    1    1    2    0    0 -0.87444924757E+02  0.99001957861E+01  0.10462893690E+04  0.10500314626E+04  0.10000000000E+02 0. -1.
</event>
<event>
 5    1  0.1364103E-008  0.3917690E+03  0.7957747E-01  0.3401462E+00
         13   -1    0    0    0    0  0.00000000000E+00  0.00000000000E+00  0.14999999963E+04  0.15000000000E+04  0.10566000000E+00 0. -1.
        994   -1    0    0    0    0 -0.00000000000E+00 -0.00000000000E+00  0.11368683772E-12  0.17120000000E+03  0.17120000000E+03 0.  0.
         13    1    1    2    0    0  0.45854792492E+02 -0.32865156526E+02  0.56491121991E+02  0.79837575964E+02  0.10566000000E+00 0. -1.
        994    1    1    2    0    0 -0.62308472188E+02  0.36997372167E+02  0.43126404983E+02  0.19084149984E+03  0.17120000000E+03 0.  0.
        998    1    1    2    0    0  0.16453679696E+02 -0.41322156415E+01  0.14003824693E+04  0.14005209242E+04  0.10000000000E+02 0. -1.
</event>
<event>
 5    1  0.1364103E-008  0.3169004E+03  0.7957747E-01  0.3782295E+00
         13   -1    0    0    0    0  0.00000000000E+00  0.00000000000E+00  0.14999999963E+04  0.15000000000E+04  0.10566000000E+00 0. -1.
        994   -1    0    0    0    0 -0.00000000000E+00 -0.00000000000E+00  0.11368683772E-12  0.17120000000E+03  0.17120000000E+03 0.  0.
         13    1    1    2    0    0 -0.11475841007E+03  0.18210329449E+03  0.68195090011E+03  0.71511407753E+03  0.10566000000E+00 0. -1.
        994    1    1    2    0    0  0.13459379936E+03 -0.18737238833E+03  0.23112194171E+03  0.36871492331E+03  0.17120000000E+03 0.  0.
        998    1    1    2    0    0 -0.19835389285E+02  0.52690938368E+01  0.58692715446E+03  0.58737099916E+03  0.10000000000E+02 0.  1.
</event>
<event>
 5    1  0.1364103E-008  0.3828763E+03  0.7957747E-01  0.3438729E+00
         13   -1    0    0    0    0  0.00000000000E+00  0.00000000000E+00  0.14999999963E+04  0.15000000000E+04  0.10566000000E+00 0.  1.
        994   -1    0    0    0    0 -0.00000000000E+00 -0.00000000000E+00  0.11368683772E-12  0.17120000000E+03  0.17120000000E+03 0.  0.
         13    1    1    2    0    0 -0.11754660802E+02 -0.69162730122E+01  0.33021114647E+02  0.35726909459E+02  0.10566000000E+00 0.  1.
        994    1    1    2    0    0  0.10172111687E+02  0.11691221452E+02  0.34838610150E+01  0.17193526050E+03  0.17120000000E+03 0.  0.
        998    1    1    2    0    0  0.15825491141E+01 -0.47749484395E+01  0.14634950206E+04  0.14635378300E+04  0.10000000000E+02 0.  1.
</event>
<event>
 5    1  0.1364103E-008  0.3856448E+03  0.7957747E-01  0.3426942E+00
         13   -1    0    0    0    0  0.00000000000E+00  0.00000000000E+00  0.14999999963E+04  0.15000000000E+04  0.10566000000E+00 0. -1.
        994   -1    0    0    0    0 -0.00000000000E+00 -0.00000000000E+00  0.11368683772E-12  0.17120000000E+03  0.17120000000E+03 0.  0.
         13    1    1    2    0    0  0.93146620754E+01  0.53115762927E+01  0.44835888303E+02  0.46100366770E+02  0.10566000000E+00 0. -1.
        994    1    1    2    0    0 -0.52883577710E+01  0.15495520213E+00  0.14021893135E+01  0.17128746853E+03  0.17120000000E+03 0.  0.
        998    1    1    2    0    0 -0.40263043044E+01 -0.54665314948E+01  0.14537619187E+04  0.14538121647E+04  0.10000000000E+02 0. -1.
</event>
<event>
 5    1  0.1364103E-008  0.3830748E+03  0.7957747E-01  0.3437878E+00
         13   -1    0    0    0    0  0.00000000000E+00  0.00000000000E+00  0.14999999963E+04  0.15000000000E+04  0.10566000000E+00 0.  1.
        994   -1    0    0    0    0 -0.00000000000E+00 -0.00000000000E+00  0.11368683772E-12  0.17120000000E+03  0.17120000000E+03 0.  0.
         13    1    1    2    0    0  0.13262667805E+02  0.27958413486E+01  0.35847685476E+02  0.38324702271E+02  0.10566000000E+00 0.  1.
        994    1    1    2    0    0 -0.10457931023E+01  0.25134085774E+01  0.26135113797E+01  0.17124158767E+03  0.17120000000E+03 0.  0.
        998    1    1    2    0    0 -0.12216874703E+02 -0.53092499260E+01  0.14615387994E+04  0.14616337101E+04  0.10000000000E+02 0.  1.
</event>
<event>
 5    1  0.1364103E-008  0.3844375E+03  0.7957747E-01  0.3432061E+00
         13   -1    0    0    0    0  0.00000000000E+00  0.00000000000E+00  0.14999999963E+04  0.15000000000E+04  0.10566000000E+00 0.  1.
        994   -1    0    0    0    0 -0.00000000000E+00 -0.00000000000E+00  0.11368683772E-12  0.17120000000E+03  0.17120000000E+03 0.  0.
         13    1    1    2    0    0 -0.18785529092E+02 -0.35704144287E+01  0.99845913760E+02  0.10166052145E+03  0.10566000000E+00 0.  1.
        994    1    1    2    0    0  0.61740050043E+01 -0.35278594670E-01  0.20352766685E+01  0.17132338408E+03  0.17120000000E+03 0.  0.
        998    1    1    2    0    0  0.12611524088E+02  0.36056930234E+01  0.13981188058E+04  0.13982160945E+04  0.10000000000E+02 0.  1.
</event>
<event>
 5    1  0.1364103E-008  0.3824767E+03  0.7957747E-01  0.3440445E+00
         13   -1    0    0    0    0  0.00000000000E+00  0.00000000000E+00  0.14999999963E+04  0.15000000000E+04  0.10566000000E+00 0.  1.
        994   -1    0    0    0    0 -0.00000000000E+00 -0.00000000000E+00  0.11368683772E-12  0.17120000000E+03  0.17120000000E+03 0.  0.
         13    1    1    2    0    0 -0.97713670076E+01  0.20035723005E+02  0.89838296102E+02  0.92562629717E+02  0.10566000000E+00 0.  1.
        994    1    1    2    0    0 -0.10175358704E+01 -0.56352175992E+01  0.29968542136E+01  0.17132195479E+03  0.17120000000E+03 0.  0.
        998    1    1    2    0    0  0.10788902878E+02 -0.14400505405E+02  0.14071648460E+04  0.14073154155E+04  0.10000000000E+02 0.  1.
</event>
<event>
 5    1  0.1364103E-008  0.3861963E+03  0.7957747E-01  0.3424614E+00
         13   -1    0    0    0    0  0.00000000000E+00  0.00000000000E+00  0.14999999963E+04  0.15000000000E+04  0.10566000000E+00 0. -1.
        994   -1    0    0    0    0 -0.00000000000E+00 -0.00000000000E+00  0.11368683772E-12  0.17120000000E+03  0.17120000000E+03 0.  0.
         13    1    1    2    0    0 -0.42232815982E+01  0.93236876514E+01  0.55059081992E+02  0.56002508272E+02  0.10566000000E+00 0. -1.
        994    1    1    2    0    0  0.16208069145E+01  0.37841114608E+01  0.10928665471E+01  0.17125297332E+03  0.17120000000E+03 0.  0.
        998    1    1    2    0    0  0.26024746838E+01 -0.13107799112E+02  0.14438480477E+04  0.14439445184E+04  0.10000000000E+02 0. -1.
</event>
<event>
 5    1  0.1364103E-008  0.3821813E+03  0.7957747E-01  0.3441715E+00
         13   -1    0    0    0    0  0.00000000000E+00  0.00000000000E+00  0.14999999963E+04  0.15000000000E+04  0.10566000000E+00 0. -1.
        994   -1    0    0    0    0 -0.00000000000E+00 -0.00000000000E+00  0.11368683772E-12  0.17120000000E+03  0.17120000000E+03 0.  0.
         13    1    1    2    0    0  0.22409196132E+01 -0.29458483772E+02  0.15503290939E+03  0.15782280616E+03  0.10566000000E+00 0. -1.
        994    1    1    2    0    0 -0.73234727292E+01  0.61027086969E+01  0.33377473936E+01  0.17149768763E+03  0.17120000000E+03 0.  0.
        998    1    1    2    0    0  0.50825531159E+01  0.23355775075E+02  0.13416293395E+04  0.13418795062E+04  0.10000000000E+02 0. -1.
</event>
<event>
 5    1  0.1364103E-008  0.3814505E+03  0.7957747E-01  0.3444867E+00
         13   -1    0    0    0    0  0.00000000000E+00  0.00000000000E+00  0.14999999963E+04  0.15000000000E+04  0.10566000000E+00 0.  1.
        994   -1    0    0    0    0 -0.00000000000E+00 -0.00000000000E+00  0.11368683772E-12  0.17120000000E+03  0.17120000000E+03 0.  0.
         13    1    1    2    0    0 -0.63730684990E+01  0.79200844608E+01  0.13596761257E+02  0.16977244201E+02  0.10566000000E+00 0.  1.
        994    1    1    2    0    0  0.84854054150E+01 -0.80753028951E+01  0.38593817488E+01  0.17164366417E+03  0.17120000000E+03 0.  0.
        998    1    1    2    0    0 -0.21123369160E+01  0.15521843434E+00  0.14825438533E+04  0.14825790916E+04  0.10000000000E+02 0.  1.
</event>
<event>
 5    1  0.1364103E-008  0.3775750E+03  0.7957747E-01  0.3461786E+00
         13   -1    0    0    0    0  0.00000000000E+00  0.00000000000E+00  0.14999999963E+04  0.15000000000E+04  0.10566000000E+00 0. -1.
        994   -1    0    0    0    0 -0.00000000000E+00 -0.00000000000E+00  0.11368683772E-12  0.17120000000E+03  0.17120000000E+03 0.  0.
         13    1    1    2    0    0 -0.30343462539E+02 -0.19380285153E+02  0.12412986679E+03  0.12924610696E+03  0.10566000000E+00 0. -1.
        994    1    1    2    0    0  0.23746364155E+02 -0.11631365094E+02  0.77220834721E+01  0.17340198683E+03  0.17120000000E+03 0.  0.
        998    1    1    2    0    0  0.65970983841E+01  0.31011650247E+02  0.13681480460E+04  0.13685519062E+04  0.10000000000E+02 0. -1.
</event>
<event>
 5    1  0.1364103E-008  0.3810451E+03  0.7957747E-01  0.3446621E+00
         13   -1    0    0    0    0  0.00000000000E+00  0.00000000000E+00  0.14999999963E+04  0.15000000000E+04  0.10566000000E+00 0. -1.
        994   -1    0    0    0    0 -0.00000000000E+00 -0.00000000000E+00  0.11368683772E-12  0.17120000000E+03  0.17120000000E+03 0.  0.
         13    1    1    2    0    0 -0.51043778946E+01  0.91760907449E+01  0.13770797397E+02  0.17317659774E+02  0.10566000000E+00 0. -1.
        994    1    1    2    0    0 -0.20725027130E+01 -0.90494104220E+01  0.38937052114E+01  0.17149573766E+03  0.17120000000E+03 0.  0.
        998    1    1    2    0    0  0.71768806076E+01 -0.12668032291E+00  0.14823354937E+04  0.14823866026E+04  0.10000000000E+02 0. -1.
</event>
<event>
 5    1  0.1364103E-008  0.3832675E+03  0.7957747E-01  0.3437053E+00
         13   -1    0    0    0    0  0.00000000000E+00  0.00000000000E+00  0.14999999963E+04  0.15000000000E+04  0.10566000000E+00 0. -1.
        994   -1    0    0    0    0 -0.00000000000E+00 -0.00000000000E+00  0.11368683772E-12  0.17120000000E+03  0.17120000000E+03 0.  0.
         13    1    1    2    0    0  0.23648315407E+02 -0.13019334063E+02  0.14463253223E+03  0.14713030424E+03  0.10566000000E+00 0. -1.
        994    1    1    2    0    0 -0.12379527598E+02  0.12759380746E+02  0.35386999267E+01  0.17215695425E+03  0.17120000000E+03 0.  0.
        998    1    1    2    0    0 -0.11268787810E+02  0.25995331695E+00  0.13518287641E+04  0.13519127415E+04  0.10000000000E+02 0. -1.
</event>
<event>
 5    1  0.1364103E-008  0.3859315E+03  0.7957747E-01  0.3425731E+00
         13   -1    0    0    0    0  0.00000000000E+00  0.00000000000E+00  0.14999999963E+04  0.15000000000E+04  0.10566000000E+00 0. -1.
        994   -1    0    0    0    0 -0.00000000000E+00 -0.00000000000E+00  0.11368683772E-12  0.17120000000E+03  0.17120000000E+03 0.  0.
         13    1    1    2    0    0  0.16386215784E+01  0.11688642560E+02  0.61183987160E+02  0.62312124778E+02  0.10566000000E+00 0. -1.
        994    1    1    2    0    0  0.62888243793E+01 -0.67884234827E+01  0.14491674787E+01  0.17145603545E+03  0.17120000000E+03 0.  0.
        998    1    1    2    0    0 -0.79274459577E+01 -0.49002190771E+01  0.14373668416E+04  0.14374318398E+04  0.10000000000E+02 0. -1.
</event>
<event>
 5    1  0.1364103E-008  0.3711215E+03  0.7957747E-01  0.3490752E+00
         13   -1    0    0    0    0  0.00000000000E+00  0.00000000000E+00  0.14999999963E+04  0.15000000000E+04  0.10566000000E+00 0. -1.
        994   -1    0    0    0    0 -0.00000000000E+00 -0.00000000000E+00  0.11368683772E-12  0.17120000000E+03  0.17120000000E+03 0.  0.
         13    1    1    2    0    0 -0.79025091130E+02 -0.77767052606E+02  0.51886938311E+03  0.53058281860E+03  0.10566000000E+00 0. -1.
        994    1    1    2    0    0  0.61975714215E+02  0.75783276937E+02  0.42456275685E+02  0.20173266855E+03  0.17120000000E+03 0.  0.
        998    1    1    2    0    0  0.17049376915E+02  0.19837756693E+01  0.93867433748E+03  0.93888451285E+03  0.10000000000E+02 0. -1.
</event>
<event>
 5    1  0.1364103E-008  0.3761289E+03  0.7957747E-01  0.3468189E+00
         13   -1    0    0    0    0  0.00000000000E+00  0.00000000000E+00  0.14999999963E+04  0.15000000000E+04  0.10566000000E+00 0.  1.
        994   -1    0    0    0    0 -0.00000000000E+00 -0.00000000000E+00  0.11368683772E-12  0.17120000000E+03  0.17120000000E+03 0.  0.
         13    1    1    2    0    0 -0.58856576616E+01 -0.22725423180E+02  0.13703107144E+02  0.27182202528E+02  0.10566000000E+00 0.  1.
        994    1    1    2    0    0  0.19406204750E+02 -0.96738819293E+00  0.15566933009E+02  0.17300088447E+03  0.17120000000E+03 0.  0.
        998    1    1    2    0    0 -0.13520547089E+02  0.23692811373E+02  0.14707299561E+04  0.14710169130E+04  0.10000000000E+02 0.  1.
</event>
<event>
 5    1  0.1364103E-008  0.3794787E+03  0.7957747E-01  0.3453432E+00
         13   -1    0    0    0    0  0.00000000000E+00  0.00000000000E+00  0.14999999963E+04  0.15000000000E+04  0.10566000000E+00 0.  1.
        994   -1    0    0    0    0 -0.00000000000E+00 -0.00000000000E+00  0.11368683772E-12  0.17120000000E+03  0.17120000000E+03 0.  0.
         13    1    1    2    0    0 -0.19015977190E+02  0.66635117329E+01  0.45891202065E+02  0.50120089466E+02  0.10566000000E+00 0.  1.
        994    1    1    2    0    0  0.55678483828E+01  0.21013383053E+01  0.45151480320E+01  0.17136289890E+03  0.17120000000E+03 0.  0.
        998    1    1    2    0    0  0.13448128807E+02 -0.87648500382E+01  0.14495936462E+04  0.14497170116E+04  0.10000000000E+02 0.  1.
</event>
<event>
 5    1  0.1364103E-008  0.3783851E+03  0.7957747E-01  0.3458220E+00
         13   -1    0    0    0    0  0.00000000000E+00  0.00000000000E+00  0.14999999963E+04  0.15000000000E+04  0.10566000000E+00 0.  1.
        994   -1    0    0    0    0 -0.00000000000E+00 -0.00000000000E+00  0.11368683772E-12  0.17120000000E+03  0.17120000000E+03 0.  0.
         13    1    1    2    0    0  0.21712431064E+02 -0.17989417651E+00  0.45196456197E+02  0.50141727547E+02  0.10566000000E+00 0.  1.
        994    1    1    2    0    0 -0.17521667707E+02  0.91439234794E+01  0.62644547705E+01  0.17245087292E+03  0.17120000000E+03 0.  0.
        998    1    1    2    0    0 -0.41907633569E+01 -0.89640293029E+01  0.14485390853E+04  0.14486073995E+04  0.10000000000E+02 0.  1.
</event>
<event>
 5    1  0.1364103E-008  0.3694463E+03  0.7957747E-01  0.3498440E+00
         13   -1    0    0    0    0  0.00000000000E+00  0.00000000000E+00  0.14999999963E+04  0.15000000000E+04  0.10566000000E+00 0. -1.
        994   -1    0    0    0    0 -0.00000000000E+00 -0.00000000000E+00  0.11368683772E-12  0.17120000000E+03  0.17120000000E+03 0.  0.
         13    1    1    2    0    0 -0.31685130441E+02 -0.34445744877E+02  0.99122602673E+02  0.10961641463E+03  0.10566000000E+00 0. -1.
        994    1    1    2    0    0  0.20594051219E+02  0.21560681732E+02  0.13754434302E+02  0.17432040158E+03  0.17120000000E+03 0.  0.
        998    1    1    2    0    0  0.11091079221E+02  0.12885063145E+02  0.13871229593E+04  0.13872631838E+04  0.10000000000E+02 0. -1.
</event>
<event>
 5    1  0.1364103E-008  0.3819695E+03  0.7957747E-01  0.3442628E+00
         13   -1    0    0    0    0  0.00000000000E+00  0.00000000000E+00  0.14999999963E+04  0.15000000000E+04  0.10566000000E+00 0.  1.
        994   -1    0    0    0    0 -0.00000000000E+00 -0.00000000000E+00  0.11368683772E-12  0.17120000000E+03  0.17120000000E+03 0.  0.
         13    1    1    2    0    0  0.74342942249E+01 -0.31750408830E+02  0.18188537077E+03  0.18478543355E+03  0.10566000000E+00 0.  1.
        994    1    1    2    0    0 -0.69476419069E+01  0.80454652138E+01  0.35176535434E+01  0.17156576909E+03  0.17120000000E+03 0.  0.
        998    1    1    2    0    0 -0.48665231792E+00  0.23704943616E+02  0.13145969720E+04  0.13148487974E+04  0.10000000000E+02 0.  1.
</event>
<event>
 5    1  0.1364103E-008  0.3810654E+03  0.7957747E-01  0.3446533E+00
         13   -1    0    0    0    0  0.00000000000E+00  0.00000000000E+00  0.14999999963E+04  0.15000000000E+04  0.10566000000E+00 0.  1.
        994   -1    0    0    0    0 -0.00000000000E+00 -0.00000000000E+00  0.11368683772E-12  0.17120000000E+03  0.17120000000E+03 0.  0.
         13    1    1    2    0    0 -0.32750407744E+02 -0.14808405441E+01  0.19051631712E+03  0.19331647718E+03  0.10566000000E+00 0.  1.
        994    1    1    2    0    0 -0.12273149309E+02  0.64546875754E+01  0.42371486258E+01  0.17181294076E+03  0.17120000000E+03 0.  0.
        998    1    1    2    0    0  0.45023557053E+02 -0.49738470313E+01  0.13052465305E+04  0.13060705821E+04  0.10000000000E+02 0.  1.
</event>
<event>
 5    1  0.1364103E-008  0.3813953E+03  0.7957747E-01  0.3445105E+00
         13   -1    0    0    0    0  0.00000000000E+00  0.00000000000E+00  0.14999999963E+04  0.15000000000E+04  0.10566000000E+00 0.  1.
        994   -1    0    0    0    0 -0.00000000000E+00 -0.00000000000E+00  0.11368683772E-12  0.17120000000E+03  0.17120000000E+03 0.  0.
         13    1    1    2    0    0  0.99450505233E+01 -0.87512111195E+01  0.24154090981E+02  0.27548484552E+02  0.10566000000E+00 0.  1.
        994    1    1    2    0    0 -0.99150080761E+01  0.41604475352E+01  0.38152717690E+01  0.17157975699E+03  0.17120000000E+03 0.  0.
        998    1    1    2    0    0 -0.30042447259E-01  0.45907635843E+01  0.14720306335E+04  0.14720717585E+04  0.10000000000E+02 0.  1.
</event>
<event>
 5    1  0.1364103E-008  0.3776545E+03  0.7957747E-01  0.3461435E+00
         13   -1    0    0    0    0  0.00000000000E+00  0.00000000000E+00  0.14999999963E+04  0.15000000000E+04  0.10566000000E+00 0.  1.
        994   -1    0    0    0    0 -0.00000000000E+00 -0.00000000000E+00  0.11368683772E-12  0.17120000000E+03  0.17120000000E+03 0.  0.
         13    1    1    2    0    0  0.38543748262E+02  0.76666049148E+01  0.13912968616E+03  0.14457343496E+03  0.10566000000E+00 0.  1.
        994    1    1    2    0    0 -0.28342510711E+02 -0.43123827747E+01  0.80958113766E+01  0.17377248551E+03  0.17120000000E+03 0.  0.
        998    1    1    2    0    0 -0.10201237552E+02 -0.33542221401E+01  0.13527744987E+04  0.13528540795E+04  0.10000000000E+02 0.  1.
</event>
<event>
 5    1  0.1364103E-008  0.3746047E+03  0.7957747E-01  0.3474993E+00
         13   -1    0    0    0    0  0.00000000000E+00  0.00000000000E+00  0.14999999963E+04  0.15000000000E+04  0.10566000000E+00 0. -1.
        994   -1    0    0    0    0 -0.00000000000E+00 -0.00000000000E+00  0.11368683772E-12  0.17120000000E+03  0.17120000000E+03 0.  0.
         13    1    1    2    0    0 -0.31498185197E+02 -0.41565120254E+02  0.24293586683E+03  0.24847060480E+03  0.10566000000E+00 0. -1.
        994    1    1    2    0    0  0.14585636883E+02 -0.12892626000E+02  0.81728202160E+01  0.17249694374E+03  0.17120000000E+03 0.  0.
        998    1    1    2    0    0  0.16912548314E+02  0.54457746254E+02  0.12488913092E+04  0.12502324515E+04  0.10000000000E+02 0. -1.
</event>
<event>
 5    1  0.1364103E-008  0.3814524E+03  0.7957747E-01  0.3444859E+00
         13   -1    0    0    0    0  0.00000000000E+00  0.00000000000E+00  0.14999999963E+04  0.15000000000E+04  0.10566000000E+00 0.  1.
        994   -1    0    0    0    0 -0.00000000000E+00 -0.00000000000E+00  0.11368683772E-12  0.17120000000E+03  0.17120000000E+03 0.  0.
         13    1    1    2    0    0 -0.33268733170E+01  0.31827298884E+02  0.15405142503E+03  0.15734007041E+03  0.10566000000E+00 0.  1.
        994    1    1    2    0    0 -0.28353241747E+02 -0.18831953775E+02  0.72658186480E+01  0.17470197744E+03  0.17120000000E+03 0.  0.
        998    1    1    2    0    0  0.31680115064E+02 -0.12995345109E+02  0.13386827526E+04  0.13391579521E+04  0.10000000000E+02 0.  1.
</event>
<event>
 5    1  0.1364103E-008  0.3831399E+03  0.7957747E-01  0.3437600E+00
         13   -1    0    0    0    0  0.00000000000E+00  0.00000000000E+00  0.14999999963E+04  0.15000000000E+04  0.10566000000E+00 0.  1.
        994   -1    0    0    0    0 -0.00000000000E+00 -0.00000000000E+00  0.11368683772E-12  0.17120000000E+03  0.17120000000E+03 0.  0.
         13    1    1    2    0    0 -0.20579490547E+02  0.34546646861E+01  0.89431311625E+02  0.91833658330E+02  0.10566000000E+00 0.  1.
        994    1    1    2    0    0  0.52018397481E+01  0.79309850246E+01  0.28541721635E+01  0.17148628505E+03  0.17120000000E+03 0.  0.
        998    1    1    2    0    0  0.15377650799E+02 -0.11385649711E+02  0.14077145125E+04  0.14078800566E+04  0.10000000000E+02 0.  1.
</event>
<event>
 5    1  0.1364103E-008  0.3840381E+03  0.7957747E-01  0.3433762E+00
         13   -1    0    0    0    0  0.00000000000E+00  0.00000000000E+00  0.14999999963E+04  0.15000000000E+04  0.10566000000E+00 0. -1.
        994   -1    0    0    0    0 -0.00000000000E+00 -0.00000000000E+00  0.11368683772E-12  0.17120000000E+03  0.17120000000E+03 0.  0.
         13    1    1    2    0    0 -0.23130299527E+01  0.11673156641E+02  0.33092729954E+02  0.35167493988E+02  0.10566000000E+00 0. -1.
        994    1    1    2    0    0  0.37200843513E+00 -0.77037059116E+01  0.23047035078E+01  0.17138913948E+03  0.17120000000E+03 0.  0.
        998    1    1    2    0    0  0.19410215176E+01 -0.39694507296E+01  0.14646025628E+04  0.14646433665E+04  0.10000000000E+02 0. -1.
</event>
<event>
 5    1  0.1364103E-008  0.3853264E+03  0.7957747E-01  0.3428289E+00
         13   -1    0    0    0    0  0.00000000000E+00  0.00000000000E+00  0.14999999963E+04  0.15000000000E+04  0.10566000000E+00 0. -1.
        994   -1    0    0    0    0 -0.00000000000E+00 -0.00000000000E+00  0.11368683772E-12  0.17120000000E+03  0.17120000000E+03 0.  0.
         13    1    1    2    0    0  0.13949907990E+02  0.91289754846E+01  0.99747148141E+02  0.10113082049E+03  0.10566000000E+00 0. -1.
        994    1    1    2    0    0 -0.43209354623E+01 -0.21913222924E+01  0.15452724113E+01  0.17127550976E+03  0.17120000000E+03 0.  0.
        998    1    1    2    0    0 -0.96289725282E+01 -0.69376531922E+01  0.13987075757E+04  0.13987936698E+04  0.10000000000E+02 0. -1.
</event>
<event>
 5    1  0.1364103E-008  0.3735200E+03  0.7957747E-01  0.3479868E+00
         13   -1    0    0    0    0  0.00000000000E+00  0.00000000000E+00  0.14999999963E+04  0.15000000000E+04  0.10566000000E+00 0. -1.
        994   -1    0    0    0    0 -0.00000000000E+00 -0.00000000000E+00  0.11368683772E-12  0.17120000000E+03  0.17120000000E+03 0.  0.
         13    1    1    2    0    0  0.56217584176E+01 -0.43670005179E+02  0.16098452732E+03  0.16689728195E+03  0.10566000000E+00 0. -1.
        994    1    1    2    0    0 -0.18326146865E+02 -0.20053861274E+02  0.99660241148E+01  0.17362824266E+03  0.17120000000E+03 0.  0.
        998    1    1    2    0    0  0.12704388447E+02  0.63723866454E+02  0.13290494448E+04  0.13306744754E+04  0.10000000000E+02 0. -1.
</event>
<event>
 5    1  0.1364103E-008  0.3783784E+03  0.7957747E-01  0.3458250E+00
         13   -1    0    0    0    0  0.00000000000E+00  0.00000000000E+00  0.14999999963E+04  0.15000000000E+04  0.10566000000E+00 0. -1.
        994   -1    0    0    0    0 -0.00000000000E+00 -0.00000000000E+00  0.11368683772E-12  0.17120000000E+03  0.17120000000E+03 0.  0.
         13    1    1    2    0    0 -0.28955347218E+02  0.26909235916E+01  0.20534999111E+02  0.35599867343E+02  0.10566000000E+00 0. -1.
        994    1    1    2    0    0  0.31004009439E+02 -0.14566089141E+01  0.18917264572E+02  0.17501620842E+03  0.17120000000E+03 0.  0.
        998    1    1    2    0    0 -0.20486622210E+01 -0.12343146774E+01  0.14605477326E+04  0.14605839242E+04  0.10000000000E+02 0. -1.
</event>
<event>
 5    1  0.1364103E-008  0.3831881E+03  0.7957747E-01  0.3437393E+00
         13   -1    0    0    0    0  0.00000000000E+00  0.00000000000E+00  0.14999999963E+04  0.15000000000E+04  0.10566000000E+00 0.  1.
        994   -1    0    0    0    0 -0.00000000000E+00 -0.00000000000E+00  0.11368683772E-12  0.17120000000E+03  0.17120000000E+03 0.  0.
         13    1    1    2    0    0 -0.26848135929E+02  0.10902850475E+02  0.15072549467E+03  0.15348576631E+03  0.10566000000E+00 0.  1.
        994    1    1    2    0    0  0.29004060483E+02 -0.55657795147E+01  0.54231014499E+01  0.17381330057E+03  0.17120000000E+03 0.  0.
        998    1    1    2    0    0 -0.21559245539E+01 -0.53370709603E+01  0.13438514002E+04  0.13439009331E+04  0.10000000000E+02 0.  1.
</event>
<event>
 5    1  0.1364103E-008  0.3815661E+03  0.7957747E-01  0.3444367E+00
         13   -1    0    0    0    0  0.00000000000E+00  0.00000000000E+00  0.14999999963E+04  0.15000000000E+04  0.10566000000E+00 0. -1.
        994   -1    0    0    0    0 -0.00000000000E+00 -0.00000000000E+00  0.11368683772E-12  0.17120000000E+03  0.17120000000E+03 0.  0.
         13    1    1    2    0    0  0.93574744041E+01 -0.11215789126E+02  0.29923639416E+02  0.33298522683E+02  0.10566000000E+00 0. -1.
        994    1    1    2    0    0 -0.91206079778E+01  0.14587920074E+02  0.43296485869E+01  0.17211675909E+03  0.17120000000E+03 0.  0.
        998    1    1    2    0    0 -0.23686642634E+00 -0.33721309474E+01  0.14657467083E+04  0.14657847182E+04  0.10000000000E+02 0. -1.
</event>
<event>
 5    1  0.1364103E-008  0.2952825E+03  0.7957747E-01  0.3930284E+00
         13   -1    0    0    0    0  0.00000000000E+00  0.00000000000E+00  0.14999999963E+04  0.15000000000E+04  0.10566000000E+00 0.  1.
        994   -1    0    0    0    0 -0.00000000000E+00 -0.00000000000E+00  0.11368683772E-12  0.17120000000E+03  0.17120000000E+03 0.  0.
         13    1    1    2    0    0  0.19193767537E+03 -0.10834601341E+03  0.88346578613E+03  0.91054419787E+03  0.10566000000E+00 0.  1.
        994    1    1    2    0    0 -0.37490452833E+02  0.82566519385E+02  0.94499215586E+02  0.21555116776E+03  0.17120000000E+03 0.  0.
        998    1    1    2    0    0 -0.15444722254E+03  0.25779494027E+02  0.52203499457E+03  0.54510463437E+03  0.10000000000E+02 0.  1.
</event>
<event>
 5    1  0.1364103E-008  0.3796845E+03  0.7957747E-01  0.3452533E+00
         13   -1    0    0    0    0  0.00000000000E+00  0.00000000000E+00  0.14999999963E+04  0.15000000000E+04  0.10566000000E+00 0.  1.
        994   -1    0    0    0    0 -0.00000000000E+00 -0.00000000000E+00  0.11368683772E-12  0.17120000000E+03  0.17120000000E+03 0.  0.
         13    1    1    2    0    0  0.13590834127E+02  0.70162089094E+01  0.25909232058E+02  0.30087163868E+02  0.10566000000E+00 0.  1.
        994    1    1    2    0    0 -0.56001054770E+01 -0.20582828296E+00  0.43975808887E+01  0.17134813178E+03  0.17120000000E+03 0.  0.
        998    1    1    2    0    0 -0.79907286504E+01 -0.68103806265E+01  0.14696931833E+04  0.14697647044E+04  0.10000000000E+02 0.  1.
</event>
<event>
 5    1  0.1364103E-008  0.3836900E+03  0.7957747E-01  0.3435247E+00
         13   -1    0    0    0    0  0.00000000000E+00  0.00000000000E+00  0.14999999963E+04  0.15000000000E+04  0.10566000000E+00 0. -1.
        994   -1    0    0    0    0 -0.00000000000E+00 -0.00000000000E+00  0.11368683772E-12  0.17120000000E+03  0.17120000000E+03 0.  0.
         13    1    1    2    0    0  0.84119826333E+01 -0.16393476355E+02  0.76683716454E+02  0.78866412699E+02  0.10566000000E+00 0. -1.
        994    1    1    2    0    0 -0.17405911032E+01  0.52625111385E+01  0.23834246924E+01  0.17130628825E+03  0.17120000000E+03 0.  0.
        998    1    1    2    0    0 -0.66713915301E+01  0.11130965217E+02  0.14209328551E+04  0.14210272991E+04  0.10000000000E+02 0. -1.
</event>
<event>
 5    1  0.1364103E-008  0.3830273E+03  0.7957747E-01  0.3438082E+00
         13   -1    0    0    0    0  0.00000000000E+00  0.00000000000E+00  0.14999999963E+04  0.15000000000E+04  0.10566000000E+00 0.  1.
        994   -1    0    0    0    0 -0.00000000000E+00 -0.00000000000E+00  0.11368683772E-12  0.17120000000E+03  0.17120000000E+03 0.  0.
         13    1    1    2    0    0 -0.56312638313E+01  0.25325903426E+02  0.13918876878E+03  0.14158614705E+03  0.10566000000E+00 0.  1.
        994    1    1    2    0    0  0.18477480646E+02 -0.12159452214E+01  0.37484880518E+01  0.17223933052E+03  0.17120000000E+03 0.  0.
        998    1    1    2    0    0 -0.12846216814E+02 -0.24109958205E+02  0.13570627394E+04  0.13573745224E+04  0.10000000000E+02 0.  1.
</event>
<event>
 5    1  0.1364103E-008  0.3797309E+03  0.7957747E-01  0.3452331E+00
         13   -1    0    0    0    0  0.00000000000E+00  0.00000000000E+00  0.14999999963E+04  0.15000000000E+04  0.10566000000E+00 0. -1.
        994   -1    0    0    0    0 -0.00000000000E+00 -0.00000000000E+00  0.11368683772E-12  0.17120000000E+03  0.17120000000E+03 0.  0.
         13    1    1    2    0    0  0.13221796882E+01 -0.16577445055E+02  0.31206051846E+02  0.35360835391E+02  0.10566000000E+00 0. -1.
        994    1    1    2    0    0  0.11201982747E+00  0.59682037066E+01  0.43882863047E+01  0.17136023185E+03  0.17120000000E+03 0.  0.
        998    1    1    2    0    0 -0.14341995157E+01  0.10609241349E+02  0.14644056581E+04  0.14644789328E+04  0.10000000000E+02 0. -1.
</event>
<event>
 5    1  0.1364103E-008  0.3785172E+03  0.7957747E-01  0.3457640E+00
         13   -1    0    0    0    0  0.00000000000E+00  0.00000000000E+00  0.14999999963E+04  0.15000000000E+04  0.10566000000E+00 0.  1.
        994   -1    0    0    0    0 -0.00000000000E+00 -0.00000000000E+00  0.11368683772E-12  0.17120000000E+03  0.17120000000E+03 0.  0.
         13    1    1    2    0    0 -0.93463155143E+01 -0.19155391335E+02  0.44419022957E+02  0.49268076839E+02  0.10566000000E+00 0.  1.
        994    1    1    2    0    0  0.12837702343E+02  0.10877802652E+02  0.58352328036E+01  0.17212385986E+03  0.17120000000E+03 0.  0.
        998    1    1    2    0    0 -0.34913868291E+01  0.82775886828E+01  0.14497457405E+04  0.14498080633E+04  0.10000000000E+02 0.  1.
</event>
<event>
 5    1  0.1364103E-008  0.3702759E+03  0.7957747E-01  0.3494624E+00
         13   -1    0    0    0    0  0.00000000000E+00  0.00000000000E+00  0.14999999963E+04  0.15000000000E+04  0.10566000000E+00 0.  1.
        994   -1    0    0    0    0 -0.00000000000E+00 -0.00000000000E+00  0.11368683772E-12  0.17120000000E+03  0.17120000000E+03 0.  0.
         13    1    1    2    0    0  0.45538256886E+01  0.10271919257E+02  0.33451521983E+01  0.11723943914E+02  0.10566000000E+00 0.  1.
        994    1    1    2    0    0  0.26837946694E+02  0.60710966277E+02  0.24502858950E+02  0.18524558539E+03  0.17120000000E+03 0.  0.
        998    1    1    2    0    0 -0.31391772383E+02 -0.70982885534E+02  0.14721519851E+04  0.14742304707E+04  0.10000000000E+02 0.  1.
</event>
<event>
 5    1  0.1364103E-008  0.3830749E+03  0.7957747E-01  0.3437878E+00
         13   -1    0    0    0    0  0.00000000000E+00  0.00000000000E+00  0.14999999963E+04  0.15000000000E+04  0.10566000000E+00 0.  1.
        994   -1    0    0    0    0 -0.00000000000E+00 -0.00000000000E+00  0.11368683772E-12  0.17120000000E+03  0.17120000000E+03 0.  0.
         13    1    1    2    0    0 -0.25041534864E+01 -0.15207482585E+02  0.46667573027E+02  0.49146839650E+02  0.10566000000E+00 0.  1.
        994    1    1    2    0    0 -0.43122758252E+01  0.32278127681E+01  0.26849670212E+01  0.17130576040E+03  0.17120000000E+03 0.  0.
        998    1    1    2    0    0  0.68164293116E+01  0.11979669817E+02  0.14506474562E+04  0.14507474000E+04  0.10000000000E+02 0.  1.
</event>
<event>
 5    1  0.1364103E-008  0.3804607E+03  0.7957747E-01  0.3449155E+00
         13   -1    0    0    0    0  0.00000000000E+00  0.00000000000E+00  0.14999999963E+04  0.15000000000E+04  0.10566000000E+00 0.  1.
        994   -1    0    0    0    0 -0.00000000000E+00 -0.00000000000E+00  0.11368683772E-12  0.17120000000E+03  0.17120000000E+03 0.  0.
         13    1    1    2    0    0  0.57447518517E+02 -0.11221097332E+02  0.92953279890E+02  0.10984741151E+03  0.10566000000E+00 0.  1.
        994    1    1    2    0    0 -0.54677803531E+02  0.95566168752E+01  0.27849599863E+02  0.18211543410E+03  0.17120000000E+03 0.  0.
        998    1    1    2    0    0 -0.27697149854E+01  0.16644804564E+01  0.13791971165E+04  0.13792371544E+04  0.10000000000E+02 0.  1.
</event>
<event>
 5    1  0.1575463E-008  0.3855284E+03  0.7957747E-01  0.3427434E+00
         13   -1    0    0    0    0  0.00000000000E+00  0.00000000000E+00  0.14999999963E+04  0.15000000000E+04  0.10566000000E+00 0. -1.
        994   -1    0    0    0    0 -0.00000000000E+00 -0.00000000000E+00  0.11368683772E-12  0.17120000000E+03  0.17120000000E+03 0.  0.
         13    1    1    2    0    0 -0.70242185069E+01  0.83409612499E+01  0.42310239595E+02  0.43693006521E+02  0.10566000000E+00 0. -1.
        994    1    1    2    0    0  0.91649084358E+01 -0.91374876377E+01  0.19180801883E+01  0.17169917955E+03  0.17120000000E+03 0.  0.
        998    1    1    2    0    0 -0.21406899289E+01  0.79652638788E+00  0.14557716765E+04  0.14558078139E+04  0.10000000000E+02 0. -1.
</event>
<event>
 5    1  0.1364103E-008  0.3733276E+03  0.7957747E-01  0.3480736E+00
         13   -1    0    0    0    0  0.00000000000E+00  0.00000000000E+00  0.14999999963E+04  0.15000000000E+04  0.10566000000E+00 0. -1.
        994   -1    0    0    0    0 -0.00000000000E+00 -0.00000000000E+00  0.11368683772E-12  0.17120000000E+03  0.17120000000E+03 0.  0.
         13    1    1    2    0    0  0.93711893060E+01  0.19654311045E+02  0.27643877923E+02  0.35189576331E+02  0.10566000000E+00 0. -1.
        994    1    1    2    0    0 -0.11197973609E+02 -0.21647806622E+02  0.95733416070E+01  0.17319096689E+03  0.17120000000E+03 0.  0.
        998    1    1    2    0    0  0.18267843032E+01  0.19934955766E+01  0.14627827767E+04  0.14628194568E+04  0.10000000000E+02 0. -1.
</event>
<event>
 5    1  0.1364103E-008  0.3843308E+03  0.7957747E-01  0.3432515E+00
         13   -1    0    0    0    0  0.00000000000E+00  0.00000000000E+00  0.14999999963E+04  0.15000000000E+04  0.10566000000E+00 0. -1.
        994   -1    0    0    0    0 -0.00000000000E+00 -0.00000000000E+00  0.11368683772E-12  0.17120000000E+03  0.17120000000E+03 0.  0.
         13    1    1    2    0    0  0.12009619473E+02  0.12007279780E+02  0.72140130194E+02  0.74112180348E+02  0.10566000000E+00 0. -1.
        994    1    1    2    0    0 -0.10277179914E+02 -0.86097510940E+01  0.25554038478E+01  0.17174317550E+03  0.17120000000E+03 0.  0.
        998    1    1    2    0    0 -0.17324395592E+01 -0.33975286856E+01  0.14253044622E+04  0.14253446442E+04  0.10000000000E+02 0. -1.
</event>
<event>
 5    1  0.1364103E-008  0.3823708E+03  0.7957747E-01  0.3440900E+00
         13   -1    0    0    0    0  0.00000000000E+00  0.00000000000E+00  0.14999999963E+04  0.15000000000E+04  0.10566000000E+00 0. -1.
        994   -1    0    0    0    0 -0.00000000000E+00 -0.00000000000E+00  0.11368683772E-12  0.17120000000E+03  0.17120000000E+03 0.  0.
         13    1    1    2    0    0  0.19898380362E+02 -0.10023623155E+02  0.90363891047E+02  0.93070202166E+02  0.10566000000E+00 0. -1.
        994    1    1    2    0    0 -0.74823833500E+01 -0.13948409076E+02  0.37726053086E+01  0.17197155790E+03  0.17120000000E+03 0.  0.
        998    1    1    2    0    0 -0.12415997012E+02  0.23972032231E+02  0.14058634999E+04  0.14061582399E+04  0.10000000000E+02 0. -1.
</event>
<event>
 5    1  0.1364103E-008  0.3811259E+03  0.7957747E-01  0.3446271E+00
         13   -1    0    0    0    0  0.00000000000E+00  0.00000000000E+00  0.14999999963E+04  0.15000000000E+04  0.10566000000E+00 0.  1.
        994   -1    0    0    0    0 -0.00000000000E+00 -0.00000000000E+00  0.11368683772E-12  0.17120000000E+03  0.17120000000E+03 0.  0.
         13    1    1    2    0    0  0.26735219654E+02 -0.44623233929E+02  0.28411098970E+03  0.28883398451E+03  0.10566000000E+00 0.  1.
        994    1    1    2    0    0  0.15629081211E+02  0.88490711226E+02  0.30944166767E+02  0.19581076480E+03  0.17120000000E+03 0.  0.
        998    1    1    2    0    0 -0.42364300865E+02 -0.43867477297E+02  0.11849448398E+04  0.11865552507E+04  0.10000000000E+02 0.  1.
</event>
<event>
 5    1  0.1364103E-008  0.3818771E+03  0.7957747E-01  0.3443026E+00
         13   -1    0    0    0    0  0.00000000000E+00  0.00000000000E+00  0.14999999963E+04  0.15000000000E+04  0.10566000000E+00 0.  1.
        994   -1    0    0    0    0 -0.00000000000E+00 -0.00000000000E+00  0.11368683772E-12  0.17120000000E+03  0.17120000000E+03 0.  0.
         13    1    1    2    0    0 -0.33739064027E+02 -0.14653467325E+02  0.31074708018E+02  0.48152852341E+02  0.10566000000E+00 0.  1.
        994    1    1    2    0    0  0.36395025482E+02  0.19423656212E+02  0.23597327345E+02  0.17767428108E+03  0.17120000000E+03 0.  0.
        998    1    1    2    0    0 -0.26559614542E+01 -0.47701888875E+01  0.14453279609E+04  0.14453728666E+04  0.10000000000E+02 0.  1.
</event>
<event>
 5    1  0.1364103E-008  0.3753596E+03  0.7957747E-01  0.3471616E+00
         13   -1    0    0    0    0  0.00000000000E+00  0.00000000000E+00  0.14999999963E+04  0.15000000000E+04  0.10566000000E+00 0. -1.
        994   -1    0    0    0    0 -0.00000000000E+00 -0.00000000000E+00  0.11368683772E-12  0.17120000000E+03  0.17120000000E+03 0.  0.
         13    1    1    2    0    0 -0.10902144519E+02  0.11168970616E+02  0.16055239748E+02  0.22391617787E+02  0.10566000000E+00 0. -1.
        994    1    1    2    0    0  0.20236530074E+02  0.95778956479E+01  0.81978397059E+01  0.17285224271E+03  0.17120000000E+03 0.  0.
        998    1    1    2    0    0 -0.93343855548E+01 -0.20746866264E+02  0.14757469168E+04  0.14759561395E+04  0.10000000000E+02 0. -1.
</event>
<event>
 5    1  0.1364103E-008  0.3821350E+03  0.7957747E-01  0.3441914E+00
         13   -1    0    0    0    0  0.00000000000E+00  0.00000000000E+00  0.14999999963E+04  0.15000000000E+04  0.10566000000E+00 0. -1.
        994   -1    0    0    0    0 -0.00000000000E+00 -0.00000000000E+00  0.11368683772E-12  0.17120000000E+03  0.17120000000E+03 0.  0.
         13    1    1    2    0    0 -0.29272802950E+02 -0.10708175362E+02  0.18314164661E+03  0.18577522951E+03  0.10566000000E+00 0. -1.
        994    1    1    2    0    0 -0.24980869082E+01  0.83706123892E+01  0.33125983505E+01  0.17145471967E+03  0.17120000000E+03 0.  0.
        998    1    1    2    0    0  0.31770889858E+02  0.23375629724E+01  0.13135457513E+04  0.13139700508E+04  0.10000000000E+02 0. -1.
</event>
<event>
 5    1  0.1364103E-008  0.3815230E+03  0.7957747E-01  0.3444554E+00
         13   -1    0    0    0    0  0.00000000000E+00  0.00000000000E+00  0.14999999963E+04  0.15000000000E+04  0.10566000000E+00 0. -1.
        994   -1    0    0    0    0 -0.00000000000E+00 -0.00000000000E+00  0.11368683772E-12  0.17120000000E+03  0.17120000000E+03 0.  0.
         13    1    1    2    0    0 -0.26232725967E+02 -0.68987567350E+01  0.11541114722E+03  0.11855586372E+03  0.10566000000E+00 0. -1.
        994    1    1    2    0    0  0.62106668387E+01 -0.62479495692E+00  0.34959480794E+01  0.17134942195E+03  0.17120000000E+03 0.  0.
        998    1    1    2    0    0  0.20022059129E+02  0.75235516919E+01  0.13810929010E+04  0.13812947143E+04  0.10000000000E+02 0. -1.
</event>
<event>
 5    1  0.1364103E-008  0.3051788E+03  0.7957747E-01  0.3859727E+00
         13   -1    0    0    0    0  0.00000000000E+00  0.00000000000E+00  0.14999999963E+04  0.15000000000E+04  0.10566000000E+00 0. -1.
        994   -1    0    0    0    0 -0.00000000000E+00 -0.00000000000E+00  0.11368683772E-12  0.17120000000E+03  0.17120000000E+03 0.  0.
         13    1    1    2    0    0  0.14310794094E+03  0.10977158441E+03  0.71576677177E+03  0.73814074961E+03  0.10566000000E+00 0. -1.
        994    1    1    2    0    0 -0.13851885873E+03 -0.83483075891E+02  0.11299578776E+03  0.26121712470E+03  0.17120000000E+03 0.  0.
        998    1    1    2    0    0 -0.45890822021E+01 -0.26288508515E+02  0.67123743676E+03  0.67184212570E+03  0.10000000000E+02 0.  1.
</event>
<event>
 5    1  0.1364103E-008  0.3790368E+03  0.7957747E-01  0.3455363E+00
         13   -1    0    0    0    0  0.00000000000E+00  0.00000000000E+00  0.14999999963E+04  0.15000000000E+04  0.10566000000E+00 0. -1.
        994   -1    0    0    0    0 -0.00000000000E+00 -0.00000000000E+00  0.11368683772E-12  0.17120000000E+03  0.17120000000E+03 0.  0.
         13    1    1    2    0    0  0.35326376384E+02  0.12885499265E+02  0.17440753161E+03  0.17841521013E+03  0.10566000000E+00 0. -1.
        994    1    1    2    0    0  0.28166647576E+01 -0.10499886576E+02  0.50165578896E+01  0.17161814319E+03  0.17120000000E+03 0.  0.
        998    1    1    2    0    0 -0.38143041142E+02 -0.23856126887E+01  0.13205759068E+04  0.13211666467E+04  0.10000000000E+02 0. -1.
</event>
<event>
 5    1  0.1364103E-008  0.3708922E+03  0.7957747E-01  0.3491801E+00
         13   -1    0    0    0    0  0.00000000000E+00  0.00000000000E+00  0.14999999963E+04  0.15000000000E+04  0.10566000000E+00 0. -1.
        994   -1    0    0    0    0 -0.00000000000E+00 -0.00000000000E+00  0.11368683772E-12  0.17120000000E+03  0.17120000000E+03 0.  0.
         13    1    1    2    0    0  0.41552891597E+01  0.15387224369E+02  0.10377293360E+02  0.19019266108E+02  0.10566000000E+00 0. -1.
        994    1    1    2    0    0 -0.65145335619E+01 -0.15541547454E+02  0.97829706842E+01  0.17230532598E+03  0.17120000000E+03 0.  0.
        998    1    1    2    0    0  0.23592444022E+01  0.15432308523E+00  0.14798397322E+04  0.14798754079E+04  0.10000000000E+02 0. -1.
</event>
<event>
 5    1  0.1364103E-008  0.3858108E+03  0.7957747E-01  0.3426241E+00
         13   -1    0    0    0    0  0.00000000000E+00  0.00000000000E+00  0.14999999963E+04  0.15000000000E+04  0.10566000000E+00 0. -1.
        994   -1    0    0    0    0 -0.00000000000E+00 -0.00000000000E+00  0.11368683772E-12  0.17120000000E+03  0.17120000000E+03 0.  0.
         13    1    1    2    0    0  0.10801055667E+02  0.91603159908E-01  0.44411874082E+02  0.45706639760E+02  0.10566000000E+00 0. -1.
        994    1    1    2    0    0 -0.20064335438E+02  0.41626669561E+01  0.26066287025E+01  0.17244169990E+03  0.17120000000E+03 0.  0.
        998    1    1    2    0    0  0.92632797710E+01 -0.42542701160E+01  0.14529814935E+04  0.14530516603E+04  0.10000000000E+02 0. -1.
</event>
<event>
 5    1  0.1364103E-008  0.3839867E+03  0.7957747E-01  0.3433981E+00
         13   -1    0    0    0    0  0.00000000000E+00  0.00000000000E+00  0.14999999963E+04  0.15000000000E+04  0.10566000000E+00 0.  1.
        994   -1    0    0    0    0 -0.00000000000E+00 -0.00000000000E+00  0.11368683772E-12  0.17120000000E+03  0.17120000000E+03 0.  0.
         13    1    1    2    0    0  0.85671900444E+01  0.27826954397E+02  0.16461127553E+03  0.16716644200E+03  0.10566000000E+00 0.  1.
        994    1    1    2    0    0  0.20739425047E+01 -0.41467201351E+02  0.78426532159E+01  0.17633711247E+03  0.17120000000E+03 0.  0.
        998    1    1    2    0    0 -0.10641132549E+02  0.13640246954E+02  0.13275460675E+04  0.13276964455E+04  0.10000000000E+02 0.  1.
</event>
<event>
 5    1  0.1364103E-008  0.3850218E+03  0.7957747E-01  0.3429580E+00
         13   -1    0    0    0    0  0.00000000000E+00  0.00000000000E+00  0.14999999963E+04  0.15000000000E+04  0.10566000000E+00 0.  1.
        994   -1    0    0    0    0 -0.00000000000E+00 -0.00000000000E+00  0.11368683772E-12  0.17120000000E+03  0.17120000000E+03 0.  0.
         13    1    1    2    0    0  0.62731976260E+01  0.13705573959E+02  0.69907343398E+02  0.71513939837E+02  0.10566000000E+00 0.  1.
        994    1    1    2    0    0 -0.76571759655E+00 -0.11233156303E+02  0.20362888196E+01  0.17158192386E+03  0.17120000000E+03 0.  0.
        998    1    1    2    0    0 -0.55074800294E+01 -0.24724176567E+01  0.14280563641E+04  0.14281041363E+04  0.10000000000E+02 0.  1.
</event>
<event>
 5    1  0.1364103E-008  0.3780254E+03  0.7957747E-01  0.3459802E+00
         13   -1    0    0    0    0  0.00000000000E+00  0.00000000000E+00  0.14999999963E+04  0.15000000000E+04  0.10566000000E+00 0. -1.
        994   -1    0    0    0    0 -0.00000000000E+00 -0.00000000000E+00  0.11368683772E-12  0.17120000000E+03  0.17120000000E+03 0.  0.
         13    1    1    2    0    0 -0.14986971926E+02  0.10883627313E+02  0.31693651811E+02  0.36709146001E+02  0.10566000000E+00 0. -1.
        994    1    1    2    0    0  0.22233532036E+02  0.16041695682E+02  0.76666460652E+01  0.17355080930E+03  0.17120000000E+03 0.  0.
        998    1    1    2    0    0 -0.72465601099E+01 -0.26925322995E+02  0.14606396984E+04  0.14609400447E+04  0.10000000000E+02 0. -1.
</event>
<event>
 5    1  0.1364103E-008  0.3836588E+03  0.7957747E-01  0.3435381E+00
         13   -1    0    0    0    0  0.00000000000E+00  0.00000000000E+00  0.14999999963E+04  0.15000000000E+04  0.10566000000E+00 0.  1.
        994   -1    0    0    0    0 -0.00000000000E+00 -0.00000000000E+00  0.11368683772E-12  0.17120000000E+03  0.17120000000E+03 0.  0.
         13    1    1    2    0    0  0.12156477483E+02 -0.98240527807E+01  0.53824366531E+02  0.56047886261E+02  0.10566000000E+00 0.  1.
        994    1    1    2    0    0 -0.48170393175E+01  0.29909117769E+01  0.24037039240E+01  0.17131073292E+03  0.17120000000E+03 0.  0.
        998    1    1    2    0    0 -0.73394381654E+01  0.68331410038E+01  0.14437719258E+04  0.14438413808E+04  0.10000000000E+02 0.  1.
</event>
<event>
 5    1  0.1364103E-008  0.3815921E+03  0.7957747E-01  0.3444255E+00
         13   -1    0    0    0    0  0.00000000000E+00  0.00000000000E+00  0.14999999963E+04  0.15000000000E+04  0.10566000000E+00 0. -1.
        994   -1    0    0    0    0 -0.00000000000E+00 -0.00000000000E+00  0.11368683772E-12  0.17120000000E+03  0.17120000000E+03 0.  0.
         13    1    1    2    0    0  0.12507660650E+02 -0.18962508057E+01  0.22385146129E+02  0.25712706456E+02  0.10566000000E+00 0. -1.
        994    1    1    2    0    0 -0.13576494929E+02  0.82660577405E+00  0.39470796294E+01  0.17178481868E+03  0.17120000000E+03 0.  0.
        998    1    1    2    0    0  0.10688342789E+01  0.10696450316E+01  0.14736677705E+04  0.14737024749E+04  0.10000000000E+02 0. -1.
</event>
<event>
 5    1  0.1364103E-008  0.3795689E+03  0.7957747E-01  0.3453038E+00
         13   -1    0    0    0    0  0.00000000000E+00  0.00000000000E+00  0.14999999963E+04  0.15000000000E+04  0.10566000000E+00 0. -1.
        994   -1    0    0    0    0 -0.00000000000E+00 -0.00000000000E+00  0.11368683772E-12  0.17120000000E+03  0.17120000000E+03 0.  0.
         13    1    1    2    0    0  0.24116620332E+03  0.58972058248E+02  0.10572596898E+04  0.10860188323E+04  0.10566000000E+00 0. -1.
        994    1    1    2    0    0 -0.23833680823E+03 -0.64401583231E+02  0.24657362089E+03  0.38866436497E+03  0.17120000000E+03 0.  0.
        998    1    1    2    0    0 -0.28293950889E+01  0.54295249831E+01  0.19616668555E+03  0.19651680269E+03  0.10000000000E+02 0.  0.
</event>
<event>
 5    1  0.1364103E-008  0.3762531E+03  0.7957747E-01  0.3467637E+00
         13   -1    0    0    0    0  0.00000000000E+00  0.00000000000E+00  0.14999999963E+04  0.15000000000E+04  0.10566000000E+00 0.  1.
        994   -1    0    0    0    0 -0.00000000000E+00 -0.00000000000E+00  0.11368683772E-12  0.17120000000E+03  0.17120000000E+03 0.  0.
         13    1    1    2    0    0  0.31007418799E+02  0.40495397105E+02  0.22910248225E+03  0.23471108995E+03  0.10566000000E+00 0.  1.
        994    1    1    2    0    0 -0.16328044888E+01 -0.22867011591E+02  0.78176284893E+01  0.17290494957E+03  0.17120000000E+03 0.  0.
        998    1    1    2    0    0 -0.29374614310E+02 -0.17628385514E+02  0.12630798855E+04  0.12635839605E+04  0.10000000000E+02 0.  1.
</event>
<event>
 5    1  0.1364103E-008  0.3713565E+03  0.7957747E-01  0.3489680E+00
         13   -1    0    0    0    0  0.00000000000E+00  0.00000000000E+00  0.14999999963E+04  0.15000000000E+04  0.10566000000E+00 0. -1.
        994   -1    0    0    0    0 -0.00000000000E+00 -0.00000000000E+00  0.11368683772E-12  0.17120000000E+03  0.17120000000E+03 0.  0.
         13    1    1    2    0    0  0.36911476038E+02  0.38821111814E+02  0.18110878521E+03  0.18886486976E+03  0.10566000000E+00 0. -1.
        994    1    1    2    0    0 -0.14251260038E+02 -0.49534331392E+01  0.93455321409E+01  0.17211744212E+03  0.17120000000E+03 0.  0.
        998    1    1    2    0    0 -0.22660216000E+02 -0.33867678674E+02  0.13095456789E+04  0.13102176881E+04  0.10000000000E+02 0. -1.
</event>
<event>
 5    1  0.1364103E-008  0.3841520E+03  0.7957747E-01  0.3433277E+00
         13   -1    0    0    0    0  0.00000000000E+00  0.00000000000E+00  0.14999999963E+04  0.15000000000E+04  0.10566000000E+00 0. -1.
        994   -1    0    0    0    0 -0.00000000000E+00 -0.00000000000E+00  0.11368683772E-12  0.17120000000E+03  0.17120000000E+03 0.  0.
         13    1    1    2    0    0 -0.11685976068E+03  0.54487270423E+02  0.54648605877E+03  0.56149095264E+03  0.10566000000E+00 0. -1.
        994    1    1    2    0    0  0.43888953382E+02 -0.21347756235E+02  0.27443838304E+02  0.18012376630E+03  0.17120000000E+03 0.  0.
        998    1    1    2    0    0  0.72970807300E+02 -0.33139514189E+02  0.92607009921E+03  0.92958528106E+03  0.10000000000E+02 0. -1.
</event>
<event>
 5    1  0.1364103E-008  0.3841431E+03  0.7957747E-01  0.3433315E+00
         13   -1    0    0    0    0  0.00000000000E+00  0.00000000000E+00  0.14999999963E+04  0.15000000000E+04  0.10566000000E+00 0.  1.
        994   -1    0    0    0    0 -0.00000000000E+00 -0.00000000000E+00  0.11368683772E-12  0.17120000000E+03  0.17120000000E+03 0.  0.
         13    1    1    2    0    0 -0.95988492973E+01 -0.31953878390E+01  0.25301678242E+02  0.27249486182E+02  0.10566000000E+00 0.  1.
        994    1    1    2    0    0 -0.43338614875E+01  0.43843390973E+00  0.21187606780E+01  0.17126851353E+03  0.17120000000E+03 0.  0.
        998    1    1    2    0    0  0.13932710785E+02  0.27569539293E+01  0.14725795574E+04  0.14726820003E+04  0.10000000000E+02 0.  1.
</event>
<event>
 5    1  0.1364103E-008  0.3840196E+03  0.7957747E-01  0.3433841E+00
         13   -1    0    0    0    0  0.00000000000E+00  0.00000000000E+00  0.14999999963E+04  0.15000000000E+04  0.10566000000E+00 0. -1.
        994   -1    0    0    0    0 -0.00000000000E+00 -0.00000000000E+00  0.11368683772E-12  0.17120000000E+03  0.17120000000E+03 0.  0.
         13    1    1    2    0    0 -0.12518235675E+02  0.30735612656E+01  0.39404255826E+02  0.41459131015E+02  0.10566000000E+00 0. -1.
        994    1    1    2    0    0  0.33727756914E+01 -0.60787191189E+01  0.22771423151E+01  0.17135621325E+03  0.17120000000E+03 0.  0.
        998    1    1    2    0    0  0.91454599838E+01  0.30051578534E+01  0.14583185981E+04  0.14583846557E+04  0.10000000000E+02 0. -1.
</event>
<event>
 5    1  0.1364103E-008  0.3861963E+03  0.7957747E-01  0.3424614E+00
         13   -1    0    0    0    0  0.00000000000E+00  0.00000000000E+00  0.14999999963E+04  0.15000000000E+04  0.10566000000E+00 0.  1.
        994   -1    0    0    0    0 -0.00000000000E+00 -0.00000000000E+00  0.11368683772E-12  0.17120000000E+03  0.17120000000E+03 0.  0.
         13    1    1    2    0    0 -0.10819780160E+02  0.60927977248E+00  0.61332187455E+02  0.62282318892E+02  0.10566000000E+00 0.  1.
        994    1    1    2    0    0 -0.90149454754E+00  0.35341212139E+01  0.10809193612E+01  0.17124225849E+03  0.17120000000E+03 0.  0.
        998    1    1    2    0    0  0.11721274707E+02 -0.41434009864E+01  0.14375868895E+04  0.14376754226E+04  0.10000000000E+02 0. -1.
</event>
<event>
 5    1  0.1364103E-008  0.3834863E+03  0.7957747E-01  0.3436118E+00
         13   -1    0    0    0    0  0.00000000000E+00  0.00000000000E+00  0.14999999963E+04  0.15000000000E+04  0.10566000000E+00 0. -1.
        994   -1    0    0    0    0 -0.00000000000E+00 -0.00000000000E+00  0.11368683772E-12  0.17120000000E+03  0.17120000000E+03 0.  0.
         13    1    1    2    0    0  0.62919892590E+01 -0.11526119115E+02  0.34328555156E+02  0.36754610783E+02  0.10566000000E+00 0. -1.
        994    1    1    2    0    0 -0.15261912834E+02  0.11125848506E+02  0.35633169575E+01  0.17227549947E+03  0.17120000000E+03 0.  0.
        998    1    1    2    0    0  0.89699235750E+01  0.40027060968E+00  0.14621081242E+04  0.14621698898E+04  0.10000000000E+02 0. -1.
</event>
<event>
 5    1  0.1364103E-008  0.3860441E+03  0.7957747E-01  0.3425256E+00
         13   -1    0    0    0    0  0.00000000000E+00  0.00000000000E+00  0.14999999963E+04  0.15000000000E+04  0.10566000000E+00 0.  1.
        994   -1    0    0    0    0 -0.00000000000E+00 -0.00000000000E+00  0.11368683772E-12  0.17120000000E+03  0.17120000000E+03 0.  0.
         13    1    1    2    0    0 -0.35681562677E+01 -0.12054956516E+02  0.73546859080E+02  0.74613707590E+02  0.10566000000E+00 0.  1.
        994    1    1    2    0    0  0.83610908847E+01  0.33864182229E+01  0.13794009551E+01  0.17144304715E+03  0.17120000000E+03 0.  0.
        998    1    1    2    0    0 -0.47929346170E+01  0.86685382932E+01  0.14250737362E+04  0.14251432453E+04  0.10000000000E+02 0.  1.
</event>
<event>
 5    1  0.1364103E-008  0.3824845E+03  0.7957747E-01  0.3440411E+00
         13   -1    0    0    0    0  0.00000000000E+00  0.00000000000E+00  0.14999999963E+04  0.15000000000E+04  0.10566000000E+00 0. -1.
        994   -1    0    0    0    0 -0.00000000000E+00 -0.00000000000E+00  0.11368683772E-12  0.17120000000E+03  0.17120000000E+03 0.  0.
         13    1    1    2    0    0  0.31698744097E+01  0.19660165485E+02  0.75769069574E+02  0.78342410474E+02  0.10566000000E+00 0. -1.
        994    1    1    2    0    0  0.13259914120E+02  0.57631202901E+01  0.35776444194E+01  0.17184667124E+03  0.17120000000E+03 0.  0.
        998    1    1    2    0    0 -0.16429788530E+02 -0.25423285775E+02  0.14206532823E+04  0.14210109183E+04  0.10000000000E+02 0. -1.
</event>
<event>
 5    1  0.1364103E-008  0.3840711E+03  0.7957747E-01  0.3433621E+00
         13   -1    0    0    0    0  0.00000000000E+00  0.00000000000E+00  0.14999999963E+04  0.15000000000E+04  0.10566000000E+00 0. -1.
        994   -1    0    0    0    0 -0.00000000000E+00 -0.00000000000E+00  0.11368683772E-12  0.17120000000E+03  0.17120000000E+03 0.  0.
         13    1    1    2    0    0  0.97181174616E+01 -0.48715159123E+01  0.28261269065E+02  0.30280091933E+02  0.10566000000E+00 0. -1.
        994    1    1    2    0    0 -0.50480335586E+01 -0.58587391253E+01  0.22893143017E+01  0.17138987259E+03  0.17120000000E+03 0.  0.
        998    1    1    2    0    0 -0.46700839031E+01  0.10730255038E+02  0.14694494129E+04  0.14695300355E+04  0.10000000000E+02 0. -1.
</event>
<event>
 5    1  0.1364103E-008  0.3796671E+03  0.7957747E-01  0.3452609E+00
         13   -1    0    0    0    0  0.00000000000E+00  0.00000000000E+00  0.14999999963E+04  0.15000000000E+04  0.10566000000E+00 0. -1.
        994   -1    0    0    0    0 -0.00000000000E+00 -0.00000000000E+00  0.11368683772E-12  0.17120000000E+03  0.17120000000E+03 0.  0.
         13    1    1    2    0    0 -0.69344978381E+01  0.23160896349E+02  0.73778655973E+02  0.77639008373E+02  0.10566000000E+00 0. -1.
        994    1    1    2    0    0 -0.54735835442E+01  0.72919606355E+01  0.45795469655E+01  0.17150377564E+03  0.17120000000E+03 0.  0.
        998    1    1    2    0    0  0.12408081382E+02 -0.30452856985E+02  0.14216417933E+04  0.14220572160E+04  0.10000000000E+02 0. -1.
</event>
<event>
 5    1  0.1364103E-008  0.3811990E+03  0.7957747E-01  0.3445954E+00
         13   -1    0    0    0    0  0.00000000000E+00  0.00000000000E+00  0.14999999963E+04  0.15000000000E+04  0.10566000000E+00 0. -1.
        994   -1    0    0    0    0 -0.00000000000E+00 -0.00000000000E+00  0.11368683772E-12  0.17120000000E+03  0.17120000000E+03 0.  0.
         13    1    1    2    0    0  0.67591193419E+02  0.61874096226E+01  0.37508620659E+03  0.38117781547E+03  0.10566000000E+00 0. -1.
        994    1    1    2    0    0 -0.93256081454E+02  0.91291156593E+01  0.33338791185E+02  0.19799230409E+03  0.17120000000E+03 0.  0.
        998    1    1    2    0    0  0.25664888035E+02 -0.15316525282E+02  0.10915749985E+04  0.10920298804E+04  0.10000000000E+02 0. -1.
</event>
<event>
 5    1  0.1364103E-008  0.3758351E+03  0.7957747E-01  0.3469496E+00
         13   -1    0    0    0    0  0.00000000000E+00  0.00000000000E+00  0.14999999963E+04  0.15000000000E+04  0.10566000000E+00 0. -1.
        994   -1    0    0    0    0 -0.00000000000E+00 -0.00000000000E+00  0.11368683772E-12  0.17120000000E+03  0.17120000000E+03 0.  0.
         13    1    1    2    0    0 -0.11947769912E+02  0.28594959899E+01  0.90811867068E+01  0.15277599262E+02  0.10566000000E+00 0. -1.
        994    1    1    2    0    0  0.17079472166E+02 -0.20071436706E+01  0.72536055599E+01  0.17221437742E+03  0.17120000000E+03 0.  0.
        998    1    1    2    0    0 -0.51317022544E+01 -0.85235231937E+00  0.14836652040E+04  0.14837080233E+04  0.10000000000E+02 0. -1.
</event>
<event>
 5    1  0.1364103E-008  0.3856981E+03  0.7957747E-01  0.3426717E+00
         13   -1    0    0    0    0  0.00000000000E+00  0.00000000000E+00  0.14999999963E+04  0.15000000000E+04  0.10566000000E+00 0.  1.
        994   -1    0    0    0    0 -0.00000000000E+00 -0.00000000000E+00  0.11368683772E-12  0.17120000000E+03  0.17120000000E+03 0.  0.
         13    1    1    2    0    0 -0.65248837038E-02 -0.11986360243E+02  0.60184776146E+02  0.61366858468E+02  0.10566000000E+00 0.  1.
        994    1    1    2    0    0  0.32519712236E+01 -0.14652539237E+01  0.13256728420E+01  0.17124228361E+03  0.17120000000E+03 0.  0.
        998    1    1    2    0    0 -0.32454463399E+01  0.13451614167E+02  0.14384895473E+04  0.14385908579E+04  0.10000000000E+02 0.  1.
</event>
<event>
 5    1  0.1364103E-008  0.3855577E+03  0.7957747E-01  0.3427310E+00
         13   -1    0    0    0    0  0.00000000000E+00  0.00000000000E+00  0.14999999963E+04  0.15000000000E+04  0.10566000000E+00 0. -1.
        994   -1    0    0    0    0 -0.00000000000E+00 -0.00000000000E+00  0.11368683772E-12  0.17120000000E+03  0.17120000000E+03 0.  0.
         13    1    1    2    0    0 -0.96139864447E+01 -0.62940054378E+01  0.50392180061E+02  0.51685841535E+02  0.10566000000E+00 0. -1.
        994    1    1    2    0    0  0.33284207602E+01  0.83158510681E+00  0.13921542228E+01  0.17124003040E+03  0.17120000000E+03 0.  0.
        998    1    1    2    0    0  0.62855656845E+01  0.54624203310E+01  0.14482156620E+04  0.14482741281E+04  0.10000000000E+02 0. -1.
</event>
<event>
 5    1  0.1364103E-008  0.3782136E+03  0.7957747E-01  0.3458974E+00
         13   -1    0    0    0    0  0.00000000000E+00  0.00000000000E+00  0.14999999963E+04  0.15000000000E+04  0.10566000000E+00 0. -1.
        994   -1    0    0    0    0 -0.00000000000E+00 -0.00000000000E+00  0.11368683772E-12  0.17120000000E+03  0.17120000000E+03 0.  0.
         13    1    1    2    0    0 -0.51334651361E-01 -0.35367054140E+02  0.12260159720E+03  0.12760091674E+03  0.10566000000E+00 0. -1.
        994    1    1    2    0    0  0.17086107938E+02  0.21025626872E+02  0.75098673710E+01  0.17349308395E+03  0.17120000000E+03 0.  0.
        998    1    1    2    0    0 -0.17034773286E+02  0.14341427268E+02  0.13698885317E+04  0.13701059993E+04  0.10000000000E+02 0. -1.
</event>
<event>
 5    1  0.1364103E-008  0.3835412E+03  0.7957747E-01  0.3435883E+00
         13   -1    0    0    0    0  0.00000000000E+00  0.00000000000E+00  0.14999999963E+04  0.15000000000E+04  0.10566000000E+00 0.  1.
        994   -1    0    0    0    0 -0.00000000000E+00 -0.00000000000E+00  0.11368683772E-12  0.17120000000E+03  0.17120000000E+03 0.  0.
         13    1    1    2    0    0 -0.26343959965E+02 -0.11657008031E+03  0.30712490460E+03  0.32955774310E+03  0.10566000000E+00 0.  1.
        994    1    1    2    0    0  0.31397974928E+02  0.11099753393E+03  0.68947957246E+02  0.21764545981E+03  0.17120000000E+03 0.  0.
        998    1    1    2    0    0 -0.50540149629E+01  0.55725463757E+01  0.11239271344E+04  0.11239967971E+04  0.10000000000E+02 0.  1.
</event>
<event>
 5    1  0.1364103E-008  0.3837693E+03  0.7957747E-01  0.3434909E+00
         13   -1    0    0    0    0  0.00000000000E+00  0.00000000000E+00  0.14999999963E+04  0.15000000000E+04  0.10566000000E+00 0.  1.
        994   -1    0    0    0    0 -0.00000000000E+00 -0.00000000000E+00  0.11368683772E-12  0.17120000000E+03  0.17120000000E+03 0.  0.
         13    1    1    2    0    0 -0.95754627533E+01 -0.46811970021E+01  0.24846053194E+02  0.27035913442E+02  0.10566000000E+00 0.  1.
        994    1    1    2    0    0  0.33629045975E+01  0.40336162252E+01  0.23334715697E+01  0.17129642225E+03  0.17120000000E+03 0.  0.
        998    1    1    2    0    0  0.62125581558E+01  0.64758077693E+00  0.14728204715E+04  0.14728676643E+04  0.10000000000E+02 0.  1.
</event>
<event>
 5    1  0.1364103E-008  0.3846865E+03  0.7957747E-01  0.3431003E+00
         13   -1    0    0    0    0  0.00000000000E+00  0.00000000000E+00  0.14999999963E+04  0.15000000000E+04  0.10566000000E+00 0.  1.
        994   -1    0    0    0    0 -0.00000000000E+00 -0.00000000000E+00  0.11368683772E-12  0.17120000000E+03  0.17120000000E+03 0.  0.
         13    1    1    2    0    0 -0.62767484076E+01  0.21387173380E+02  0.13255757923E+03  0.13441849475E+03  0.10566000000E+00 0.  1.
        994    1    1    2    0    0  0.10980795469E+02 -0.16858754313E+02  0.31195853527E+01  0.17240640150E+03  0.17120000000E+03 0.  0.
        998    1    1    2    0    0 -0.47040470613E+01 -0.45284190673E+01  0.13643228317E+04  0.13643751037E+04  0.10000000000E+02 0.  1.
</event>
<event>
 5    1  0.1767193E-008  0.3860027E+03  0.7957747E-01  0.3425431E+00
         13   -1    0    0    0    0  0.00000000000E+00  0.00000000000E+00  0.14999999963E+04  0.15000000000E+04  0.10566000000E+00 0.  1.
        994   -1    0    0    0    0 -0.00000000000E+00 -0.00000000000E+00  0.11368683772E-12  0.17120000000E+03  0.17120000000E+03 0.  0.
         13    1    1    2    0    0  0.79448462530E+01 -0.95892692694E+01  0.59918288343E+02  0.61198750878E+02  0.10566000000E+00 0.  1.
        994    1    1    2    0    0 -0.22864576536E+01  0.36345812671E+02  0.54926491842E+01  0.17511669019E+03  0.17120000000E+03 0.  0.
        998    1    1    2    0    0 -0.56583885994E+01 -0.26756543402E+02  0.14345890588E+04  0.14348845589E+04  0.10000000000E+02 0.  1.
</event>
<event>
 5    1  0.1364103E-008  0.3844948E+03  0.7957747E-01  0.3431818E+00
         13   -1    0    0    0    0  0.00000000000E+00  0.00000000000E+00  0.14999999963E+04  0.15000000000E+04  0.10566000000E+00 0. -1.
        994   -1    0    0    0    0 -0.00000000000E+00 -0.00000000000E+00  0.11368683772E-12  0.17120000000E+03  0.17120000000E+03 0.  0.
         13    1    1    2    0    0 -0.94386329437E+00  0.17343920258E+02  0.83594815098E+02  0.85380364975E+02  0.10566000000E+00 0. -1.
        994    1    1    2    0    0 -0.18399769167E+02 -0.61224684691E+01  0.31208343401E+01  0.17232299827E+03  0.17120000000E+03 0.  0.
        998    1    1    2    0    0  0.19343632461E+02 -0.11221451789E+02  0.14132843468E+04  0.14134966368E+04  0.10000000000E+02 0. -1.
</event>
<event>
 5    1  0.1364103E-008  0.3786486E+03  0.7957747E-01  0.3457064E+00
         13   -1    0    0    0    0  0.00000000000E+00  0.00000000000E+00  0.14999999963E+04  0.15000000000E+04  0.10566000000E+00 0.  1.
        994   -1    0    0    0    0 -0.00000000000E+00 -0.00000000000E+00  0.11368683772E-12  0.17120000000E+03  0.17120000000E+03 0.  0.
         13    1    1    2    0    0 -0.11027905904E+02  0.95518329072E+01  0.20416598620E+02  0.25093841551E+02  0.10566000000E+00 0.  1.
        994    1    1    2    0    0  0.64499019444E+00 -0.45119908156E+01  0.48866698337E+01  0.17133036396E+03  0.17120000000E+03 0.  0.
        998    1    1    2    0    0  0.10382915710E+02 -0.50398420916E+01  0.14746967278E+04  0.14747757945E+04  0.10000000000E+02 0.  1.
</event>
<event>
 5    1  0.1364103E-008  0.3818163E+03  0.7957747E-01  0.3443288E+00
         13   -1    0    0    0    0  0.00000000000E+00  0.00000000000E+00  0.14999999963E+04  0.15000000000E+04  0.10566000000E+00 0.  1.
        994   -1    0    0    0    0 -0.00000000000E+00 -0.00000000000E+00  0.11368683772E-12  0.17120000000E+03  0.17120000000E+03 0.  0.
         13    1    1    2    0    0 -0.10847618502E+02  0.65579193785E+01  0.23914888941E+02  0.27066773189E+02  0.10566000000E+00 0.  1.
        994    1    1    2    0    0  0.69351399937E+01 -0.98023764063E-01  0.33789481663E+01  0.17137375256E+03  0.17120000000E+03 0.  0.
        998    1    1    2    0    0  0.39124785087E+01 -0.64598956145E+01  0.14727061592E+04  0.14727594743E+04  0.10000000000E+02 0.  1.
</event>
<event>
 5    1  0.1364103E-008  0.3836595E+03  0.7957747E-01  0.3435377E+00
         13   -1    0    0    0    0  0.00000000000E+00  0.00000000000E+00  0.14999999963E+04  0.15000000000E+04  0.10566000000E+00 0.  1.
        994   -1    0    0    0    0 -0.00000000000E+00 -0.00000000000E+00  0.11368683772E-12  0.17120000000E+03  0.17120000000E+03 0.  0.
         13    1    1    2    0    0  0.11950841826E+02 -0.69558041017E+01  0.41488210079E+02  0.43732008536E+02  0.10566000000E+00 0.  1.
        994    1    1    2    0    0 -0.65922036275E+01  0.17142988492E+01  0.24503978727E+01  0.17135297027E+03  0.17120000000E+03 0.  0.
        998    1    1    2    0    0 -0.53586381981E+01  0.52415052525E+01  0.14560613883E+04  0.14561150212E+04  0.10000000000E+02 0.  1.
</event>
<event>
 5    1  0.1364103E-008  0.3692305E+03  0.7957747E-01  0.3499435E+00
         13   -1    0    0    0    0  0.00000000000E+00  0.00000000000E+00  0.14999999963E+04  0.15000000000E+04  0.10566000000E+00 0. -1.
        994   -1    0    0    0    0 -0.00000000000E+00 -0.00000000000E+00  0.11368683772E-12  0.17120000000E+03  0.17120000000E+03 0.  0.
         13    1    1    2    0    0  0.23785783417E+02  0.15250350239E+02  0.37787808301E+02  0.47183326455E+02  0.10566000000E+00 0. -1.
        994    1    1    2    0    0  0.21936225072E+02  0.14497416646E+02  0.12946779507E+02  0.17369062197E+03  0.17120000000E+03 0.  0.
        998    1    1    2    0    0 -0.45722008488E+02 -0.29747766885E+02  0.14492654085E+04  0.14503260516E+04  0.10000000000E+02 0. -1.
</event>
<event>
 5    1  0.1364103E-008  0.3846875E+03  0.7957747E-01  0.3430999E+00
         13   -1    0    0    0    0  0.00000000000E+00  0.00000000000E+00  0.14999999963E+04  0.15000000000E+04  0.10566000000E+00 0. -1.
        994   -1    0    0    0    0 -0.00000000000E+00 -0.00000000000E+00  0.11368683772E-12  0.17120000000E+03  0.17120000000E+03 0.  0.
         13    1    1    2    0    0 -0.12366835174E+02 -0.77277835963E+01  0.67239988294E+02  0.68803229876E+02  0.10566000000E+00 0. -1.
        994    1    1    2    0    0 -0.42884595499E+01 -0.11945027347E+02  0.23158118891E+01  0.17168540284E+03  0.17120000000E+03 0.  0.
        998    1    1    2    0    0  0.16655294724E+02  0.19672810943E+02  0.14304441961E+04  0.14307113673E+04  0.10000000000E+02 0. -1.
</event>
<event>
 5    1  0.1364103E-008  0.3784538E+03  0.7957747E-01  0.3457919E+00
         13   -1    0    0    0    0  0.00000000000E+00  0.00000000000E+00  0.14999999963E+04  0.15000000000E+04  0.10566000000E+00 0. -1.
        994   -1    0    0    0    0 -0.00000000000E+00 -0.00000000000E+00  0.11368683772E-12  0.17120000000E+03  0.17120000000E+03 0.  0.
         13    1    1    2    0    0 -0.13133495046E+02 -0.27034259606E+02  0.10196759185E+03  0.10630494267E+03  0.10566000000E+00 0. -1.
        994    1    1    2    0    0 -0.46381428750E+02  0.16913574526E+02  0.13149302843E+02  0.17866071225E+03  0.17120000000E+03 0.  0.
        998    1    1    2    0    0  0.59514923796E+02  0.10120685079E+02  0.13848831016E+04  0.13862343451E+04  0.10000000000E+02 0. -1.
</event>
<event>
 5    1  0.1364103E-008  0.3781957E+03  0.7957747E-01  0.3459053E+00
         13   -1    0    0    0    0  0.00000000000E+00  0.00000000000E+00  0.14999999963E+04  0.15000000000E+04  0.10566000000E+00 0. -1.
        994   -1    0    0    0    0 -0.00000000000E+00 -0.00000000000E+00  0.11368683772E-12  0.17120000000E+03  0.17120000000E+03 0.  0.
         13    1    1    2    0    0 -0.10722528807E+02  0.48094041385E+01  0.11189676469E+02  0.16227230685E+02  0.10566000000E+00 0. -1.
        994    1    1    2    0    0  0.13876911983E+02 -0.13064729926E+02  0.62693068438E+01  0.17237169159E+03  0.17120000000E+03 0.  0.
        998    1    1    2    0    0 -0.31543831757E+01  0.82553257875E+01  0.14825410130E+04  0.14826010777E+04  0.10000000000E+02 0. -1.
</event>
<event>
 5    1  0.1364103E-008  0.3846833E+03  0.7957747E-01  0.3431017E+00
         13   -1    0    0    0    0  0.00000000000E+00  0.00000000000E+00  0.14999999963E+04  0.15000000000E+04  0.10566000000E+00 0. -1.
        994   -1    0    0    0    0 -0.00000000000E+00 -0.00000000000E+00  0.11368683772E-12  0.17120000000E+03  0.17120000000E+03 0.  0.
         13    1    1    2    0    0 -0.92824894576E+01  0.11539654249E+02  0.67797099865E+02  0.69395865474E+02  0.10566000000E+00 0. -1.
        994    1    1    2    0    0 -0.71333041980E+01  0.25715072100E+01  0.19767700883E+01  0.17137924115E+03  0.17120000000E+03 0.  0.
        998    1    1    2    0    0  0.16415793656E+02 -0.14111161459E+02  0.14302261263E+04  0.14304248934E+04  0.10000000000E+02 0. -1.
</event>
<event>
 5    1  0.1364103E-008  0.3857726E+03  0.7957747E-01  0.3426402E+00
         13   -1    0    0    0    0  0.00000000000E+00  0.00000000000E+00  0.14999999963E+04  0.15000000000E+04  0.10566000000E+00 0.  1.
        994   -1    0    0    0    0 -0.00000000000E+00 -0.00000000000E+00  0.11368683772E-12  0.17120000000E+03  0.17120000000E+03 0.  0.
         13    1    1    2    0    0  0.10307086984E+02  0.14227531869E+01  0.47220330703E+02  0.48353190840E+02  0.10566000000E+00 0.  1.
        994    1    1    2    0    0  0.38419886916E+01  0.98579606139E+01  0.16143408058E+01  0.17153421338E+03  0.17120000000E+03 0.  0.
        998    1    1    2    0    0 -0.14149075675E+02 -0.11280713801E+02  0.14511653248E+04  0.14513125958E+04  0.10000000000E+02 0.  1.
</event>
<event>
 5    1  0.1364103E-008  0.2315206E+03  0.7957747E-01  0.4551266E+00
         13   -1    0    0    0    0  0.00000000000E+00  0.00000000000E+00  0.14999999963E+04  0.15000000000E+04  0.10566000000E+00 0.  1.
        994   -1    0    0    0    0 -0.00000000000E+00 -0.00000000000E+00  0.11368683772E-12  0.17120000000E+03  0.17120000000E+03 0.  0.
         13    1    1    2    0    0  0.99152214340E+02 -0.15982650211E+03  0.29110781179E+03  0.34658251779E+03  0.10566000000E+00 0.  1.
        994    1    1    2    0    0 -0.74425263061E+02  0.52584014634E+02  0.11565490298E+03  0.22580897892E+03  0.17120000000E+03 0.  0.
        998    1    1    2    0    0 -0.24726951278E+02  0.10724248747E+03  0.10932372815E+04  0.10988085033E+04  0.10000000000E+02 0.  1.
</event>
<event>
 5    1  0.1364103E-008  0.3848520E+03  0.7957747E-01  0.3430300E+00
         13   -1    0    0    0    0  0.00000000000E+00  0.00000000000E+00  0.14999999963E+04  0.15000000000E+04  0.10566000000E+00 0. -1.
        994   -1    0    0    0    0 -0.00000000000E+00 -0.00000000000E+00  0.11368683772E-12  0.17120000000E+03  0.17120000000E+03 0.  0.
         13    1    1    2    0    0  0.11033085687E+02 -0.90635238436E+01  0.54547374321E+02  0.56385314166E+02  0.10566000000E+00 0. -1.
        994    1    1    2    0    0 -0.25580946571E+02  0.94338556321E+01  0.41533356277E+01  0.17340724511E+03  0.17120000000E+03 0.  0.
        998    1    1    2    0    0  0.14547860884E+02 -0.37033178850E+00  0.14412992863E+04  0.14414074407E+04  0.10000000000E+02 0. -1.
</event>
<event>
 5    1  0.1364103E-008  0.3804218E+03  0.7957747E-01  0.3449324E+00
         13   -1    0    0    0    0  0.00000000000E+00  0.00000000000E+00  0.14999999963E+04  0.15000000000E+04  0.10566000000E+00 0.  1.
        994   -1    0    0    0    0 -0.00000000000E+00 -0.00000000000E+00  0.11368683772E-12  0.17120000000E+03  0.17120000000E+03 0.  0.
         13    1    1    2    0    0 -0.11785747085E+02  0.27943321035E+01  0.16996148042E+02  0.20870849014E+02  0.10566000000E+00 0.  1.
        994    1    1    2    0    0  0.64224695739E+01 -0.16015540056E+02  0.49149502226E+01  0.17213756817E+03  0.17120000000E+03 0.  0.
        998    1    1    2    0    0  0.53632775113E+01  0.13221207952E+02  0.14780888980E+04  0.14781915828E+04  0.10000000000E+02 0.  1.
</event>
<event>
 5    1  0.1364103E-008  0.3837202E+03  0.7957747E-01  0.3435118E+00
         13   -1    0    0    0    0  0.00000000000E+00  0.00000000000E+00  0.14999999963E+04  0.15000000000E+04  0.10566000000E+00 0. -1.
        994   -1    0    0    0    0 -0.00000000000E+00 -0.00000000000E+00  0.11368683772E-12  0.17120000000E+03  0.17120000000E+03 0.  0.
         13    1    1    2    0    0  0.89725989722E+01 -0.77460570463E+01  0.29835952340E+02  0.32104581420E+02  0.10566000000E+00 0. -1.
        994    1    1    2    0    0 -0.10412659391E+02  0.67103741573E+01  0.27737637562E+01  0.17166999261E+03  0.17120000000E+03 0.  0.
        998    1    1    2    0    0  0.14400604189E+01  0.10356828890E+01  0.14673902802E+04  0.14674254260E+04  0.10000000000E+02 0. -1.
</event>
<event>
 5    1  0.1364103E-008  0.3855973E+03  0.7957747E-01  0.3427143E+00
         13   -1    0    0    0    0  0.00000000000E+00  0.00000000000E+00  0.14999999963E+04  0.15000000000E+04  0.10566000000E+00 0.  1.
        994   -1    0    0    0    0 -0.00000000000E+00 -0.00000000000E+00  0.11368683772E-12  0.17120000000E+03  0.17120000000E+03 0.  0.
         13    1    1    2    0    0 -0.16223474485E+02 -0.12243078036E+01  0.94939078243E+02  0.96323101049E+02  0.10566000000E+00 0.  1.
        994    1    1    2    0    0  0.16427109534E+02  0.86830007427E+00  0.22225802818E+01  0.17200285967E+03  0.17120000000E+03 0.  0.
        998    1    1    2    0    0 -0.20363504906E+00  0.35600772933E+00  0.14028383378E+04  0.14028740393E+04  0.10000000000E+02 0.  0.
</event>
<event>
 5    1  0.1364103E-008  0.3706310E+03  0.7957747E-01  0.3492996E+00
         13   -1    0    0    0    0  0.00000000000E+00  0.00000000000E+00  0.14999999963E+04  0.15000000000E+04  0.10566000000E+00 0.  1.
        994   -1    0    0    0    0 -0.00000000000E+00 -0.00000000000E+00  0.11368683772E-12  0.17120000000E+03  0.17120000000E+03 0.  0.
         13    1    1    2    0    0 -0.33780700973E+01 -0.96712807600E+01  0.16558507768E+01  0.10377766376E+02  0.10566000000E+00 0.  1.
        994    1    1    2    0    0  0.32441963332E+01  0.11464440596E+02  0.94295388838E+01  0.17187296009E+03  0.17120000000E+03 0.  0.
        998    1    1    2    0    0  0.13387376412E+00 -0.17931598361E+01  0.14889146066E+04  0.14889492735E+04  0.10000000000E+02 0.  1.
</event>
<event>
 5    1  0.1364103E-008  0.3791380E+03  0.7957747E-01  0.3454920E+00
         13   -1    0    0    0    0  0.00000000000E+00  0.00000000000E+00  0.14999999963E+04  0.15000000000E+04  0.10566000000E+00 0. -1.
        994   -1    0    0    0    0 -0.00000000000E+00 -0.00000000000E+00  0.11368683772E-12  0.17120000000E+03  0.17120000000E+03 0.  0.
         13    1    1    2    0    0 -0.13484298022E+02 -0.86266953877E+00  0.17951480263E+02  0.22468584725E+02  0.10566000000E+00 0. -1.
        994    1    1    2    0    0  0.11028905406E+02  0.57195879802E+01  0.50865263567E+01  0.17172554612E+03  0.17120000000E+03 0.  0.
        998    1    1    2    0    0  0.24553926161E+01 -0.48569184415E+01  0.14769619897E+04  0.14770058692E+04  0.10000000000E+02 0. -1.
</event>
<event>
 5    1  0.1364103E-008  0.3763557E+03  0.7957747E-01  0.3467182E+00
         13   -1    0    0    0    0  0.00000000000E+00  0.00000000000E+00  0.14999999963E+04  0.15000000000E+04  0.10566000000E+00 0. -1.
        994   -1    0    0    0    0 -0.00000000000E+00 -0.00000000000E+00  0.11368683772E-12  0.17120000000E+03  0.17120000000E+03 0.  0.
         13    1    1    2    0    0  0.15548478138E+02 -0.30415272783E+02  0.89889823513E+02  0.96161507507E+02  0.10566000000E+00 0. -1.
        994    1    1    2    0    0 -0.12616055583E+02  0.32968885524E+02  0.10212322382E+02  0.17509952541E+03  0.17120000000E+03 0.  0.
        998    1    1    2    0    0 -0.29324225557E+01 -0.25536127407E+01  0.13998978504E+04  0.13999389671E+04  0.10000000000E+02 0. -1.
</event>
<event>
 5    1  0.1364103E-008  0.3766058E+03  0.7957747E-01  0.3466072E+00
         13   -1    0    0    0    0  0.00000000000E+00  0.00000000000E+00  0.14999999963E+04  0.15000000000E+04  0.10566000000E+00 0.  1.
        994   -1    0    0    0    0 -0.00000000000E+00 -0.00000000000E+00  0.11368683772E-12  0.17120000000E+03  0.17120000000E+03 0.  0.
         13    1    1    2    0    0  0.32313065313E+01  0.51834363858E+02  0.25893210881E+03  0.26408917197E+03  0.10566000000E+00 0.  1.
        994    1    1    2    0    0 -0.17666833842E+02 -0.12259357109E+02  0.74213250497E+01  0.17270473335E+03  0.17120000000E+03 0.  0.
        998    1    1    2    0    0  0.14435527311E+02 -0.39575006749E+02  0.12336465624E+04  0.12344060947E+04  0.10000000000E+02 0.  1.
</event>
<event>
 5    1  0.1364103E-008  0.3737634E+03  0.7957747E-01  0.3478772E+00
         13   -1    0    0    0    0  0.00000000000E+00  0.00000000000E+00  0.14999999963E+04  0.15000000000E+04  0.10566000000E+00 0.  1.
        994   -1    0    0    0    0 -0.00000000000E+00 -0.00000000000E+00  0.11368683772E-12  0.17120000000E+03  0.17120000000E+03 0.  0.
         13    1    1    2    0    0 -0.46552943249E+02  0.68433062836E+01  0.13444353230E+03  0.14243974834E+03  0.10566000000E+00 0.  1.
        994    1    1    2    0    0  0.48916208122E+02 -0.10735284001E+02  0.15924959092E+02  0.17908401956E+03  0.17120000000E+03 0.  0.
        998    1    1    2    0    0 -0.23632648727E+01  0.38919777178E+01  0.13496315049E+04  0.13496762321E+04  0.10000000000E+02 0.  1.
</event>
<event>
 5    1  0.1364103E-008  0.3723389E+03  0.7957747E-01  0.3485210E+00
         13   -1    0    0    0    0  0.00000000000E+00  0.00000000000E+00  0.14999999963E+04  0.15000000000E+04  0.10566000000E+00 0. -1.
        994   -1    0    0    0    0 -0.00000000000E+00 -0.00000000000E+00  0.11368683772E-12  0.17120000000E+03  0.17120000000E+03 0.  0.
         13    1    1    2    0    0  0.17643102741E+02  0.25108196011E+02  0.52644318972E+02  0.60935507426E+02  0.10566000000E+00 0. -1.
        994    1    1    2    0    0 -0.22958473055E+02 -0.28806210554E+02  0.12720058665E+02  0.17557940979E+03  0.17120000000E+03 0.  0.
        998    1    1    2    0    0  0.53153703141E+01  0.36980145424E+01  0.14346356186E+04  0.14346850828E+04  0.10000000000E+02 0. -1.
</event>
<event>
 5    1  0.1364103E-008  0.3837941E+03  0.7957747E-01  0.3434803E+00
         13   -1    0    0    0    0  0.00000000000E+00  0.00000000000E+00  0.14999999963E+04  0.15000000000E+04  0.10566000000E+00 0.  1.
        994   -1    0    0    0    0 -0.00000000000E+00 -0.00000000000E+00  0.11368683772E-12  0.17120000000E+03  0.17120000000E+03 0.  0.
         13    1    1    2    0    0 -0.83639956167E+01  0.78056910196E+01  0.28711623990E+02  0.30907179605E+02  0.10566000000E+00 0.  1.
        994    1    1    2    0    0 -0.17890079000E+01 -0.13024133179E+02  0.28008255566E+01  0.17172685643E+03  0.17120000000E+03 0.  0.
        998    1    1    2    0    0  0.10153003517E+02  0.52184421593E+01  0.14684875467E+04  0.14685659640E+04  0.10000000000E+02 0.  1.
</event>
<event>
 5    1  0.1364103E-008  0.3851819E+03  0.7957747E-01  0.3428901E+00
         13   -1    0    0    0    0  0.00000000000E+00  0.00000000000E+00  0.14999999963E+04  0.15000000000E+04  0.10566000000E+00 0.  1.
        994   -1    0    0    0    0 -0.00000000000E+00 -0.00000000000E+00  0.11368683772E-12  0.17120000000E+03  0.17120000000E+03 0.  0.
         13    1    1    2    0    0 -0.11912922454E+02  0.90234247820E+00  0.46993002188E+02  0.48487991936E+02  0.10566000000E+00 0.  1.
        994    1    1    2    0    0  0.57884932810E+01  0.24782541802E+01  0.16701931841E+01  0.17132389776E+03  0.17120000000E+03 0.  0.
        998    1    1    2    0    0  0.61244291731E+01 -0.33805966584E+01  0.14513368009E+04  0.14513881103E+04  0.10000000000E+02 0.  1.
</event>
<event>
 5    1  0.1364103E-008  0.3855589E+03  0.7957747E-01  0.3427305E+00
         13   -1    0    0    0    0  0.00000000000E+00  0.00000000000E+00  0.14999999963E+04  0.15000000000E+04  0.10566000000E+00 0.  1.
        994   -1    0    0    0    0 -0.00000000000E+00 -0.00000000000E+00  0.11368683772E-12  0.17120000000E+03  0.17120000000E+03 0.  0.
         13    1    1    2    0    0 -0.11234165143E+02  0.57071914264E+01  0.56965062476E+02  0.58342163204E+02  0.10566000000E+00 0.  1.
        994    1    1    2    0    0  0.13931277796E+02 -0.32465994984E+01  0.20249207875E+01  0.17180850158E+03  0.17120000000E+03 0.  0.
        998    1    1    2    0    0 -0.26971126526E+01 -0.24605919281E+01  0.14410100130E+04  0.14410493352E+04  0.10000000000E+02 0.  1.
</event>
<event>
 5    1  0.1364103E-008  0.3775204E+03  0.7957747E-01  0.3462027E+00
         13   -1    0    0    0    0  0.00000000000E+00  0.00000000000E+00  0.14999999963E+04  0.15000000000E+04  0.10566000000E+00 0.  1.
        994   -1    0    0    0    0 -0.00000000000E+00 -0.00000000000E+00  0.11368683772E-12  0.17120000000E+03  0.17120000000E+03 0.  0.
         13    1    1    2    0    0 -0.19599859983E+01  0.20098551152E+02  0.37358658099E+02  0.42467326293E+02  0.10566000000E+00 0.  1.
        994    1    1    2    0    0 -0.14644747080E+02  0.22168901815E+00  0.61134539372E+01  0.17193409226E+03  0.17120000000E+03 0.  0.
        998    1    1    2    0    0  0.16604733078E+02 -0.20320240170E+02  0.14565278842E+04  0.14567985814E+04  0.10000000000E+02 0.  1.
</event>
<event>
 5    1  0.1364103E-008  0.3686998E+03  0.7957747E-01  0.3501888E+00
         13   -1    0    0    0    0  0.00000000000E+00  0.00000000000E+00  0.14999999963E+04  0.15000000000E+04  0.10566000000E+00 0. -1.
        994   -1    0    0    0    0 -0.00000000000E+00 -0.00000000000E+00  0.11368683772E-12  0.17120000000E+03  0.17120000000E+03 0.  0.
         13    1    1    2    0    0  0.27821949879E+01 -0.75032557299E+02  0.27010688205E+03  0.28034864751E+03  0.10566000000E+00 0. -1.
        994    1    1    2    0    0  0.17957236356E+02  0.50837428420E+02  0.20115511772E+02  0.18061279102E+03  0.17120000000E+03 0.  0.
        998    1    1    2    0    0 -0.20739431344E+02  0.24195128879E+02  0.12097776025E+04  0.12102385615E+04  0.10000000000E+02 0. -1.
</event>
<event>
 5    1  0.1364103E-008  0.3817127E+03  0.7957747E-01  0.3443735E+00
         13   -1    0    0    0    0  0.00000000000E+00  0.00000000000E+00  0.14999999963E+04  0.15000000000E+04  0.10566000000E+00 0. -1.
        994   -1    0    0    0    0 -0.00000000000E+00 -0.00000000000E+00  0.11368683772E-12  0.17120000000E+03  0.17120000000E+03 0.  0.
         13    1    1    2    0    0  0.33892390565E+02 -0.41830403435E+01  0.20617388024E+03  0.20898294673E+03  0.10566000000E+00 0. -1.
        994    1    1    2    0    0 -0.23304366840E+01 -0.38221171954E+00  0.32896422906E+01  0.17124788690E+03  0.17120000000E+03 0.  0.
        998    1    1    2    0    0 -0.31561953881E+02  0.45652520630E+01  0.12905364737E+04  0.12909691664E+04  0.10000000000E+02 0. -1.
</event>
<event>
 5    1  0.1630753E-008  0.3853531E+03  0.7957747E-01  0.3428176E+00
         13   -1    0    0    0    0  0.00000000000E+00  0.00000000000E+00  0.14999999963E+04  0.15000000000E+04  0.10566000000E+00 0.  1.
        994   -1    0    0    0    0 -0.00000000000E+00 -0.00000000000E+00  0.11368683772E-12  0.17120000000E+03  0.17120000000E+03 0.  0.
         13    1    1    2    0    0  0.49963614773E+01  0.13907466447E+02  0.70154058191E+02  0.71693683792E+02  0.10566000000E+00 0.  1.
        994    1    1    2    0    0 -0.71638033071E+01 -0.18757093636E+02  0.27803652869E+01  0.17239582092E+03  0.17120000000E+03 0.  0.
        998    1    1    2    0    0  0.21674418298E+01  0.48496271894E+01  0.14270655728E+04  0.14271104953E+04  0.10000000000E+02 0.  1.
</event>
<event>
 5    1  0.1364103E-008  0.3806758E+03  0.7957747E-01  0.3448221E+00
         13   -1    0    0    0    0  0.00000000000E+00  0.00000000000E+00  0.14999999963E+04  0.15000000000E+04  0.10566000000E+00 0. -1.
        994   -1    0    0    0    0 -0.00000000000E+00 -0.00000000000E+00  0.11368683772E-12  0.17120000000E+03  0.17120000000E+03 0.  0.
         13    1    1    2    0    0 -0.11387276126E+02  0.54944931402E+01  0.19184993456E+02  0.22976828554E+02  0.10566000000E+00 0. -1.
        994    1    1    2    0    0  0.92613798342E+01 -0.15307155773E+02  0.48607537379E+01  0.17220089750E+03  0.17120000000E+03 0.  0.
        998    1    1    2    0    0  0.21258962917E+01  0.98126626330E+01  0.14759542491E+04  0.14760222739E+04  0.10000000000E+02 0. -1.
</event>
<event>
 5    1  0.1364103E-008  0.3845400E+03  0.7957747E-01  0.3431626E+00
         13   -1    0    0    0    0  0.00000000000E+00  0.00000000000E+00  0.14999999963E+04  0.15000000000E+04  0.10566000000E+00 0. -1.
        994   -1    0    0    0    0 -0.00000000000E+00 -0.00000000000E+00  0.11368683772E-12  0.17120000000E+03  0.17120000000E+03 0.  0.
         13    1    1    2    0    0  0.14272072377E+02  0.56153654405E+01  0.67360048701E+02  0.69084091541E+02  0.10566000000E+00 0. -1.
        994    1    1    2    0    0 -0.95775241129E+00  0.42692810358E+01  0.19217627733E+01  0.17126668451E+03  0.17120000000E+03 0.  0.
        998    1    1    2    0    0 -0.13314319965E+02 -0.98846464763E+01  0.14307181848E+04  0.14308492240E+04  0.10000000000E+02 0. -1.
</event>
<event>
 5    1  0.1364103E-008  0.3701806E+03  0.7957747E-01  0.3495062E+00
         13   -1    0    0    0    0  0.00000000000E+00  0.00000000000E+00  0.14999999963E+04  0.15000000000E+04  0.10566000000E+00 0. -1.
        994   -1    0    0    0    0 -0.00000000000E+00 -0.00000000000E+00  0.11368683772E-12  0.17120000000E+03  0.17120000000E+03 0.  0.
         13    1    1    2    0    0  0.98210920114E+01 -0.31353085817E+02  0.53173620769E+02  0.62505319360E+02  0.10566000000E+00 0. -1.
        994    1    1    2    0    0 -0.12227491151E+02  0.33036322554E+02  0.13474807184E+02  0.17530522119E+03  0.17120000000E+03 0.  0.
        998    1    1    2    0    0  0.24063991400E+01 -0.16832367374E+01  0.14333515683E+04  0.14333894595E+04  0.10000000000E+02 0. -1.
</event>
<event>
 5    1  0.1364103E-008  0.3788544E+03  0.7957747E-01  0.3456162E+00
         13   -1    0    0    0    0  0.00000000000E+00  0.00000000000E+00  0.14999999963E+04  0.15000000000E+04  0.10566000000E+00 0.  1.
        994   -1    0    0    0    0 -0.00000000000E+00 -0.00000000000E+00  0.11368683772E-12  0.17120000000E+03  0.17120000000E+03 0.  0.
         13    1    1    2    0    0  0.42195111524E+02 -0.22584105767E+02  0.20073542816E+03  0.20636180013E+03  0.10566000000E+00 0.  1.
        994    1    1    2    0    0 -0.50861569075E+02  0.20998769295E+02  0.14940843743E+02  0.18044532782E+03  0.17120000000E+03 0.  0.
        998    1    1    2    0    0  0.86664575509E+01  0.15853364723E+01  0.12843237244E+04  0.12843928720E+04  0.10000000000E+02 0.  1.
</event>
<event>
 5    1  0.1364103E-008  0.3832135E+03  0.7957747E-01  0.3437284E+00
         13   -1    0    0    0    0  0.00000000000E+00  0.00000000000E+00  0.14999999963E+04  0.15000000000E+04  0.10566000000E+00 0.  1.
        994   -1    0    0    0    0 -0.00000000000E+00 -0.00000000000E+00  0.11368683772E-12  0.17120000000E+03  0.17120000000E+03 0.  0.
         13    1    1    2    0    0 -0.10125700986E+02 -0.11995907107E+01  0.19227052575E+02  0.21763721031E+02  0.10566000000E+00 0.  1.
        994    1    1    2    0    0  0.14936233935E+02  0.25114025679E+01  0.32788581277E+01  0.17189993932E+03  0.17120000000E+03 0.  0.
        998    1    1    2    0    0 -0.48105329487E+01 -0.13118118573E+01  0.14774940856E+04  0.14775363397E+04  0.10000000000E+02 0.  1.
</event>
<event>
 5    1  0.1364103E-008  0.2950214E+03  0.7957747E-01  0.3932216E+00
         13   -1    0    0    0    0  0.00000000000E+00  0.00000000000E+00  0.14999999963E+04  0.15000000000E+04  0.10566000000E+00 0. -1.
        994   -1    0    0    0    0 -0.00000000000E+00 -0.00000000000E+00  0.11368683772E-12  0.17120000000E+03  0.17120000000E+03 0.  0.
         13    1    1    2    0    0 -0.83643436485E+02  0.12372049795E+03  0.72669053668E+03  0.74187743822E+03  0.10566000000E+00 0. -1.
        994    1    1    2    0    0  0.10407203186E+03 -0.50516872198E+02  0.64607163081E+02  0.21648664558E+03  0.17120000000E+03 0.  0.
        998    1    1    2    0    0 -0.20428595379E+02 -0.73203625750E+02  0.70870229652E+03  0.71283591620E+03  0.10000000000E+02 0.  1.
</event>
<event>
 5    1  0.1364103E-008  0.3815647E+03  0.7957747E-01  0.3444374E+00
         13   -1    0    0    0    0  0.00000000000E+00  0.00000000000E+00  0.14999999963E+04  0.15000000000E+04  0.10566000000E+00 0. -1.
        994   -1    0    0    0    0 -0.00000000000E+00 -0.00000000000E+00  0.11368683772E-12  0.17120000000E+03  0.17120000000E+03 0.  0.
         13    1    1    2    0    0 -0.21061935586E+02 -0.19729803153E+02  0.13162711026E+03  0.13475376648E+03  0.10566000000E+00 0. -1.
        994    1    1    2    0    0  0.99504883274E+01  0.32325430583E+00  0.36750995549E+01  0.17152860714E+03  0.17120000000E+03 0.  0.
        998    1    1    2    0    0  0.11111447259E+02  0.19406548847E+02  0.13646977865E+04  0.13649176264E+04  0.10000000000E+02 0. -1.
</event>
<event>
 5    1  0.1364103E-008  0.3763350E+03  0.7957747E-01  0.3467274E+00
         13   -1    0    0    0    0  0.00000000000E+00  0.00000000000E+00  0.14999999963E+04  0.15000000000E+04  0.10566000000E+00 0.  1.
        994   -1    0    0    0    0 -0.00000000000E+00 -0.00000000000E+00  0.11368683772E-12  0.17120000000E+03  0.17120000000E+03 0.  0.
         13    1    1    2    0    0 -0.15512764362E+02  0.12277279121E+01  0.18574060425E+02  0.24231385819E+02  0.10566000000E+00 0.  1.
        994    1    1    2    0    0 -0.10823057743E+02  0.45838039309E+01  0.64624007705E+01  0.17172464139E+03  0.17120000000E+03 0.  0.
        998    1    1    2    0    0  0.26335822104E+02 -0.58115318430E+01  0.14749635351E+04  0.14752439728E+04  0.10000000000E+02 0.  1.
</event>
<event>
 5    1  0.1364103E-008  0.3828738E+03  0.7957747E-01  0.3438740E+00
         13   -1    0    0    0    0  0.00000000000E+00  0.00000000000E+00  0.14999999963E+04  0.15000000000E+04  0.10566000000E+00 0.  1.
        994   -1    0    0    0    0 -0.00000000000E+00 -0.00000000000E+00  0.11368683772E-12  0.17120000000E+03  0.17120000000E+03 0.  0.
         13    1    1    2    0    0 -0.12796599656E+02  0.12232869499E+02  0.61469946142E+02  0.63968441451E+02  0.10566000000E+00 0.  1.
        994    1    1    2    0    0 -0.38368836378E+01 -0.98992891167E+00  0.27414666366E+01  0.17126779404E+03  0.17120000000E+03 0.  0.
        998    1    1    2    0    0  0.16633483294E+02 -0.11242940587E+02  0.14357885835E+04  0.14359637645E+04  0.10000000000E+02 0.  1.
</event>
<event>
 5    1  0.1364103E-008  0.3856639E+03  0.7957747E-01  0.3426861E+00
         13   -1    0    0    0    0  0.00000000000E+00  0.00000000000E+00  0.14999999963E+04  0.15000000000E+04  0.10566000000E+00 0. -1.
        994   -1    0    0    0    0 -0.00000000000E+00 -0.00000000000E+00  0.11368683772E-12  0.17120000000E+03  0.17120000000E+03 0.  0.
         13    1    1    2    0    0  0.69582681697E+01  0.11248328882E+02  0.68232888828E+02  0.69503098351E+02  0.10566000000E+00 0. -1.
        994    1    1    2    0    0 -0.24402826431E+01 -0.75471849205E+01  0.15073655916E+01  0.17139027723E+03  0.17120000000E+03 0.  0.
        998    1    1    2    0    0 -0.45179855266E+01 -0.37011439616E+01  0.14302597419E+04  0.14303066244E+04  0.10000000000E+02 0. -1.
</event>
<event>
 5    1  0.1364103E-008  0.3722325E+03  0.7957747E-01  0.3485693E+00
         13   -1    0    0    0    0  0.00000000000E+00  0.00000000000E+00  0.14999999963E+04  0.15000000000E+04  0.10566000000E+00 0.  1.
        994   -1    0    0    0    0 -0.00000000000E+00 -0.00000000000E+00  0.11368683772E-12  0.17120000000E+03  0.17120000000E+03 0.  0.
         13    1    1    2    0    0  0.75614432120E+02 -0.34444018171E+02  0.25675427737E+03  0.26986423039E+03  0.10566000000E+00 0.  1.
        994    1    1    2    0    0 -0.62905011212E+02  0.20695958896E+02  0.27741086462E+02  0.18564582147E+03  0.17120000000E+03 0.  0.
        998    1    1    2    0    0 -0.12709420908E+02  0.13748059276E+02  0.12155046324E+04  0.12156899481E+04  0.10000000000E+02 0.  1.
</event>
<event>
 5    1  0.1364103E-008  0.3739151E+03  0.7957747E-01  0.3478089E+00
         13   -1    0    0    0    0  0.00000000000E+00  0.00000000000E+00  0.14999999963E+04  0.15000000000E+04  0.10566000000E+00 0. -1.
        994   -1    0    0    0    0 -0.00000000000E+00 -0.00000000000E+00  0.11368683772E-12  0.17120000000E+03  0.17120000000E+03 0.  0.
         13    1    1    2    0    0 -0.18694346530E+02 -0.13547620282E+02  0.34365143048E+02  0.41400372320E+02  0.10566000000E+00 0. -1.
        994    1    1    2    0    0 -0.44193597946E+01  0.23795405203E+02  0.92378685274E+01  0.17314886735E+03  0.17120000000E+03 0.  0.
        998    1    1    2    0    0  0.23113706325E+02 -0.10247784921E+02  0.14563969847E+04  0.14566507603E+04  0.10000000000E+02 0. -1.
</event>
<event>
 5    1  0.1364103E-008  0.3827183E+03  0.7957747E-01  0.3439407E+00
         13   -1    0    0    0    0  0.00000000000E+00  0.00000000000E+00  0.14999999963E+04  0.15000000000E+04  0.10566000000E+00 0. -1.
        994   -1    0    0    0    0 -0.00000000000E+00 -0.00000000000E+00  0.11368683772E-12  0.17120000000E+03  0.17120000000E+03 0.  0.
         13    1    1    2    0    0 -0.51129310484E+01  0.17665606275E+02  0.58806092580E+02  0.61614798527E+02  0.10566000000E+00 0. -1.
        994    1    1    2    0    0  0.15792310338E+01 -0.17346110898E+02  0.37729853272E+01  0.17212512005E+03  0.17120000000E+03 0.  0.
        998    1    1    2    0    0  0.35337000146E+01 -0.31949537716E+00  0.14374209184E+04  0.14374600814E+04  0.10000000000E+02 0. -1.
</event>
<event>
 5    1  0.1364103E-008  0.3802647E+03  0.7957747E-01  0.3450007E+00
         13   -1    0    0    0    0  0.00000000000E+00  0.00000000000E+00  0.14999999963E+04  0.15000000000E+04  0.10566000000E+00 0.  1.
        994   -1    0    0    0    0 -0.00000000000E+00 -0.00000000000E+00  0.11368683772E-12  0.17120000000E+03  0.17120000000E+03 0.  0.
         13    1    1    2    0    0  0.24130347172E+02  0.17794438775E+02  0.12384136037E+03  0.12741903079E+03  0.10566000000E+00 0.  1.
        994    1    1    2    0    0 -0.31540532282E+01  0.50843869193E+01  0.41191932263E+01  0.17135403933E+03  0.17120000000E+03 0.  0.
        998    1    1    2    0    0 -0.20976293944E+02 -0.22878825694E+02  0.13720394427E+04  0.13724269299E+04  0.10000000000E+02 0.  1.
</event>
<event>
 5    1  0.1364103E-008  0.3854089E+03  0.7957747E-01  0.3427940E+00
         13   -1    0    0    0    0  0.00000000000E+00  0.00000000000E+00  0.14999999963E+04  0.15000000000E+04  0.10566000000E+00 0. -1.
        994   -1    0    0    0    0 -0.00000000000E+00 -0.00000000000E+00  0.11368683772E-12  0.17120000000E+03  0.17120000000E+03 0.  0.
         13    1    1    2    0    0 -0.75384952164E+01  0.80779148927E+01  0.45302688561E+02  0.46630744944E+02  0.10566000000E+00 0. -1.
        994    1    1    2    0    0 -0.37250410622E+01 -0.46119250848E+00  0.14735481651E+01  0.17124748166E+03  0.17120000000E+03 0.  0.
        998    1    1    2    0    0  0.11263536279E+02 -0.76167223843E+01  0.14532237596E+04  0.14533217734E+04  0.10000000000E+02 0. -1.
</event>
<event>
 5    1  0.1364103E-008  0.3855887E+03  0.7957747E-01  0.3427179E+00
         13   -1    0    0    0    0  0.00000000000E+00  0.00000000000E+00  0.14999999963E+04  0.15000000000E+04  0.10566000000E+00 0. -1.
        994   -1    0    0    0    0 -0.00000000000E+00 -0.00000000000E+00  0.11368683772E-12  0.17120000000E+03  0.17120000000E+03 0.  0.
         13    1    1    2    0    0  0.61411279135E+01 -0.82217784735E+02  0.14983032097E+03  0.17101641390E+03  0.10566000000E+00 0. -1.
        994    1    1    2    0    0 -0.76278283189E+01  0.86247843609E+02  0.47729315061E+02  0.19769775368E+03  0.17120000000E+03 0.  0.
        998    1    1    2    0    0  0.14867004054E+01 -0.40300588739E+01  0.13024403603E+04  0.13024858324E+04  0.10000000000E+02 0. -1.
</event>
<event>
 5    1  0.1364103E-008  0.3686796E+03  0.7957747E-01  0.3501981E+00
         13   -1    0    0    0    0  0.00000000000E+00  0.00000000000E+00  0.14999999963E+04  0.15000000000E+04  0.10566000000E+00 0.  1.
        994   -1    0    0    0    0 -0.00000000000E+00 -0.00000000000E+00  0.11368683772E-12  0.17120000000E+03  0.17120000000E+03 0.  0.
         13    1    1    2    0    0 -0.23486042254E+02 -0.36212540839E+01  0.23622367533E+02  0.33507239125E+02  0.10566000000E+00 0.  1.
        994    1    1    2    0    0  0.11051193129E+02 -0.14652695088E+01  0.10674907776E+02  0.17189435575E+03  0.17120000000E+03 0.  0.
        998    1    1    2    0    0  0.12434849126E+02  0.50865235927E+01  0.14657027210E+04  0.14657984051E+04  0.10000000000E+02 0.  1.
</event>
<event>
 5    1  0.1364103E-008  0.2390506E+03  0.7957747E-01  0.4457710E+00
         13   -1    0    0    0    0  0.00000000000E+00  0.00000000000E+00  0.14999999963E+04  0.15000000000E+04  0.10566000000E+00 0. -1.
        994   -1    0    0    0    0 -0.00000000000E+00 -0.00000000000E+00  0.11368683772E-12  0.17120000000E+03  0.17120000000E+03 0.  0.
         13    1    1    2    0    0  0.15958870313E+03  0.13434928590E+02  0.70189474315E+02  0.17485887150E+03  0.10566000000E+00 0. -1.
        994    1    1    2    0    0 -0.14880579617E+03  0.21953326964E+02  0.36145693884E+03  0.42730044720E+03  0.17120000000E+03 0.  0.
        998    1    1    2    0    0 -0.10782906965E+02 -0.35388255554E+02  0.10683535831E+04  0.10690406813E+04  0.10000000000E+02 0. -1.
</event>
<event>
 5    1  0.1364103E-008  0.3697017E+03  0.7957747E-01  0.3497263E+00
         13   -1    0    0    0    0  0.00000000000E+00  0.00000000000E+00  0.14999999963E+04  0.15000000000E+04  0.10566000000E+00 0.  1.
        994   -1    0    0    0    0 -0.00000000000E+00 -0.00000000000E+00  0.11368683772E-12  0.17120000000E+03  0.17120000000E+03 0.  0.
         13    1    1    2    0    0  0.62951215721E+02 -0.47924761324E+02  0.32820012581E+03  0.33760179510E+03  0.10566000000E+00 0.  1.
        994    1    1    2    0    0 -0.39571055469E+02  0.24005910361E+02  0.16876310393E+02  0.17814713586E+03  0.17120000000E+03 0.  0.
        998    1    1    2    0    0 -0.23380160252E+02  0.23918850963E+02  0.11549235601E+04  0.11554510690E+04  0.10000000000E+02 0.  1.
</event>
<event>
 5    1  0.1364103E-008  0.3851713E+03  0.7957747E-01  0.3428946E+00
         13   -1    0    0    0    0  0.00000000000E+00  0.00000000000E+00  0.14999999963E+04  0.15000000000E+04  0.10566000000E+00 0.  1.
        994   -1    0    0    0    0 -0.00000000000E+00 -0.00000000000E+00  0.11368683772E-12  0.17120000000E+03  0.17120000000E+03 0.  0.
         13    1    1    2    0    0 -0.79045667188E+01 -0.12473190551E+02  0.69100049895E+02  0.70660390015E+02  0.10566000000E+00 0.  1.
        994    1    1    2    0    0  0.91275022358E+01  0.97778997581E+01  0.21333960943E+01  0.17173499934E+03  0.17120000000E+03 0.  0.
        998    1    1    2    0    0 -0.12229355170E+01  0.26952907933E+01  0.14287665503E+04  0.14288046106E+04  0.10000000000E+02 0.  1.
</event>
<event>
 5    1  0.1364103E-008  0.3791172E+03  0.7957747E-01  0.3455011E+00
         13   -1    0    0    0    0  0.00000000000E+00  0.00000000000E+00  0.14999999963E+04  0.15000000000E+04  0.10566000000E+00 0. -1.
        994   -1    0    0    0    0 -0.00000000000E+00 -0.00000000000E+00  0.11368683772E-12  0.17120000000E+03  0.17120000000E+03 0.  0.
         13    1    1    2    0    0 -0.15100427527E+02  0.18269290373E+02  0.60759768962E+02  0.65219250000E+02  0.10566000000E+00 0. -1.
        994    1    1    2    0    0 -0.70584344046E+01 -0.19509823930E+02  0.60239504924E+01  0.17255776629E+03  0.17120000000E+03 0.  0.
        998    1    1    2    0    0  0.22158861932E+02  0.12405335564E+01  0.14332162768E+04  0.14334229837E+04  0.10000000000E+02 0. -1.
</event>
<event>
 5    1  0.1364103E-008  0.3797326E+03  0.7957747E-01  0.3452324E+00
         13   -1    0    0    0    0  0.00000000000E+00  0.00000000000E+00  0.14999999963E+04  0.15000000000E+04  0.10566000000E+00 0. -1.
        994   -1    0    0    0    0 -0.00000000000E+00 -0.00000000000E+00  0.11368683772E-12  0.17120000000E+03  0.17120000000E+03 0.  0.
         13    1    1    2    0    0  0.29809078777E+02  0.87404881507E+01  0.10320588007E+03  0.10777959991E+03  0.10566000000E+00 0. -1.
        994    1    1    2    0    0 -0.33579516618E+02 -0.64468738296E+01  0.81899051151E+01  0.17477316918E+03  0.17120000000E+03 0.  0.
        998    1    1    2    0    0  0.37704378412E+01 -0.22936143211E+01  0.13886042111E+04  0.13886472309E+04  0.10000000000E+02 0. -1.
</event>
<event>
 5    1  0.1364103E-008  0.3796460E+03  0.7957747E-01  0.3452701E+00
         13   -1    0    0    0    0  0.00000000000E+00  0.00000000000E+00  0.14999999963E+04  0.15000000000E+04  0.10566000000E+00 0. -1.
        994   -1    0    0    0    0 -0.00000000000E+00 -0.00000000000E+00  0.11368683772E-12  0.17120000000E+03  0.17120000000E+03 0.  0.
         13    1    1    2    0    0 -0.18961022661E+02  0.13574814799E+02  0.62077409196E+02  0.66312984201E+02  0.10566000000E+00 0. -1.
        994    1    1    2    0    0  0.19666951541E+02  0.58224654810E+01  0.57211658230E+01  0.17251916365E+03  0.17120000000E+03 0.  0.
        998    1    1    2    0    0 -0.70592887953E+00 -0.19397280280E+02  0.14322014213E+04  0.14323678522E+04  0.10000000000E+02 0. -1.
</event>
<event>
 5    1  0.1364103E-008  0.3755654E+03  0.7957747E-01  0.3470698E+00
         13   -1    0    0    0    0  0.00000000000E+00  0.00000000000E+00  0.14999999963E+04  0.15000000000E+04  0.10566000000E+00 0.  1.
        994   -1    0    0    0    0 -0.00000000000E+00 -0.00000000000E+00  0.11368683772E-12  0.17120000000E+03  0.17120000000E+03 0.  0.
         13    1    1    2    0    0 -0.19985022199E+02 -0.40047561107E+02  0.16390012726E+03  0.16990135710E+03  0.10566000000E+00 0.  1.
        994    1    1    2    0    0 -0.64760545511E+01  0.21050992778E+02  0.80361467693E+01  0.17279786814E+03  0.17120000000E+03 0.  0.
        998    1    1    2    0    0  0.26461076750E+02  0.18996568330E+02  0.13280637222E+04  0.13285007748E+04  0.10000000000E+02 0.  1.
</event>
<event>
 5    1  0.1364103E-008  0.3807678E+03  0.7957747E-01  0.3447822E+00
         13   -1    0    0    0    0  0.00000000000E+00  0.00000000000E+00  0.14999999963E+04  0.15000000000E+04  0.10566000000E+00 0. -1.
        994   -1    0    0    0    0 -0.00000000000E+00 -0.00000000000E+00  0.11368683772E-12  0.17120000000E+03  0.17120000000E+03 0.  0.
         13    1    1    2    0    0  0.31246859608E+01  0.94979166355E+02  0.22043832874E+03  0.24004973161E+03  0.10566000000E+00 0. -1.
        994    1    1    2    0    0 -0.41001895999E+01 -0.98681347190E+02  0.53118410430E+02  0.20466026816E+03  0.17120000000E+03 0.  0.
        998    1    1    2    0    0  0.97550363905E+00  0.37021808350E+01  0.12264432571E+04  0.12264900002E+04  0.10000000000E+02 0.  0.
</event>
<event>
 5    1  0.1364103E-008  0.3765070E+03  0.7957747E-01  0.3466510E+00
         13   -1    0    0    0    0  0.00000000000E+00  0.00000000000E+00  0.14999999963E+04  0.15000000000E+04  0.10566000000E+00 0.  1.
        994   -1    0    0    0    0 -0.00000000000E+00 -0.00000000000E+00  0.11368683772E-12  0.17120000000E+03  0.17120000000E+03 0.  0.
         13    1    1    2    0    0 -0.63366441905E+02  0.11038224200E+02  0.28808574841E+03  0.29517885757E+03  0.10566000000E+00 0.  1.
        994    1    1    2    0    0  0.60331346299E+02 -0.13606616308E+02  0.18954556382E+02  0.18301291365E+03  0.17120000000E+03 0.  0.
        998    1    1    2    0    0  0.30350956061E+01  0.25683921077E+01  0.11929596915E+04  0.11930082288E+04  0.10000000000E+02 0.  1.
</event>
<event>
 5    1  0.2264358E-008  0.3861498E+03  0.7957747E-01  0.3424810E+00
         13   -1    0    0    0    0  0.00000000000E+00  0.00000000000E+00  0.14999999963E+04  0.15000000000E+04  0.10566000000E+00 0. -1.
        994   -1    0    0    0    0 -0.00000000000E+00 -0.00000000000E+00  0.11368683772E-12  0.17120000000E+03  0.17120000000E+03 0.  0.
         13    1    1    2    0    0  0.84577587620E+01  0.95061097976E+01  0.74320234271E+02  0.75401645823E+02  0.10566000000E+00 0. -1.
        994    1    1    2    0    0 -0.11224166960E+02 -0.78693284727E+01  0.16762479085E+01  0.17175610051E+03  0.17120000000E+03 0.  0.
        998    1    1    2    0    0  0.27664081975E+01 -0.16367813249E+01  0.14240035141E+04  0.14240422537E+04  0.10000000000E+02 0. -1.
</event>
<event>
 5    1  0.1364103E-008  0.3794621E+03  0.7957747E-01  0.3453504E+00
         13   -1    0    0    0    0  0.00000000000E+00  0.00000000000E+00  0.14999999963E+04  0.15000000000E+04  0.10566000000E+00 0. -1.
        994   -1    0    0    0    0 -0.00000000000E+00 -0.00000000000E+00  0.11368683772E-12  0.17120000000E+03  0.17120000000E+03 0.  0.
         13    1    1    2    0    0  0.29457733741E+02 -0.23383818494E+02  0.38766799809E+02  0.54013303695E+02  0.10566000000E+00 0. -1.
        994    1    1    2    0    0 -0.23904418529E+02 -0.86333767885E+00  0.18103902405E+02  0.17380839410E+03  0.17120000000E+03 0.  0.
        998    1    1    2    0    0 -0.55533152118E+01  0.24247156173E+02  0.14431292941E+04  0.14433783022E+04  0.10000000000E+02 0. -1.
</event>
<event>
 5    1  0.1364103E-008  0.3739962E+03  0.7957747E-01  0.3477724E+00
         13   -1    0    0    0    0  0.00000000000E+00  0.00000000000E+00  0.14999999963E+04  0.15000000000E+04  0.10566000000E+00 0. -1.
        994   -1    0    0    0    0 -0.00000000000E+00 -0.00000000000E+00  0.11368683772E-12  0.17120000000E+03  0.17120000000E+03 0.  0.
         13    1    1    2    0    0  0.37789293824E+02  0.36044321005E+02  0.22795400163E+03  0.23385949163E+03  0.10566000000E+00 0. -1.
        994    1    1    2    0    0  0.34020295591E+01 -0.28496139010E+01  0.72622804541E+01  0.17141141975E+03  0.17120000000E+03 0.  0.
        998    1    1    2    0    0 -0.41191323383E+02 -0.33194707104E+02  0.12647837142E+04  0.12659290886E+04  0.10000000000E+02 0. -1.
</event>
<event>
 5    1  0.1364103E-008  0.3850534E+03  0.7957747E-01  0.3429446E+00
         13   -1    0    0    0    0  0.00000000000E+00  0.00000000000E+00  0.14999999963E+04  0.15000000000E+04  0.10566000000E+00 0.  1.
        994   -1    0    0    0    0 -0.00000000000E+00 -0.00000000000E+00  0.11368683772E-12  0.17120000000E+03  0.17120000000E+03 0.  0.
         13    1    1    2    0    0  0.14930905849E+02  0.24150281354E+01  0.90790041530E+02  0.92041333734E+02  0.10566000000E+00 0.  1.
        994    1    1    2    0    0  0.23528451149E+02 -0.26578277508E+02  0.57576108535E+01  0.17493593951E+03  0.17120000000E+03 0.  0.
        998    1    1    2    0    0 -0.38459356998E+02  0.24163249373E+02  0.14034523439E+04  0.14042227268E+04  0.10000000000E+02 0.  1.
</event>
<event>
 5    1  0.1364103E-008  0.3752889E+03  0.7957747E-01  0.3471932E+00
         13   -1    0    0    0    0  0.00000000000E+00  0.00000000000E+00  0.14999999963E+04  0.15000000000E+04  0.10566000000E+00 0.  1.
        994   -1    0    0    0    0 -0.00000000000E+00 -0.00000000000E+00  0.11368683772E-12  0.17120000000E+03  0.17120000000E+03 0.  0.
         13    1    1    2    0    0  0.25628732616E+02  0.34713402500E+02  0.13600517268E+03  0.14268591525E+03  0.10566000000E+00 0.  1.
        994    1    1    2    0    0 -0.31611882049E+02 -0.16657473110E+02  0.10878559313E+02  0.17522718268E+03  0.17120000000E+03 0.  0.
        998    1    1    2    0    0  0.59831494330E+01 -0.18055929391E+02  0.13531162643E+04  0.13532869021E+04  0.10000000000E+02 0.  1.
</event>
<event>
 5    1  0.1364103E-008  0.3838142E+03  0.7957747E-01  0.3434717E+00
         13   -1    0    0    0    0  0.00000000000E+00  0.00000000000E+00  0.14999999963E+04  0.15000000000E+04  0.10566000000E+00 0.  1.
        994   -1    0    0    0    0 -0.00000000000E+00 -0.00000000000E+00  0.11368683772E-12  0.17120000000E+03  0.17120000000E+03 0.  0.
         13    1    1    2    0    0  0.27278260383E+02 -0.10257447233E+02  0.16940828945E+03  0.17189676673E+03  0.10566000000E+00 0.  1.
        994    1    1    2    0    0 -0.26862893937E+02  0.16276295620E+02  0.54836839515E+01  0.17414374424E+03  0.17120000000E+03 0.  0.
        998    1    1    2    0    0 -0.41536644640E+00 -0.60188483868E+01  0.13251080229E+04  0.13251594890E+04  0.10000000000E+02 0.  1.
</event>
<event>
 5    1  0.1364103E-008  0.3831688E+03  0.7957747E-01  0.3437476E+00
         13   -1    0    0    0    0  0.00000000000E+00  0.00000000000E+00  0.14999999963E+04  0.15000000000E+04  0.10566000000E+00 0.  1.
        994   -1    0    0    0    0 -0.00000000000E+00 -0.00000000000E+00  0.11368683772E-12  0.17120000000E+03  0.17120000000E+03 0.  0.
         13    1    1    2    0    0  0.20902540955E+03  0.52533820089E+02  0.12161574335E+04  0.12351074198E+04  0.10566000000E+00 0.  1.
        994    1    1    2    0    0 -0.20534994585E+03 -0.50051040327E+02  0.16792320785E+03  0.31965817780E+03  0.17120000000E+03 0.  0.
        998    1    1    2    0    0 -0.36754637032E+01 -0.24827797619E+01  0.11591935489E+03  0.11643440242E+03  0.10000000000E+02 0.  0.
</event>
<event>
 5    1  0.1364103E-008  0.3856970E+03  0.7957747E-01  0.3426721E+00
         13   -1    0    0    0    0  0.00000000000E+00  0.00000000000E+00  0.14999999963E+04  0.15000000000E+04  0.10566000000E+00 0. -1.
        994   -1    0    0    0    0 -0.00000000000E+00 -0.00000000000E+00  0.11368683772E-12  0.17120000000E+03  0.17120000000E+03 0.  0.
         13    1    1    2    0    0  0.10321277428E+02 -0.23385927586E+01  0.43267516012E+02  0.44543090257E+02  0.10566000000E+00 0. -1.
        994    1    1    2    0    0 -0.98369147750E+01 -0.18700763189E+00  0.16021648546E+01  0.17148996121E+03  0.17120000000E+03 0.  0.
        998    1    1    2    0    0 -0.48436265268E+00  0.25256003905E+01  0.14551303154E+04  0.14551669485E+04  0.10000000000E+02 0. -1.
</event>
<event>
 5    1  0.1364103E-008  0.3774376E+03  0.7957747E-01  0.3462392E+00
         13   -1    0    0    0    0  0.00000000000E+00  0.00000000000E+00  0.14999999963E+04  0.15000000000E+04  0.10566000000E+00 0.  1.
        994   -1    0    0    0    0 -0.00000000000E+00 -0.00000000000E+00  0.11368683772E-12  0.17120000000E+03  0.17120000000E+03 0.  0.
         13    1    1    2    0    0  0.16840522098E+01  0.31478927202E+02  0.87546215497E+02  0.93048965075E+02  0.10566000000E+00 0.  1.
        994    1    1    2    0    0  0.35822584835E+01 -0.24837145719E+02  0.75582568821E+01  0.17319435219E+03  0.17120000000E+03 0.  0.
        998    1    1    2    0    0 -0.52663106933E+01 -0.66417814825E+01  0.14048955239E+04  0.14049566827E+04  0.10000000000E+02 0.  1.
</event>
<event>
 5    1  0.1364103E-008  0.3820189E+03  0.7957747E-01  0.3442415E+00
         13   -1    0    0    0    0  0.00000000000E+00  0.00000000000E+00  0.14999999963E+04  0.15000000000E+04  0.10566000000E+00 0.  1.
        994   -1    0    0    0    0 -0.00000000000E+00 -0.00000000000E+00  0.11368683772E-12  0.17120000000E+03  0.17120000000E+03 0.  0.
         13    1    1    2    0    0 -0.18650028532E+02  0.10532639844E+02  0.74839903323E+02  0.77844603922E+02  0.10566000000E+00 0.  1.
        994    1    1    2    0    0  0.25162528645E+01 -0.10866297500E+02  0.35307340341E+01  0.17159928331E+03  0.17120000000E+03 0.  0.
        998    1    1    2    0    0  0.16133775667E+02  0.33365765671E+00  0.14216293589E+04  0.14217561128E+04  0.10000000000E+02 0.  1.
</event>
<event>
 5    1  0.1364103E-008  0.3818974E+03  0.7957747E-01  0.3442938E+00
         13   -1    0    0    0    0  0.00000000000E+00  0.00000000000E+00  0.14999999963E+04  0.15000000000E+04  0.10566000000E+00 0. -1.
        994   -1    0    0    0    0 -0.00000000000E+00 -0.00000000000E+00  0.11368683772E-12  0.17120000000E+03  0.17120000000E+03 0.  0.
         13    1    1    2    0    0  0.34072616835E+02 -0.22042905675E+02  0.24346133470E+03  0.24682031028E+03  0.10566000000E+00 0. -1.
        994    1    1    2    0    0 -0.32088617933E+02  0.54750138163E+01  0.67066703213E+01  0.17439631477E+03  0.17120000000E+03 0.  0.
        998    1    1    2    0    0 -0.19839989017E+01  0.16567891859E+02  0.12498319913E+04  0.12499833750E+04  0.10000000000E+02 0. -1.
</event>
<event>
 5    1  0.1364103E-008  0.3836440E+03  0.7957747E-01  0.3435444E+00
         13   -1    0    0    0    0  0.00000000000E+00  0.00000000000E+00  0.14999999963E+04  0.15000000000E+04  0.10566000000E+00 0.  1.
        994   -1    0    0    0    0 -0.00000000000E+00 -0.00000000000E+00  0.11368683772E-12  0.17120000000E+03  0.17120000000E+03 0.  0.
         13    1    1    2    0    0 -0.42024021859E+01  0.98014400889E+01  0.23456365463E+02  0.25767045945E+02  0.10566000000E+00 0.  1.
        994    1    1    2    0    0  0.19684948756E+01 -0.13283766285E+02  0.29007786117E+01  0.17175036517E+03  0.17120000000E+03 0.  0.
        998    1    1    2    0    0  0.22339073104E+01  0.34823261960E+01  0.14736428522E+04  0.14736825889E+04  0.10000000000E+02 0.  1.
</event>
<event>
 5    1  0.1364103E-008  0.3728189E+03  0.7957747E-01  0.3483035E+00
         13   -1    0    0    0    0  0.00000000000E+00  0.00000000000E+00  0.14999999963E+04  0.15000000000E+04  0.10566000000E+00 0.  1.
        994   -1    0    0    0    0 -0.00000000000E+00 -0.00000000000E+00  0.11368683772E-12  0.17120000000E+03  0.17120000000E+03 0.  0.
         13    1    1    2    0    0 -0.63997462852E+02  0.24234190168E+02  0.30097405130E+03  0.30865573369E+03  0.10566000000E+00 0.  1.
        994    1    1    2    0    0  0.43120465931E+02  0.59811431543E+01  0.14320727779E+02  0.17722774021E+03  0.17120000000E+03 0.  0.
        998    1    1    2    0    0  0.20876996921E+02 -0.30215333322E+02  0.11847052172E+04  0.11853165261E+04  0.10000000000E+02 0.  1.
</event>
<event>
 5    1  0.1364103E-008  0.4492858E+03  0.7957747E-01  0.3195730E+00
         13   -1    0    0    0    0  0.00000000000E+00  0.00000000000E+00  0.14999999963E+04  0.15000000000E+04  0.10566000000E+00 0. -1.
        994   -1    0    0    0    0 -0.00000000000E+00 -0.00000000000E+00  0.11368683772E-12  0.17120000000E+03  0.17120000000E+03 0.  0.
         13    1    1    2    0    0 -0.60831250937E+02 -0.22018548443E+02  0.14580752686E+02  0.66316416361E+02  0.10566000000E+00 0. -1.
        994    1    1    2    0    0  0.56152467120E+02 -0.45265649645E+02  0.87579366154E+02  0.20538175181E+03  0.17120000000E+03 0.  0.
        998    1    1    2    0    0  0.46787838164E+01  0.67284198087E+02  0.13978398774E+04  0.13995018318E+04  0.10000000000E+02 0. -1.
</event>
<event>
 5    1  0.1364103E-008  0.3842627E+03  0.7957747E-01  0.3432805E+00
         13   -1    0    0    0    0  0.00000000000E+00  0.00000000000E+00  0.14999999963E+04  0.15000000000E+04  0.10566000000E+00 0. -1.
        994   -1    0    0    0    0 -0.00000000000E+00 -0.00000000000E+00  0.11368683772E-12  0.17120000000E+03  0.17120000000E+03 0.  0.
         13    1    1    2    0    0 -0.30322420538E+01  0.16869948758E+02  0.67065890545E+02  0.69221633191E+02  0.10566000000E+00 0. -1.
        994    1    1    2    0    0  0.11302213020E+02 -0.24840490144E+02  0.44557239649E+01  0.17341880938E+03  0.17120000000E+03 0.  0.
        998    1    1    2    0    0 -0.82699709659E+01  0.79705413856E+01  0.14284783818E+04  0.14285595574E+04  0.10000000000E+02 0. -1.
</event>
<event>
 5    1  0.1364103E-008  0.2504277E+03  0.7957747E-01  0.4328931E+00
         13   -1    0    0    0    0  0.00000000000E+00  0.00000000000E+00  0.14999999963E+04  0.15000000000E+04  0.10566000000E+00 0.  1.
        994   -1    0    0    0    0 -0.00000000000E+00 -0.00000000000E+00  0.11368683772E-12  0.17120000000E+03  0.17120000000E+03 0.  0.
         13    1    1    2    0    0  0.18181244546E+03 -0.12725676452E+02  0.26101385103E+03  0.31834878633E+03  0.10566000000E+00 0.  1.
        994    1    1    2    0    0 -0.17184072420E+03  0.98624606616E+01  0.20214258211E+03  0.31590752781E+03  0.17120000000E+03 0.  0.
        998    1    1    2    0    0 -0.99717212651E+01  0.28632157902E+01  0.10368435631E+04  0.10369436859E+04  0.10000000000E+02 0. -1.
</event>
<event>
 5    1  0.1364103E-008  0.3836501E+03  0.7957747E-01  0.3435417E+00
         13   -1    0    0    0    0  0.00000000000E+00  0.00000000000E+00  0.14999999963E+04  0.15000000000E+04  0.10566000000E+00 0. -1.
        994   -1    0    0    0    0 -0.00000000000E+00 -0.00000000000E+00  0.11368683772E-12  0.17120000000E+03  0.17120000000E+03 0.  0.
         13    1    1    2    0    0  0.15974063132E+02  0.42919590744E+01  0.58269832840E+02  0.60572074332E+02  0.10566000000E+00 0. -1.
        994    1    1    2    0    0 -0.16527240773E+02  0.11440707675E+02  0.36375232874E+01  0.17241435861E+03  0.17120000000E+03 0.  0.
        998    1    1    2    0    0  0.55317764100E+00 -0.15732666749E+02  0.14380926402E+04  0.14382135671E+04  0.10000000000E+02 0. -1.
</event>
<event>
 5    1  0.1364103E-008  0.3853820E+03  0.7957747E-01  0.3428054E+00
         13   -1    0    0    0    0  0.00000000000E+00  0.00000000000E+00  0.14999999963E+04  0.15000000000E+04  0.10566000000E+00 0.  1.
        994   -1    0    0    0    0 -0.00000000000E+00 -0.00000000000E+00  0.11368683772E-12  0.17120000000E+03  0.17120000000E+03 0.  0.
         13    1    1    2    0    0  0.25157896678E+01 -0.13916749258E+02  0.73007719311E+02  0.74364933608E+02  0.10566000000E+00 0.  1.
        994    1    1    2    0    0  0.16275650243E+01  0.31705103802E+01  0.14823163334E+01  0.17124350605E+03  0.17120000000E+03 0.  0.
        998    1    1    2    0    0 -0.41433546921E+01  0.10746238878E+02  0.14255099606E+04  0.14255915603E+04  0.10000000000E+02 0.  0.
</event>
<event>
 5    1  0.1364103E-008  0.4096799E+03  0.7957747E-01  0.3331303E+00
         13   -1    0    0    0    0  0.00000000000E+00  0.00000000000E+00  0.14999999963E+04  0.15000000000E+04  0.10566000000E+00 0. -1.
        994   -1    0    0    0    0 -0.00000000000E+00 -0.00000000000E+00  0.11368683772E-12  0.17120000000E+03  0.17120000000E+03 0.  0.
         13    1    1    2    0    0  0.63546708326E+02 -0.60142937336E+02  0.10001960904E+03  0.13288826286E+03  0.10566000000E+00 0. -1.
        994    1    1    2    0    0 -0.55797008571E+02  0.53274496257E+02  0.58395067554E+02  0.19664918518E+03  0.17120000000E+03 0.  0.
        998    1    1    2    0    0 -0.77496997558E+01  0.68684410792E+01  0.13415853197E+04  0.13416625520E+04  0.10000000000E+02 0. -1.
</event>
<event>
 5    1  0.1364103E-008  0.3810262E+03  0.7957747E-01  0.3446702E+00
         13   -1    0    0    0    0  0.00000000000E+00  0.00000000000E+00  0.14999999963E+04  0.15000000000E+04  0.10566000000E+00 0.  1.
        994   -1    0    0    0    0 -0.00000000000E+00 -0.00000000000E+00  0.11368683772E-12  0.17120000000E+03  0.17120000000E+03 0.  0.
         13    1    1    2    0    0  0.85546125070E+01 -0.51847198437E+02  0.30730318895E+03  0.31176365164E+03  0.10566000000E+00 0.  1.
        994    1    1    2    0    0 -0.85106146341E+01  0.51210474339E+02  0.12647180562E+02  0.17934417866E+03  0.17120000000E+03 0.  0.
        998    1    1    2    0    0 -0.43997872902E-01  0.63672409824E+00  0.11800496268E+04  0.11800921697E+04  0.10000000000E+02 0.  0.
</event>
<event>
 5    1  0.1364103E-008  0.3723906E+03  0.7957747E-01  0.3484976E+00
         13   -1    0    0    0    0  0.00000000000E+00  0.00000000000E+00  0.14999999963E+04  0.15000000000E+04  0.10566000000E+00 0. -1.
        994   -1    0    0    0    0 -0.00000000000E+00 -0.00000000000E+00  0.11368683772E-12  0.17120000000E+03  0.17120000000E+03 0.  0.
         13    1    1    2    0    0  0.23797072967E+02 -0.13839313607E+03  0.64491427699E+03  0.66002529998E+03  0.10566000000E+00 0. -1.
        994    1    1    2    0    0 -0.83527303058E+02  0.10176715768E+03  0.76106543300E+02  0.22898692249E+03  0.17120000000E+03 0.  0.
        998    1    1    2    0    0  0.59730230091E+02  0.36625978386E+02  0.77897917599E+03  0.78218777753E+03  0.10000000000E+02 0. -1.
</event>
<event>
 5    1  0.1364103E-008  0.3842613E+03  0.7957747E-01  0.3432811E+00
         13   -1    0    0    0    0  0.00000000000E+00  0.00000000000E+00  0.14999999963E+04  0.15000000000E+04  0.10566000000E+00 0.  1.
        994   -1    0    0    0    0 -0.00000000000E+00 -0.00000000000E+00  0.11368683772E-12  0.17120000000E+03  0.17120000000E+03 0.  0.
         13    1    1    2    0    0  0.16216222727E+02 -0.93930529648E+01  0.89012880332E+02  0.90964275144E+02  0.10566000000E+00 0.  1.
        994    1    1    2    0    0 -0.84610670555E+01  0.45072076759E+01  0.23003357989E+01  0.17148363223E+03  0.17120000000E+03 0.  0.
        998    1    1    2    0    0 -0.77551556718E+01  0.48858452889E+01  0.14086867801E+04  0.14087520926E+04  0.10000000000E+02 0.  1.
</event>
<event>
 5    1  0.1364103E-008  0.3790211E+03  0.7957747E-01  0.3455432E+00
         13   -1    0    0    0    0  0.00000000000E+00  0.00000000000E+00  0.14999999963E+04  0.15000000000E+04  0.10566000000E+00 0. -1.
        994   -1    0    0    0    0 -0.00000000000E+00 -0.00000000000E+00  0.11368683772E-12  0.17120000000E+03  0.17120000000E+03 0.  0.
         13    1    1    2    0    0  0.35959192404E+02  0.12307080816E+02  0.13707690144E+03  0.14224842997E+03  0.10566000000E+00 0. -1.
        994    1    1    2    0    0 -0.43647879390E+02 -0.71133183257E+01  0.11215299296E+02  0.17717494070E+03  0.17120000000E+03 0.  0.
        998    1    1    2    0    0  0.76886869861E+01 -0.51937624906E+01  0.13517077955E+04  0.13517766293E+04  0.10000000000E+02 0. -1.
</event>
<event>
 5    1  0.1364103E-008  0.3709377E+03  0.7957747E-01  0.3491593E+00
         13   -1    0    0    0    0  0.00000000000E+00  0.00000000000E+00  0.14999999963E+04  0.15000000000E+04  0.10566000000E+00 0.  1.
        994   -1    0    0    0    0 -0.00000000000E+00 -0.00000000000E+00  0.11368683772E-12  0.17120000000E+03  0.17120000000E+03 0.  0.
         13    1    1    2    0    0 -0.16606278543E+03  0.27410173250E+02  0.73463863890E+03  0.75367241374E+03  0.10566000000E+00 0.  1.
        994    1    1    2    0    0  0.15336310114E+03  0.57638823976E+01  0.99302747157E+02  0.25044747698E+03  0.17120000000E+03 0.  0.
        998    1    1    2    0    0  0.12699684282E+02 -0.33174055647E+02  0.66605861022E+03  0.66708010928E+03  0.10000000000E+02 0.  1.
</event>
<event>
 5    1  0.1364103E-008  0.3825130E+03  0.7957747E-01  0.3440289E+00
         13   -1    0    0    0    0  0.00000000000E+00  0.00000000000E+00  0.14999999963E+04  0.15000000000E+04  0.10566000000E+00 0. -1.
        994   -1    0    0    0    0 -0.00000000000E+00 -0.00000000000E+00  0.11368683772E-12  0.17120000000E+03  0.17120000000E+03 0.  0.
         13    1    1    2    0    0 -0.12042266404E+02 -0.21591326545E+02  0.10421700095E+03  0.10710927136E+03  0.10566000000E+00 0. -1.
        994    1    1    2    0    0  0.13691258381E+02  0.12242520532E+02  0.39891432756E+01  0.17222857814E+03  0.17120000000E+03 0.  0.
        998    1    1    2    0    0 -0.16489919772E+01  0.93488060134E+01  0.13917938521E+04  0.13918621505E+04  0.10000000000E+02 0. -1.
</event>
<event>
 5    1  0.1364103E-008  0.3776823E+03  0.7957747E-01  0.3461313E+00
         13   -1    0    0    0    0  0.00000000000E+00  0.00000000000E+00  0.14999999963E+04  0.15000000000E+04  0.10566000000E+00 0.  1.
        994   -1    0    0    0    0 -0.00000000000E+00 -0.00000000000E+00  0.11368683772E-12  0.17120000000E+03  0.17120000000E+03 0.  0.
         13    1    1    2    0    0  0.30982831182E+01 -0.11833334695E+02  0.11863716218E+02  0.17040718730E+02  0.10566000000E+00 0.  1.
        994    1    1    2    0    0  0.35972181557E+01  0.53756823237E+01  0.54486690018E+01  0.17140876854E+03  0.17120000000E+03 0.  0.
        998    1    1    2    0    0 -0.66955012739E+01  0.64576523715E+01  0.14826876111E+04  0.14827505127E+04  0.10000000000E+02 0.  1.
</event>
<event>
 5    1  0.1364103E-008  0.3773064E+03  0.7957747E-01  0.3462971E+00
         13   -1    0    0    0    0  0.00000000000E+00  0.00000000000E+00  0.14999999963E+04  0.15000000000E+04  0.10566000000E+00 0.  1.
        994   -1    0    0    0    0 -0.00000000000E+00 -0.00000000000E+00  0.11368683772E-12  0.17120000000E+03  0.17120000000E+03 0.  0.
         13    1    1    2    0    0  0.10795547585E+02  0.32122311901E+02  0.12518383399E+03  0.12968959182E+03  0.10566000000E+00 0.  1.
        994    1    1    2    0    0 -0.46173208716E+02  0.31762595211E+02  0.16167263878E+02  0.18086361734E+03  0.17120000000E+03 0.  0.
        998    1    1    2    0    0  0.35377661131E+02 -0.63884907112E+02  0.13586488984E+04  0.13606467908E+04  0.10000000000E+02 0.  1.
</event>
<event>
 5    1  0.1364103E-008  0.3848192E+03  0.7957747E-01  0.3430440E+00
         13   -1    0    0    0    0  0.00000000000E+00  0.00000000000E+00  0.14999999963E+04  0.15000000000E+04  0.10566000000E+00 0.  1.
        994   -1    0    0    0    0 -0.00000000000E+00 -0.00000000000E+00  0.11368683772E-12  0.17120000000E+03  0.17120000000E+03 0.  0.
         13    1    1    2    0    0  0.98785966397E+01  0.33585921303E+01  0.31832725262E+02  0.33499259310E+02  0.10566000000E+00 0.  1.
        994    1    1    2    0    0 -0.30850742038E+01 -0.24956261817E+01  0.17717629780E+01  0.17125514584E+03  0.17120000000E+03 0.  0.
        998    1    1    2    0    0 -0.67935224359E+01 -0.86296594865E+00  0.14663955080E+04  0.14664455948E+04  0.10000000000E+02 0.  1.
</event>
<event>
 5    1  0.1364103E-008  0.3808030E+03  0.7957747E-01  0.3447669E+00
         13   -1    0    0    0    0  0.00000000000E+00  0.00000000000E+00  0.14999999963E+04  0.15000000000E+04  0.10566000000E+00 0. -1.
        994   -1    0    0    0    0 -0.00000000000E+00 -0.00000000000E+00  0.11368683772E-12  0.17120000000E+03  0.17120000000E+03 0.  0.
         13    1    1    2    0    0  0.11674107617E+02  0.45280484402E+01  0.19760713707E+02  0.23394122800E+02  0.10566000000E+00 0. -1.
        994    1    1    2    0    0 -0.15119756823E+01 -0.66949698515E+01  0.38854130332E+01  0.17138157756E+03  0.17120000000E+03 0.  0.
        998    1    1    2    0    0 -0.10162131934E+02  0.21669214113E+01  0.14763538695E+04  0.14764242996E+04  0.10000000000E+02 0. -1.
</event>
<event>
 5    1  0.1364103E-008  0.3784927E+03  0.7957747E-01  0.3457748E+00
         13   -1    0    0    0    0  0.00000000000E+00  0.00000000000E+00  0.14999999963E+04  0.15000000000E+04  0.10566000000E+00 0. -1.
        994   -1    0    0    0    0 -0.00000000000E+00 -0.00000000000E+00  0.11368683772E-12  0.17120000000E+03  0.17120000000E+03 0.  0.
         13    1    1    2    0    0  0.64773160700E+01 -0.48297207458E+02  0.26181938945E+03  0.26631556419E+03  0.10566000000E+00 0. -1.
        994    1    1    2    0    0 -0.25189446179E+01  0.17344381649E+02  0.59286469812E+01  0.17219686847E+03  0.17120000000E+03 0.  0.
        998    1    1    2    0    0 -0.39583714521E+01  0.30952825809E+02  0.12322519598E+04  0.12326875673E+04  0.10000000000E+02 0. -1.
</event>
<event>
 5    1  0.1364103E-008  0.3858475E+03  0.7957747E-01  0.3426086E+00
         13   -1    0    0    0    0  0.00000000000E+00  0.00000000000E+00  0.14999999963E+04  0.15000000000E+04  0.10566000000E+00 0.  1.
        994   -1    0    0    0    0 -0.00000000000E+00 -0.00000000000E+00  0.11368683772E-12  0.17120000000E+03  0.17120000000E+03 0.  0.
         13    1    1    2    0    0  0.11333134040E+02 -0.20315745080E+00  0.54786342280E+02  0.55946721661E+02  0.10566000000E+00 0.  1.
        994    1    1    2    0    0 -0.42796472081E+01  0.91597897336E+01  0.15452552590E+01  0.17150523299E+03  0.17120000000E+03 0.  0.
        998    1    1    2    0    0 -0.70534868322E+01 -0.89566322828E+01  0.14436683987E+04  0.14437480454E+04  0.10000000000E+02 0.  1.
</event>
<event>
 5    1  0.1364103E-008  0.3820214E+03  0.7957747E-01  0.3442404E+00
         13   -1    0    0    0    0  0.00000000000E+00  0.00000000000E+00  0.14999999963E+04  0.15000000000E+04  0.10566000000E+00 0.  1.
        994   -1    0    0    0    0 -0.00000000000E+00 -0.00000000000E+00  0.11368683772E-12  0.17120000000E+03  0.17120000000E+03 0.  0.
         13    1    1    2    0    0  0.26450035493E+01  0.11960140131E+02  0.22791168106E+02  0.25874495230E+02  0.10566000000E+00 0.  1.
        994    1    1    2    0    0 -0.63065285633E+01 -0.84841768982E+01  0.34874198615E+01  0.17156152149E+03  0.17120000000E+03 0.  0.
        998    1    1    2    0    0  0.36615250140E+01 -0.34759632330E+01  0.14737214083E+04  0.14737639833E+04  0.10000000000E+02 0.  1.
</event>
<event>
 5    1  0.1364103E-008  0.3767120E+03  0.7957747E-01  0.3465601E+00
         13   -1    0    0    0    0  0.00000000000E+00  0.00000000000E+00  0.14999999963E+04  0.15000000000E+04  0.10566000000E+00 0. -1.
        994   -1    0    0    0    0 -0.00000000000E+00 -0.00000000000E+00  0.11368683772E-12  0.17120000000E+03  0.17120000000E+03 0.  0.
         13    1    1    2    0    0  0.71526744408E+01 -0.12771825016E+02  0.15757938896E+02  0.21508232567E+02  0.10566000000E+00 0. -1.
        994    1    1    2    0    0 -0.92171852957E+01  0.12289717325E+02  0.66001704779E+01  0.17201452237E+03  0.17120000000E+03 0.  0.
        998    1    1    2    0    0  0.20645108549E+01  0.48210769050E+00  0.14776418869E+04  0.14776772451E+04  0.10000000000E+02 0. -1.
</event>
<event>
 5    1  0.1364103E-008  0.3919579E+03  0.7957747E-01  0.3400688E+00
         13   -1    0    0    0    0  0.00000000000E+00  0.00000000000E+00  0.14999999963E+04  0.15000000000E+04  0.10566000000E+00 0. -1.
        994   -1    0    0    0    0 -0.00000000000E+00 -0.00000000000E+00  0.11368683772E-12  0.17120000000E+03  0.17120000000E+03 0.  0.
         13    1    1    2    0    0  0.77405940798E+02  0.12382036251E+03  0.26170152201E+03  0.29968460025E+03  0.10566000000E+00 0. -1.
        994    1    1    2    0    0 -0.11326656473E+03 -0.16592878998E+03  0.19866014892E+03  0.33035885458E+03  0.17120000000E+03 0.  0.
        998    1    1    2    0    0  0.35860623927E+02  0.42108427470E+02  0.10396383254E+04  0.10411565452E+04  0.10000000000E+02 0.  1.
</event>
<event>
 5    1  0.1364103E-008  0.3840196E+03  0.7957747E-01  0.3433841E+00
         13   -1    0    0    0    0  0.00000000000E+00  0.00000000000E+00  0.14999999963E+04  0.15000000000E+04  0.10566000000E+00 0.  1.
        994   -1    0    0    0    0 -0.00000000000E+00 -0.00000000000E+00  0.11368683772E-12  0.17120000000E+03  0.17120000000E+03 0.  0.
         13    1    1    2    0    0  0.12968328749E+01  0.12186081016E+02  0.35557646441E+02  0.37610367327E+02  0.10566000000E+00 0.  1.
        994    1    1    2    0    0  0.34806797126E+00 -0.40864651784E+01  0.21731729867E+01  0.17126290617E+03  0.17120000000E+03 0.  0.
        998    1    1    2    0    0 -0.16449008462E+01 -0.80996158376E+01  0.14622691769E+04  0.14623267265E+04  0.10000000000E+02 0.  1.
</event>
<event>
 5    1  0.1364103E-008  0.3724029E+03  0.7957747E-01  0.3484920E+00
         13   -1    0    0    0    0  0.00000000000E+00  0.00000000000E+00  0.14999999963E+04  0.15000000000E+04  0.10566000000E+00 0. -1.
        994   -1    0    0    0    0 -0.00000000000E+00 -0.00000000000E+00  0.11368683772E-12  0.17120000000E+03  0.17120000000E+03 0.  0.
         13    1    1    2    0    0  0.50692769760E+02 -0.11246440340E+03  0.62437998930E+03  0.63644982610E+03  0.10566000000E+00 0. -1.
        994    1    1    2    0    0 -0.38764042703E+02  0.10369183711E+03  0.51288588680E+02  0.21022513508E+03  0.17120000000E+03 0.  0.
        998    1    1    2    0    0 -0.11928727056E+02  0.87725662855E+01  0.82433141830E+03  0.82452503882E+03  0.10000000000E+02 0. -1.
</event>
<event>
 5    1  0.1364103E-008  0.3858072E+03  0.7957747E-01  0.3426256E+00
         13   -1    0    0    0    0  0.00000000000E+00  0.00000000000E+00  0.14999999963E+04  0.15000000000E+04  0.10566000000E+00 0. -1.
        994   -1    0    0    0    0 -0.00000000000E+00 -0.00000000000E+00  0.11368683772E-12  0.17120000000E+03  0.17120000000E+03 0.  0.
         13    1    1    2    0    0  0.71177138345E+01 -0.75962113469E+01  0.44411088462E+02  0.45614912249E+02  0.10566000000E+00 0. -1.
        994    1    1    2    0    0 -0.91611960950E+01  0.11064350900E+01  0.15092769354E+01  0.17145515341E+03  0.17120000000E+03 0.  0.
        998    1    1    2    0    0  0.20434822605E+01  0.64897762569E+01  0.14540796309E+04  0.14541299343E+04  0.10000000000E+02 0. -1.
</event>
<event>
 5    1  0.1364103E-008  0.3760780E+03  0.7957747E-01  0.3468415E+00
         13   -1    0    0    0    0  0.00000000000E+00  0.00000000000E+00  0.14999999963E+04  0.15000000000E+04  0.10566000000E+00 0. -1.
        994   -1    0    0    0    0 -0.00000000000E+00 -0.00000000000E+00  0.11368683772E-12  0.17120000000E+03  0.17120000000E+03 0.  0.
         13    1    1    2    0    0  0.18035207186E+02 -0.23259508605E+02  0.70061162960E+02  0.75992441454E+02  0.10566000000E+00 0. -1.
        994    1    1    2    0    0 -0.38198211509E+01  0.12632648905E+02  0.67163033922E+01  0.17183923761E+03  0.17120000000E+03 0.  0.
        998    1    1    2    0    0 -0.14215386035E+02  0.10626859700E+02  0.14232225299E+04  0.14233683209E+04  0.10000000000E+02 0. -1.
</event>
<event>
 5    1  0.1364103E-008  0.3800931E+03  0.7957747E-01  0.3450753E+00
         13   -1    0    0    0    0  0.00000000000E+00  0.00000000000E+00  0.14999999963E+04  0.15000000000E+04  0.10566000000E+00 0.  1.
        994   -1    0    0    0    0 -0.00000000000E+00 -0.00000000000E+00  0.11368683772E-12  0.17120000000E+03  0.17120000000E+03 0.  0.
         13    1    1    2    0    0  0.32664738815E+02 -0.30015060420E+02  0.24651908844E+03  0.25047866404E+03  0.10566000000E+00 0.  1.
        994    1    1    2    0    0 -0.90959603120E+01  0.22762161376E+02  0.60967219143E+01  0.17305335161E+03  0.17120000000E+03 0.  0.
        998    1    1    2    0    0 -0.23568778503E+02  0.72528990439E+01  0.12473841859E+04  0.12476679843E+04  0.10000000000E+02 0.  1.
</event>
<event>
 5    1  0.1364103E-008  0.3814653E+03  0.7957747E-01  0.3444803E+00
         13   -1    0    0    0    0  0.00000000000E+00  0.00000000000E+00  0.14999999963E+04  0.15000000000E+04  0.10566000000E+00 0. -1.
        994   -1    0    0    0    0 -0.00000000000E+00 -0.00000000000E+00  0.11368683772E-12  0.17120000000E+03  0.17120000000E+03 0.  0.
         13    1    1    2    0    0  0.17122662985E+02  0.29498027249E+02  0.16572028912E+03  0.16919380778E+03  0.10566000000E+00 0. -1.
        994    1    1    2    0    0 -0.19094446127E+02 -0.16368072089E+02  0.55023628063E+01  0.17312489033E+03  0.17120000000E+03 0.  0.
        998    1    1    2    0    0  0.19717831415E+01 -0.13129955160E+02  0.13287773444E+04  0.13288813019E+04  0.10000000000E+02 0. -1.
</event>
<event>
 5    1  0.1364103E-008  0.3833345E+03  0.7957747E-01  0.3436767E+00
         13   -1    0    0    0    0  0.00000000000E+00  0.00000000000E+00  0.14999999963E+04  0.15000000000E+04  0.10566000000E+00 0.  1.
        994   -1    0    0    0    0 -0.00000000000E+00 -0.00000000000E+00  0.11368683772E-12  0.17120000000E+03  0.17120000000E+03 0.  0.
         13    1    1    2    0    0  0.62017012145E+01  0.24970938455E+02  0.14125192836E+03  0.14357620727E+03  0.10566000000E+00 0.  1.
        994    1    1    2    0    0  0.32249074307E+01 -0.98603252586E+01  0.28152495001E+01  0.17153714371E+03  0.17120000000E+03 0.  0.
        998    1    1    2    0    0 -0.94266086452E+01 -0.15110613196E+02  0.13559328184E+04  0.13560866490E+04  0.10000000000E+02 0.  1.
</event>
<event>
 5    1  0.1364103E-008  0.3793444E+03  0.7957747E-01  0.3454018E+00
         13   -1    0    0    0    0  0.00000000000E+00  0.00000000000E+00  0.14999999963E+04  0.15000000000E+04  0.10566000000E+00 0. -1.
        994   -1    0    0    0    0 -0.00000000000E+00 -0.00000000000E+00  0.11368683772E-12  0.17120000000E+03  0.17120000000E+03 0.  0.
         13    1    1    2    0    0 -0.32015433903E+02 -0.17972197663E+02  0.13532051133E+03  0.14021283767E+03  0.10566000000E+00 0. -1.
        994    1    1    2    0    0  0.30466393299E+02  0.25596608335E+02  0.97874139571E+01  0.17603585132E+03  0.17120000000E+03 0.  0.
        998    1    1    2    0    0  0.15490406038E+01 -0.76244106723E+01  0.13548920710E+04  0.13549513110E+04  0.10000000000E+02 0. -1.
</event>
<event>
 5    1  0.1364103E-008  0.3834419E+03  0.7957747E-01  0.3436307E+00
         13   -1    0    0    0    0  0.00000000000E+00  0.00000000000E+00  0.14999999963E+04  0.15000000000E+04  0.10566000000E+00 0. -1.
        994   -1    0    0    0    0 -0.00000000000E+00 -0.00000000000E+00  0.11368683772E-12  0.17120000000E+03  0.17120000000E+03 0.  0.
         13    1    1    2    0    0 -0.11154030801E+02 -0.98856593203E+00  0.25392626684E+02  0.27752230896E+02  0.10566000000E+00 0. -1.
        994    1    1    2    0    0  0.62210251011E+01  0.43311109349E+00  0.25342182019E+01  0.17133228242E+03  0.17120000000E+03 0.  0.
        998    1    1    2    0    0  0.49330057003E+01  0.55545483854E+00  0.14720731514E+04  0.14721154867E+04  0.10000000000E+02 0. -1.
</event>
<event>
 5    1  0.1364103E-008  0.3768386E+03  0.7957747E-01  0.3465041E+00
         13   -1    0    0    0    0  0.00000000000E+00  0.00000000000E+00  0.14999999963E+04  0.15000000000E+04  0.10566000000E+00 0.  1.
        994   -1    0    0    0    0 -0.00000000000E+00 -0.00000000000E+00  0.11368683772E-12  0.17120000000E+03  0.17120000000E+03 0.  0.
         13    1    1    2    0    0  0.38647916483E+02  0.70428924506E+02  0.25872051574E+03  0.27090627768E+03  0.10566000000E+00 0.  1.
        994    1    1    2    0    0  0.35553894898E+02 -0.36853423728E+02  0.24054612413E+02  0.18030618032E+03  0.17120000000E+03 0.  0.
        998    1    1    2    0    0 -0.74201811381E+02 -0.33575500778E+02  0.12172248681E+04  0.12199875420E+04  0.10000000000E+02 0.  1.
</event>
<event>
 5    1  0.1364103E-008  0.4574446E+03  0.7957747E-01  0.3170637E+00
         13   -1    0    0    0    0  0.00000000000E+00  0.00000000000E+00  0.14999999963E+04  0.15000000000E+04  0.10566000000E+00 0.  1.
        994   -1    0    0    0    0 -0.00000000000E+00 -0.00000000000E+00  0.11368683772E-12  0.17120000000E+03  0.17120000000E+03 0.  0.
         13    1    1    2    0    0 -0.27932758136E+02 -0.92517017038E+02  0.52997676502E+02  0.11021979086E+03  0.10566000000E+00 0.  1.
        994    1    1    2    0    0 -0.16979751938E+02  0.74170700883E+02  0.98677578962E+02  0.21174586049E+03  0.17120000000E+03 0.  0.
        998    1    1    2    0    0  0.44912510074E+02  0.18346316156E+02  0.13483247408E+04  0.13492343486E+04  0.10000000000E+02 0.  1.
</event>
<event>
 5    1  0.1364103E-008  0.3810305E+03  0.7957747E-01  0.3446684E+00
         13   -1    0    0    0    0  0.00000000000E+00  0.00000000000E+00  0.14999999963E+04  0.15000000000E+04  0.10566000000E+00 0. -1.
        994   -1    0    0    0    0 -0.00000000000E+00 -0.00000000000E+00  0.11368683772E-12  0.17120000000E+03  0.17120000000E+03 0.  0.
         13    1    1    2    0    0 -0.25786672926E+02  0.94101308296E+00  0.90082247352E+02  0.93705178396E+02  0.10566000000E+00 0. -1.
        994    1    1    2    0    0  0.17911177438E+02  0.58264036365E+01  0.47966298700E+01  0.17229975309E+03  0.17120000000E+03 0.  0.
        998    1    1    2    0    0  0.78754954882E+01 -0.67674167194E+01  0.14051211191E+04  0.14051950685E+04  0.10000000000E+02 0. -1.
</event>
<event>
 5    1  0.1364103E-008  0.3856387E+03  0.7957747E-01  0.3426968E+00
         13   -1    0    0    0    0  0.00000000000E+00  0.00000000000E+00  0.14999999963E+04  0.15000000000E+04  0.10566000000E+00 0. -1.
        994   -1    0    0    0    0 -0.00000000000E+00 -0.00000000000E+00  0.11368683772E-12  0.17120000000E+03  0.17120000000E+03 0.  0.
         13    1    1    2    0    0  0.10014598520E+02 -0.94201790068E+01  0.72433413584E+02  0.73726810072E+02  0.10566000000E+00 0. -1.
        994    1    1    2    0    0 -0.30177406501E+01  0.10115392796E+02  0.16791360568E+01  0.17153334203E+03  0.17120000000E+03 0.  0.
        998    1    1    2    0    0 -0.69968578698E+01 -0.69521378901E+00  0.14258874466E+04  0.14259398479E+04  0.10000000000E+02 0. -1.
</event>
<event>
 5    1  0.1364103E-008  0.3708401E+03  0.7957747E-01  0.3492039E+00
         13   -1    0    0    0    0  0.00000000000E+00  0.00000000000E+00  0.14999999963E+04  0.15000000000E+04  0.10566000000E+00 0. -1.
        994   -1    0    0    0    0 -0.00000000000E+00 -0.00000000000E+00  0.11368683772E-12  0.17120000000E+03  0.17120000000E+03 0.  0.
         13    1    1    2    0    0 -0.25528766318E+02 -0.78274784628E+01  0.38201151473E+02  0.46608223166E+02  0.10566000000E+00 0. -1.
        994    1    1    2    0    0  0.12820316591E+02 -0.27759412660E+02  0.12060782789E+02  0.17432684243E+03  0.17120000000E+03 0.  0.
        998    1    1    2    0    0  0.12708449727E+02  0.35586891123E+02  0.14497380620E+04  0.14502649344E+04  0.10000000000E+02 0. -1.
</event>
<event>
 5    1  0.1364103E-008  0.4051244E+03  0.7957747E-01  0.3348563E+00
         13   -1    0    0    0    0  0.00000000000E+00  0.00000000000E+00  0.14999999963E+04  0.15000000000E+04  0.10566000000E+00 0. -1.
        994   -1    0    0    0    0 -0.00000000000E+00 -0.00000000000E+00  0.11368683772E-12  0.17120000000E+03  0.17120000000E+03 0.  0.
         13    1    1    2    0    0 -0.31988517687E+02 -0.16167598391E+02  0.78755328147E+01  0.36697298030E+02  0.10566000000E+00 0. -1.
        994    1    1    2    0    0  0.36105626980E+02  0.23379923162E+02  0.38310316894E+02  0.18063044452E+03  0.17120000000E+03 0.  0.
        998    1    1    2    0    0 -0.41171092925E+01 -0.72123247711E+01  0.14538141466E+04  0.14538722575E+04  0.10000000000E+02 0. -1.
</event>
<event>
 5    1  0.1364103E-008  0.3845221E+03  0.7957747E-01  0.3431702E+00
         13   -1    0    0    0    0  0.00000000000E+00  0.00000000000E+00  0.14999999963E+04  0.15000000000E+04  0.10566000000E+00 0.  1.
        994   -1    0    0    0    0 -0.00000000000E+00 -0.00000000000E+00  0.11368683772E-12  0.17120000000E+03  0.17120000000E+03 0.  0.
         13    1    1    2    0    0  0.11384081805E+02 -0.16818310685E+02  0.12094882883E+03  0.12264209413E+03  0.10566000000E+00 0.  1.
        994    1    1    2    0    0  0.15108558348E+01  0.28354817872E+01  0.19016204214E+01  0.17124070428E+03  0.17120000000E+03 0.  0.
        998    1    1    2    0    0 -0.12894937640E+02  0.13982828898E+02  0.13771495470E+04  0.13773172016E+04  0.10000000000E+02 0.  1.
</event>
<event>
 5    1  0.1364103E-008  0.3846210E+03  0.7957747E-01  0.3431281E+00
         13   -1    0    0    0    0  0.00000000000E+00  0.00000000000E+00  0.14999999963E+04  0.15000000000E+04  0.10566000000E+00 0. -1.
        994   -1    0    0    0    0 -0.00000000000E+00 -0.00000000000E+00  0.11368683772E-12  0.17120000000E+03  0.17120000000E+03 0.  0.
         13    1    1    2    0    0  0.11374070941E+02 -0.89004465571E+01  0.58551174378E+02  0.60306207175E+02  0.10566000000E+00 0. -1.
        994    1    1    2    0    0 -0.53592996455E-01  0.87024081664E+01  0.20678110780E+01  0.17143351663E+03  0.17120000000E+03 0.  0.
        998    1    1    2    0    0 -0.11320477944E+02  0.19803839072E+00  0.14393810108E+04  0.14394602762E+04  0.10000000000E+02 0. -1.
</event>
<event>
 5    1  0.1364103E-008  0.3847483E+03  0.7957747E-01  0.3430740E+00
         13   -1    0    0    0    0  0.00000000000E+00  0.00000000000E+00  0.14999999963E+04  0.15000000000E+04  0.10566000000E+00 0. -1.
        994   -1    0    0    0    0 -0.00000000000E+00 -0.00000000000E+00  0.11368683772E-12  0.17120000000E+03  0.17120000000E+03 0.  0.
         13    1    1    2    0    0 -0.30582984807E+01  0.23936318055E+02  0.14457301326E+03  0.14657308019E+03  0.10566000000E+00 0. -1.
        994    1    1    2    0    0  0.25933838239E+01 -0.29893571968E+02  0.47241269633E+01  0.17387382972E+03  0.17120000000E+03 0.  0.
        998    1    1    2    0    0  0.46491465679E+00  0.59572539133E+01  0.13507028561E+04  0.13507530901E+04  0.10000000000E+02 0. -1.
</event>
<event>
 5    1  0.1364103E-008  0.3983697E+03  0.7957747E-01  0.3374876E+00
         13   -1    0    0    0    0  0.00000000000E+00  0.00000000000E+00  0.14999999963E+04  0.15000000000E+04  0.10566000000E+00 0.  1.
        994   -1    0    0    0    0 -0.00000000000E+00 -0.00000000000E+00  0.11368683772E-12  0.17120000000E+03  0.17120000000E+03 0.  0.
         13    1    1    2    0    0 -0.26836412907E+02  0.76281914902E+01  0.27695655881E+01  0.28036833286E+02  0.10566000000E+00 0.  1.
        994    1    1    2    0    0  0.27911460463E+02 -0.38332308276E+02  0.35602023092E+02  0.18117770153E+03  0.17120000000E+03 0.  0.
        998    1    1    2    0    0 -0.10750475567E+01  0.30704116786E+02  0.14616284076E+04  0.14619854652E+04  0.10000000000E+02 0.  1.
</event>
<event>
 5    1  0.1364103E-008  0.3699467E+03  0.7957747E-01  0.3496136E+00
         13   -1    0    0    0    0  0.00000000000E+00  0.00000000000E+00  0.14999999963E+04  0.15000000000E+04  0.10566000000E+00 0. -1.
        994   -1    0    0    0    0 -0.00000000000E+00 -0.00000000000E+00  0.11368683772E-12  0.17120000000E+03  0.17120000000E+03 0.  0.
         13    1    1    2    0    0  0.11085656827E+02  0.61315660674E+02  0.16055420716E+03  0.17222127229E+03  0.10566000000E+00 0. -1.
        994    1    1    2    0    0 -0.33084187911E+00 -0.57453105388E+02  0.22539300621E+02  0.18198469399E+03  0.17120000000E+03 0.  0.
        998    1    1    2    0    0 -0.10754814947E+02 -0.38625552857E+01  0.13169064885E+04  0.13169940337E+04  0.10000000000E+02 0. -1.
</event>
<event>
 5    1  0.1364103E-008  0.3813033E+03  0.7957747E-01  0.3445503E+00
         13   -1    0    0    0    0  0.00000000000E+00  0.00000000000E+00  0.14999999963E+04  0.15000000000E+04  0.10566000000E+00 0.  1.
        994   -1    0    0    0    0 -0.00000000000E+00 -0.00000000000E+00  0.11368683772E-12  0.17120000000E+03  0.17120000000E+03 0.  0.
         13    1    1    2    0    0  0.97020002069E+01 -0.77580916858E+01  0.20565859402E+02  0.24026704551E+02  0.10566000000E+00 0.  1.
        994    1    1    2    0    0 -0.10803238659E+02  0.65134025536E+01  0.40065469057E+01  0.17171088142E+03  0.17120000000E+03 0.  0.
        998    1    1    2    0    0  0.11012384522E+01  0.12446891323E+01  0.14754275900E+04  0.14754624140E+04  0.10000000000E+02 0.  1.
</event>
<event>
 5    1  0.1364103E-008  0.3788569E+03  0.7957747E-01  0.3456151E+00
         13   -1    0    0    0    0  0.00000000000E+00  0.00000000000E+00  0.14999999963E+04  0.15000000000E+04  0.10566000000E+00 0. -1.
        994   -1    0    0    0    0 -0.00000000000E+00 -0.00000000000E+00  0.11368683772E-12  0.17120000000E+03  0.17120000000E+03 0.  0.
         13    1    1    2    0    0  0.21466835941E+02 -0.14937125143E+02  0.73679821607E+02  0.78183566233E+02  0.10566000000E+00 0. -1.
        994    1    1    2    0    0 -0.12045214837E+02 -0.45250808845E+01  0.52670506554E+01  0.17176363230E+03  0.17120000000E+03 0.  0.
        998    1    1    2    0    0 -0.94216211040E+01  0.19462206027E+02  0.14210531240E+04  0.14212528015E+04  0.10000000000E+02 0. -1.
</event>
<event>
 5    1  0.1364103E-008  0.3814653E+03  0.7957747E-01  0.3444803E+00
         13   -1    0    0    0    0  0.00000000000E+00  0.00000000000E+00  0.14999999963E+04  0.15000000000E+04  0.10566000000E+00 0. -1.
        994   -1    0    0    0    0 -0.00000000000E+00 -0.00000000000E+00  0.11368683772E-12  0.17120000000E+03  0.17120000000E+03 0.  0.
         13    1    1    2    0    0 -0.10460096915E+02 -0.10915492913E+02  0.32203415856E+02  0.35575732878E+02  0.10566000000E+00 0. -1.
        994    1    1    2    0    0  0.10321847455E+02  0.66047396124E+01  0.38950111295E+01  0.17168218962E+03  0.17120000000E+03 0.  0.
        998    1    1    2    0    0  0.13824946033E+00  0.43107533006E+01  0.14639015693E+04  0.14639420775E+04  0.10000000000E+02 0. -1.
</event>
<event>
 5    1  0.1364103E-008  0.3844731E+03  0.7957747E-01  0.3431910E+00
         13   -1    0    0    0    0  0.00000000000E+00  0.00000000000E+00  0.14999999963E+04  0.15000000000E+04  0.10566000000E+00 0.  1.
        994   -1    0    0    0    0 -0.00000000000E+00 -0.00000000000E+00  0.11368683772E-12  0.17120000000E+03  0.17120000000E+03 0.  0.
         13    1    1    2    0    0  0.28013954058E+02  0.41437237958E+01  0.14613447393E+03  0.14885310781E+03  0.10566000000E+00 0.  1.
        994    1    1    2    0    0 -0.59856331809E+02 -0.15650657712E+02  0.14604967526E+02  0.18262110672E+03  0.17120000000E+03 0.  0.
        998    1    1    2    0    0  0.31842377752E+02  0.11506933916E+02  0.13392605548E+04  0.13397257855E+04  0.10000000000E+02 0.  1.
</event>
<event>
 5    1  0.1364103E-008  0.3817879E+03  0.7957747E-01  0.3443410E+00
         13   -1    0    0    0    0  0.00000000000E+00  0.00000000000E+00  0.14999999963E+04  0.15000000000E+04  0.10566000000E+00 0.  1.
        994   -1    0    0    0    0 -0.00000000000E+00 -0.00000000000E+00  0.11368683772E-12  0.17120000000E+03  0.17120000000E+03 0.  0.
         13    1    1    2    0    0 -0.25718979267E+02 -0.76508870545E+01  0.13374042328E+03  0.13640569618E+03  0.10566000000E+00 0.  1.
        994    1    1    2    0    0 -0.34958952584E+01 -0.26838608288E+02  0.56715496456E+01  0.17341896855E+03  0.17120000000E+03 0.  0.
        998    1    1    2    0    0  0.29214874525E+02  0.34489495342E+02  0.13605880233E+04  0.13613753353E+04  0.10000000000E+02 0.  1.
</event>
<event>
 5    1  0.1364103E-008  0.3775946E+03  0.7957747E-01  0.3461700E+00
         13   -1    0    0    0    0  0.00000000000E+00  0.00000000000E+00  0.14999999963E+04  0.15000000000E+04  0.10566000000E+00 0.  1.
        994   -1    0    0    0    0 -0.00000000000E+00 -0.00000000000E+00  0.11368683772E-12  0.17120000000E+03  0.17120000000E+03 0.  0.
         13    1    1    2    0    0  0.17853549729E+02 -0.23922501320E+02  0.76785580180E+02  0.82383686461E+02  0.10566000000E+00 0.  1.
        994    1    1    2    0    0 -0.20995371630E+02  0.24992983100E+02  0.89510047379E+01  0.17451365368E+03  0.17120000000E+03 0.  0.
        998    1    1    2    0    0  0.31418219003E+01 -0.10704817798E+01  0.14142634114E+04  0.14143026599E+04  0.10000000000E+02 0.  1.
</event>
<event>
 5    1  0.1364103E-008  0.3825592E+03  0.7957747E-01  0.3440090E+00
         13   -1    0    0    0    0  0.00000000000E+00  0.00000000000E+00  0.14999999963E+04  0.15000000000E+04  0.10566000000E+00 0.  1.
        994   -1    0    0    0    0 -0.00000000000E+00 -0.00000000000E+00  0.11368683772E-12  0.17120000000E+03  0.17120000000E+03 0.  0.
         13    1    1    2    0    0 -0.22007041151E+02  0.94374173274E+01  0.92390633997E+02  0.95443256024E+02  0.10566000000E+00 0.  1.
        994    1    1    2    0    0  0.28639937629E+02 -0.50466990051E+01  0.56553088299E+01  0.17374446097E+03  0.17120000000E+03 0.  0.
        998    1    1    2    0    0 -0.66328964779E+01 -0.43907183223E+01  0.14019540535E+04  0.14020122830E+04  0.10000000000E+02 0.  1.
</event>
<event>
 5    1  0.1364103E-008  0.3784257E+03  0.7957747E-01  0.3458042E+00
         13   -1    0    0    0    0  0.00000000000E+00  0.00000000000E+00  0.14999999963E+04  0.15000000000E+04  0.10566000000E+00 0. -1.
        994   -1    0    0    0    0 -0.00000000000E+00 -0.00000000000E+00  0.11368683772E-12  0.17120000000E+03  0.17120000000E+03 0.  0.
         13    1    1    2    0    0 -0.52776144139E+02  0.14391550843E+02  0.85959994196E+02  0.10188998917E+03  0.10566000000E+00 0. -1.
        994    1    1    2    0    0  0.52701498104E+02 -0.22470062093E+02  0.27387072260E+02  0.18259748991E+03  0.17120000000E+03 0.  0.
        998    1    1    2    0    0  0.74646034710E-01  0.80785112493E+01  0.13866529298E+04  0.13867125209E+04  0.10000000000E+02 0. -1.
</event>
<event>
 5    1  0.1364103E-008  0.3836024E+03  0.7957747E-01  0.3435621E+00
         13   -1    0    0    0    0  0.00000000000E+00  0.00000000000E+00  0.14999999963E+04  0.15000000000E+04  0.10566000000E+00 0.  1.
        994   -1    0    0    0    0 -0.00000000000E+00 -0.00000000000E+00  0.11368683772E-12  0.17120000000E+03  0.17120000000E+03 0.  0.
         13    1    1    2    0    0 -0.11220587127E+02  0.39244099679E+01  0.29029709319E+02  0.31369376090E+02  0.10566000000E+00 0.  1.
        994    1    1    2    0    0  0.12315310929E+02 -0.68401616199E+01  0.29815206321E+01  0.17180449400E+03  0.17120000000E+03 0.  0.
        998    1    1    2    0    0 -0.10947238016E+01  0.29157516520E+01  0.14679887663E+04  0.14680261299E+04  0.10000000000E+02 0.  1.
</event>
<event>
 5    1  0.1364103E-008  0.3847206E+03  0.7957747E-01  0.3430858E+00
         13   -1    0    0    0    0  0.00000000000E+00  0.00000000000E+00  0.14999999963E+04  0.15000000000E+04  0.10566000000E+00 0.  1.
        994   -1    0    0    0    0 -0.00000000000E+00 -0.00000000000E+00  0.11368683772E-12  0.17120000000E+03  0.17120000000E+03 0.  0.
         13    1    1    2    0    0 -0.65377612704E+01 -0.16039763931E+02  0.97313456150E+02  0.98842987921E+02  0.10566000000E+00 0.  1.
        994    1    1    2    0    0  0.99303278423E+00 -0.79328274517E+01  0.19793147121E+01  0.17139799752E+03  0.17120000000E+03 0.  0.
        998    1    1    2    0    0  0.55447284862E+01  0.23972591383E+02  0.14007072254E+04  0.14009590146E+04  0.10000000000E+02 0.  1.
</event>
<event>
 5    1  0.1364103E-008  0.3840579E+03  0.7957747E-01  0.3433678E+00
         13   -1    0    0    0    0  0.00000000000E+00  0.00000000000E+00  0.14999999963E+04  0.15000000000E+04  0.10566000000E+00 0.  1.
        994   -1    0    0    0    0 -0.00000000000E+00 -0.00000000000E+00  0.11368683772E-12  0.17120000000E+03  0.17120000000E+03 0.  0.
         13    1    1    2    0    0  0.13561632881E+02  0.10830079285E+02  0.78518836605E+02  0.80414099321E+02  0.10566000000E+00 0.  1.
        994    1    1    2    0    0  0.65889375386E+01 -0.18988814502E+01  0.22537190532E+01  0.17135209102E+03  0.17120000000E+03 0.  0.
        998    1    1    2    0    0 -0.20150570420E+02 -0.89311978351E+01  0.14192274406E+04  0.14194338097E+04  0.10000000000E+02 0.  1.
</event>
<event>
 5    1  0.1364103E-008  0.3810752E+03  0.7957747E-01  0.3446490E+00
         13   -1    0    0    0    0  0.00000000000E+00  0.00000000000E+00  0.14999999963E+04  0.15000000000E+04  0.10566000000E+00 0.  1.
        994   -1    0    0    0    0 -0.00000000000E+00 -0.00000000000E+00  0.11368683772E-12  0.17120000000E+03  0.17120000000E+03 0.  0.
         13    1    1    2    0    0 -0.76700362559E+01  0.42850055058E+02  0.24911864910E+03  0.25289339487E+03  0.10566000000E+00 0.  1.
        994    1    1    2    0    0  0.81374371199E+00 -0.31250100716E+02  0.68534606552E+01  0.17416555600E+03  0.17120000000E+03 0.  0.
        998    1    1    2    0    0  0.68562925439E+01 -0.11599954342E+02  0.12440278865E+04  0.12441410491E+04  0.10000000000E+02 0.  1.
</event>
<event>
 5    1  0.1364103E-008  0.3834385E+03  0.7957747E-01  0.3436322E+00
         13   -1    0    0    0    0  0.00000000000E+00  0.00000000000E+00  0.14999999963E+04  0.15000000000E+04  0.10566000000E+00 0.  1.
        994   -1    0    0    0    0 -0.00000000000E+00 -0.00000000000E+00  0.11368683772E-12  0.17120000000E+03  0.17120000000E+03 0.  0.
         13    1    1    2    0    0  0.37335166927E+01  0.18842056455E+02  0.69918936896E+02  0.72509524472E+02  0.10566000000E+00 0.  1.
        994    1    1    2    0    0 -0.38052548810E+01 -0.27510291430E+02  0.49609565785E+01  0.17350892539E+03  0.17120000000E+03 0.  0.
        998    1    1    2    0    0  0.71738188266E-01  0.86682349748E+01  0.14251201028E+04  0.14251815501E+04  0.10000000000E+02 0.  1.
</event>
<event>
 5    1  0.1364103E-008  0.3848784E+03  0.7957747E-01  0.3430188E+00
         13   -1    0    0    0    0  0.00000000000E+00  0.00000000000E+00  0.14999999963E+04  0.15000000000E+04  0.10566000000E+00 0. -1.
        994   -1    0    0    0    0 -0.00000000000E+00 -0.00000000000E+00  0.11368683772E-12  0.17120000000E+03  0.17120000000E+03 0.  0.
         13    1    1    2    0    0 -0.97773735413E+01  0.21243271404E+01  0.30568880802E+02  0.32164847842E+02  0.10566000000E+00 0. -1.
        994    1    1    2    0    0 -0.20010549138E+01  0.32115307719E+01  0.17376162365E+01  0.17125062762E+03  0.17120000000E+03 0.  0.
        998    1    1    2    0    0  0.11778428455E+02 -0.53358579123E+01  0.14676934992E+04  0.14677845245E+04  0.10000000000E+02 0. -1.
</event>
<event>
 5    1  0.1364103E-008  0.3832228E+03  0.7957747E-01  0.3437244E+00
         13   -1    0    0    0    0  0.00000000000E+00  0.00000000000E+00  0.14999999963E+04  0.15000000000E+04  0.10566000000E+00 0. -1.
        994   -1    0    0    0    0 -0.00000000000E+00 -0.00000000000E+00  0.11368683772E-12  0.17120000000E+03  0.17120000000E+03 0.  0.
         13    1    1    2    0    0 -0.13094584452E+02  0.57257890383E+01  0.41693289525E+02  0.44074872178E+02  0.10566000000E+00 0. -1.
        994    1    1    2    0    0  0.33851180636E+01  0.10266633741E+02  0.29016827676E+01  0.17156550514E+03  0.17120000000E+03 0.  0.
        998    1    1    2    0    0  0.97094663882E+01 -0.15992422779E+02  0.14554050240E+04  0.14555596227E+04  0.10000000000E+02 0. -1.
</event>
<event>
 5    1  0.1364103E-008  0.3852999E+03  0.7957747E-01  0.3428401E+00
         13   -1    0    0    0    0  0.00000000000E+00  0.00000000000E+00  0.14999999963E+04  0.15000000000E+04  0.10566000000E+00 0. -1.
        994   -1    0    0    0    0 -0.00000000000E+00 -0.00000000000E+00  0.11368683772E-12  0.17120000000E+03  0.17120000000E+03 0.  0.
         13    1    1    2    0    0  0.14449386624E+01 -0.13362050736E+02  0.63232118885E+02  0.64644754391E+02  0.10566000000E+00 0. -1.
        994    1    1    2    0    0  0.11016812932E+01  0.39524857405E+01  0.15366293007E+01  0.17125605705E+03  0.17120000000E+03 0.  0.
        998    1    1    2    0    0 -0.25466199556E+01  0.94095649958E+01  0.14352312481E+04  0.14352991886E+04  0.10000000000E+02 0. -1.
</event>
<event>
 5    1  0.1364103E-008  0.3826821E+03  0.7957747E-01  0.3439563E+00
         13   -1    0    0    0    0  0.00000000000E+00  0.00000000000E+00  0.14999999963E+04  0.15000000000E+04  0.10566000000E+00 0. -1.
        994   -1    0    0    0    0 -0.00000000000E+00 -0.00000000000E+00  0.11368683772E-12  0.17120000000E+03  0.17120000000E+03 0.  0.
         13    1    1    2    0    0  0.47387462594E+01  0.20471959543E+02  0.87023227551E+02  0.89524355016E+02  0.10566000000E+00 0. -1.
        994    1    1    2    0    0  0.58048033423E+01  0.33995209567E+01  0.29352976099E+01  0.17135725388E+03  0.17120000000E+03 0.  0.
        998    1    1    2    0    0 -0.10543549602E+02 -0.23871480499E+02  0.14100414711E+04  0.14103183911E+04  0.10000000000E+02 0. -1.
</event>
<event>
 5    1  0.1364103E-008  0.3855351E+03  0.7957747E-01  0.3427406E+00
         13   -1    0    0    0    0  0.00000000000E+00  0.00000000000E+00  0.14999999963E+04  0.15000000000E+04  0.10566000000E+00 0.  1.
        994   -1    0    0    0    0 -0.00000000000E+00 -0.00000000000E+00  0.11368683772E-12  0.17120000000E+03  0.17120000000E+03 0.  0.
         13    1    1    2    0    0 -0.12539941808E+02  0.98556402544E+01  0.91193732157E+02  0.92578030515E+02  0.10566000000E+00 0.  1.
        994    1    1    2    0    0  0.22508753589E+02  0.56333733501E+01  0.31341808647E+01  0.17279363985E+03  0.17120000000E+03 0.  0.
        998    1    1    2    0    0 -0.99688117817E+01 -0.15489013605E+02  0.14056720833E+04  0.14058283296E+04  0.10000000000E+02 0.  1.
</event>
<event>
 5    1  0.1364103E-008  0.3847165E+03  0.7957747E-01  0.3430876E+00
         13   -1    0    0    0    0  0.00000000000E+00  0.00000000000E+00  0.14999999963E+04  0.15000000000E+04  0.10566000000E+00 0.  1.
        994   -1    0    0    0    0 -0.00000000000E+00 -0.00000000000E+00  0.11368683772E-12  0.17120000000E+03  0.17120000000E+03 0.  0.
         13    1    1    2    0    0  0.15374210717E+02 -0.17742530437E+01  0.64886751208E+02  0.66706940984E+02  0.10566000000E+00 0.  1.
        994    1    1    2    0    0 -0.18200832975E+02 -0.10722220664E+02  0.32412083805E+01  0.17252878533E+03  0.17120000000E+03 0.  0.
        998    1    1    2    0    0  0.28266222580E+01  0.12496473708E+02  0.14318720367E+04  0.14319642737E+04  0.10000000000E+02 0.  1.
</event>
<event>
 5    1  0.1364103E-008  0.3803155E+03  0.7957747E-01  0.3449786E+00
         13   -1    0    0    0    0  0.00000000000E+00  0.00000000000E+00  0.14999999963E+04  0.15000000000E+04  0.10566000000E+00 0. -1.
        994   -1    0    0    0    0 -0.00000000000E+00 -0.00000000000E+00  0.11368683772E-12  0.17120000000E+03  0.17120000000E+03 0.  0.
         13    1    1    2    0    0  0.28851120082E+02  0.22656174744E+02  0.15906016089E+03  0.16323552104E+03  0.10566000000E+00 0. -1.
        994    1    1    2    0    0 -0.12156258719E+02 -0.33367400596E+02  0.81970048539E+01  0.17503653601E+03  0.17120000000E+03 0.  0.
        998    1    1    2    0    0 -0.16694861363E+02  0.10711225852E+02  0.13327428305E+04  0.13329279430E+04  0.10000000000E+02 0. -1.
</event>
<event>
 5    1  0.1364103E-008  0.3861038E+03  0.7957747E-01  0.3425004E+00
         13   -1    0    0    0    0  0.00000000000E+00  0.00000000000E+00  0.14999999963E+04  0.15000000000E+04  0.10566000000E+00 0.  1.
        994   -1    0    0    0    0 -0.00000000000E+00 -0.00000000000E+00  0.11368683772E-12  0.17120000000E+03  0.17120000000E+03 0.  0.
         13    1    1    2    0    0  0.60428795570E+01 -0.20838230604E+02  0.32102862959E+01  0.21933202005E+02  0.10566000000E+00 0.  1.
        994    1    1    2    0    0  0.20507435986E+02  0.25889066623E+02  0.23774888729E+02  0.17597012256E+03  0.17120000000E+03 0.  0.
        998    1    1    2    0    0 -0.26550315543E+02 -0.50508360186E+01  0.14730148213E+04  0.14732966754E+04  0.10000000000E+02 0.  1.
</event>
<event>
 5    1  0.1364103E-008  0.3796929E+03  0.7957747E-01  0.3452497E+00
         13   -1    0    0    0    0  0.00000000000E+00  0.00000000000E+00  0.14999999963E+04  0.15000000000E+04  0.10566000000E+00 0.  1.
        994   -1    0    0    0    0 -0.00000000000E+00 -0.00000000000E+00  0.11368683772E-12  0.17120000000E+03  0.17120000000E+03 0.  0.
         13    1    1    2    0    0 -0.98933194582E+01 -0.85571604721E+01  0.18356022659E+02  0.22540130814E+02  0.10566000000E+00 0.  1.
        994    1    1    2    0    0  0.44292681919E+01  0.19942189746E+01  0.43672011106E+01  0.17132456850E+03  0.17120000000E+03 0.  0.
        998    1    1    2    0    0  0.54640512663E+01  0.65629414975E+01  0.14772767725E+04  0.14773353007E+04  0.10000000000E+02 0.  1.
</event>
<event>
 5    1  0.1364103E-008  0.3803850E+03  0.7957747E-01  0.3449484E+00
         13   -1    0    0    0    0  0.00000000000E+00  0.00000000000E+00  0.14999999963E+04  0.15000000000E+04  0.10566000000E+00 0. -1.
        994   -1    0    0    0    0 -0.00000000000E+00 -0.00000000000E+00  0.11368683772E-12  0.17120000000E+03  0.17120000000E+03 0.  0.
         13    1    1    2    0    0 -0.14852013817E+02 -0.34293363032E+02  0.20641042369E+03  0.20976627764E+03  0.10566000000E+00 0. -1.
        994    1    1    2    0    0 -0.73117012852E+01  0.48968437344E+01  0.41974966209E+01  0.17147740094E+03  0.17120000000E+03 0.  0.
        998    1    1    2    0    0  0.22163715102E+02  0.29396519297E+02  0.12893920760E+04  0.12899563214E+04  0.10000000000E+02 0. -1.
</event>
<event>
 5    1  0.1364103E-008  0.3857914E+03  0.7957747E-01  0.3426323E+00
         13   -1    0    0    0    0  0.00000000000E+00  0.00000000000E+00  0.14999999963E+04  0.15000000000E+04  0.10566000000E+00 0.  1.
        994   -1    0    0    0    0 -0.00000000000E+00 -0.00000000000E+00  0.11368683772E-12  0.17120000000E+03  0.17120000000E+03 0.  0.
         13    1    1    2    0    0  0.12399794730E+02 -0.31065001211E+01  0.66078798780E+02  0.67303967673E+02  0.10566000000E+00 0.  1.
        994    1    1    2    0    0 -0.92841892234E+01  0.21399768667E+01  0.15355727009E+01  0.17147178676E+03  0.17120000000E+03 0.  0.
        998    1    1    2    0    0 -0.31156055063E+01  0.96652325434E+00  0.14323856248E+04  0.14324242456E+04  0.10000000000E+02 0.  1.
</event>
<event>
 5    1  0.1364103E-008  0.3702319E+03  0.7957747E-01  0.3494826E+00
         13   -1    0    0    0    0  0.00000000000E+00  0.00000000000E+00  0.14999999963E+04  0.15000000000E+04  0.10566000000E+00 0.  1.
        994   -1    0    0    0    0 -0.00000000000E+00 -0.00000000000E+00  0.11368683772E-12  0.17120000000E+03  0.17120000000E+03 0.  0.
         13    1    1    2    0    0 -0.26261168744E+02  0.39753079696E+01  0.25585597955E+02  0.36879344409E+02  0.10566000000E+00 0.  1.
        994    1    1    2    0    0  0.45883513998E+02 -0.10358933822E+01  0.18467848113E+02  0.17820457723E+03  0.17120000000E+03 0.  0.
        998    1    1    2    0    0 -0.19622345254E+02 -0.29394145874E+01  0.14559465502E+04  0.14561160784E+04  0.10000000000E+02 0.  1.
</event>
<event>
 5    1  0.1364103E-008  0.3836385E+03  0.7957747E-01  0.3435467E+00
         13   -1    0    0    0    0  0.00000000000E+00  0.00000000000E+00  0.14999999963E+04  0.15000000000E+04  0.10566000000E+00 0.  1.
        994   -1    0    0    0    0 -0.00000000000E+00 -0.00000000000E+00  0.11368683772E-12  0.17120000000E+03  0.17120000000E+03 0.  0.
         13    1    1    2    0    0 -0.14918445505E+02  0.65939938596E+01  0.55389004160E+02  0.57740745727E+02  0.10566000000E+00 0.  1.
        994    1    1    2    0    0  0.16804187394E+02 -0.33136384804E+01  0.32772482455E+01  0.17208585436E+03  0.17120000000E+03 0.  0.
        998    1    1    2    0    0 -0.18857418888E+01 -0.32803553792E+01  0.14413337439E+04  0.14413733999E+04  0.10000000000E+02 0.  1.
</event>
<event>
 5    1  0.1364103E-008  0.3780131E+03  0.7957747E-01  0.3459856E+00
         13   -1    0    0    0    0  0.00000000000E+00  0.00000000000E+00  0.14999999963E+04  0.15000000000E+04  0.10566000000E+00 0.  1.
        994   -1    0    0    0    0 -0.00000000000E+00 -0.00000000000E+00  0.11368683772E-12  0.17120000000E+03  0.17120000000E+03 0.  0.
         13    1    1    2    0    0  0.73488780056E+01 -0.12611314548E+02  0.18018033983E+02  0.23188617363E+02  0.10566000000E+00 0.  1.
        994    1    1    2    0    0 -0.10951684491E+02  0.18361799206E+02  0.66791212826E+01  0.17265904472E+03  0.17120000000E+03 0.  0.
        998    1    1    2    0    0  0.36028064856E+01 -0.57504846575E+01  0.14753028410E+04  0.14753523379E+04  0.10000000000E+02 0.  1.
</event>
<event>
 5    1  0.1364103E-008  0.3779602E+03  0.7957747E-01  0.3460088E+00
         13   -1    0    0    0    0  0.00000000000E+00  0.00000000000E+00  0.14999999963E+04  0.15000000000E+04  0.10566000000E+00 0.  1.
        994   -1    0    0    0    0 -0.00000000000E+00 -0.00000000000E+00  0.11368683772E-12  0.17120000000E+03  0.17120000000E+03 0.  0.
         13    1    1    2    0    0  0.39021008242E+02 -0.63697166377E+01  0.17257437083E+03  0.17704557889E+03  0.10566000000E+00 0.  1.
        994    1    1    2    0    0 -0.11023719012E+01 -0.42177800908E+01  0.52303360178E+01  0.17133534751E+03  0.17120000000E+03 0.  0.
        998    1    1    2    0    0 -0.37918636341E+02  0.10587496729E+02  0.13221952894E+04  0.13228190736E+04  0.10000000000E+02 0.  1.
</event>
<event>
 5    1  0.1364103E-008  0.3849652E+03  0.7957747E-01  0.3429820E+00
         13   -1    0    0    0    0  0.00000000000E+00  0.00000000000E+00  0.14999999963E+04  0.15000000000E+04  0.10566000000E+00 0.  1.
        994   -1    0    0    0    0 -0.00000000000E+00 -0.00000000000E+00  0.11368683772E-12  0.17120000000E+03  0.17120000000E+03 0.  0.
         13    1    1    2    0    0 -0.78237140975E+01  0.63498952480E+01  0.29683066612E+02  0.31346886281E+02  0.10566000000E+00 0.  1.
        994    1    1    2    0    0  0.75414893501E+01 -0.12370153285E+02  0.23380721576E+01  0.17182782468E+03  0.17120000000E+03 0.  0.
        998    1    1    2    0    0  0.28222474736E+00  0.60202580372E+01  0.14679788575E+04  0.14680252890E+04  0.10000000000E+02 0.  1.
</event>
<event>
 5    1  0.1364103E-008  0.3819641E+03  0.7957747E-01  0.3442651E+00
         13   -1    0    0    0    0  0.00000000000E+00  0.00000000000E+00  0.14999999963E+04  0.15000000000E+04  0.10566000000E+00 0.  1.
        994   -1    0    0    0    0 -0.00000000000E+00 -0.00000000000E+00  0.11368683772E-12  0.17120000000E+03  0.17120000000E+03 0.  0.
         13    1    1    2    0    0  0.93978968222E+01  0.19256938676E+02  0.53329547891E+01  0.22081705611E+02  0.10566000000E+00 0.  1.
        994    1    1    2    0    0 -0.19170363030E+02 -0.20012881668E+02  0.20218325426E+02  0.17460308970E+03  0.17120000000E+03 0.  0.
        998    1    1    2    0    0  0.97724662075E+01  0.75594299163E+00  0.14744487161E+04  0.14745152047E+04  0.10000000000E+02 0.  1.
</event>
<event>
 5    1  0.1364103E-008  0.4008994E+03  0.7957747E-01  0.3364918E+00
         13   -1    0    0    0    0  0.00000000000E+00  0.00000000000E+00  0.14999999963E+04  0.15000000000E+04  0.10566000000E+00 0. -1.
        994   -1    0    0    0    0 -0.00000000000E+00 -0.00000000000E+00  0.11368683772E-12  0.17120000000E+03  0.17120000000E+03 0.  0.
         13    1    1    2    0    0 -0.23121753991E+02 -0.12625925847E+02  0.23437332616E+00  0.26345694259E+02  0.10566000000E+00 0. -1.
        994    1    1    2    0    0  0.14050143998E+02  0.16095909810E+02  0.30113863112E+02  0.17513643142E+03  0.17120000000E+03 0.  0.
        998    1    1    2    0    0  0.90716099925E+01 -0.34699839624E+01  0.14696517598E+04  0.14697178743E+04  0.10000000000E+02 0. -1.
</event>
<event>
 5    1  0.1364103E-008  0.3832455E+03  0.7957747E-01  0.3437147E+00
         13   -1    0    0    0    0  0.00000000000E+00  0.00000000000E+00  0.14999999963E+04  0.15000000000E+04  0.10566000000E+00 0. -1.
        994   -1    0    0    0    0 -0.00000000000E+00 -0.00000000000E+00  0.11368683772E-12  0.17120000000E+03  0.17120000000E+03 0.  0.
         13    1    1    2    0    0  0.10484321961E+02  0.17599548693E+02  0.89950358920E+02  0.92253690198E+02  0.10566000000E+00 0. -1.
        994    1    1    2    0    0  0.61180806085E+01 -0.39169145719E+01  0.26782670696E+01  0.17137498722E+03  0.17120000000E+03 0.  0.
        998    1    1    2    0    0 -0.16602402570E+02 -0.13682634122E+02  0.14073713703E+04  0.14075713226E+04  0.10000000000E+02 0. -1.
</event>
<event>
 5    1  0.1364103E-008  0.3720556E+03  0.7957747E-01  0.3486497E+00
         13   -1    0    0    0    0  0.00000000000E+00  0.00000000000E+00  0.14999999963E+04  0.15000000000E+04  0.10566000000E+00 0. -1.
        994   -1    0    0    0    0 -0.00000000000E+00 -0.00000000000E+00  0.11368683772E-12  0.17120000000E+03  0.17120000000E+03 0.  0.
         13    1    1    2    0    0 -0.17827132084E+01  0.13370654165E+02  0.74342936894E+01  0.15402348713E+02  0.10566000000E+00 0. -1.
        994    1    1    2    0    0 -0.91806280369E+01 -0.77178413526E+01  0.86926193491E+01  0.17183960730E+03  0.17120000000E+03 0.  0.
        998    1    1    2    0    0  0.10963341245E+02 -0.56528128128E+01  0.14838730832E+04  0.14839580440E+04  0.10000000000E+02 0. -1.
</event>
<event>
 5    1  0.1364103E-008  0.3856475E+03  0.7957747E-01  0.3426931E+00
         13   -1    0    0    0    0  0.00000000000E+00  0.00000000000E+00  0.14999999963E+04  0.15000000000E+04  0.10566000000E+00 0.  1.
        994   -1    0    0    0    0 -0.00000000000E+00 -0.00000000000E+00  0.11368683772E-12  0.17120000000E+03  0.17120000000E+03 0.  0.
         13    1    1    2    0    0  0.13530608607E+02  0.36774054140E+01  0.79225280070E+02  0.80456552537E+02  0.10566000000E+00 0.  1.
        994    1    1    2    0    0 -0.60227541155E+01  0.91628258565E+01  0.17036927450E+01  0.17155924199E+03  0.17120000000E+03 0.  0.
        998    1    1    2    0    0 -0.75078544912E+01 -0.12840231270E+02  0.14190710235E+04  0.14191842055E+04  0.10000000000E+02 0.  1.
</event>
<event>
 5    1  0.1364103E-008  0.3797094E+03  0.7957747E-01  0.3452425E+00
         13   -1    0    0    0    0  0.00000000000E+00  0.00000000000E+00  0.14999999963E+04  0.15000000000E+04  0.10566000000E+00 0. -1.
        994   -1    0    0    0    0 -0.00000000000E+00 -0.00000000000E+00  0.11368683772E-12  0.17120000000E+03  0.17120000000E+03 0.  0.
         13    1    1    2    0    0 -0.21267511431E+02 -0.77196093830E+01  0.53741197164E+02  0.58309749169E+02  0.10566000000E+00 0. -1.
        994    1    1    2    0    0  0.35359970574E+02  0.69090510511E+01  0.86356239077E+01  0.17516299982E+03  0.17120000000E+03 0.  0.
        998    1    1    2    0    0 -0.14092459143E+02  0.81055833188E+00  0.14376231752E+04  0.14377272510E+04  0.10000000000E+02 0. -1.
</event>
<event>
 5    1  0.1364103E-008  0.3808703E+03  0.7957747E-01  0.3447378E+00
         13   -1    0    0    0    0  0.00000000000E+00  0.00000000000E+00  0.14999999963E+04  0.15000000000E+04  0.10566000000E+00 0. -1.
        994   -1    0    0    0    0 -0.00000000000E+00 -0.00000000000E+00  0.11368683772E-12  0.17120000000E+03  0.17120000000E+03 0.  0.
         13    1    1    2    0    0 -0.77775233272E+02  0.56184000732E+02  0.53423476225E+03  0.54278211210E+03  0.10566000000E+00 0. -1.
        994    1    1    2    0    0  0.99169362943E+02 -0.72857652698E+02  0.55937846952E+02  0.21813134306E+03  0.17120000000E+03 0.  0.
        998    1    1    2    0    0 -0.21394129672E+02  0.16673651966E+02  0.90982738707E+03  0.91028654484E+03  0.10000000000E+02 0. -1.
</event>
<event>
 5    1  0.1364103E-008  0.3156859E+03  0.7957747E-01  0.3790032E+00
         13   -1    0    0    0    0  0.00000000000E+00  0.00000000000E+00  0.14999999963E+04  0.15000000000E+04  0.10566000000E+00 0. -1.
        994   -1    0    0    0    0 -0.00000000000E+00 -0.00000000000E+00  0.11368683772E-12  0.17120000000E+03  0.17120000000E+03 0.  0.
         13    1    1    2    0    0  0.20622097378E+03  0.15872823459E+02  0.71600991865E+03  0.74528467804E+03  0.10566000000E+00 0. -1.
        994    1    1    2    0    0 -0.20754343838E+03 -0.10991172576E+02  0.18471054867E+03  0.32653102683E+03  0.17120000000E+03 0.  0.
        998    1    1    2    0    0  0.13224646037E+01 -0.48816508839E+01  0.59927952896E+03  0.59938429514E+03  0.10000000000E+02 0.  0.
</event>
<event>
 5    1  0.1364103E-008  0.3232208E+03  0.7957747E-01  0.3743030E+00
         13   -1    0    0    0    0  0.00000000000E+00  0.00000000000E+00  0.14999999963E+04  0.15000000000E+04  0.10566000000E+00 0. -1.
        994   -1    0    0    0    0 -0.00000000000E+00 -0.00000000000E+00  0.11368683772E-12  0.17120000000E+03  0.17120000000E+03 0.  0.
         13    1    1    2    0    0 -0.99910109119E+02  0.20690203395E+03  0.77984310563E+03  0.81298570844E+03  0.10566000000E+00 0. -1.
        994    1    1    2    0    0  0.10287531276E+01 -0.25684053576E+03  0.32720011528E+03  0.44981937995E+03  0.17120000000E+03 0.  0.
        998    1    1    2    0    0  0.98881355991E+02  0.49938501807E+02  0.39295677536E+03  0.40839491161E+03  0.10000000000E+02 0.  1.
</event>
<event>
 5    1  0.1364103E-008  0.4012218E+03  0.7957747E-01  0.3363658E+00
         13   -1    0    0    0    0  0.00000000000E+00  0.00000000000E+00  0.14999999963E+04  0.15000000000E+04  0.10566000000E+00 0. -1.
        994   -1    0    0    0    0 -0.00000000000E+00 -0.00000000000E+00  0.11368683772E-12  0.17120000000E+03  0.17120000000E+03 0.  0.
         13    1    1    2    0    0 -0.40984252949E+02 -0.78200697426E+02  0.12105065012E+03  0.14982766476E+03  0.10566000000E+00 0. -1.
        994    1    1    2    0    0  0.45228416838E+02  0.67457461001E+02  0.54963187307E+02  0.19729802506E+03  0.17120000000E+03 0.  0.
        998    1    1    2    0    0 -0.42441638890E+01  0.10743236425E+02  0.13239861589E+04  0.13240743102E+04  0.10000000000E+02 0. -1.
</event>
<event>
 5    1  0.1364103E-008  0.3750685E+03  0.7957747E-01  0.3472917E+00
         13   -1    0    0    0    0  0.00000000000E+00  0.00000000000E+00  0.14999999963E+04  0.15000000000E+04  0.10566000000E+00 0.  1.
        994   -1    0    0    0    0 -0.00000000000E+00 -0.00000000000E+00  0.11368683772E-12  0.17120000000E+03  0.17120000000E+03 0.  0.
         13    1    1    2    0    0  0.31011306390E+02 -0.32002454518E+02  0.17972154904E+03  0.18516399372E+03  0.10566000000E+00 0.  1.
        994    1    1    2    0    0  0.12496593963E+01 -0.10084284856E+02  0.69945384635E+01  0.17164386974E+03  0.17120000000E+03 0.  0.
        998    1    1    2    0    0 -0.32260965786E+02  0.42086739374E+02  0.13132839088E+04  0.13143921365E+04  0.10000000000E+02 0.  1.
</event>
<event>
 5    1  0.1364103E-008  0.3812567E+03  0.7957747E-01  0.3445705E+00
         13   -1    0    0    0    0  0.00000000000E+00  0.00000000000E+00  0.14999999963E+04  0.15000000000E+04  0.10566000000E+00 0. -1.
        994   -1    0    0    0    0 -0.00000000000E+00 -0.00000000000E+00  0.11368683772E-12  0.17120000000E+03  0.17120000000E+03 0.  0.
         13    1    1    2    0    0  0.34743616558E+00 -0.17707855728E+02  0.43058948150E+02  0.46559349718E+02  0.10566000000E+00 0. -1.
        994    1    1    2    0    0 -0.78528414622E+00  0.14677558843E+02  0.42196669671E+01  0.17188162495E+03  0.17120000000E+03 0.  0.
        998    1    1    2    0    0  0.43784798064E+00  0.30302968850E+01  0.14527213812E+04  0.14527590253E+04  0.10000000000E+02 0. -1.
</event>
<event>
 5    1  0.1364103E-008  0.3698777E+03  0.7957747E-01  0.3496453E+00
         13   -1    0    0    0    0  0.00000000000E+00  0.00000000000E+00  0.14999999963E+04  0.15000000000E+04  0.10566000000E+00 0.  1.
        994   -1    0    0    0    0 -0.00000000000E+00 -0.00000000000E+00  0.11368683772E-12  0.17120000000E+03  0.17120000000E+03 0.  0.
         13    1    1    2    0    0 -0.20377911304E+01 -0.72272793599E+02  0.22137346301E+03  0.23288136589E+03  0.10566000000E+00 0.  1.
        994    1    1    2    0    0  0.33687272430E+02  0.83402580846E+02  0.37865211401E+02  0.19706353557E+03  0.17120000000E+03 0.  0.
        998    1    1    2    0    0 -0.31649481300E+02 -0.11129787247E+02  0.12407613219E+04  0.12412550985E+04  0.10000000000E+02 0.  1.
</event>
<event>
 5    1  0.1364103E-008  0.2928441E+03  0.7957747E-01  0.3948468E+00
         13   -1    0    0    0    0  0.00000000000E+00  0.00000000000E+00  0.14999999963E+04  0.15000000000E+04  0.10566000000E+00 0. -1.
        994   -1    0    0    0    0 -0.00000000000E+00 -0.00000000000E+00  0.11368683772E-12  0.17120000000E+03  0.17120000000E+03 0.  0.
         13    1    1    2    0    0  0.39504399536E+02  0.12354032084E+03  0.78016360522E+03  0.79087171560E+03  0.10566000000E+00 0. -1.
        994    1    1    2    0    0 -0.33617817450E+02 -0.24947785221E+02  0.24497444181E+02  0.17793851300E+03  0.17120000000E+03 0.  0.
        998    1    1    2    0    0 -0.58865820860E+01 -0.98592535616E+02  0.69533894688E+03  0.70238977140E+03  0.10000000000E+02 0. -1.
</event>
<event>
 5    1  0.1364103E-008  0.3846316E+03  0.7957747E-01  0.3431236E+00
         13   -1    0    0    0    0  0.00000000000E+00  0.00000000000E+00  0.14999999963E+04  0.15000000000E+04  0.10566000000E+00 0. -1.
        994   -1    0    0    0    0 -0.00000000000E+00 -0.00000000000E+00  0.11368683772E-12  0.17120000000E+03  0.17120000000E+03 0.  0.
         13    1    1    2    0    0 -0.52033179737E+00  0.13000269145E+02  0.47507381364E+02  0.49256879633E+02  0.10566000000E+00 0. -1.
        994    1    1    2    0    0  0.17585160039E+00 -0.43341701949E+01  0.18750976239E+01  0.17126520939E+03  0.17120000000E+03 0.  0.
        998    1    1    2    0    0  0.34448019698E+00 -0.86660989506E+01  0.14506175173E+04  0.14506779110E+04  0.10000000000E+02 0. -1.
</event>
<event>
 5    1  0.1364103E-008  0.3845977E+03  0.7957747E-01  0.3431380E+00
         13   -1    0    0    0    0  0.00000000000E+00  0.00000000000E+00  0.14999999963E+04  0.15000000000E+04  0.10566000000E+00 0. -1.
        994   -1    0    0    0    0 -0.00000000000E+00 -0.00000000000E+00  0.11368683772E-12  0.17120000000E+03  0.17120000000E+03 0.  0.
         13    1    1    2    0    0  0.79725291300E+01 -0.15017545224E+02  0.74358482099E+02  0.76277669796E+02  0.10566000000E+00 0. -1.
        994    1    1    2    0    0 -0.87371435565E+01  0.18227767218E+02  0.31766061055E+01  0.17241844449E+03  0.17120000000E+03 0.  0.
        998    1    1    2    0    0  0.76461442646E+00 -0.32102219938E+01  0.14224649081E+04  0.14225038857E+04  0.10000000000E+02 0. -1.
</event>
<event>
 5    1  0.1364103E-008  0.3777597E+03  0.7957747E-01  0.3460972E+00
         13   -1    0    0    0    0  0.00000000000E+00  0.00000000000E+00  0.14999999963E+04  0.15000000000E+04  0.10566000000E+00 0. -1.
        994   -1    0    0    0    0 -0.00000000000E+00 -0.00000000000E+00  0.11368683772E-12  0.17120000000E+03  0.17120000000E+03 0.  0.
         13    1    1    2    0    0  0.11479172281E+02  0.41687747063E+01  0.11909213729E+02  0.17058447012E+02  0.10566000000E+00 0. -1.
        994    1    1    2    0    0 -0.79064817377E+01  0.56878797107E+01  0.55878812327E+01  0.17156785493E+03  0.17120000000E+03 0.  0.
        998    1    1    2    0    0 -0.35726905432E+01 -0.98566544170E+01  0.14825029013E+04  0.14825736981E+04  0.10000000000E+02 0. -1.
</event>
<event>
 5    1  0.1364103E-008  0.3787779E+03  0.7957747E-01  0.3456497E+00
         13   -1    0    0    0    0  0.00000000000E+00  0.00000000000E+00  0.14999999963E+04  0.15000000000E+04  0.10566000000E+00 0.  1.
        994   -1    0    0    0    0 -0.00000000000E+00 -0.00000000000E+00  0.11368683772E-12  0.17120000000E+03  0.17120000000E+03 0.  0.
         13    1    1    2    0    0  0.93877295631E+01 -0.17159119898E+03  0.72849388185E+03  0.74848848762E+03  0.10566000000E+00 0.  1.
        994    1    1    2    0    0 -0.61514263393E+01  0.20665810482E+03  0.16496938997E+03  0.31507102685E+03  0.17120000000E+03 0.  0.
        998    1    1    2    0    0 -0.32363032238E+01 -0.35066905835E+02  0.60653672446E+03  0.60764048553E+03  0.10000000000E+02 0. -1.
</event>
<event>
 5    1  0.1364103E-008  0.3860355E+03  0.7957747E-01  0.3425292E+00
         13   -1    0    0    0    0  0.00000000000E+00  0.00000000000E+00  0.14999999963E+04  0.15000000000E+04  0.10566000000E+00 0.  1.
        994   -1    0    0    0    0 -0.00000000000E+00 -0.00000000000E+00  0.11368683772E-12  0.17120000000E+03  0.17120000000E+03 0.  0.
         13    1    1    2    0    0  0.19904940045E+01 -0.99627094774E+01  0.48026537282E+02  0.49089480480E+02  0.10566000000E+00 0.  1.
        994    1    1    2    0    0 -0.32181822228E+01  0.22503692365E+01  0.11674314347E+01  0.17124901096E+03  0.17120000000E+03 0.  0.
        998    1    1    2    0    0  0.12276882183E+01  0.77123402408E+01  0.14508060276E+04  0.14508615086E+04  0.10000000000E+02 0.  1.
</event>
<event>
 5    1  0.1364103E-008  0.3798691E+03  0.7957747E-01  0.3451729E+00
         13   -1    0    0    0    0  0.00000000000E+00  0.00000000000E+00  0.14999999963E+04  0.15000000000E+04  0.10566000000E+00 0.  1.
        994   -1    0    0    0    0 -0.00000000000E+00 -0.00000000000E+00  0.11368683772E-12  0.17120000000E+03  0.17120000000E+03 0.  0.
         13    1    1    2    0    0 -0.14491533970E+02 -0.12007447709E+02  0.39853508574E+02  0.44073763930E+02  0.10566000000E+00 0.  1.
        994    1    1    2    0    0  0.14623760931E+02  0.10078078164E+02  0.52548447718E+01  0.17219894145E+03  0.17120000000E+03 0.  0.
        998    1    1    2    0    0 -0.13222696047E+00  0.19293695456E+01  0.14548916429E+04  0.14549272946E+04  0.10000000000E+02 0.  1.
</event>
<event>
 5    1  0.1364103E-008  0.2130949E+03  0.7957747E-01  0.4814657E+00
         13   -1    0    0    0    0  0.00000000000E+00  0.00000000000E+00  0.14999999963E+04  0.15000000000E+04  0.10566000000E+00 0. -1.
        994   -1    0    0    0    0 -0.00000000000E+00 -0.00000000000E+00  0.11368683772E-12  0.17120000000E+03  0.17120000000E+03 0.  0.
         13    1    1    2    0    0 -0.14004864734E+03 -0.12731774400E+02  0.99350518813E+02  0.17218088876E+03  0.10566000000E+00 0. -1.
        994    1    1    2    0    0  0.12777892322E+03 -0.13876719446E+02  0.18489455279E+03  0.28287002707E+03  0.17120000000E+03 0.  0.
        998    1    1    2    0    0  0.12269724124E+02  0.26608493846E+02  0.12157549247E+04  0.12161490842E+04  0.10000000000E+02 0. -1.
</event>
<event>
 5    1  0.1364103E-008  0.3736325E+03  0.7957747E-01  0.3479361E+00
         13   -1    0    0    0    0  0.00000000000E+00  0.00000000000E+00  0.14999999963E+04  0.15000000000E+04  0.10566000000E+00 0. -1.
        994   -1    0    0    0    0 -0.00000000000E+00 -0.00000000000E+00  0.11368683772E-12  0.17120000000E+03  0.17120000000E+03 0.  0.
         13    1    1    2    0    0  0.22105897029E+02  0.17106092675E+02  0.48699365601E+02  0.56150943572E+02  0.10566000000E+00 0. -1.
        994    1    1    2    0    0 -0.18717181566E+02 -0.20556722761E+02  0.10026600093E+02  0.17373222052E+03  0.17120000000E+03 0.  0.
        998    1    1    2    0    0 -0.33887154624E+01  0.34506300854E+01  0.14412740306E+04  0.14413168359E+04  0.10000000000E+02 0. -1.
</event>
<event>
 5    1  0.1364103E-008  0.3792322E+03  0.7957747E-01  0.3454509E+00
         13   -1    0    0    0    0  0.00000000000E+00  0.00000000000E+00  0.14999999963E+04  0.15000000000E+04  0.10566000000E+00 0. -1.
        994   -1    0    0    0    0 -0.00000000000E+00 -0.00000000000E+00  0.11368683772E-12  0.17120000000E+03  0.17120000000E+03 0.  0.
         13    1    1    2    0    0  0.15207594260E+02 -0.31787040202E+02  0.12552149961E+03  0.13037386578E+03  0.10566000000E+00 0. -1.
        994    1    1    2    0    0  0.32072545326E+02  0.57179481673E+02  0.19063512317E+02  0.18431223180E+03  0.17120000000E+03 0.  0.
        998    1    1    2    0    0 -0.47280139587E+02 -0.25392441472E+02  0.13554149843E+04  0.13565139024E+04  0.10000000000E+02 0. -1.
</event>
<event>
 5    1  0.1364103E-008  0.3769239E+03  0.7957747E-01  0.3464663E+00
         13   -1    0    0    0    0  0.00000000000E+00  0.00000000000E+00  0.14999999963E+04  0.15000000000E+04  0.10566000000E+00 0.  1.
        994   -1    0    0    0    0 -0.00000000000E+00 -0.00000000000E+00  0.11368683772E-12  0.17120000000E+03  0.17120000000E+03 0.  0.
         13    1    1    2    0    0 -0.13353677955E+02 -0.43174022097E-01  0.13031791155E+02  0.18659081533E+02  0.10566000000E+00 0.  1.
        994    1    1    2    0    0  0.13337554781E+02  0.18092614243E+01  0.63061398741E+01  0.17184403159E+03  0.17120000000E+03 0.  0.
        998    1    1    2    0    0  0.16123174113E-01 -0.17660874022E+01  0.14806620652E+04  0.14806968869E+04  0.10000000000E+02 0.  1.
</event>
<event>
 5    1  0.1364103E-008  0.3851596E+03  0.7957747E-01  0.3428995E+00
         13   -1    0    0    0    0  0.00000000000E+00  0.00000000000E+00  0.14999999963E+04  0.15000000000E+04  0.10566000000E+00 0.  1.
        994   -1    0    0    0    0 -0.00000000000E+00 -0.00000000000E+00  0.11368683772E-12  0.17120000000E+03  0.17120000000E+03 0.  0.
         13    1    1    2    0    0  0.25950203810E+01 -0.13109230083E+02  0.55588569838E+02  0.57172426088E+02  0.10566000000E+00 0.  1.
        994    1    1    2    0    0 -0.32948814483E+01  0.14614020829E+02  0.22889198555E+01  0.17186944174E+03  0.17120000000E+03 0.  0.
        998    1    1    2    0    0  0.69986106729E+00 -0.15047907459E+01  0.14421225066E+04  0.14421581322E+04  0.10000000000E+02 0.  1.
</event>
<event>
 5    1  0.1364103E-008  0.3909959E+03  0.7957747E-01  0.3404634E+00
         13   -1    0    0    0    0  0.00000000000E+00  0.00000000000E+00  0.14999999963E+04  0.15000000000E+04  0.10566000000E+00 0.  1.
        994   -1    0    0    0    0 -0.00000000000E+00 -0.00000000000E+00  0.11368683772E-12  0.17120000000E+03  0.17120000000E+03 0.  0.
         13    1    1    2    0    0 -0.83453977090E+01  0.20913655995E+02  0.14913636251E+01  0.22566834061E+02  0.10566000000E+00 0.  1.
        994    1    1    2    0    0  0.97491375681E+01 -0.12844549357E+02  0.23486349678E+02  0.17355424729E+03  0.17120000000E+03 0.  0.
        998    1    1    2    0    0 -0.14037398591E+01 -0.80691066385E+01  0.14750222830E+04  0.14750789186E+04  0.10000000000E+02 0.  1.
</event>
<event>
 5    1  0.1364103E-008  0.3752685E+03  0.7957747E-01  0.3472023E+00
         13   -1    0    0    0    0  0.00000000000E+00  0.00000000000E+00  0.14999999963E+04  0.15000000000E+04  0.10566000000E+00 0. -1.
        994   -1    0    0    0    0 -0.00000000000E+00 -0.00000000000E+00  0.11368683772E-12  0.17120000000E+03  0.17120000000E+03 0.  0.
         13    1    1    2    0    0  0.77663062008E+01  0.47285969933E+02  0.18564830417E+03  0.19173310218E+03  0.10566000000E+00 0. -1.
        994    1    1    2    0    0 -0.12010972393E+02 -0.14551029528E+02  0.77508182540E+01  0.17241087872E+03  0.17120000000E+03 0.  0.
        998    1    1    2    0    0  0.42446661926E+01 -0.32734940406E+02  0.13066008739E+04  0.13070560191E+04  0.10000000000E+02 0. -1.
</event>
<event>
 5    1  0.1364103E-008  0.3734579E+03  0.7957747E-01  0.3480148E+00
         13   -1    0    0    0    0  0.00000000000E+00  0.00000000000E+00  0.14999999963E+04  0.15000000000E+04  0.10566000000E+00 0. -1.
        994   -1    0    0    0    0 -0.00000000000E+00 -0.00000000000E+00  0.11368683772E-12  0.17120000000E+03  0.17120000000E+03 0.  0.
         13    1    1    2    0    0  0.53487329054E+01 -0.52564340630E+02  0.12058951685E+03  0.13165660480E+03  0.10566000000E+00 0. -1.
        994    1    1    2    0    0  0.27292049161E+01 -0.43558063356E+01  0.12872622217E+02  0.17176019915E+03  0.17120000000E+03 0.  0.
        998    1    1    2    0    0 -0.80779378215E+01  0.56920146965E+02  0.13665378572E+04  0.13677831961E+04  0.10000000000E+02 0. -1.
</event>
<event>
 5    1  0.1364103E-008  0.3705447E+03  0.7957747E-01  0.3493391E+00
         13   -1    0    0    0    0  0.00000000000E+00  0.00000000000E+00  0.14999999963E+04  0.15000000000E+04  0.10566000000E+00 0. -1.
        994   -1    0    0    0    0 -0.00000000000E+00 -0.00000000000E+00  0.11368683772E-12  0.17120000000E+03  0.17120000000E+03 0.  0.
         13    1    1    2    0    0 -0.18821678948E+02 -0.29330616387E+01  0.15732299556E+02  0.24705765771E+02  0.10566000000E+00 0. -1.
        994    1    1    2    0    0  0.28030117873E+02  0.56807219595E+01  0.11812735648E+02  0.17397396022E+03  0.17120000000E+03 0.  0.
        998    1    1    2    0    0 -0.92084389253E+01 -0.27476603208E+01  0.14724549611E+04  0.14725202740E+04  0.10000000000E+02 0. -1.
</event>
<event>
 5    1  0.1364103E-008  0.3850985E+03  0.7957747E-01  0.3429254E+00
         13   -1    0    0    0    0  0.00000000000E+00  0.00000000000E+00  0.14999999963E+04  0.15000000000E+04  0.10566000000E+00 0. -1.
        994   -1    0    0    0    0 -0.00000000000E+00 -0.00000000000E+00  0.11368683772E-12  0.17120000000E+03  0.17120000000E+03 0.  0.
         13    1    1    2    0    0 -0.10204918376E+02 -0.68786644232E+01  0.46699912372E+02  0.48294403018E+02  0.10566000000E+00 0. -1.
        994    1    1    2    0    0  0.12325882228E+02  0.46095430242E+01  0.21507594827E+01  0.17171849355E+03  0.17120000000E+03 0.  0.
        998    1    1    2    0    0 -0.21209638520E+01  0.22691213990E+01  0.14511493244E+04  0.14511871034E+04  0.10000000000E+02 0. -1.
</event>
<event>
 5    1  0.1364103E-008  0.3842114E+03  0.7957747E-01  0.3433024E+00
         13   -1    0    0    0    0  0.00000000000E+00  0.00000000000E+00  0.14999999963E+04  0.15000000000E+04  0.10566000000E+00 0. -1.
        994   -1    0    0    0    0 -0.00000000000E+00 -0.00000000000E+00  0.11368683772E-12  0.17120000000E+03  0.17120000000E+03 0.  0.
         13    1    1    2    0    0  0.23204631244E+01 -0.10265421930E+02  0.25809748951E+02  0.27873244186E+02  0.10566000000E+00 0. -1.
        994    1    1    2    0    0 -0.97281944417E+01  0.15794297333E+02  0.31574926653E+01  0.17223097095E+03  0.17120000000E+03 0.  0.
        998    1    1    2    0    0  0.74077313173E+01 -0.55288754034E+01  0.14710327547E+04  0.14710957849E+04  0.10000000000E+02 0. -1.
</event>
<event>
 5    1  0.1364103E-008  0.3782819E+03  0.7957747E-01  0.3458674E+00
         13   -1    0    0    0    0  0.00000000000E+00  0.00000000000E+00  0.14999999963E+04  0.15000000000E+04  0.10566000000E+00 0. -1.
        994   -1    0    0    0    0 -0.00000000000E+00 -0.00000000000E+00  0.11368683772E-12  0.17120000000E+03  0.17120000000E+03 0.  0.
         13    1    1    2    0    0  0.82620311524E+01 -0.10785114586E+02  0.16475561414E+02  0.21354979357E+02  0.10566000000E+00 0. -1.
        994    1    1    2    0    0 -0.59427592880E+01  0.16927672036E+01  0.51313207772E+01  0.17138830853E+03  0.17120000000E+03 0.  0.
        998    1    1    2    0    0 -0.23192718644E+01  0.90923473825E+01  0.14783931141E+04  0.14784567121E+04  0.10000000000E+02 0. -1.
</event>
<event>
 5    1  0.1364103E-008  0.3762067E+03  0.7957747E-01  0.3467843E+00
         13   -1    0    0    0    0  0.00000000000E+00  0.00000000000E+00  0.14999999963E+04  0.15000000000E+04  0.10566000000E+00 0. -1.
        994   -1    0    0    0    0 -0.00000000000E+00 -0.00000000000E+00  0.11368683772E-12  0.17120000000E+03  0.17120000000E+03 0.  0.
         13    1    1    2    0    0 -0.13358920265E+02 -0.70741903800E+01  0.16008686625E+02  0.22018041050E+02  0.10566000000E+00 0. -1.
        994    1    1    2    0    0  0.15869940887E+02  0.45077151142E+01  0.69823018257E+01  0.17213473519E+03  0.17120000000E+03 0.  0.
        998    1    1    2    0    0 -0.25110206216E+01  0.25664752658E+01  0.14770090078E+04  0.14770472238E+04  0.10000000000E+02 0. -1.
</event>
<event>
 5    1  0.1364103E-008  0.3812241E+03  0.7957747E-01  0.3445846E+00
         13   -1    0    0    0    0  0.00000000000E+00  0.00000000000E+00  0.14999999963E+04  0.15000000000E+04  0.10566000000E+00 0. -1.
        994   -1    0    0    0    0 -0.00000000000E+00 -0.00000000000E+00  0.11368683772E-12  0.17120000000E+03  0.17120000000E+03 0.  0.
         13    1    1    2    0    0 -0.13224998099E+02  0.14759811436E+02  0.54312730989E+02  0.57815538740E+02  0.10566000000E+00 0. -1.
        994    1    1    2    0    0  0.59473932982E+01 -0.13673767507E+02  0.42571345256E+01  0.17190086271E+03  0.17120000000E+03 0.  0.
        998    1    1    2    0    0  0.72776048004E+01 -0.10860439284E+01  0.14414301308E+04  0.14414835986E+04  0.10000000000E+02 0. -1.
</event>
<event>
 5    1  0.1364103E-008  0.3802687E+03  0.7957747E-01  0.3449989E+00
         13   -1    0    0    0    0  0.00000000000E+00  0.00000000000E+00  0.14999999963E+04  0.15000000000E+04  0.10566000000E+00 0. -1.
        994   -1    0    0    0    0 -0.00000000000E+00 -0.00000000000E+00  0.11368683772E-12  0.17120000000E+03  0.17120000000E+03 0.  0.
         13    1    1    2    0    0 -0.32695399948E+01 -0.12539681935E+02  0.19353697433E+02  0.23291850144E+02  0.10566000000E+00 0. -1.
        994    1    1    2    0    0  0.70901132838E+01  0.72893851388E+01  0.43430116870E+01  0.17155671538E+03  0.17120000000E+03 0.  0.
        998    1    1    2    0    0 -0.38205732890E+01  0.52502967957E+01  0.14763032872E+04  0.14763514345E+04  0.10000000000E+02 0. -1.
</event>
<event>
 5    1  0.1364103E-008  0.3781366E+03  0.7957747E-01  0.3459313E+00
         13   -1    0    0    0    0  0.00000000000E+00  0.00000000000E+00  0.14999999963E+04  0.15000000000E+04  0.10566000000E+00 0. -1.
        994   -1    0    0    0    0 -0.00000000000E+00 -0.00000000000E+00  0.11368683772E-12  0.17120000000E+03  0.17120000000E+03 0.  0.
         13    1    1    2    0    0 -0.46875750069E+00 -0.44281595508E+02  0.55950882643E+02  0.71355391295E+02  0.10566000000E+00 0. -1.
        994    1    1    2    0    0 -0.30691517991E+02  0.46683023417E+02  0.26627504917E+02  0.18204323105E+03  0.17120000000E+03 0.  0.
        998    1    1    2    0    0  0.31160275491E+02 -0.24014279094E+01  0.14174216087E+04  0.14178013777E+04  0.10000000000E+02 0. -1.
</event>
<event>
 5    1  0.1364103E-008  0.3832119E+03  0.7957747E-01  0.3437291E+00
         13   -1    0    0    0    0  0.00000000000E+00  0.00000000000E+00  0.14999999963E+04  0.15000000000E+04  0.10566000000E+00 0.  1.
        994   -1    0    0    0    0 -0.00000000000E+00 -0.00000000000E+00  0.11368683772E-12  0.17120000000E+03  0.17120000000E+03 0.  0.
         13    1    1    2    0    0  0.17550044708E+02  0.23470877278E+02  0.16478095414E+03  0.16736684308E+03  0.10566000000E+00 0.  1.
        994    1    1    2    0    0  0.75052621003E+01 -0.33187096532E+02  0.63594365496E+01  0.17466423437E+03  0.17120000000E+03 0.  0.
        998    1    1    2    0    0 -0.25055306808E+02  0.97162192539E+01  0.13288596056E+04  0.13291689226E+04  0.10000000000E+02 0.  1.
</event>
<event>
 5    1  0.1364103E-008  0.3836454E+03  0.7957747E-01  0.3435438E+00
         13   -1    0    0    0    0  0.00000000000E+00  0.00000000000E+00  0.14999999963E+04  0.15000000000E+04  0.10566000000E+00 0. -1.
        994   -1    0    0    0    0 -0.00000000000E+00 -0.00000000000E+00  0.11368683772E-12  0.17120000000E+03  0.17120000000E+03 0.  0.
         13    1    1    2    0    0  0.19877558915E+02  0.68775562753E+01  0.84789634532E+02  0.87359666992E+02  0.10566000000E+00 0. -1.
        994    1    1    2    0    0 -0.37555082870E+02  0.68340058393E+01  0.71320851144E+01  0.17554883800E+03  0.17120000000E+03 0.  0.
        998    1    1    2    0    0  0.17677523955E+02 -0.13711562115E+02  0.14080782766E+04  0.14082914950E+04  0.10000000000E+02 0. -1.
</event>
<event>
 5    1  0.1364103E-008  0.3802474E+03  0.7957747E-01  0.3450082E+00
         13   -1    0    0    0    0  0.00000000000E+00  0.00000000000E+00  0.14999999963E+04  0.15000000000E+04  0.10566000000E+00 0. -1.
        994   -1    0    0    0    0 -0.00000000000E+00 -0.00000000000E+00  0.11368683772E-12  0.17120000000E+03  0.17120000000E+03 0.  0.
         13    1    1    2    0    0 -0.80998174525E+01  0.40745674518E+02  0.17452297136E+03  0.17939926346E+03  0.10566000000E+00 0. -1.
        994    1    1    2    0    0  0.52088914926E+01 -0.54352892865E+02  0.14031623640E+02  0.18024343532E+03  0.17120000000E+03 0.  0.
        998    1    1    2    0    0  0.28909259599E+01  0.13607218347E+02  0.13114454013E+04  0.13115573012E+04  0.10000000000E+02 0. -1.
</event>
<event>
 5    1  0.1364103E-008  0.3796689E+03  0.7957747E-01  0.3452602E+00
         13   -1    0    0    0    0  0.00000000000E+00  0.00000000000E+00  0.14999999963E+04  0.15000000000E+04  0.10566000000E+00 0. -1.
        994   -1    0    0    0    0 -0.00000000000E+00 -0.00000000000E+00  0.11368683772E-12  0.17120000000E+03  0.17120000000E+03 0.  0.
         13    1    1    2    0    0  0.23373218940E+02 -0.13584037619E+02  0.79815492041E+02  0.84269551888E+02  0.10566000000E+00 0. -1.
        994    1    1    2    0    0 -0.23664067590E+02  0.12239760157E+02  0.66794123405E+01  0.17338931447E+03  0.17120000000E+03 0.  0.
        998    1    1    2    0    0  0.29084865061E+00  0.13442774624E+01  0.14135050919E+04  0.14135411336E+04  0.10000000000E+02 0. -1.
</event>
<event>
 5    1  0.1364103E-008  0.3770504E+03  0.7957747E-01  0.3464103E+00
         13   -1    0    0    0    0  0.00000000000E+00  0.00000000000E+00  0.14999999963E+04  0.15000000000E+04  0.10566000000E+00 0. -1.
        994   -1    0    0    0    0 -0.00000000000E+00 -0.00000000000E+00  0.11368683772E-12  0.17120000000E+03  0.17120000000E+03 0.  0.
         13    1    1    2    0    0 -0.48807138771E+02  0.94326233223E+02  0.40785593759E+03  0.42145705838E+03  0.10566000000E+00 0. -1.
        994    1    1    2    0    0  0.87466872051E+02 -0.13764195145E+03  0.10143286505E+03  0.25728160956E+03  0.17120000000E+03 0.  0.
        998    1    1    2    0    0 -0.38659733280E+02  0.43315718231E+02  0.99071119364E+03  0.99246133205E+03  0.10000000000E+02 0.  1.
</event>
<event>
 5    1  0.1364103E-008  0.3839549E+03  0.7957747E-01  0.3434117E+00
         13   -1    0    0    0    0  0.00000000000E+00  0.00000000000E+00  0.14999999963E+04  0.15000000000E+04  0.10566000000E+00 0. -1.
        994   -1    0    0    0    0 -0.00000000000E+00 -0.00000000000E+00  0.11368683772E-12  0.17120000000E+03  0.17120000000E+03 0.  0.
         13    1    1    2    0    0  0.11996760072E+02  0.28874042426E+02  0.15748073839E+03  0.16055474675E+03  0.10566000000E+00 0. -1.
        994    1    1    2    0    0 -0.10896988605E+02 -0.64178894219E+02  0.16261110206E+02  0.18387914109E+03  0.17120000000E+03 0.  0.
        998    1    1    2    0    0 -0.10997714669E+01  0.35304851792E+02  0.13262581477E+04  0.13267661122E+04  0.10000000000E+02 0. -1.
</event>
<event>
 5    1  0.1364103E-008  0.3751747E+03  0.7957747E-01  0.3472442E+00
         13   -1    0    0    0    0  0.00000000000E+00  0.00000000000E+00  0.14999999963E+04  0.15000000000E+04  0.10566000000E+00 0. -1.
        994   -1    0    0    0    0 -0.00000000000E+00 -0.00000000000E+00  0.11368683772E-12  0.17120000000E+03  0.17120000000E+03 0.  0.
         13    1    1    2    0    0 -0.41160058038E+02  0.28966866940E+02  0.82207573782E+02  0.96391525090E+02  0.10566000000E+00 0. -1.
        994    1    1    2    0    0  0.43317246917E+02 -0.32237825933E+02  0.24156939396E+02  0.18113160691E+03  0.17120000000E+03 0.  0.
        998    1    1    2    0    0 -0.21571888792E+01  0.32709589934E+01  0.13936354831E+04  0.13936768680E+04  0.10000000000E+02 0. -1.
</event>
<event>
 5    1  0.1364103E-008  0.3860645E+03  0.7957747E-01  0.3425170E+00
         13   -1    0    0    0    0  0.00000000000E+00  0.00000000000E+00  0.14999999963E+04  0.15000000000E+04  0.10566000000E+00 0. -1.
        994   -1    0    0    0    0 -0.00000000000E+00 -0.00000000000E+00  0.11368683772E-12  0.17120000000E+03  0.17120000000E+03 0.  0.
         13    1    1    2    0    0  0.65558033477E+01 -0.10410493467E+02  0.67934294696E+02  0.69039383627E+02  0.10566000000E+00 0. -1.
        994    1    1    2    0    0 -0.67580228799E+01  0.88875375446E+01  0.15112051936E+01  0.17157034399E+03  0.17120000000E+03 0.  0.
        998    1    1    2    0    0  0.20221953222E+00  0.15229559225E+01  0.14305544964E+04  0.14305902724E+04  0.10000000000E+02 0. -1.
</event>
<event>
 5    1  0.1364103E-008  0.3797529E+03  0.7957747E-01  0.3452235E+00
         13   -1    0    0    0    0  0.00000000000E+00  0.00000000000E+00  0.14999999963E+04  0.15000000000E+04  0.10566000000E+00 0.  1.
        994   -1    0    0    0    0 -0.00000000000E+00 -0.00000000000E+00  0.11368683772E-12  0.17120000000E+03  0.17120000000E+03 0.  0.
         13    1    1    2    0    0  0.17278710614E+02 -0.54847085019E+02  0.32224977916E+03  0.32734032429E+03  0.10566000000E+00 0.  1.
        994    1    1    2    0    0 -0.63622378435E+02  0.39855342834E+02  0.23351458298E+02  0.18839051461E+03  0.17120000000E+03 0.  0.
        998    1    1    2    0    0  0.46343667821E+02  0.14991742185E+02  0.11543987588E+04  0.11554691611E+04  0.10000000000E+02 0.  1.
</event>
<event>
 5    1  0.1364103E-008  0.3832772E+03  0.7957747E-01  0.3437012E+00
         13   -1    0    0    0    0  0.00000000000E+00  0.00000000000E+00  0.14999999963E+04  0.15000000000E+04  0.10566000000E+00 0. -1.
        994   -1    0    0    0    0 -0.00000000000E+00 -0.00000000000E+00  0.11368683772E-12  0.17120000000E+03  0.17120000000E+03 0.  0.
         13    1    1    2    0    0 -0.22487995914E+02 -0.76419005699E+01  0.10543318289E+03  0.10807532476E+03  0.10566000000E+00 0. -1.
        994    1    1    2    0    0  0.22477984326E+02  0.10982905422E+02  0.45604936781E+01  0.17307836980E+03  0.17120000000E+03 0.  0.
        998    1    1    2    0    0  0.10011587584E-01 -0.33410048517E+01  0.13900063197E+04  0.13900463054E+04  0.10000000000E+02 0. -1.
</event>
<event>
 5    1  0.1364103E-008  0.3862924E+03  0.7957747E-01  0.3424209E+00
         13   -1    0    0    0    0  0.00000000000E+00  0.00000000000E+00  0.14999999963E+04  0.15000000000E+04  0.10566000000E+00 0.  1.
        994   -1    0    0    0    0 -0.00000000000E+00 -0.00000000000E+00  0.11368683772E-12  0.17120000000E+03  0.17120000000E+03 0.  0.
         13    1    1    2    0    0 -0.11305818575E+02  0.32635085811E+01  0.65233724142E+02  0.66286664959E+02  0.10566000000E+00 0.  1.
        994    1    1    2    0    0  0.22016370718E+02  0.76199261683E+01  0.27694160760E+01  0.17280015486E+03  0.17120000000E+03 0.  0.
        998    1    1    2    0    0 -0.10710552143E+02 -0.10883434749E+02  0.14319968561E+04  0.14321131802E+04  0.10000000000E+02 0.  1.
</event>
<event>
 5    1  0.1364103E-008  0.3812542E+03  0.7957747E-01  0.3445716E+00
         13   -1    0    0    0    0  0.00000000000E+00  0.00000000000E+00  0.14999999963E+04  0.15000000000E+04  0.10566000000E+00 0. -1.
        994   -1    0    0    0    0 -0.00000000000E+00 -0.00000000000E+00  0.11368683772E-12  0.17120000000E+03  0.17120000000E+03 0.  0.
         13    1    1    2    0    0  0.26913954020E+02  0.56106171160E+02  0.35976768950E+03  0.36510966152E+03  0.10566000000E+00 0. -1.
        994    1    1    2    0    0 -0.36740087123E+02 -0.67014521961E+02  0.23196691359E+02  0.18891348985E+03  0.17120000000E+03 0.  0.
        998    1    1    2    0    0  0.98261331025E+01  0.10908350802E+02  0.11170356154E+04  0.11171768486E+04  0.10000000000E+02 0. -1.
</event>
<event>
 5    1  0.1364103E-008  0.3728556E+03  0.7957747E-01  0.3482869E+00
         13   -1    0    0    0    0  0.00000000000E+00  0.00000000000E+00  0.14999999963E+04  0.15000000000E+04  0.10566000000E+00 0.  1.
        994   -1    0    0    0    0 -0.00000000000E+00 -0.00000000000E+00  0.11368683772E-12  0.17120000000E+03  0.17120000000E+03 0.  0.
         13    1    1    2    0    0 -0.27667433438E+01  0.34270768572E+02  0.70311547074E+02  0.78267906981E+02  0.10566000000E+00 0.  1.
        994    1    1    2    0    0  0.38532431233E+01 -0.32887078152E+02  0.11547357724E+02  0.17475465334E+03  0.17120000000E+03 0.  0.
        998    1    1    2    0    0 -0.10864997795E+01 -0.13836904195E+01  0.14181410915E+04  0.14181774397E+04  0.10000000000E+02 0.  1.
</event>
<event>
 5    1  0.1364103E-008  0.3856734E+03  0.7957747E-01  0.3426821E+00
         13   -1    0    0    0    0  0.00000000000E+00  0.00000000000E+00  0.14999999963E+04  0.15000000000E+04  0.10566000000E+00 0. -1.
        994   -1    0    0    0    0 -0.00000000000E+00 -0.00000000000E+00  0.11368683772E-12  0.17120000000E+03  0.17120000000E+03 0.  0.
         13    1    1    2    0    0 -0.14194492480E+02 -0.13080320627E+01  0.73932509662E+02  0.75294234265E+02  0.10566000000E+00 0. -1.
        994    1    1    2    0    0  0.18249051638E+02 -0.11254113013E+00  0.23898259179E+01  0.17218650301E+03  0.17120000000E+03 0.  0.
        998    1    1    2    0    0 -0.40545591585E+01  0.14205731928E+01  0.14236776607E+04  0.14237192627E+04  0.10000000000E+02 0. -1.
</event>
<event>
 5    1  0.1364103E-008  0.3854841E+03  0.7957747E-01  0.3427622E+00
         13   -1    0    0    0    0  0.00000000000E+00  0.00000000000E+00  0.14999999963E+04  0.15000000000E+04  0.10566000000E+00 0.  1.
        994   -1    0    0    0    0 -0.00000000000E+00 -0.00000000000E+00  0.11368683772E-12  0.17120000000E+03  0.17120000000E+03 0.  0.
         13    1    1    2    0    0 -0.10114411309E+02  0.48670187662E+01  0.46104128619E+02  0.47450932841E+02  0.10566000000E+00 0.  1.
        994    1    1    2    0    0  0.44339602185E+01 -0.28582274076E+01  0.14813869603E+01  0.17128766440E+03  0.17120000000E+03 0.  0.
        998    1    1    2    0    0  0.56804510901E+01 -0.20087913586E+01  0.14524144807E+04  0.14524614028E+04  0.10000000000E+02 0.  1.
</event>
<event>
 5    1  0.1364103E-008  0.3848750E+03  0.7957747E-01  0.3430203E+00
         13   -1    0    0    0    0  0.00000000000E+00  0.00000000000E+00  0.14999999963E+04  0.15000000000E+04  0.10566000000E+00 0.  1.
        994   -1    0    0    0    0 -0.00000000000E+00 -0.00000000000E+00  0.11368683772E-12  0.17120000000E+03  0.17120000000E+03 0.  0.
         13    1    1    2    0    0 -0.16495407373E+02  0.12681502210E+02  0.10423433892E+03  0.10629076882E+03  0.10566000000E+00 0.  1.
        994    1    1    2    0    0  0.43287061213E+02 -0.10208740196E+02  0.82270375706E+01  0.17707374789E+03  0.17120000000E+03 0.  0.
        998    1    1    2    0    0 -0.26791653840E+02 -0.24727620140E+01  0.13875386198E+04  0.13878354833E+04  0.10000000000E+02 0.  1.
</event>
<event>
 5    1  0.1364103E-008  0.4347534E+03  0.7957747E-01  0.3242676E+00
         13   -1    0    0    0    0  0.00000000000E+00  0.00000000000E+00  0.14999999963E+04  0.15000000000E+04  0.10566000000E+00 0. -1.
        994   -1    0    0    0    0 -0.00000000000E+00 -0.00000000000E+00  0.11368683772E-12  0.17120000000E+03  0.17120000000E+03 0.  0.
         13    1    1    2    0    0 -0.72040744747E+02  0.10089788991E+03  0.10989868333E+03  0.16567433372E+03  0.10566000000E+00 0. -1.
        994    1    1    2    0    0  0.89237950128E+02 -0.13008739057E+03  0.17836354875E+03  0.29327314308E+03  0.17120000000E+03 0.  0.
        998    1    1    2    0    0 -0.17197205381E+02  0.29189500659E+02  0.12117377642E+04  0.12122525232E+04  0.10000000000E+02 0. -1.
</event>
<event>
 5    1  0.1364103E-008  0.3791532E+03  0.7957747E-01  0.3454854E+00
         13   -1    0    0    0    0  0.00000000000E+00  0.00000000000E+00  0.14999999963E+04  0.15000000000E+04  0.10566000000E+00 0. -1.
        994   -1    0    0    0    0 -0.00000000000E+00 -0.00000000000E+00  0.11368683772E-12  0.17120000000E+03  0.17120000000E+03 0.  0.
         13    1    1    2    0    0 -0.10692536656E+02 -0.10980849013E+02  0.23803013160E+02  0.28310845708E+02  0.10566000000E+00 0. -1.
        994    1    1    2    0    0  0.93026128793E+01  0.71074285320E+01  0.50208144500E+01  0.17167324406E+03  0.17120000000E+03 0.  0.
        998    1    1    2    0    0  0.13899237769E+01  0.38734204808E+01  0.14711761687E+04  0.14712159102E+04  0.10000000000E+02 0. -1.
</event>
<event>
 5    1  0.1364103E-008  0.3842961E+03  0.7957747E-01  0.3432663E+00
         13   -1    0    0    0    0  0.00000000000E+00  0.00000000000E+00  0.14999999963E+04  0.15000000000E+04  0.10566000000E+00 0. -1.
        994   -1    0    0    0    0 -0.00000000000E+00 -0.00000000000E+00  0.11368683772E-12  0.17120000000E+03  0.17120000000E+03 0.  0.
         13    1    1    2    0    0  0.15168311952E+02 -0.80958354230E+01  0.72332822709E+02  0.74348292810E+02  0.10566000000E+00 0. -1.
        994    1    1    2    0    0 -0.14914264282E+02  0.53208602302E+01  0.28069553806E+01  0.17195367350E+03  0.17120000000E+03 0.  0.
        998    1    1    2    0    0 -0.25404766975E+00  0.27749751928E+01  0.14248602182E+04  0.14248980337E+04  0.10000000000E+02 0. -1.
</event>
<event>
 5    1  0.1364103E-008  0.3786082E+03  0.7957747E-01  0.3457241E+00
         13   -1    0    0    0    0  0.00000000000E+00  0.00000000000E+00  0.14999999963E+04  0.15000000000E+04  0.10566000000E+00 0. -1.
        994   -1    0    0    0    0 -0.00000000000E+00 -0.00000000000E+00  0.11368683772E-12  0.17120000000E+03  0.17120000000E+03 0.  0.
         13    1    1    2    0    0 -0.17316720887E+02  0.45872560879E+01  0.31034341025E+02  0.35833688445E+02  0.10566000000E+00 0. -1.
        994    1    1    2    0    0  0.82170482181E+01 -0.23990915479E+02  0.70001007419E+01  0.17320948391E+03  0.17120000000E+03 0.  0.
        998    1    1    2    0    0  0.90996726692E+01  0.19403659392E+02  0.14619655545E+04  0.14621568276E+04  0.10000000000E+02 0. -1.
</event>
<event>
 5    1  0.1364103E-008  0.3786656E+03  0.7957747E-01  0.3456989E+00
         13   -1    0    0    0    0  0.00000000000E+00  0.00000000000E+00  0.14999999963E+04  0.15000000000E+04  0.10566000000E+00 0. -1.
        994   -1    0    0    0    0 -0.00000000000E+00 -0.00000000000E+00  0.11368683772E-12  0.17120000000E+03  0.17120000000E+03 0.  0.
         13    1    1    2    0    0 -0.12717309638E+02 -0.65332624688E+00  0.14707104502E+02  0.19454225415E+02  0.10566000000E+00 0. -1.
        994    1    1    2    0    0  0.10967569294E+02 -0.10715309451E+00  0.52122738941E+01  0.17163014554E+03  0.17120000000E+03 0.  0.
        998    1    1    2    0    0  0.17497403445E+01  0.76047934139E+00  0.14800806179E+04  0.14801156290E+04  0.10000000000E+02 0. -1.
</event>
<event>
 5    1  0.1364103E-008  0.3765466E+03  0.7957747E-01  0.3466335E+00
         13   -1    0    0    0    0  0.00000000000E+00  0.00000000000E+00  0.14999999963E+04  0.15000000000E+04  0.10566000000E+00 0. -1.
        994   -1    0    0    0    0 -0.00000000000E+00 -0.00000000000E+00  0.11368683772E-12  0.17120000000E+03  0.17120000000E+03 0.  0.
         13    1    1    2    0    0 -0.30503669439E+02 -0.12395612512E+02  0.94127722592E+02  0.99720431122E+02  0.10566000000E+00 0. -1.
        994    1    1    2    0    0  0.10346634411E+02  0.66387475061E+00  0.62502269345E+01  0.17162750045E+03  0.17120000000E+03 0.  0.
        998    1    1    2    0    0  0.20157035029E+02  0.11731737761E+02  0.13996220468E+04  0.13998520684E+04  0.10000000000E+02 0. -1.
</event>
<event>
 5    1  0.1364103E-008  0.3832210E+03  0.7957747E-01  0.3437252E+00
         13   -1    0    0    0    0  0.00000000000E+00  0.00000000000E+00  0.14999999963E+04  0.15000000000E+04  0.10566000000E+00 0. -1.
        994   -1    0    0    0    0 -0.00000000000E+00 -0.00000000000E+00  0.11368683772E-12  0.17120000000E+03  0.17120000000E+03 0.  0.
         13    1    1    2    0    0  0.43940091159E+01 -0.21873374301E+02  0.10321840997E+03  0.10560209818E+03  0.10566000000E+00 0. -1.
        994    1    1    2    0    0 -0.70131521573E+01  0.50974934145E+01  0.27646344732E+01  0.17144168672E+03  0.17120000000E+03 0.  0.
        998    1    1    2    0    0  0.26191430415E+01  0.16775880886E+02  0.13940169518E+04  0.13941562151E+04  0.10000000000E+02 0. -1.
</event>
<event>
 5    1  0.1364103E-008  0.4058982E+03  0.7957747E-01  0.3345604E+00
         13   -1    0    0    0    0  0.00000000000E+00  0.00000000000E+00  0.14999999963E+04  0.15000000000E+04  0.10566000000E+00 0.  1.
        994   -1    0    0    0    0 -0.00000000000E+00 -0.00000000000E+00  0.11368683772E-12  0.17120000000E+03  0.17120000000E+03 0.  0.
         13    1    1    2    0    0  0.11203505618E+03  0.10450170254E+03  0.29433581454E+03  0.33182230566E+03  0.10566000000E+00 0.  1.
        994    1    1    2    0    0 -0.92071230354E+02 -0.11156318902E+03  0.12146337751E+03  0.25492400570E+03  0.17120000000E+03 0.  0.
        998    1    1    2    0    0 -0.19963825826E+02  0.70614864796E+01  0.10842008042E+04  0.10844536886E+04  0.10000000000E+02 0.  1.
</event>
<event>
 5    1  0.1364103E-008  0.3858461E+03  0.7957747E-01  0.3426092E+00
         13   -1    0    0    0    0  0.00000000000E+00  0.00000000000E+00  0.14999999963E+04  0.15000000000E+04  0.10566000000E+00 0. -1.
        994   -1    0    0    0    0 -0.00000000000E+00 -0.00000000000E+00  0.11368683772E-12  0.17120000000E+03  0.17120000000E+03 0.  0.
         13    1    1    2    0    0  0.10306205600E+02  0.26905641332E+01  0.52583067459E+02  0.53651161745E+02  0.10566000000E+00 0. -1.
        994    1    1    2    0    0  0.10643003105E+02 -0.69761132923E+01  0.17419432714E+01  0.17168114060E+03  0.17120000000E+03 0.  0.
        998    1    1    2    0    0 -0.20949208705E+02  0.42855491590E+01  0.14456749855E+04  0.14458676977E+04  0.10000000000E+02 0. -1.
</event>
<event>
 5    1  0.1364103E-008  0.3769061E+03  0.7957747E-01  0.3464742E+00
         13   -1    0    0    0    0  0.00000000000E+00  0.00000000000E+00  0.14999999963E+04  0.15000000000E+04  0.10566000000E+00 0.  1.
        994   -1    0    0    0    0 -0.00000000000E+00 -0.00000000000E+00  0.11368683772E-12  0.17120000000E+03  0.17120000000E+03 0.  0.
         13    1    1    2    0    0  0.43562496740E+02  0.20352016357E+02  0.18115431131E+03  0.18742676266E+03  0.10566000000E+00 0.  1.
        994    1    1    2    0    0 -0.35233588350E+02 -0.31501887062E+02  0.13285203838E+02  0.17810028433E+03  0.17120000000E+03 0.  0.
        998    1    1    2    0    0 -0.83289083904E+01  0.11149870704E+02  0.13055604811E+04  0.13056729530E+04  0.10000000000E+02 0.  1.
</event>
<event>
 5    1  0.1364103E-008  0.3702202E+03  0.7957747E-01  0.3494879E+00
         13   -1    0    0    0    0  0.00000000000E+00  0.00000000000E+00  0.14999999963E+04  0.15000000000E+04  0.10566000000E+00 0.  1.
        994   -1    0    0    0    0 -0.00000000000E+00 -0.00000000000E+00  0.11368683772E-12  0.17120000000E+03  0.17120000000E+03 0.  0.
         13    1    1    2    0    0  0.61035791123E+01 -0.57934771209E+02  0.15704245020E+03  0.16749935439E+03  0.10566000000E+00 0.  1.
        994    1    1    2    0    0  0.21299911505E+02  0.27322305398E+02  0.15266031172E+02  0.17533592419E+03  0.17120000000E+03 0.  0.
        998    1    1    2    0    0 -0.27403490617E+02  0.30612465811E+02  0.13276915149E+04  0.13283647214E+04  0.10000000000E+02 0.  1.
</event>
<event>
 5    1  0.1364103E-008  0.3754929E+03  0.7957747E-01  0.3471021E+00
         13   -1    0    0    0    0  0.00000000000E+00  0.00000000000E+00  0.14999999963E+04  0.15000000000E+04  0.10566000000E+00 0.  1.
        994   -1    0    0    0    0 -0.00000000000E+00 -0.00000000000E+00  0.11368683772E-12  0.17120000000E+03  0.17120000000E+03 0.  0.
         13    1    1    2    0    0 -0.50328980324E+02  0.98209615642E+00  0.10279807330E+03  0.11446145994E+03  0.10566000000E+00 0.  1.
        994    1    1    2    0    0 -0.19500326634E+02 -0.16714300173E+02  0.16228106972E+02  0.17387473084E+03  0.17120000000E+03 0.  0.
        998    1    1    2    0    0  0.69829306958E+02  0.15732204017E+02  0.13809738160E+04  0.13828638092E+04  0.10000000000E+02 0.  1.
</event>
<event>
 5    1  0.1364103E-008  0.3807382E+03  0.7957747E-01  0.3447950E+00
         13   -1    0    0    0    0  0.00000000000E+00  0.00000000000E+00  0.14999999963E+04  0.15000000000E+04  0.10566000000E+00 0. -1.
        994   -1    0    0    0    0 -0.00000000000E+00 -0.00000000000E+00  0.11368683772E-12  0.17120000000E+03  0.17120000000E+03 0.  0.
         13    1    1    2    0    0 -0.13055664327E+02 -0.42216896934E+02  0.22682592671E+03  0.23109030475E+03  0.10566000000E+00 0. -1.
        994    1    1    2    0    0  0.72761381036E+01  0.41120184120E+02  0.95981642025E+01  0.17648052721E+03  0.17120000000E+03 0.  0.
        998    1    1    2    0    0  0.57795262235E+01  0.10967128149E+01  0.12635759054E+04  0.12636291680E+04  0.10000000000E+02 0. -1.
</event>
<event>
 5    1  0.1364103E-008  0.3849955E+03  0.7957747E-01  0.3429691E+00
         13   -1    0    0    0    0  0.00000000000E+00  0.00000000000E+00  0.14999999963E+04  0.15000000000E+04  0.10566000000E+00 0.  1.
        994   -1    0    0    0    0 -0.00000000000E+00 -0.00000000000E+00  0.11368683772E-12  0.17120000000E+03  0.17120000000E+03 0.  0.
         13    1    1    2    0    0  0.16290275869E+02  0.81149472026E+01  0.10219933121E+03  0.10380722480E+03  0.10566000000E+00 0.  1.
        994    1    1    2    0    0 -0.94413399048E+01 -0.51690744373E+01  0.20134766645E+01  0.17154985374E+03  0.17120000000E+03 0.  0.
        998    1    1    2    0    0 -0.68489359643E+01 -0.29458727653E+01  0.13957871884E+04  0.13958429215E+04  0.10000000000E+02 0.  1.
</event>
<event>
 5    1  0.1364103E-008  0.3776536E+03  0.7957747E-01  0.3461439E+00
         13   -1    0    0    0    0  0.00000000000E+00  0.00000000000E+00  0.14999999963E+04  0.15000000000E+04  0.10566000000E+00 0. -1.
        994   -1    0    0    0    0 -0.00000000000E+00 -0.00000000000E+00  0.11368683772E-12  0.17120000000E+03  0.17120000000E+03 0.  0.
         13    1    1    2    0    0  0.33442012762E+02 -0.24608858928E+02  0.14519796019E+03  0.15101795577E+03  0.10566000000E+00 0. -1.
        994    1    1    2    0    0 -0.32669655322E+02  0.26856412956E+02  0.11371883314E+02  0.17671257178E+03  0.17120000000E+03 0.  0.
        998    1    1    2    0    0 -0.77235743950E+00 -0.22475540284E+01  0.13434301528E+04  0.13434694725E+04  0.10000000000E+02 0.  0.
</event>
<event>
 5    1  0.1364103E-008  0.3807129E+03  0.7957747E-01  0.3448060E+00
         13   -1    0    0    0    0  0.00000000000E+00  0.00000000000E+00  0.14999999963E+04  0.15000000000E+04  0.10566000000E+00 0. -1.
        994   -1    0    0    0    0 -0.00000000000E+00 -0.00000000000E+00  0.11368683772E-12  0.17120000000E+03  0.17120000000E+03 0.  0.
         13    1    1    2    0    0 -0.30318850015E+02 -0.45096660504E+01  0.13620383090E+03  0.13961040244E+03  0.10566000000E+00 0. -1.
        994    1    1    2    0    0  0.29160891431E+01 -0.24314217574E+01  0.38218203509E+01  0.17128473866E+03  0.17120000000E+03 0.  0.
        998    1    1    2    0    0  0.27402760872E+02  0.69410878077E+01  0.13599743450E+04  0.13603048589E+04  0.10000000000E+02 0. -1.
</event>
<event>
 5    1  0.1364103E-008  0.3803316E+03  0.7957747E-01  0.3449716E+00
         13   -1    0    0    0    0  0.00000000000E+00  0.00000000000E+00  0.14999999963E+04  0.15000000000E+04  0.10566000000E+00 0.  1.
        994   -1    0    0    0    0 -0.00000000000E+00 -0.00000000000E+00  0.11368683772E-12  0.17120000000E+03  0.17120000000E+03 0.  0.
         13    1    1    2    0    0  0.11802929321E+01 -0.37972942213E+02  0.17057022806E+03  0.17474996794E+03  0.10566000000E+00 0.  1.
        994    1    1    2    0    0 -0.11015802779E+01  0.30479755678E+02  0.70783491702E+01  0.17403957025E+03  0.17120000000E+03 0.  0.
        998    1    1    2    0    0 -0.78712654244E-01  0.74931865349E+01  0.13223514191E+04  0.13224104618E+04  0.10000000000E+02 0.  0.
</event>
<event>
 5    1  0.1364103E-008  0.3816988E+03  0.7957747E-01  0.3443795E+00
         13   -1    0    0    0    0  0.00000000000E+00  0.00000000000E+00  0.14999999963E+04  0.15000000000E+04  0.10566000000E+00 0. -1.
        994   -1    0    0    0    0 -0.00000000000E+00 -0.00000000000E+00  0.11368683772E-12  0.17120000000E+03  0.17120000000E+03 0.  0.
         13    1    1    2    0    0 -0.33073790387E+02  0.69663882213E+01  0.15574381932E+03  0.15936923981E+03  0.10566000000E+00 0. -1.
        994    1    1    2    0    0  0.34393772800E+02 -0.62002469906E+01  0.73488502194E+01  0.17488516309E+03  0.17120000000E+03 0.  0.
        998    1    1    2    0    0 -0.13199824124E+01 -0.76614123072E+00  0.13369073267E+04  0.13369455971E+04  0.10000000000E+02 0. -1.
</event>
<event>
 5    1  0.1364103E-008  0.3812605E+03  0.7957747E-01  0.3445688E+00
         13   -1    0    0    0    0  0.00000000000E+00  0.00000000000E+00  0.14999999963E+04  0.15000000000E+04  0.10566000000E+00 0.  1.
        994   -1    0    0    0    0 -0.00000000000E+00 -0.00000000000E+00  0.11368683772E-12  0.17120000000E+03  0.17120000000E+03 0.  0.
         13    1    1    2    0    0  0.35282856348E+02  0.66249420314E+01  0.20395150590E+03  0.20708693279E+03  0.10566000000E+00 0.  1.
        994    1    1    2    0    0 -0.60303873672E+01 -0.10147577343E+02  0.39622022305E+01  0.17165220052E+03  0.17120000000E+03 0.  0.
        998    1    1    2    0    0 -0.29252468981E+02  0.35226353117E+01  0.12920862881E+04  0.12924608667E+04  0.10000000000E+02 0.  1.
</event>
<event>
 5    1  0.1364103E-008  0.3847583E+03  0.7957747E-01  0.3430698E+00
         13   -1    0    0    0    0  0.00000000000E+00  0.00000000000E+00  0.14999999963E+04  0.15000000000E+04  0.10566000000E+00 0.  1.
        994   -1    0    0    0    0 -0.00000000000E+00 -0.00000000000E+00  0.11368683772E-12  0.17120000000E+03  0.17120000000E+03 0.  0.
         13    1    1    2    0    0  0.29603720462E+02 -0.22663138896E+02  0.32498131562E+02  0.49458445678E+02  0.10566000000E+00 0.  1.
        994    1    1    2    0    0 -0.11649317891E+02 -0.48476391321E+02  0.28190301900E+02  0.18052645303E+03  0.17120000000E+03 0.  0.
        998    1    1    2    0    0 -0.17954402571E+02  0.71139530218E+02  0.14393115628E+04  0.14412151013E+04  0.10000000000E+02 0.  1.
</event>
<event>
 5    1  0.1364103E-008  0.3810814E+03  0.7957747E-01  0.3446464E+00
         13   -1    0    0    0    0  0.00000000000E+00  0.00000000000E+00  0.14999999963E+04  0.15000000000E+04  0.10566000000E+00 0.  1.
        994   -1    0    0    0    0 -0.00000000000E+00 -0.00000000000E+00  0.11368683772E-12  0.17120000000E+03  0.17120000000E+03 0.  0.
         13    1    1    2    0    0  0.48000386326E+00 -0.15067875720E+02  0.29745745132E+02  0.33348040421E+02  0.10566000000E+00 0.  1.
        994    1    1    2    0    0 -0.45126352103E+01  0.15728058850E+02  0.44806165458E+01  0.17203851789E+03  0.17120000000E+03 0.  0.
        998    1    1    2    0    0  0.40326313470E+01 -0.66018313016E+00  0.14657736346E+04  0.14658134417E+04  0.10000000000E+02 0.  1.
</event>
<event>
 5    1  0.1364103E-008  0.3861872E+03  0.7957747E-01  0.3424653E+00
         13   -1    0    0    0    0  0.00000000000E+00  0.00000000000E+00  0.14999999963E+04  0.15000000000E+04  0.10566000000E+00 0.  1.
        994   -1    0    0    0    0 -0.00000000000E+00 -0.00000000000E+00  0.11368683772E-12  0.17120000000E+03  0.17120000000E+03 0.  0.
         13    1    1    2    0    0 -0.10391291294E+02 -0.46813113313E+01  0.61966043169E+02  0.63005517859E+02  0.10566000000E+00 0.  1.
        994    1    1    2    0    0  0.12797461056E+02 -0.29620638068E+01  0.16073523833E+01  0.17171072306E+03  0.17120000000E+03 0.  0.
        998    1    1    2    0    0 -0.24061697611E+01  0.76433751381E+01  0.14364266007E+04  0.14364837591E+04  0.10000000000E+02 0.  1.
</event>
<event>
 5    1  0.1364103E-008  0.3819080E+03  0.7957747E-01  0.3442892E+00
         13   -1    0    0    0    0  0.00000000000E+00  0.00000000000E+00  0.14999999963E+04  0.15000000000E+04  0.10566000000E+00 0. -1.
        994   -1    0    0    0    0 -0.00000000000E+00 -0.00000000000E+00  0.11368683772E-12  0.17120000000E+03  0.17120000000E+03 0.  0.
         13    1    1    2    0    0 -0.16610917192E+02  0.17743513636E+02  0.87419564995E+02  0.90735584828E+02  0.10566000000E+00 0. -1.
        994    1    1    2    0    0  0.17367208698E+02 -0.17578484607E+02  0.52041948130E+01  0.17305243917E+03  0.17120000000E+03 0.  0.
        998    1    1    2    0    0 -0.75629150566E+00 -0.16502902944E+00  0.14073762365E+04  0.14074119760E+04  0.10000000000E+02 0. -1.
</event>
<event>
 5    1  0.1364103E-008  0.3744940E+03  0.7957747E-01  0.3475489E+00
         13   -1    0    0    0    0  0.00000000000E+00  0.00000000000E+00  0.14999999963E+04  0.15000000000E+04  0.10566000000E+00 0. -1.
        994   -1    0    0    0    0 -0.00000000000E+00 -0.00000000000E+00  0.11368683772E-12  0.17120000000E+03  0.17120000000E+03 0.  0.
         13    1    1    2    0    0  0.19224492492E+01  0.19077910936E+02  0.23498876925E+02  0.30329373181E+02  0.10566000000E+00 0. -1.
        994    1    1    2    0    0 -0.38840105263E+01 -0.14205047933E+02  0.76775708320E+01  0.17200364536E+03  0.17120000000E+03 0.  0.
        998    1    1    2    0    0  0.19615612771E+01 -0.48728630030E+01  0.14688235485E+04  0.14688669815E+04  0.10000000000E+02 0. -1.
</event>
<event>
 5    1  0.1364103E-008  0.3794323E+03  0.7957747E-01  0.3453634E+00
         13   -1    0    0    0    0  0.00000000000E+00  0.00000000000E+00  0.14999999963E+04  0.15000000000E+04  0.10566000000E+00 0. -1.
        994   -1    0    0    0    0 -0.00000000000E+00 -0.00000000000E+00  0.11368683772E-12  0.17120000000E+03  0.17120000000E+03 0.  0.
         13    1    1    2    0    0 -0.21112130783E+02 -0.36053624700E+02  0.22344253973E+03  0.22731512411E+03  0.10566000000E+00 0. -1.
        994    1    1    2    0    0  0.34233162474E+02 -0.94745676365E+01  0.86571626971E+01  0.17506017054E+03  0.17120000000E+03 0.  0.
        998    1    1    2    0    0 -0.13121031691E+02  0.45528192336E+02  0.12679002938E+04  0.12688247054E+04  0.10000000000E+02 0. -1.
</event>
<event>
 5    1  0.1364103E-008  0.3790010E+03  0.7957747E-01  0.3455520E+00
         13   -1    0    0    0    0  0.00000000000E+00  0.00000000000E+00  0.14999999963E+04  0.15000000000E+04  0.10566000000E+00 0. -1.
        994   -1    0    0    0    0 -0.00000000000E+00 -0.00000000000E+00  0.11368683772E-12  0.17120000000E+03  0.17120000000E+03 0.  0.
         13    1    1    2    0    0  0.87711711466E+01 -0.42687195145E+02  0.17088011117E+03  0.17634952121E+03  0.10566000000E+00 0. -1.
        994    1    1    2    0    0 -0.10668784462E+02  0.51728741133E+02  0.14052413239E+02  0.17971253696E+03  0.17120000000E+03 0.  0.
        998    1    1    2    0    0  0.18976133151E+01 -0.90415459880E+01  0.13150674719E+04  0.13151379418E+04  0.10000000000E+02 0. -1.
</event>
<event>
 5    1  0.1364103E-008  0.3838911E+03  0.7957747E-01  0.3434389E+00
         13   -1    0    0    0    0  0.00000000000E+00  0.00000000000E+00  0.14999999963E+04  0.15000000000E+04  0.10566000000E+00 0. -1.
        994   -1    0    0    0    0 -0.00000000000E+00 -0.00000000000E+00  0.11368683772E-12  0.17120000000E+03  0.17120000000E+03 0.  0.
         13    1    1    2    0    0  0.12691962884E+02 -0.25182421079E+02  0.16731840427E+03  0.16967822437E+03  0.10566000000E+00 0. -1.
        994    1    1    2    0    0 -0.74156205711E+01  0.25581624262E+02  0.45266140348E+01  0.17331861170E+03  0.17120000000E+03 0.  0.
        998    1    1    2    0    0 -0.52763423133E+01 -0.39920318341E+00  0.13281549780E+04  0.13282031639E+04  0.10000000000E+02 0. -1.
</event>
<event>
 5    1  0.1364103E-008  0.3845898E+03  0.7957747E-01  0.3431414E+00
         13   -1    0    0    0    0  0.00000000000E+00  0.00000000000E+00  0.14999999963E+04  0.15000000000E+04  0.10566000000E+00 0. -1.
        994   -1    0    0    0    0 -0.00000000000E+00 -0.00000000000E+00  0.11368683772E-12  0.17120000000E+03  0.17120000000E+03 0.  0.
         13    1    1    2    0    0 -0.54138972724E+01 -0.12354179297E+02  0.49034656504E+02  0.50856117943E+02  0.10566000000E+00 0. -1.
        994    1    1    2    0    0  0.88018086493E+00  0.10822290030E+02  0.22222457671E+01  0.17155837215E+03  0.17120000000E+03 0.  0.
        998    1    1    2    0    0  0.45337164074E+01  0.15318892678E+01  0.14487430940E+04  0.14487855099E+04  0.10000000000E+02 0. -1.
</event>
<event>
 5    1  0.1364103E-008  0.3814260E+03  0.7957747E-01  0.3444973E+00
         13   -1    0    0    0    0  0.00000000000E+00  0.00000000000E+00  0.14999999963E+04  0.15000000000E+04  0.10566000000E+00 0.  1.
        994   -1    0    0    0    0 -0.00000000000E+00 -0.00000000000E+00  0.11368683772E-12  0.17120000000E+03  0.17120000000E+03 0.  0.
         13    1    1    2    0    0 -0.15912643390E+02 -0.33182640021E+02  0.18632007424E+03  0.18991966999E+03  0.10566000000E+00 0.  1.
        994    1    1    2    0    0  0.41195151622E+01  0.30034094694E+02  0.64788274202E+01  0.17398400057E+03  0.17120000000E+03 0.  0.
        998    1    1    2    0    0  0.11793128228E+02  0.31485453270E+01  0.13072010946E+04  0.13072963294E+04  0.10000000000E+02 0.  1.
</event>
<event>
 5    1  0.1364103E-008  0.3785688E+03  0.7957747E-01  0.3457414E+00
         13   -1    0    0    0    0  0.00000000000E+00  0.00000000000E+00  0.14999999963E+04  0.15000000000E+04  0.10566000000E+00 0. -1.
        994   -1    0    0    0    0 -0.00000000000E+00 -0.00000000000E+00  0.11368683772E-12  0.17120000000E+03  0.17120000000E+03 0.  0.
         13    1    1    2    0    0  0.32152267256E+00 -0.18914806224E+02  0.36294054433E+02  0.40928508677E+02  0.10566000000E+00 0. -1.
        994    1    1    2    0    0 -0.48549039121E+01  0.14152863911E+00  0.49365726502E+01  0.17134001247E+03  0.17120000000E+03 0.  0.
        998    1    1    2    0    0  0.45333812395E+01  0.18773277584E+02  0.14587693692E+04  0.14589314789E+04  0.10000000000E+02 0. -1.
</event>
<event>
 5    1  0.1364103E-008  0.3855841E+03  0.7957747E-01  0.3427199E+00
         13   -1    0    0    0    0  0.00000000000E+00  0.00000000000E+00  0.14999999963E+04  0.15000000000E+04  0.10566000000E+00 0.  1.
        994   -1    0    0    0    0 -0.00000000000E+00 -0.00000000000E+00  0.11368683772E-12  0.17120000000E+03  0.17120000000E+03 0.  0.
         13    1    1    2    0    0 -0.11148624192E+02  0.75696653028E+01  0.69690018001E+02  0.70980993422E+02  0.10566000000E+00 0.  1.
        994    1    1    2    0    0  0.14485054945E+02  0.10259467181E+02  0.23753050041E+01  0.17213412084E+03  0.17120000000E+03 0.  0.
        998    1    1    2    0    0 -0.33364307534E+01 -0.17829132484E+02  0.14279346733E+04  0.14280848857E+04  0.10000000000E+02 0.  1.
</event>
<event>
 5    1  0.1364103E-008  0.3851786E+03  0.7957747E-01  0.3428915E+00
         13   -1    0    0    0    0  0.00000000000E+00  0.00000000000E+00  0.14999999963E+04  0.15000000000E+04  0.10566000000E+00 0.  1.
        994   -1    0    0    0    0 -0.00000000000E+00 -0.00000000000E+00  0.11368683772E-12  0.17120000000E+03  0.17120000000E+03 0.  0.
         13    1    1    2    0    0 -0.19150951436E+01  0.22022945946E+02  0.12775357337E+03  0.12965208988E+03  0.10566000000E+00 0.  1.
        994    1    1    2    0    0 -0.22308622532E+02 -0.41783658373E+02  0.89505213905E+01  0.17785696663E+03  0.17120000000E+03 0.  0.
        998    1    1    2    0    0  0.24223717675E+02  0.19760712427E+02  0.13632959015E+04  0.13636909435E+04  0.10000000000E+02 0.  1.
</event>
<event>
 5    1  0.1364103E-008  0.3819402E+03  0.7957747E-01  0.3442754E+00
         13   -1    0    0    0    0  0.00000000000E+00  0.00000000000E+00  0.14999999963E+04  0.15000000000E+04  0.10566000000E+00 0.  1.
        994   -1    0    0    0    0 -0.00000000000E+00 -0.00000000000E+00  0.11368683772E-12  0.17120000000E+03  0.17120000000E+03 0.  0.
         13    1    1    2    0    0  0.17963465677E+02  0.18388701747E+02  0.11796315736E+03  0.12073171956E+03  0.10566000000E+00 0.  1.
        994    1    1    2    0    0  0.22630678494E+01  0.40092158415E+01  0.32273475386E+01  0.17129229714E+03  0.17120000000E+03 0.  0.
        998    1    1    2    0    0 -0.20226533526E+02 -0.22397917589E+02  0.13788094914E+04  0.13791759833E+04  0.10000000000E+02 0.  1.
</event>
<event>
 5    1  0.1364103E-008  0.3858213E+03  0.7957747E-01  0.3426196E+00
         13   -1    0    0    0    0  0.00000000000E+00  0.00000000000E+00  0.14999999963E+04  0.15000000000E+04  0.10566000000E+00 0. -1.
        994   -1    0    0    0    0 -0.00000000000E+00 -0.00000000000E+00  0.11368683772E-12  0.17120000000E+03  0.17120000000E+03 0.  0.
         13    1    1    2    0    0  0.39601725901E+01  0.92575269765E+01  0.43501662460E+02  0.44651882082E+02  0.10566000000E+00 0. -1.
        994    1    1    2    0    0 -0.31592816269E+01  0.12040725697E+01  0.12604170035E+01  0.17123802003E+03  0.17120000000E+03 0.  0.
        998    1    1    2    0    0 -0.80089096323E+00 -0.10461599546E+02  0.14552379168E+04  0.14553100979E+04  0.10000000000E+02 0. -1.
</event>
<event>
 5    1  0.1364103E-008  0.3969788E+03  0.7957747E-01  0.3380405E+00
         13   -1    0    0    0    0  0.00000000000E+00  0.00000000000E+00  0.14999999963E+04  0.15000000000E+04  0.10566000000E+00 0.  1.
        994   -1    0    0    0    0 -0.00000000000E+00 -0.00000000000E+00  0.11368683772E-12  0.17120000000E+03  0.17120000000E+03 0.  0.
         13    1    1    2    0    0  0.94029740570E+02 -0.20993898099E+02  0.16099611278E+03  0.18762221448E+03  0.10566000000E+00 0.  1.
        994    1    1    2    0    0 -0.80258391515E+02  0.17071677735E+02  0.52524679673E+02  0.19698003341E+03  0.17120000000E+03 0.  0.
        998    1    1    2    0    0 -0.13771349055E+02  0.39222203647E+01  0.12864792038E+04  0.12865977521E+04  0.10000000000E+02 0.  1.
</event>
<event>
 5    1  0.1364103E-008  0.3855151E+03  0.7957747E-01  0.3427491E+00
         13   -1    0    0    0    0  0.00000000000E+00  0.00000000000E+00  0.14999999963E+04  0.15000000000E+04  0.10566000000E+00 0.  1.
        994   -1    0    0    0    0 -0.00000000000E+00 -0.00000000000E+00  0.11368683772E-12  0.17120000000E+03  0.17120000000E+03 0.  0.
         13    1    1    2    0    0  0.10039898120E+02  0.11745695251E+02  0.84136253300E+02  0.85543446239E+02  0.10566000000E+00 0.  1.
        994    1    1    2    0    0 -0.12193801222E+02 -0.90569994531E+01  0.21324875397E+01  0.17188573394E+03  0.17120000000E+03 0.  0.
        998    1    1    2    0    0  0.21539031018E+01 -0.26886957975E+01  0.14137312554E+04  0.14137708198E+04  0.10000000000E+02 0.  1.
</event>
<event>
 5    1  0.1364103E-008  0.3797304E+03  0.7957747E-01  0.3452333E+00
         13   -1    0    0    0    0  0.00000000000E+00  0.00000000000E+00  0.14999999963E+04  0.15000000000E+04  0.10566000000E+00 0. -1.
        994   -1    0    0    0    0 -0.00000000000E+00 -0.00000000000E+00  0.11368683772E-12  0.17120000000E+03  0.17120000000E+03 0.  0.
         13    1    1    2    0    0  0.11975492381E+02 -0.52753975569E+02  0.28307460237E+03  0.28819721724E+03  0.10566000000E+00 0. -1.
        994    1    1    2    0    0 -0.21514843987E+02  0.49106905557E+02  0.13947361330E+02  0.17993983876E+03  0.17120000000E+03 0.  0.
        998    1    1    2    0    0  0.95393516057E+01  0.36470700118E+01  0.12029780326E+04  0.12030629440E+04  0.10000000000E+02 0. -1.
</event>
<event>
 5    1  0.1364103E-008  0.3701437E+03  0.7957747E-01  0.3495231E+00
         13   -1    0    0    0    0  0.00000000000E+00  0.00000000000E+00  0.14999999963E+04  0.15000000000E+04  0.10566000000E+00 0. -1.
        994   -1    0    0    0    0 -0.00000000000E+00 -0.00000000000E+00  0.11368683772E-12  0.17120000000E+03  0.17120000000E+03 0.  0.
         13    1    1    2    0    0 -0.12769971710E+03  0.10204598304E+03  0.66552892649E+03  0.68530968442E+03  0.10566000000E+00 0. -1.
        994    1    1    2    0    0  0.12393962834E+03 -0.94075877859E+02  0.10122275983E+03  0.25252086919E+03  0.17120000000E+03 0.  0.
        998    1    1    2    0    0  0.37600887545E+01 -0.79701051855E+01  0.73324830995E+03  0.73336944639E+03  0.10000000000E+02 0.  0.
</event>
<event>
 5    1  0.1364103E-008  0.3783692E+03  0.7957747E-01  0.3458290E+00
         13   -1    0    0    0    0  0.00000000000E+00  0.00000000000E+00  0.14999999963E+04  0.15000000000E+04  0.10566000000E+00 0.  1.
        994   -1    0    0    0    0 -0.00000000000E+00 -0.00000000000E+00  0.11368683772E-12  0.17120000000E+03  0.17120000000E+03 0.  0.
         13    1    1    2    0    0 -0.62478989457E+02 -0.15914974654E+02  0.32423637753E+03  0.33058455835E+03  0.10566000000E+00 0.  1.
        994    1    1    2    0    0  0.60461106987E+02  0.30881417181E+02  0.20609939010E+02  0.18531976951E+03  0.17120000000E+03 0.  0.
        998    1    1    2    0    0  0.20178824704E+01 -0.14966442527E+02  0.11551536797E+04  0.11552956721E+04  0.10000000000E+02 0.  1.
</event>
<event>
 5    1  0.1364103E-008  0.3745767E+03  0.7957747E-01  0.3475118E+00
         13   -1    0    0    0    0  0.00000000000E+00  0.00000000000E+00  0.14999999963E+04  0.15000000000E+04  0.10566000000E+00 0. -1.
        994   -1    0    0    0    0 -0.00000000000E+00 -0.00000000000E+00  0.11368683772E-12  0.17120000000E+03  0.17120000000E+03 0.  0.
         13    1    1    2    0    0  0.18683660338E+02 -0.35205369355E+01  0.23127515929E+02  0.29939380438E+02  0.10566000000E+00 0. -1.
        994    1    1    2    0    0 -0.18209113052E+02 -0.99347914661E+01  0.83623097211E+01  0.17265468457E+03  0.17120000000E+03 0.  0.
        998    1    1    2    0    0 -0.47454728605E+00  0.13455328402E+02  0.14685101706E+04  0.14686059350E+04  0.10000000000E+02 0. -1.
</event>
<event>
 5    1  0.1364103E-008  0.3813488E+03  0.7957747E-01  0.3445306E+00
         13   -1    0    0    0    0  0.00000000000E+00  0.00000000000E+00  0.14999999963E+04  0.15000000000E+04  0.10566000000E+00 0.  1.
        994   -1    0    0    0    0 -0.00000000000E+00 -0.00000000000E+00  0.11368683772E-12  0.17120000000E+03  0.17120000000E+03 0.  0.
         13    1    1    2    0    0 -0.16689518496E+03  0.29522220775E+02  0.98734014297E+03  0.10017814799E+04  0.10566000000E+00 0.  1.
        994    1    1    2    0    0  0.17083701372E+03 -0.40504074548E+02  0.11394010565E+03  0.27040276069E+03  0.17120000000E+03 0.  0.
        998    1    1    2    0    0 -0.39418287564E+01  0.10981853773E+02  0.39871974766E+03  0.39901575946E+03  0.10000000000E+02 0. -1.
</event>
<event>
 5    1  0.1364103E-008  0.3809047E+03  0.7957747E-01  0.3447229E+00
         13   -1    0    0    0    0  0.00000000000E+00  0.00000000000E+00  0.14999999963E+04  0.15000000000E+04  0.10566000000E+00 0.  1.
        994   -1    0    0    0    0 -0.00000000000E+00 -0.00000000000E+00  0.11368683772E-12  0.17120000000E+03  0.17120000000E+03 0.  0.
         13    1    1    2    0    0  0.35370269843E+02 -0.37832883399E+01  0.18794728513E+03  0.19128398368E+03  0.10566000000E+00 0.  1.
        994    1    1    2    0    0 -0.67910431413E+01  0.18331386149E+02  0.49519135521E+01  0.17238364027E+03  0.17120000000E+03 0.  0.
        998    1    1    2    0    0 -0.28579226702E+02 -0.14548097809E+02  0.13071007976E+04  0.13075323761E+04  0.10000000000E+02 0.  1.
</event>
<event>
 5    1  0.1364103E-008  0.3833765E+03  0.7957747E-01  0.3436587E+00
         13   -1    0    0    0    0  0.00000000000E+00  0.00000000000E+00  0.14999999963E+04  0.15000000000E+04  0.10566000000E+00 0. -1.
        994   -1    0    0    0    0 -0.00000000000E+00 -0.00000000000E+00  0.11368683772E-12  0.17120000000E+03  0.17120000000E+03 0.  0.
         13    1    1    2    0    0  0.11234372965E+02 -0.11909992286E+02  0.57171477370E+02  0.59469723733E+02  0.10566000000E+00 0. -1.
        994    1    1    2    0    0 -0.62440006333E+01 -0.52106670195E+01  0.26570109307E+01  0.17141364678E+03  0.17120000000E+03 0.  0.
        998    1    1    2    0    0 -0.49903723317E+01  0.17120659305E+02  0.14401715080E+04  0.14403166295E+04  0.10000000000E+02 0. -1.
</event>
<event>
 5    1  0.1364103E-008  0.3849957E+03  0.7957747E-01  0.3429691E+00
         13   -1    0    0    0    0  0.00000000000E+00  0.00000000000E+00  0.14999999963E+04  0.15000000000E+04  0.10566000000E+00 0.  1.
        994   -1    0    0    0    0 -0.00000000000E+00 -0.00000000000E+00  0.11368683772E-12  0.17120000000E+03  0.17120000000E+03 0.  0.
         13    1    1    2    0    0 -0.51973574193E+01 -0.19976641320E+02  0.10197807532E+03  0.10404622883E+03  0.10566000000E+00 0.  1.
        994    1    1    2    0    0 -0.16680547572E+02  0.52890962288E+02  0.11813535576E+02  0.18034604011E+03  0.17120000000E+03 0.  0.
        998    1    1    2    0    0  0.21877904991E+02 -0.32914320968E+02  0.13862083854E+04  0.13868077311E+04  0.10000000000E+02 0.  1.
</event>
<event>
 5    1  0.1364103E-008  0.3814918E+03  0.7957747E-01  0.3444689E+00
         13   -1    0    0    0    0  0.00000000000E+00  0.00000000000E+00  0.14999999963E+04  0.15000000000E+04  0.10566000000E+00 0.  1.
        994   -1    0    0    0    0 -0.00000000000E+00 -0.00000000000E+00  0.11368683772E-12  0.17120000000E+03  0.17120000000E+03 0.  0.
         13    1    1    2    0    0  0.86589833374E+01 -0.33162294760E+02  0.15944586009E+03  0.16308804141E+03  0.10566000000E+00 0.  1.
        994    1    1    2    0    0 -0.48500643427E+02  0.22139780310E+02  0.12895932868E+02  0.17977271030E+03  0.17120000000E+03 0.  0.
        998    1    1    2    0    0  0.39841660090E+02  0.11022514450E+02  0.13276582033E+04  0.13283392483E+04  0.10000000000E+02 0.  1.
</event>
<event>
 5    1  0.1364103E-008  0.3820974E+03  0.7957747E-01  0.3442077E+00
         13   -1    0    0    0    0  0.00000000000E+00  0.00000000000E+00  0.14999999963E+04  0.15000000000E+04  0.10566000000E+00 0.  1.
        994   -1    0    0    0    0 -0.00000000000E+00 -0.00000000000E+00  0.11368683772E-12  0.17120000000E+03  0.17120000000E+03 0.  0.
         13    1    1    2    0    0  0.20469446155E+02 -0.20682321440E+02  0.14973779262E+03  0.15253909122E+03  0.10566000000E+00 0.  1.
        994    1    1    2    0    0 -0.47282431970E+01  0.20307718650E+01  0.31660592331E+01  0.17130657970E+03  0.17120000000E+03 0.  0.
        998    1    1    2    0    0 -0.15741202958E+02  0.18651549575E+02  0.13470961444E+04  0.13473543291E+04  0.10000000000E+02 0.  1.
</event>
<event>
 5    1  0.1364103E-008  0.3802789E+03  0.7957747E-01  0.3449945E+00
         13   -1    0    0    0    0  0.00000000000E+00  0.00000000000E+00  0.14999999963E+04  0.15000000000E+04  0.10566000000E+00 0. -1.
        994   -1    0    0    0    0 -0.00000000000E+00 -0.00000000000E+00  0.11368683772E-12  0.17120000000E+03  0.17120000000E+03 0.  0.
         13    1    1    2    0    0 -0.57027639161E+01  0.44594330254E+02  0.26171874149E+03  0.26555204126E+03  0.10566000000E+00 0. -1.
        994    1    1    2    0    0  0.56026845527E+02 -0.19724457734E+02  0.15866861242E+02  0.18190453248E+03  0.17120000000E+03 0.  0.
        998    1    1    2    0    0 -0.50324081611E+02 -0.24869872520E+02  0.12224143935E+04  0.12237434263E+04  0.10000000000E+02 0. -1.
</event>
<event>
 5    1  0.1364103E-008  0.3810065E+03  0.7957747E-01  0.3446788E+00
         13   -1    0    0    0    0  0.00000000000E+00  0.00000000000E+00  0.14999999963E+04  0.15000000000E+04  0.10566000000E+00 0. -1.
        994   -1    0    0    0    0 -0.00000000000E+00 -0.00000000000E+00  0.11368683772E-12  0.17120000000E+03  0.17120000000E+03 0.  0.
         13    1    1    2    0    0 -0.10332012567E+02  0.49706769495E+01  0.16175942785E+02  0.19827516285E+02  0.10566000000E+00 0. -1.
        994    1    1    2    0    0  0.15905618012E+02 -0.89215544570E+01  0.47348344148E+01  0.17223368275E+03  0.17120000000E+03 0.  0.
        998    1    1    2    0    0 -0.55736054450E+01  0.39508775075E+01  0.14790892191E+04  0.14791388010E+04  0.10000000000E+02 0. -1.
</event>
<event>
 5    1  0.1364103E-008  0.3787598E+03  0.7957747E-01  0.3456577E+00
         13   -1    0    0    0    0  0.00000000000E+00  0.00000000000E+00  0.14999999963E+04  0.15000000000E+04  0.10566000000E+00 0.  1.
        994   -1    0    0    0    0 -0.00000000000E+00 -0.00000000000E+00  0.11368683772E-12  0.17120000000E+03  0.17120000000E+03 0.  0.
         13    1    1    2    0    0  0.37283586888E+02 -0.25264142259E+02  0.27106673668E+03  0.27478269530E+03  0.10566000000E+00 0.  1.
        994    1    1    2    0    0  0.21946951912E+02  0.31983411947E+02  0.98276210930E+01  0.17581419020E+03  0.17120000000E+03 0.  0.
        998    1    1    2    0    0 -0.59230538800E+02 -0.67192696881E+01  0.12191056385E+04  0.12206031145E+04  0.10000000000E+02 0.  1.
</event>
<event>
 5    1  0.1364103E-008  0.3846732E+03  0.7957747E-01  0.3431059E+00
         13   -1    0    0    0    0  0.00000000000E+00  0.00000000000E+00  0.14999999963E+04  0.15000000000E+04  0.10566000000E+00 0. -1.
        994   -1    0    0    0    0 -0.00000000000E+00 -0.00000000000E+00  0.11368683772E-12  0.17120000000E+03  0.17120000000E+03 0.  0.
         13    1    1    2    0    0  0.11885626788E+02 -0.54541721377E+01  0.46421185600E+02  0.48228142763E+02  0.10566000000E+00 0. -1.
        994    1    1    2    0    0 -0.14627393051E+02 -0.27594300386E+00  0.24974328736E+01  0.17184211923E+03  0.17120000000E+03 0.  0.
        998    1    1    2    0    0  0.27417662625E+01  0.57301151416E+01  0.14510813778E+04  0.14511297380E+04  0.10000000000E+02 0. -1.
</event>
<event>
 5    1  0.1364103E-008  0.3836110E+03  0.7957747E-01  0.3435584E+00
         13   -1    0    0    0    0  0.00000000000E+00  0.00000000000E+00  0.14999999963E+04  0.15000000000E+04  0.10566000000E+00 0.  1.
        994   -1    0    0    0    0 -0.00000000000E+00 -0.00000000000E+00  0.11368683772E-12  0.17120000000E+03  0.17120000000E+03 0.  0.
         13    1    1    2    0    0  0.10078543599E+02 -0.15204612248E+02  0.69613305357E+02  0.71963745883E+02  0.10566000000E+00 0.  1.
        994    1    1    2    0    0 -0.12074981573E+02  0.10725937904E+02  0.31835022850E+01  0.17198960902E+03  0.17120000000E+03 0.  0.
        998    1    1    2    0    0  0.19964379742E+01  0.44786743440E+01  0.14272031886E+04  0.14272466451E+04  0.10000000000E+02 0.  1.
</event>
<event>
 5    1  0.1364103E-008  0.3842364E+03  0.7957747E-01  0.3432917E+00
         13   -1    0    0    0    0  0.00000000000E+00  0.00000000000E+00  0.14999999963E+04  0.15000000000E+04  0.10566000000E+00 0. -1.
        994   -1    0    0    0    0 -0.00000000000E+00 -0.00000000000E+00  0.11368683772E-12  0.17120000000E+03  0.17120000000E+03 0.  0.
         13    1    1    2    0    0 -0.12347247339E+02  0.85405673478E+00  0.38357743699E+02  0.40305230373E+02  0.10566000000E+00 0. -1.
        994    1    1    2    0    0  0.48376205414E+01  0.73278027297E+01  0.22639733687E+01  0.17143997445E+03  0.17120000000E+03 0.  0.
        998    1    1    2    0    0  0.75096267978E+01 -0.81818594644E+01  0.14593782792E+04  0.14594547952E+04  0.10000000000E+02 0. -1.
</event>
<event>
 5    1  0.1364103E-008  0.3832326E+03  0.7957747E-01  0.3437203E+00
         13   -1    0    0    0    0  0.00000000000E+00  0.00000000000E+00  0.14999999963E+04  0.15000000000E+04  0.10566000000E+00 0.  1.
        994   -1    0    0    0    0 -0.00000000000E+00 -0.00000000000E+00  0.11368683772E-12  0.17120000000E+03  0.17120000000E+03 0.  0.
         13    1    1    2    0    0 -0.73024931945E+01 -0.68347149400E+01  0.18826829367E+02  0.21319015062E+02  0.10566000000E+00 0.  1.
        994    1    1    2    0    0  0.82460058853E+01  0.58928890861E+01  0.28500300808E+01  0.17152342530E+03  0.17120000000E+03 0.  0.
        998    1    1    2    0    0 -0.94351269077E+00  0.94182585388E+00  0.14783231368E+04  0.14783575596E+04  0.10000000000E+02 0.  1.
</event>
<event>
 5    1  0.1364103E-008  0.3699448E+03  0.7957747E-01  0.3496145E+00
         13   -1    0    0    0    0  0.00000000000E+00  0.00000000000E+00  0.14999999963E+04  0.15000000000E+04  0.10566000000E+00 0. -1.
        994   -1    0    0    0    0 -0.00000000000E+00 -0.00000000000E+00  0.11368683772E-12  0.17120000000E+03  0.17120000000E+03 0.  0.
         13    1    1    2    0    0 -0.61853419212E+02 -0.25498036485E+02  0.18518699732E+03  0.19690157559E+03  0.10566000000E+00 0. -1.
        994    1    1    2    0    0  0.84124227619E+02  0.31617478347E+02  0.37771984665E+02  0.19700942474E+03  0.17120000000E+03 0.  0.
        998    1    1    2    0    0 -0.22270808408E+02 -0.61194418622E+01  0.12770410143E+04  0.12772889997E+04  0.10000000000E+02 0. -1.
</event>
<event>
 5    1  0.1364103E-008  0.3755196E+03  0.7957747E-01  0.3470902E+00
         13   -1    0    0    0    0  0.00000000000E+00  0.00000000000E+00  0.14999999963E+04  0.15000000000E+04  0.10566000000E+00 0.  1.
        994   -1    0    0    0    0 -0.00000000000E+00 -0.00000000000E+00  0.11368683772E-12  0.17120000000E+03  0.17120000000E+03 0.  0.
         13    1    1    2    0    0 -0.18597765107E+02 -0.19192310555E+02  0.68397444918E+02  0.73433257362E+02  0.10566000000E+00 0.  1.
        994    1    1    2    0    0 -0.14510241921E+02 -0.56549222208E+02  0.18066671954E+02  0.18178065433E+03  0.17120000000E+03 0.  0.
        998    1    1    2    0    0  0.33108007028E+02  0.75741532763E+02  0.14135358794E+04  0.14159860883E+04  0.10000000000E+02 0.  1.
</event>
<event>
 5    1  0.1364103E-008  0.3840911E+03  0.7957747E-01  0.3433536E+00
         13   -1    0    0    0    0  0.00000000000E+00  0.00000000000E+00  0.14999999963E+04  0.15000000000E+04  0.10566000000E+00 0.  1.
        994   -1    0    0    0    0 -0.00000000000E+00 -0.00000000000E+00  0.11368683772E-12  0.17120000000E+03  0.17120000000E+03 0.  0.
         13    1    1    2    0    0  0.41804412099E+01 -0.11821576095E+02  0.36638555293E+02  0.38724935740E+02  0.10566000000E+00 0.  1.
        994    1    1    2    0    0 -0.14762210806E+01  0.12537418467E+02  0.26078992477E+01  0.17168461559E+03  0.17120000000E+03 0.  0.
        998    1    1    2    0    0 -0.27042201293E+01 -0.71584237210E+00  0.14607535417E+04  0.14607904487E+04  0.10000000000E+02 0.  1.
</event>
<event>
 5    1  0.1364103E-008  0.3792465E+03  0.7957747E-01  0.3454446E+00
         13   -1    0    0    0    0  0.00000000000E+00  0.00000000000E+00  0.14999999963E+04  0.15000000000E+04  0.10566000000E+00 0. -1.
        994   -1    0    0    0    0 -0.00000000000E+00 -0.00000000000E+00  0.11368683772E-12  0.17120000000E+03  0.17120000000E+03 0.  0.
         13    1    1    2    0    0 -0.19370980748E+02  0.67205843241E+02  0.37947836479E+03  0.38587005685E+03  0.10566000000E+00 0. -1.
        994    1    1    2    0    0 -0.11759195353E+02 -0.85053088810E+02  0.29630838991E+02  0.19380333643E+03  0.17120000000E+03 0.  0.
        998    1    1    2    0    0  0.31130176101E+02  0.17847245568E+02  0.10908907925E+04  0.10915266067E+04  0.10000000000E+02 0. -1.
</event>
<event>
 5    1  0.1364103E-008  0.3823892E+03  0.7957747E-01  0.3440821E+00
         13   -1    0    0    0    0  0.00000000000E+00  0.00000000000E+00  0.14999999963E+04  0.15000000000E+04  0.10566000000E+00 0. -1.
        994   -1    0    0    0    0 -0.00000000000E+00 -0.00000000000E+00  0.11368683772E-12  0.17120000000E+03  0.17120000000E+03 0.  0.
         13    1    1    2    0    0  0.67791372456E+01  0.11291009198E+02  0.28042451829E+02  0.30981185567E+02  0.10566000000E+00 0. -1.
        994    1    1    2    0    0 -0.61420821217E+01 -0.12588085823E+02  0.35828689401E+01  0.17180937701E+03  0.17120000000E+03 0.  0.
        998    1    1    2    0    0 -0.63705512391E+00  0.12970766254E+01  0.14683746755E+04  0.14684094374E+04  0.10000000000E+02 0. -1.
</event>
<event>
 5    1  0.1364103E-008  0.3830420E+03  0.7957747E-01  0.3438019E+00
         13   -1    0    0    0    0  0.00000000000E+00  0.00000000000E+00  0.14999999963E+04  0.15000000000E+04  0.10566000000E+00 0. -1.
        994   -1    0    0    0    0 -0.00000000000E+00 -0.00000000000E+00  0.11368683772E-12  0.17120000000E+03  0.17120000000E+03 0.  0.
         13    1    1    2    0    0  0.19251868858E+02  0.54770632933E-01  0.69829263197E+02  0.72434623054E+02  0.10566000000E+00 0. -1.
        994    1    1    2    0    0 -0.13848397240E+02 -0.87204896768E+00  0.32428709261E+01  0.17179201025E+03  0.17120000000E+03 0.  0.
        998    1    1    2    0    0 -0.54034716182E+01  0.81727833475E+00  0.14269278622E+04  0.14269733667E+04  0.10000000000E+02 0. -1.
</event>
<event>
 5    1  0.1364103E-008  0.3817958E+03  0.7957747E-01  0.3443376E+00
         13   -1    0    0    0    0  0.00000000000E+00  0.00000000000E+00  0.14999999963E+04  0.15000000000E+04  0.10566000000E+00 0.  1.
        994   -1    0    0    0    0 -0.00000000000E+00 -0.00000000000E+00  0.11368683772E-12  0.17120000000E+03  0.17120000000E+03 0.  0.
         13    1    1    2    0    0  0.29410518679E+02 -0.32056298331E+01  0.13618852580E+03  0.13936491809E+03  0.10566000000E+00 0.  1.
        994    1    1    2    0    0 -0.14882385567E+02  0.96336183947E+01  0.42745122193E+01  0.17216853214E+03  0.17120000000E+03 0.  0.
        998    1    1    2    0    0 -0.14528133112E+02 -0.64279885617E+01  0.13595369583E+04  0.13596665498E+04  0.10000000000E+02 0.  1.
</event>
<event>
 5    1  0.1364103E-008  0.3827990E+03  0.7957747E-01  0.3439061E+00
         13   -1    0    0    0    0  0.00000000000E+00  0.00000000000E+00  0.14999999963E+04  0.15000000000E+04  0.10566000000E+00 0. -1.
        994   -1    0    0    0    0 -0.00000000000E+00 -0.00000000000E+00  0.11368683772E-12  0.17120000000E+03  0.17120000000E+03 0.  0.
         13    1    1    2    0    0 -0.98632804886E+01 -0.56239370177E+01  0.22243519680E+02  0.24973952458E+02  0.10566000000E+00 0. -1.
        994    1    1    2    0    0  0.99826286915E+01  0.94567979279E+01  0.33534046937E+01  0.17178407733E+03  0.17120000000E+03 0.  0.
        998    1    1    2    0    0 -0.11934820286E+00 -0.38328609103E+01  0.14744030719E+04  0.14744419702E+04  0.10000000000E+02 0. -1.
</event>
<event>
 5    1  0.1364103E-008  0.3857432E+03  0.7957747E-01  0.3426526E+00
         13   -1    0    0    0    0  0.00000000000E+00  0.00000000000E+00  0.14999999963E+04  0.15000000000E+04  0.10566000000E+00 0.  1.
        994   -1    0    0    0    0 -0.00000000000E+00 -0.00000000000E+00  0.11368683772E-12  0.17120000000E+03  0.17120000000E+03 0.  0.
         13    1    1    2    0    0 -0.10422300950E+02  0.67106058805E+01  0.63560380582E+02  0.64757931809E+02  0.10566000000E+00 0.  1.
        994    1    1    2    0    0  0.56688229087E+01  0.25069978217E+01  0.13876564942E+01  0.17131779295E+03  0.17120000000E+03 0.  0.
        998    1    1    2    0    0  0.47534780413E+01 -0.92176037022E+01  0.14350519592E+04  0.14351242752E+04  0.10000000000E+02 0.  1.
</event>
<event>
 5    1  0.1364103E-008  0.3814987E+03  0.7957747E-01  0.3444659E+00
         13   -1    0    0    0    0  0.00000000000E+00  0.00000000000E+00  0.14999999963E+04  0.15000000000E+04  0.10566000000E+00 0.  1.
        994   -1    0    0    0    0 -0.00000000000E+00 -0.00000000000E+00  0.11368683772E-12  0.17120000000E+03  0.17120000000E+03 0.  0.
         13    1    1    2    0    0 -0.20477820424E+02 -0.28375492305E+02  0.17605437622E+03  0.17949836836E+03  0.10566000000E+00 0.  1.
        994    1    1    2    0    0  0.72300223422E+01  0.23803572295E+02  0.54399387898E+01  0.17308355269E+03  0.17120000000E+03 0.  0.
        998    1    1    2    0    0  0.13247798082E+02  0.45719200094E+01  0.13185056813E+04  0.13186180790E+04  0.10000000000E+02 0.  1.
</event>
<event>
 5    1  0.1364103E-008  0.3704606E+03  0.7957747E-01  0.3493777E+00
         13   -1    0    0    0    0  0.00000000000E+00  0.00000000000E+00  0.14999999963E+04  0.15000000000E+04  0.10566000000E+00 0.  1.
        994   -1    0    0    0    0 -0.00000000000E+00 -0.00000000000E+00  0.11368683772E-12  0.17120000000E+03  0.17120000000E+03 0.  0.
         13    1    1    2    0    0 -0.29657642202E+02  0.26922036565E+02  0.67523976260E+02  0.78510319881E+02  0.10566000000E+00 0.  1.
        994    1    1    2    0    0  0.24597732122E+02 -0.13155508431E+02  0.13912064065E+02  0.17401465845E+03  0.17120000000E+03 0.  0.
        998    1    1    2    0    0  0.50599100799E+01 -0.13766528134E+02  0.14185639560E+04  0.14186750217E+04  0.10000000000E+02 0.  1.
</event>
<event>
 5    1  0.1364103E-008  0.3763668E+03  0.7957747E-01  0.3467132E+00
         13   -1    0    0    0    0  0.00000000000E+00  0.00000000000E+00  0.14999999963E+04  0.15000000000E+04  0.10566000000E+00 0. -1.
        994   -1    0    0    0    0 -0.00000000000E+00 -0.00000000000E+00  0.11368683772E-12  0.17120000000E+03  0.17120000000E+03 0.  0.
         13    1    1    2    0    0 -0.26231076741E+02 -0.19450547859E+02  0.85068377527E+02  0.91120981218E+02  0.10566000000E+00 0. -1.
        994    1    1    2    0    0  0.25085012330E+02  0.94908747233E+01  0.84162627145E+01  0.17349238607E+03  0.17120000000E+03 0.  0.
        998    1    1    2    0    0  0.11460644109E+01  0.99596731361E+01  0.14065153560E+04  0.14065866327E+04  0.10000000000E+02 0. -1.
</event>
<event>
 5    1  0.1364103E-008  0.3823253E+03  0.7957747E-01  0.3441096E+00
         13   -1    0    0    0    0  0.00000000000E+00  0.00000000000E+00  0.14999999963E+04  0.15000000000E+04  0.10566000000E+00 0.  1.
        994   -1    0    0    0    0 -0.00000000000E+00 -0.00000000000E+00  0.11368683772E-12  0.17120000000E+03  0.17120000000E+03 0.  0.
         13    1    1    2    0    0 -0.23942595938E+03 -0.89870932369E+02  0.96370218443E+03  0.99705741356E+03  0.10566000000E+00 0.  1.
        994    1    1    2    0    0  0.25988878928E+03  0.83872903121E+02  0.31191760519E+03  0.44852968586E+03  0.17120000000E+03 0.  0.
        998    1    1    2    0    0 -0.20462829900E+02  0.59980292477E+01  0.22438020667E+03  0.22561290057E+03  0.10000000000E+02 0. -1.
</event>
<event>
 5    1  0.1364103E-008  0.3842260E+03  0.7957747E-01  0.3432962E+00
         13   -1    0    0    0    0  0.00000000000E+00  0.00000000000E+00  0.14999999963E+04  0.15000000000E+04  0.10566000000E+00 0. -1.
        994   -1    0    0    0    0 -0.00000000000E+00 -0.00000000000E+00  0.11368683772E-12  0.17120000000E+03  0.17120000000E+03 0.  0.
         13    1    1    2    0    0  0.45287088958E+00  0.11080906924E+02  0.28745898028E+02  0.30811189652E+02  0.10566000000E+00 0. -1.
        994    1    1    2    0    0  0.15058666624E+01 -0.18485811949E+02  0.31498527956E+01  0.17223052706E+03  0.17120000000E+03 0.  0.
        998    1    1    2    0    0 -0.19587375520E+01  0.74049050243E+01  0.14681042455E+04  0.14681582833E+04  0.10000000000E+02 0. -1.
</event>
<event>
 5    1  0.1364103E-008  0.3844867E+03  0.7957747E-01  0.3431852E+00
         13   -1    0    0    0    0  0.00000000000E+00  0.00000000000E+00  0.14999999963E+04  0.15000000000E+04  0.10566000000E+00 0. -1.
        994   -1    0    0    0    0 -0.00000000000E+00 -0.00000000000E+00  0.11368683772E-12  0.17120000000E+03  0.17120000000E+03 0.  0.
         13    1    1    2    0    0  0.10746187518E+02  0.19641288802E+02  0.13166883483E+03  0.13355880354E+03  0.10566000000E+00 0. -1.
        994    1    1    2    0    0 -0.83710087052E+01 -0.12214588410E+02  0.26078174834E+01  0.17185898484E+03  0.17120000000E+03 0.  0.
        998    1    1    2    0    0 -0.23751788126E+01 -0.74267003925E+01  0.13657233440E+04  0.13657822116E+04  0.10000000000E+02 0. -1.
</event>
<event>
 5    1  0.1601462E-008  0.3860741E+03  0.7957747E-01  0.3425130E+00
         13   -1    0    0    0    0  0.00000000000E+00  0.00000000000E+00  0.14999999963E+04  0.15000000000E+04  0.10566000000E+00 0. -1.
        994   -1    0    0    0    0 -0.00000000000E+00 -0.00000000000E+00  0.11368683772E-12  0.17120000000E+03  0.17120000000E+03 0.  0.
         13    1    1    2    0    0  0.45770438250E+01  0.11308708830E+02  0.62967229344E+02  0.64138283114E+02  0.10566000000E+00 0. -1.
        994    1    1    2    0    0 -0.42590510628E+01 -0.19658033177E+02  0.24248315614E+01  0.17239459850E+03  0.17120000000E+03 0.  0.
        998    1    1    2    0    0 -0.31799276217E+00  0.83493243471E+01  0.14346079354E+04  0.14346671184E+04  0.10000000000E+02 0. -1.
</event>
<event>
 5    1  0.1364103E-008  0.3739331E+03  0.7957747E-01  0.3478008E+00
         13   -1    0    0    0    0  0.00000000000E+00  0.00000000000E+00  0.14999999963E+04  0.15000000000E+04  0.10566000000E+00 0. -1.
        994   -1    0    0    0    0 -0.00000000000E+00 -0.00000000000E+00  0.11368683772E-12  0.17120000000E+03  0.17120000000E+03 0.  0.
         13    1    1    2    0    0 -0.47829010835E+02  0.30259001047E+02  0.27576307628E+03  0.28151111315E+03  0.10566000000E+00 0. -1.
        994    1    1    2    0    0  0.19133089783E+02  0.26303833167E+02  0.10845347062E+02  0.17459962290E+03  0.17120000000E+03 0.  0.
        998    1    1    2    0    0  0.28695921052E+02 -0.56562834215E+02  0.12133915729E+04  0.12150892640E+04  0.10000000000E+02 0. -1.
</event>
<event>
 5    1  0.1364103E-008  0.3805803E+03  0.7957747E-01  0.3448636E+00
         13   -1    0    0    0    0  0.00000000000E+00  0.00000000000E+00  0.14999999963E+04  0.15000000000E+04  0.10566000000E+00 0.  1.
        994   -1    0    0    0    0 -0.00000000000E+00 -0.00000000000E+00  0.11368683772E-12  0.17120000000E+03  0.17120000000E+03 0.  0.
         13    1    1    2    0    0  0.28355315630E+00 -0.13322522518E+02  0.21276690384E+02  0.25105352544E+02  0.10566000000E+00 0.  1.
        994    1    1    2    0    0  0.17342009178E+00  0.13818150944E+02  0.44779286063E+01  0.17181520077E+03  0.17120000000E+03 0.  0.
        998    1    1    2    0    0 -0.45697324808E+00 -0.49562842563E+00  0.14742453773E+04  0.14742794467E+04  0.10000000000E+02 0.  1.
</event>
<event>
 5    1  0.1364103E-008  0.3849799E+03  0.7957747E-01  0.3429758E+00
         13   -1    0    0    0    0  0.00000000000E+00  0.00000000000E+00  0.14999999963E+04  0.15000000000E+04  0.10566000000E+00 0. -1.
        994   -1    0    0    0    0 -0.00000000000E+00 -0.00000000000E+00  0.11368683772E-12  0.17120000000E+03  0.17120000000E+03 0.  0.
         13    1    1    2    0    0  0.75671430662E+01 -0.14613342735E+02  0.84470718301E+02  0.86058845301E+02  0.10566000000E+00 0. -1.
        994    1    1    2    0    0  0.10969628430E+01  0.91207397259E+01  0.19177316851E+01  0.17145701769E+03  0.17120000000E+03 0.  0.
        998    1    1    2    0    0 -0.86641059093E+01  0.54926030092E+01  0.14136115463E+04  0.14136841370E+04  0.10000000000E+02 0. -1.
</event>
<event>
 5    1  0.1364103E-008  0.3766907E+03  0.7957747E-01  0.3465696E+00
         13   -1    0    0    0    0  0.00000000000E+00  0.00000000000E+00  0.14999999963E+04  0.15000000000E+04  0.10566000000E+00 0.  1.
        994   -1    0    0    0    0 -0.00000000000E+00 -0.00000000000E+00  0.11368683772E-12  0.17120000000E+03  0.17120000000E+03 0.  0.
         13    1    1    2    0    0 -0.11449433041E+02  0.83295411590E+02  0.22588953779E+03  0.24102968605E+03  0.10566000000E+00 0.  1.
        994    1    1    2    0    0  0.14299656537E+02 -0.61359031712E+02  0.28872352262E+02  0.18469559733E+03  0.17120000000E+03 0.  0.
        998    1    1    2    0    0 -0.28502234958E+01 -0.21936379878E+02  0.12452381062E+04  0.12454747166E+04  0.10000000000E+02 0.  1.
</event>
<event>
 5    1  0.1364103E-008  0.3776703E+03  0.7957747E-01  0.3461365E+00
         13   -1    0    0    0    0  0.00000000000E+00  0.00000000000E+00  0.14999999963E+04  0.15000000000E+04  0.10566000000E+00 0. -1.
        994   -1    0    0    0    0 -0.00000000000E+00 -0.00000000000E+00  0.11368683772E-12  0.17120000000E+03  0.17120000000E+03 0.  0.
         13    1    1    2    0    0  0.66167814123E+01 -0.96464014472E+01  0.10556128027E+02  0.15756835345E+02  0.10566000000E+00 0. -1.
        994    1    1    2    0    0 -0.90708793737E+00  0.68784057641E+01  0.54759688700E+01  0.17142800678E+03  0.17120000000E+03 0.  0.
        998    1    1    2    0    0 -0.57096934749E+01  0.27679956831E+01  0.14839678994E+04  0.14840151579E+04  0.10000000000E+02 0. -1.
</event>
<event>
 5    1  0.1364103E-008  0.3797295E+03  0.7957747E-01  0.3452337E+00
         13   -1    0    0    0    0  0.00000000000E+00  0.00000000000E+00  0.14999999963E+04  0.15000000000E+04  0.10566000000E+00 0. -1.
        994   -1    0    0    0    0 -0.00000000000E+00 -0.00000000000E+00  0.11368683772E-12  0.17120000000E+03  0.17120000000E+03 0.  0.
         13    1    1    2    0    0  0.63665926653E+01 -0.14638401955E+02  0.27526998740E+02  0.31820797250E+02  0.10566000000E+00 0. -1.
        994    1    1    2    0    0 -0.72226133677E+01  0.16652149189E+02  0.53728455451E+01  0.17224333858E+03  0.17120000000E+03 0.  0.
        998    1    1    2    0    0  0.85602070238E+00 -0.20137472340E+01  0.14671001520E+04  0.14671358642E+04  0.10000000000E+02 0. -1.
</event>
<event>
 5    1  0.1364103E-008  0.3856124E+03  0.7957747E-01  0.3427079E+00
         13   -1    0    0    0    0  0.00000000000E+00  0.00000000000E+00  0.14999999963E+04  0.15000000000E+04  0.10566000000E+00 0. -1.
        994   -1    0    0    0    0 -0.00000000000E+00 -0.00000000000E+00  0.11368683772E-12  0.17120000000E+03  0.17120000000E+03 0.  0.
         13    1    1    2    0    0  0.69456136898E+01  0.11109453949E+02  0.66868648173E+02  0.68140214184E+02  0.10566000000E+00 0. -1.
        994    1    1    2    0    0  0.33654896312E+01 -0.80529379042E+01  0.15764663735E+01  0.17142958197E+03  0.17120000000E+03 0.  0.
        998    1    1    2    0    0 -0.10311103321E+02 -0.30565160447E+01  0.14315548817E+04  0.14316302038E+04  0.10000000000E+02 0. -1.
</event>
<event>
 5    1  0.1364103E-008  0.3833182E+03  0.7957747E-01  0.3436836E+00
         13   -1    0    0    0    0  0.00000000000E+00  0.00000000000E+00  0.14999999963E+04  0.15000000000E+04  0.10566000000E+00 0.  1.
        994   -1    0    0    0    0 -0.00000000000E+00 -0.00000000000E+00  0.11368683772E-12  0.17120000000E+03  0.17120000000E+03 0.  0.
         13    1    1    2    0    0  0.10356482621E+02  0.10026752512E+02  0.40719281613E+02  0.43195642805E+02  0.10566000000E+00 0.  1.
        994    1    1    2    0    0 -0.11882309001E+02 -0.70772747706E+01  0.31001842175E+01  0.17178570437E+03  0.17120000000E+03 0.  0.
        998    1    1    2    0    0  0.15258263790E+01 -0.29494777413E+01  0.14561805304E+04  0.14562186528E+04  0.10000000000E+02 0.  1.
</event>
<event>
 5    1  0.1364103E-008  0.3827538E+03  0.7957747E-01  0.3439255E+00
         13   -1    0    0    0    0  0.00000000000E+00  0.00000000000E+00  0.14999999963E+04  0.15000000000E+04  0.10566000000E+00 0.  1.
        994   -1    0    0    0    0 -0.00000000000E+00 -0.00000000000E+00  0.11368683772E-12  0.17120000000E+03  0.17120000000E+03 0.  0.
         13    1    1    2    0    0  0.73110797418E+01  0.11514123191E+02  0.33538046460E+02  0.36205505717E+02  0.10566000000E+00 0.  1.
        994    1    1    2    0    0  0.19947139779E+00 -0.49346523601E+01  0.28302770136E+01  0.17129460310E+03  0.17120000000E+03 0.  0.
        998    1    1    2    0    0 -0.75105511396E+01 -0.65794708305E+01  0.14636316728E+04  0.14636998912E+04  0.10000000000E+02 0.  1.
</event>
<event>
 5    1  0.1364103E-008  0.3815524E+03  0.7957747E-01  0.3444427E+00
         13   -1    0    0    0    0  0.00000000000E+00  0.00000000000E+00  0.14999999963E+04  0.15000000000E+04  0.10566000000E+00 0. -1.
        994   -1    0    0    0    0 -0.00000000000E+00 -0.00000000000E+00  0.11368683772E-12  0.17120000000E+03  0.17120000000E+03 0.  0.
         13    1    1    2    0    0 -0.12526699968E+02  0.15963150564E+02  0.58352386203E+02  0.61779871541E+02  0.10566000000E+00 0. -1.
        994    1    1    2    0    0  0.35259354709E+01 -0.23395850175E+02  0.52155888117E+01  0.17290587148E+03  0.17120000000E+03 0.  0.
        998    1    1    2    0    0  0.90007644968E+01  0.74326996111E+01  0.14364320213E+04  0.14365142570E+04  0.10000000000E+02 0. -1.
</event>
<event>
 5    1  0.1364103E-008  0.3856089E+03  0.7957747E-01  0.3427094E+00
         13   -1    0    0    0    0  0.00000000000E+00  0.00000000000E+00  0.14999999963E+04  0.15000000000E+04  0.10566000000E+00 0.  1.
        994   -1    0    0    0    0 -0.00000000000E+00 -0.00000000000E+00  0.11368683772E-12  0.17120000000E+03  0.17120000000E+03 0.  0.
         13    1    1    2    0    0 -0.16321873945E+01  0.10419126033E+02  0.41897680600E+02  0.43204733846E+02  0.10566000000E+00 0.  1.
        994    1    1    2    0    0  0.51295267622E+01 -0.71787468575E+01  0.15837004331E+01  0.17143451974E+03  0.17120000000E+03 0.  0.
        998    1    1    2    0    0 -0.34973393677E+01 -0.32403791753E+01  0.14565186152E+04  0.14565607464E+04  0.10000000000E+02 0.  1.
</event>
<event>
 5    1  0.1364103E-008  0.3854684E+03  0.7957747E-01  0.3427688E+00
         13   -1    0    0    0    0  0.00000000000E+00  0.00000000000E+00  0.14999999963E+04  0.15000000000E+04  0.10566000000E+00 0.  1.
        994   -1    0    0    0    0 -0.00000000000E+00 -0.00000000000E+00  0.11368683772E-12  0.17120000000E+03  0.17120000000E+03 0.  0.
         13    1    1    2    0    0 -0.24182934282E+01  0.15055705411E+02  0.79323406522E+02  0.80775840415E+02  0.10566000000E+00 0.  1.
        994    1    1    2    0    0  0.13026587586E+01 -0.16956239933E+02  0.23480011540E+01  0.17205860659E+03  0.17120000000E+03 0.  0.
        998    1    1    2    0    0  0.11156346696E+01  0.19005345218E+01  0.14183285886E+04  0.14183655530E+04  0.10000000000E+02 0.  1.
</event>
<event>
 5    1  0.1364103E-008  0.3860235E+03  0.7957747E-01  0.3425343E+00
         13   -1    0    0    0    0  0.00000000000E+00  0.00000000000E+00  0.14999999963E+04  0.15000000000E+04  0.10566000000E+00 0. -1.
        994   -1    0    0    0    0 -0.00000000000E+00 -0.00000000000E+00  0.11368683772E-12  0.17120000000E+03  0.17120000000E+03 0.  0.
         13    1    1    2    0    0 -0.10800463683E+02 -0.29815432041E+01  0.61494950509E+02  0.62507437299E+02  0.10566000000E+00 0. -1.
        994    1    1    2    0    0  0.47386491452E+00 -0.14139274983E+02  0.17791462923E+01  0.17179275016E+03  0.17120000000E+03 0.  0.
        998    1    1    2    0    0  0.10326598769E+02  0.17120818187E+02  0.14367258995E+04  0.14368998125E+04  0.10000000000E+02 0. -1.
</event>
<event>
 5    1  0.1364103E-008  0.3718870E+03  0.7957747E-01  0.3487263E+00
         13   -1    0    0    0    0  0.00000000000E+00  0.00000000000E+00  0.14999999963E+04  0.15000000000E+04  0.10566000000E+00 0. -1.
        994   -1    0    0    0    0 -0.00000000000E+00 -0.00000000000E+00  0.11368683772E-12  0.17120000000E+03  0.17120000000E+03 0.  0.
         13    1    1    2    0    0  0.98386491210E+02  0.14363122843E+03  0.64131855800E+03  0.66452940900E+03  0.10566000000E+00 0. -1.
        994    1    1    2    0    0 -0.96031608237E+02 -0.14435446431E+03  0.12672798518E+03  0.27464468568E+03  0.17120000000E+03 0.  0.
        998    1    1    2    0    0 -0.23548829729E+01  0.72323587986E+00  0.73195345310E+03  0.73202590531E+03  0.10000000000E+02 0.  0.
</event>
<event>
 5    1  0.1364103E-008  0.3821595E+03  0.7957747E-01  0.3441809E+00
         13   -1    0    0    0    0  0.00000000000E+00  0.00000000000E+00  0.14999999963E+04  0.15000000000E+04  0.10566000000E+00 0.  1.
        994   -1    0    0    0    0 -0.00000000000E+00 -0.00000000000E+00  0.11368683772E-12  0.17120000000E+03  0.17120000000E+03 0.  0.
         13    1    1    2    0    0  0.65274458314E+01 -0.25084235222E+02  0.11220925753E+03  0.11516403538E+03  0.10566000000E+00 0.  1.
        994    1    1    2    0    0 -0.37331505244E+00  0.11859070769E+02  0.35143813378E+01  0.17164663644E+03  0.17120000000E+03 0.  0.
        998    1    1    2    0    0 -0.61541307789E+01  0.13225164453E+02  0.13842763574E+04  0.13843893282E+04  0.10000000000E+02 0.  1.
</event>
<event>
 5    1  0.1364103E-008  0.3795571E+03  0.7957747E-01  0.3453089E+00
         13   -1    0    0    0    0  0.00000000000E+00  0.00000000000E+00  0.14999999963E+04  0.15000000000E+04  0.10566000000E+00 0. -1.
        994   -1    0    0    0    0 -0.00000000000E+00 -0.00000000000E+00  0.11368683772E-12  0.17120000000E+03  0.17120000000E+03 0.  0.
         13    1    1    2    0    0 -0.44248303494E+02 -0.11955078990E+02  0.21505800603E+03  0.21988813838E+03  0.10566000000E+00 0. -1.
        994    1    1    2    0    0  0.41962475821E+02  0.21354095709E+01  0.10289891443E+02  0.17658066490E+03  0.17120000000E+03 0.  0.
        998    1    1    2    0    0  0.22858276724E+01  0.98196694191E+01  0.12746520988E+04  0.12747311967E+04  0.10000000000E+02 0. -1.
</event>
<event>
 5    1  0.1364103E-008  0.3830213E+03  0.7957747E-01  0.3438108E+00
         13   -1    0    0    0    0  0.00000000000E+00  0.00000000000E+00  0.14999999963E+04  0.15000000000E+04  0.10566000000E+00 0.  1.
        994   -1    0    0    0    0 -0.00000000000E+00 -0.00000000000E+00  0.11368683772E-12  0.17120000000E+03  0.17120000000E+03 0.  0.
         13    1    1    2    0    0  0.11515516273E+02 -0.31090781417E+02  0.17799923680E+03  0.18106071708E+03  0.10566000000E+00 0.  1.
        994    1    1    2    0    0 -0.69649037104E+01  0.39072811779E+02  0.78469901216E+01  0.17591534827E+03  0.17120000000E+03 0.  0.
        998    1    1    2    0    0 -0.45506125623E+01 -0.79820303622E+01  0.13141537694E+04  0.13142239346E+04  0.10000000000E+02 0.  1.
</event>
<event>
 5    1  0.1364103E-008  0.3854572E+03  0.7957747E-01  0.3427736E+00
         13   -1    0    0    0    0  0.00000000000E+00  0.00000000000E+00  0.14999999963E+04  0.15000000000E+04  0.10566000000E+00 0.  1.
        994   -1    0    0    0    0 -0.00000000000E+00 -0.00000000000E+00  0.11368683772E-12  0.17120000000E+03  0.17120000000E+03 0.  0.
         13    1    1    2    0    0 -0.81635779327E+01 -0.13582408327E+02  0.91952644336E+02  0.93308229996E+02  0.10566000000E+00 0.  1.
        994    1    1    2    0    0  0.41937314070E+01  0.61654793260E+01  0.15859363230E+01  0.17136964642E+03  0.17120000000E+03 0.  0.
        998    1    1    2    0    0  0.39698465257E+01  0.74169290009E+01  0.14064614156E+04  0.14065221236E+04  0.10000000000E+02 0.  1.
</event>
<event>
 5    1  0.1364103E-008  0.3828882E+03  0.7957747E-01  0.3438678E+00
         13   -1    0    0    0    0  0.00000000000E+00  0.00000000000E+00  0.14999999963E+04  0.15000000000E+04  0.10566000000E+00 0. -1.
        994   -1    0    0    0    0 -0.00000000000E+00 -0.00000000000E+00  0.11368683772E-12  0.17120000000E+03  0.17120000000E+03 0.  0.
         13    1    1    2    0    0  0.14817299775E+02 -0.96410870458E+01  0.62390146408E+02  0.64846314196E+02  0.10566000000E+00 0. -1.
        994    1    1    2    0    0  0.71742465699E+01  0.19708907675E+01  0.28655874453E+01  0.17138554728E+03  0.17120000000E+03 0.  0.
        998    1    1    2    0    0 -0.21991546344E+02  0.76701962783E+01  0.14347442624E+04  0.14349681385E+04  0.10000000000E+02 0. -1.
</event>
<event>
 5    1  0.1467928E-008  0.3860796E+03  0.7957747E-01  0.3425106E+00
         13   -1    0    0    0    0  0.00000000000E+00  0.00000000000E+00  0.14999999963E+04  0.15000000000E+04  0.10566000000E+00 0. -1.
        994   -1    0    0    0    0 -0.00000000000E+00 -0.00000000000E+00  0.11368683772E-12  0.17120000000E+03  0.17120000000E+03 0.  0.
         13    1    1    2    0    0 -0.54941069658E+01 -0.97639163589E+01  0.58346077375E+02  0.59412079438E+02  0.10566000000E+00 0. -1.
        994    1    1    2    0    0  0.65879312091E+01  0.41732282313E+01  0.12943913425E+01  0.17138241485E+03  0.17120000000E+03 0.  0.
        998    1    1    2    0    0 -0.10938242433E+01  0.55906881276E+01  0.14403595276E+04  0.14404055057E+04  0.10000000000E+02 0. -1.
</event>
<event>
 5    1  0.1364103E-008  0.3853310E+03  0.7957747E-01  0.3428269E+00
         13   -1    0    0    0    0  0.00000000000E+00  0.00000000000E+00  0.14999999963E+04  0.15000000000E+04  0.10566000000E+00 0. -1.
        994   -1    0    0    0    0 -0.00000000000E+00 -0.00000000000E+00  0.11368683772E-12  0.17120000000E+03  0.17120000000E+03 0.  0.
         13    1    1    2    0    0  0.14698964504E+02 -0.42215955815E+01  0.84418546508E+02  0.85792677924E+02  0.10566000000E+00 0. -1.
        994    1    1    2    0    0 -0.43988915229E+01 -0.41893081853E+01  0.15871035714E+01  0.17131508821E+03  0.17120000000E+03 0.  0.
        998    1    1    2    0    0 -0.10300072981E+02  0.84109037668E+01  0.14139943462E+04  0.14140922339E+04  0.10000000000E+02 0. -1.
</event>
<event>
 5    1  0.1364103E-008  0.3721196E+03  0.7957747E-01  0.3486206E+00
         13   -1    0    0    0    0  0.00000000000E+00  0.00000000000E+00  0.14999999963E+04  0.15000000000E+04  0.10566000000E+00 0. -1.
        994   -1    0    0    0    0 -0.00000000000E+00 -0.00000000000E+00  0.11368683772E-12  0.17120000000E+03  0.17120000000E+03 0.  0.
         13    1    1    2    0    0  0.11244064197E+02  0.17028662442E+02  0.22221138658E+02  0.30169429752E+02  0.10566000000E+00 0. -1.
        994    1    1    2    0    0  0.30630996685E+01 -0.15013813947E+02  0.89717462082E+01  0.17211835875E+03  0.17120000000E+03 0.  0.
        998    1    1    2    0    0 -0.14307163866E+02 -0.20148484958E+01  0.14688071114E+04  0.14689122115E+04  0.10000000000E+02 0. -1.
</event>
<event>
 5    1  0.1364103E-008  0.3772710E+03  0.7957747E-01  0.3463128E+00
         13   -1    0    0    0    0  0.00000000000E+00  0.00000000000E+00  0.14999999963E+04  0.15000000000E+04  0.10566000000E+00 0.  1.
        994   -1    0    0    0    0 -0.00000000000E+00 -0.00000000000E+00  0.11368683772E-12  0.17120000000E+03  0.17120000000E+03 0.  0.
         13    1    1    2    0    0 -0.10004812729E+02 -0.31101266363E+02  0.10242709123E+03  0.10751141906E+03  0.10566000000E+00 0.  1.
        994    1    1    2    0    0  0.32542192471E+01  0.23349634654E+01  0.55712495632E+01  0.17133744722E+03  0.17120000000E+03 0.  0.
        998    1    1    2    0    0  0.67505934817E+01  0.28766302897E+02  0.13920016555E+04  0.13923511337E+04  0.10000000000E+02 0.  1.
</event>
<event>
 5    1  0.1364103E-008  0.3827574E+03  0.7957747E-01  0.3439239E+00
         13   -1    0    0    0    0  0.00000000000E+00  0.00000000000E+00  0.14999999963E+04  0.15000000000E+04  0.10566000000E+00 0. -1.
        994   -1    0    0    0    0 -0.00000000000E+00 -0.00000000000E+00  0.11368683772E-12  0.17120000000E+03  0.17120000000E+03 0.  0.
         13    1    1    2    0    0 -0.47186967275E+01 -0.89546307977E+01  0.17980466129E+02  0.20633948672E+02  0.10566000000E+00 0. -1.
        994    1    1    2    0    0 -0.13818060722E+02  0.66250178613E+01  0.35259548757E+01  0.17192062710E+03  0.17120000000E+03 0.  0.
        998    1    1    2    0    0  0.18536757449E+02  0.23296129364E+01  0.14784935753E+04  0.14786454242E+04  0.10000000000E+02 0. -1.
</event>
<event>
 5    1  0.1364103E-008  0.3819110E+03  0.7957747E-01  0.3442880E+00
         13   -1    0    0    0    0  0.00000000000E+00  0.00000000000E+00  0.14999999963E+04  0.15000000000E+04  0.10566000000E+00 0.  1.
        994   -1    0    0    0    0 -0.00000000000E+00 -0.00000000000E+00  0.11368683772E-12  0.17120000000E+03  0.17120000000E+03 0.  0.
         13    1    1    2    0    0 -0.63443616703E+01 -0.17064267992E+02  0.47562287864E+02  0.50927620777E+02  0.10566000000E+00 0.  1.
        994    1    1    2    0    0  0.56224657423E+01  0.29831754510E+02  0.62389367394E+01  0.17398249921E+03  0.17120000000E+03 0.  0.
        998    1    1    2    0    0  0.72189592792E+00 -0.12767486518E+02  0.14461987717E+04  0.14462898800E+04  0.10000000000E+02 0.  1.
</event>
<event>
 5    1  0.1364103E-008  0.3810324E+03  0.7957747E-01  0.3446675E+00
         13   -1    0    0    0    0  0.00000000000E+00  0.00000000000E+00  0.14999999963E+04  0.15000000000E+04  0.10566000000E+00 0.  1.
        994   -1    0    0    0    0 -0.00000000000E+00 -0.00000000000E+00  0.11368683772E-12  0.17120000000E+03  0.17120000000E+03 0.  0.
         13    1    1    2    0    0  0.30998944067E+02  0.10134601321E+02  0.14598700176E+03  0.14958562940E+03  0.10566000000E+00 0.  1.
        994    1    1    2    0    0 -0.23268298685E+02  0.82345878203E+01  0.56451939982E+01  0.17306221533E+03  0.17120000000E+03 0.  0.
        998    1    1    2    0    0 -0.77306453822E+01 -0.18369189141E+02  0.13483678005E+04  0.13485521553E+04  0.10000000000E+02 0.  1.
</event>
<event>
 5    1  0.1364103E-008  0.3771116E+03  0.7957747E-01  0.3463832E+00
         13   -1    0    0    0    0  0.00000000000E+00  0.00000000000E+00  0.14999999963E+04  0.15000000000E+04  0.10566000000E+00 0. -1.
        994   -1    0    0    0    0 -0.00000000000E+00 -0.00000000000E+00  0.11368683772E-12  0.17120000000E+03  0.17120000000E+03 0.  0.
         13    1    1    2    0    0  0.16679737206E+02 -0.46405037968E+01  0.21535200414E+02  0.27631936770E+02  0.10566000000E+00 0. -1.
        994    1    1    2    0    0 -0.59294221679E+02  0.85439515196E+01  0.17808561404E+02  0.18225089490E+03  0.17120000000E+03 0.  0.
        998    1    1    2    0    0  0.42614484472E+02 -0.39034477228E+01  0.14606562345E+04  0.14613171683E+04  0.10000000000E+02 0. -1.
</event>
<event>
 5    1  0.1364103E-008  0.3851358E+03  0.7957747E-01  0.3429096E+00
         13   -1    0    0    0    0  0.00000000000E+00  0.00000000000E+00  0.14999999963E+04  0.15000000000E+04  0.10566000000E+00 0. -1.
        994   -1    0    0    0    0 -0.00000000000E+00 -0.00000000000E+00  0.11368683772E-12  0.17120000000E+03  0.17120000000E+03 0.  0.
         13    1    1    2    0    0 -0.60157245590E+01 -0.17319250202E+02  0.10725805975E+03  0.10881382226E+03  0.10566000000E+00 0. -1.
        994    1    1    2    0    0  0.34508736023E+01  0.11675971904E+02  0.20501592072E+01  0.17164463289E+03  0.17120000000E+03 0.  0.
        998    1    1    2    0    0  0.25648509568E+01  0.56432782980E+01  0.13906917773E+04  0.13907415448E+04  0.10000000000E+02 0. -1.
</event>
<event>
 5    1  0.1364103E-008  0.3756377E+03  0.7957747E-01  0.3470376E+00
         13   -1    0    0    0    0  0.00000000000E+00  0.00000000000E+00  0.14999999963E+04  0.15000000000E+04  0.10566000000E+00 0.  1.
        994   -1    0    0    0    0 -0.00000000000E+00 -0.00000000000E+00  0.11368683772E-12  0.17120000000E+03  0.17120000000E+03 0.  0.
         13    1    1    2    0    0  0.28531310418E+00 -0.16926546388E+02  0.21397023890E+02  0.27284302659E+02  0.10566000000E+00 0.  1.
        994    1    1    2    0    0  0.10807783493E+02 -0.18837858313E+02  0.79531130895E+01  0.17275521728E+03  0.17120000000E+03 0.  0.
        998    1    1    2    0    0 -0.11093096597E+02  0.35764404701E+02  0.14706498593E+04  0.14711604801E+04  0.10000000000E+02 0.  1.
</event>
<event>
 5    1  0.1364103E-008  0.3778198E+03  0.7957747E-01  0.3460707E+00
         13   -1    0    0    0    0  0.00000000000E+00  0.00000000000E+00  0.14999999963E+04  0.15000000000E+04  0.10566000000E+00 0. -1.
        994   -1    0    0    0    0 -0.00000000000E+00 -0.00000000000E+00  0.11368683772E-12  0.17120000000E+03  0.17120000000E+03 0.  0.
         13    1    1    2    0    0  0.32006525068E+01 -0.12504653933E+02  0.13312371048E+02  0.18542948347E+02  0.10566000000E+00 0. -1.
        994    1    1    2    0    0 -0.26331511148E+01  0.18317371006E+02  0.63917257031E+01  0.17231585453E+03  0.17120000000E+03 0.  0.
        998    1    1    2    0    0 -0.56750139198E+00 -0.58127170735E+01  0.14802958995E+04  0.14803411971E+04  0.10000000000E+02 0. -1.
</event>
<event>
 5    1  0.1364103E-008  0.3694373E+03  0.7957747E-01  0.3498481E+00
         13   -1    0    0    0    0  0.00000000000E+00  0.00000000000E+00  0.14999999963E+04  0.15000000000E+04  0.10566000000E+00 0. -1.
        994   -1    0    0    0    0 -0.00000000000E+00 -0.00000000000E+00  0.11368683772E-12  0.17120000000E+03  0.17120000000E+03 0.  0.
         13    1    1    2    0    0 -0.55710973203E+02 -0.71783200471E+01  0.24051043296E+03  0.24698283410E+03  0.10566000000E+00 0. -1.
        994    1    1    2    0    0 -0.32785063895E+02 -0.13308128794E+01  0.13302494652E+02  0.17482284702E+03  0.17120000000E+03 0.  0.
        998    1    1    2    0    0  0.88496037098E+02  0.85091329265E+01  0.12461870687E+04  0.12493943189E+04  0.10000000000E+02 0. -1.
</event>
<event>
 5    1  0.1364103E-008  0.3789120E+03  0.7957747E-01  0.3455909E+00
         13   -1    0    0    0    0  0.00000000000E+00  0.00000000000E+00  0.14999999963E+04  0.15000000000E+04  0.10566000000E+00 0. -1.
        994   -1    0    0    0    0 -0.00000000000E+00 -0.00000000000E+00  0.11368683772E-12  0.17120000000E+03  0.17120000000E+03 0.  0.
         13    1    1    2    0    0  0.44715592767E+02  0.81178230409E+02  0.54630459966E+03  0.55411020213E+03  0.10566000000E+00 0. -1.
        994    1    1    2    0    0 -0.44561620416E+02 -0.85294943707E+02  0.36409291628E+02  0.19973993580E+03  0.17120000000E+03 0.  0.
        998    1    1    2    0    0 -0.15397235072E+00  0.41167132975E+01  0.91728610499E+03  0.91734986207E+03  0.10000000000E+02 0.  0.
</event>
<event>
 5    1  0.1364103E-008  0.4078225E+03  0.7957747E-01  0.3338294E+00
         13   -1    0    0    0    0  0.00000000000E+00  0.00000000000E+00  0.14999999963E+04  0.15000000000E+04  0.10566000000E+00 0.  1.
        994   -1    0    0    0    0 -0.00000000000E+00 -0.00000000000E+00  0.11368683772E-12  0.17120000000E+03  0.17120000000E+03 0.  0.
         13    1    1    2    0    0 -0.26043161240E+02  0.50814556383E+02  0.37793256108E+02  0.68474132043E+02  0.10566000000E+00 0.  1.
        994    1    1    2    0    0  0.30506216054E+02 -0.45533304842E+02  0.44787663338E+02  0.18525465137E+03  0.17120000000E+03 0.  0.
        998    1    1    2    0    0 -0.44630548138E+01 -0.52812515407E+01  0.14174190768E+04  0.14174712166E+04  0.10000000000E+02 0.  1.
</event>
<event>
 5    1  0.2981342E-008  0.3858873E+03  0.7957747E-01  0.3425918E+00
         13   -1    0    0    0    0  0.00000000000E+00  0.00000000000E+00  0.14999999963E+04  0.15000000000E+04  0.10566000000E+00 0.  1.
        994   -1    0    0    0    0 -0.00000000000E+00 -0.00000000000E+00  0.11368683772E-12  0.17120000000E+03  0.17120000000E+03 0.  0.
         13    1    1    2    0    0  0.28788835489E+00 -0.11490671036E+02  0.56055568417E+02  0.57221991535E+02  0.10566000000E+00 0.  1.
        994    1    1    2    0    0 -0.61473534223E+00  0.76953776103E+01  0.13856786141E+01  0.17137956950E+03  0.17120000000E+03 0.  0.
        998    1    1    2    0    0  0.32684698734E+00  0.37952934261E+01  0.14425587492E+04  0.14425984390E+04  0.10000000000E+02 0.  1.
</event>
<event>
 5    1  0.1364103E-008  0.3838747E+03  0.7957747E-01  0.3434459E+00
         13   -1    0    0    0    0  0.00000000000E+00  0.00000000000E+00  0.14999999963E+04  0.15000000000E+04  0.10566000000E+00 0. -1.
        994   -1    0    0    0    0 -0.00000000000E+00 -0.00000000000E+00  0.11368683772E-12  0.17120000000E+03  0.17120000000E+03 0.  0.
         13    1    1    2    0    0  0.10079103081E+02 -0.13306900039E+02  0.64967268122E+02  0.67077708658E+02  0.10566000000E+00 0. -1.
        994    1    1    2    0    0 -0.14975569476E+01  0.60943260788E+01  0.23198787649E+01  0.17133068997E+03  0.17120000000E+03 0.  0.
        998    1    1    2    0    0 -0.85815461331E+01  0.72125739604E+01  0.14327128494E+04  0.14327916014E+04  0.10000000000E+02 0. -1.
</event>
<event>
 5    1  0.1364103E-008  0.3810081E+03  0.7957747E-01  0.3446781E+00
         13   -1    0    0    0    0  0.00000000000E+00  0.00000000000E+00  0.14999999963E+04  0.15000000000E+04  0.10566000000E+00 0. -1.
        994   -1    0    0    0    0 -0.00000000000E+00 -0.00000000000E+00  0.11368683772E-12  0.17120000000E+03  0.17120000000E+03 0.  0.
         13    1    1    2    0    0 -0.21805435230E+02 -0.66888650223E+01  0.53057146063E+02  0.57751968220E+02  0.10566000000E+00 0. -1.
        994    1    1    2    0    0  0.94613444739E+02 -0.17322783421E+02  0.35090983309E+02  0.19948082580E+03  0.17120000000E+03 0.  0.
        998    1    1    2    0    0 -0.72808009509E+02  0.24011648443E+02  0.14118518669E+04  0.14139672060E+04  0.10000000000E+02 0. -1.
</event>
<event>
 5    1  0.1364103E-008  0.3855916E+03  0.7957747E-01  0.3427167E+00
         13   -1    0    0    0    0  0.00000000000E+00  0.00000000000E+00  0.14999999963E+04  0.15000000000E+04  0.10566000000E+00 0.  1.
        994   -1    0    0    0    0 -0.00000000000E+00 -0.00000000000E+00  0.11368683772E-12  0.17120000000E+03  0.17120000000E+03 0.  0.
         13    1    1    2    0    0  0.90152954670E+01  0.61519773581E+01  0.44217953154E+02  0.45545152574E+02  0.10566000000E+00 0.  1.
        994    1    1    2    0    0 -0.87022896485E+01 -0.42048706327E+01  0.16433869026E+01  0.17148046974E+03  0.17120000000E+03 0.  0.
        998    1    1    2    0    0 -0.31300581855E+00 -0.19471067254E+01  0.14541386562E+04  0.14541743777E+04  0.10000000000E+02 0.  1.
</event>
<event>
 5    1  0.1364103E-008  0.3826255E+03  0.7957747E-01  0.3439805E+00
         13   -1    0    0    0    0  0.00000000000E+00  0.00000000000E+00  0.14999999963E+04  0.15000000000E+04  0.10566000000E+00 0. -1.
        994   -1    0    0    0    0 -0.00000000000E+00 -0.00000000000E+00  0.11368683772E-12  0.17120000000E+03  0.17120000000E+03 0.  0.
         13    1    1    2    0    0  0.11597055642E+02  0.60415044658E+01  0.31075244739E+02  0.33714588465E+02  0.10566000000E+00 0. -1.
        994    1    1    2    0    0 -0.92152941799E+01  0.31465055316E+02  0.63844285495E+01  0.17442812927E+03  0.17120000000E+03 0.  0.
        998    1    1    2    0    0 -0.23817614616E+01 -0.37506559782E+02  0.14625403230E+04  0.14630572823E+04  0.10000000000E+02 0. -1.
</event>
<event>
 5    1  0.1364103E-008  0.3845285E+03  0.7957747E-01  0.3431674E+00
         13   -1    0    0    0    0  0.00000000000E+00  0.00000000000E+00  0.14999999963E+04  0.15000000000E+04  0.10566000000E+00 0.  1.
        994   -1    0    0    0    0 -0.00000000000E+00 -0.00000000000E+00  0.11368683772E-12  0.17120000000E+03  0.17120000000E+03 0.  0.
         13    1    1    2    0    0  0.50464722747E+01 -0.19194100580E+02  0.10855263246E+03  0.11035200750E+03  0.10566000000E+00 0.  1.
        994    1    1    2    0    0  0.40924795488E+01  0.10162670524E+02  0.22598546130E+01  0.17156507571E+03  0.17120000000E+03 0.  0.
        998    1    1    2    0    0 -0.91389518235E+01  0.90314300559E+01  0.13891875092E+04  0.13892829168E+04  0.10000000000E+02 0.  1.
</event>
<event>
 5    1  0.1364103E-008  0.3794552E+03  0.7957747E-01  0.3453534E+00
         13   -1    0    0    0    0  0.00000000000E+00  0.00000000000E+00  0.14999999963E+04  0.15000000000E+04  0.10566000000E+00 0.  1.
        994   -1    0    0    0    0 -0.00000000000E+00 -0.00000000000E+00  0.11368683772E-12  0.17120000000E+03  0.17120000000E+03 0.  0.
         13    1    1    2    0    0  0.91955246217E+01  0.69921162750E+02  0.35486377587E+03  0.36180358934E+03  0.10566000000E+00 0.  1.
        994    1    1    2    0    0 -0.94162932226E+01 -0.88977825176E+02  0.31703429890E+02  0.19575563189E+03  0.17120000000E+03 0.  0.
        998    1    1    2    0    0  0.22076860090E+00  0.19056662426E+02  0.11134327905E+04  0.11136407788E+04  0.10000000000E+02 0.  1.
</event>
<event>
 5    1  0.1364103E-008  0.3851149E+03  0.7957747E-01  0.3429185E+00
         13   -1    0    0    0    0  0.00000000000E+00  0.00000000000E+00  0.14999999963E+04  0.15000000000E+04  0.10566000000E+00 0. -1.
        994   -1    0    0    0    0 -0.00000000000E+00 -0.00000000000E+00  0.11368683772E-12  0.17120000000E+03  0.17120000000E+03 0.  0.
         13    1    1    2    0    0 -0.63356331653E-01  0.13263898691E+02  0.57187427848E+02  0.58705605272E+02  0.10566000000E+00 0. -1.
        994    1    1    2    0    0  0.85854238336E+01 -0.52889412135E+01  0.19074626251E+01  0.17150732000E+03  0.17120000000E+03 0.  0.
        998    1    1    2    0    0 -0.85220675019E+01 -0.79749574774E+01  0.14409051058E+04  0.14409870747E+04  0.10000000000E+02 0. -1.
</event>
<event>
 5    1  0.1364103E-008  0.3783349E+03  0.7957747E-01  0.3458441E+00
         13   -1    0    0    0    0  0.00000000000E+00  0.00000000000E+00  0.14999999963E+04  0.15000000000E+04  0.10566000000E+00 0. -1.
        994   -1    0    0    0    0 -0.00000000000E+00 -0.00000000000E+00  0.11368683772E-12  0.17120000000E+03  0.17120000000E+03 0.  0.
         13    1    1    2    0    0  0.19923320059E+02  0.22137893264E+01  0.40867191217E+02  0.45518985351E+02  0.10566000000E+00 0. -1.
        994    1    1    2    0    0  0.52844960823E+00  0.47390329690E+02  0.12563634042E+02  0.17808258620E+03  0.17120000000E+03 0.  0.
        998    1    1    2    0    0 -0.20451769667E+02 -0.49604119016E+02  0.14465691710E+04  0.14475984284E+04  0.10000000000E+02 0. -1.
</event>
<event>
 5    1  0.1364103E-008  0.3833730E+03  0.7957747E-01  0.3436602E+00
         13   -1    0    0    0    0  0.00000000000E+00  0.00000000000E+00  0.14999999963E+04  0.15000000000E+04  0.10566000000E+00 0. -1.
        994   -1    0    0    0    0 -0.00000000000E+00 -0.00000000000E+00  0.11368683772E-12  0.17120000000E+03  0.17120000000E+03 0.  0.
         13    1    1    2    0    0  0.15740749091E+02 -0.60139184801E+01  0.57709841644E+02  0.60119675515E+02  0.10566000000E+00 0. -1.
        994    1    1    2    0    0 -0.10400293475E+02  0.18476850275E+01  0.28090667661E+01  0.17154856718E+03  0.17120000000E+03 0.  0.
        998    1    1    2    0    0 -0.53404556159E+01  0.41662334526E+01  0.14394810879E+04  0.14395317573E+04  0.10000000000E+02 0. -1.
</event>
<event>
 5    1  0.1364103E-008  0.3852436E+03  0.7957747E-01  0.3428640E+00
         13   -1    0    0    0    0  0.00000000000E+00  0.00000000000E+00  0.14999999963E+04  0.15000000000E+04  0.10566000000E+00 0.  1.
        994   -1    0    0    0    0 -0.00000000000E+00 -0.00000000000E+00  0.11368683772E-12  0.17120000000E+03  0.17120000000E+03 0.  0.
         13    1    1    2    0    0 -0.10042756508E+02  0.40326630745E+01  0.38451554999E+02  0.39945620231E+02  0.10566000000E+00 0.  1.
        994    1    1    2    0    0  0.74230107074E+01 -0.55316762167E+01  0.17908978588E+01  0.17145946414E+03  0.17120000000E+03 0.  0.
        998    1    1    2    0    0  0.26197458004E+01  0.14990131422E+01  0.14597575434E+04  0.14597949156E+04  0.10000000000E+02 0.  1.
</event>
<event>
 5    1  0.1364103E-008  0.3783518E+03  0.7957747E-01  0.3458367E+00
         13   -1    0    0    0    0  0.00000000000E+00  0.00000000000E+00  0.14999999963E+04  0.15000000000E+04  0.10566000000E+00 0. -1.
        994   -1    0    0    0    0 -0.00000000000E+00 -0.00000000000E+00  0.11368683772E-12  0.17120000000E+03  0.17120000000E+03 0.  0.
         13    1    1    2    0    0  0.13160978902E+01  0.28350061870E+02  0.79684382069E+02  0.84587647038E+02  0.10566000000E+00 0. -1.
        994    1    1    2    0    0 -0.12879565237E+02 -0.15951225094E+02  0.63815308682E+01  0.17254126671E+03  0.17120000000E+03 0.  0.
        998    1    1    2    0    0  0.11563467346E+02 -0.12398836776E+02  0.14139340833E+04  0.14140710862E+04  0.10000000000E+02 0. -1.
</event>
<event>
 5    1  0.1364103E-008  0.3857019E+03  0.7957747E-01  0.3426701E+00
         13   -1    0    0    0    0  0.00000000000E+00  0.00000000000E+00  0.14999999963E+04  0.15000000000E+04  0.10566000000E+00 0.  1.
        994   -1    0    0    0    0 -0.00000000000E+00 -0.00000000000E+00  0.11368683772E-12  0.17120000000E+03  0.17120000000E+03 0.  0.
         13    1    1    2    0    0 -0.14739043096E+02  0.24163858974E+01  0.83365439865E+02  0.84692892501E+02  0.10566000000E+00 0.  1.
        994    1    1    2    0    0  0.15548317135E+02 -0.39858359960E+01  0.21278624633E+01  0.17196396382E+03  0.17120000000E+03 0.  0.
        998    1    1    2    0    0 -0.80927403873E+00  0.15694500986E+01  0.14145066939E+04  0.14145431437E+04  0.10000000000E+02 0.  1.
</event>
<event>
 5    1  0.1364103E-008  0.3760978E+03  0.7957747E-01  0.3468328E+00
         13   -1    0    0    0    0  0.00000000000E+00  0.00000000000E+00  0.14999999963E+04  0.15000000000E+04  0.10566000000E+00 0. -1.
        994   -1    0    0    0    0 -0.00000000000E+00 -0.00000000000E+00  0.11368683772E-12  0.17120000000E+03  0.17120000000E+03 0.  0.
         13    1    1    2    0    0  0.85723239447E+02 -0.43120875221E+02  0.53339497965E+03  0.54195765438E+03  0.10566000000E+00 0. -1.
        994    1    1    2    0    0 -0.77266225556E+02  0.39399163884E+02  0.32032940847E+02  0.19457110018E+03  0.17120000000E+03 0.  0.
        998    1    1    2    0    0 -0.84570138910E+01  0.37217113369E+01  0.93457207578E+03  0.93467124544E+03  0.10000000000E+02 0.  0.
</event>
<event>
 5    1  0.1364103E-008  0.3800999E+03  0.7957747E-01  0.3450724E+00
         13   -1    0    0    0    0  0.00000000000E+00  0.00000000000E+00  0.14999999963E+04  0.15000000000E+04  0.10566000000E+00 0. -1.
        994   -1    0    0    0    0 -0.00000000000E+00 -0.00000000000E+00  0.11368683772E-12  0.17120000000E+03  0.17120000000E+03 0.  0.
         13    1    1    2    0    0 -0.11503322452E+02 -0.98870730592E+01  0.26565921552E+02  0.30591501974E+02  0.10566000000E+00 0. -1.
        994    1    1    2    0    0  0.57844765014E+01  0.86679803536E+01  0.44457199420E+01  0.17157446919E+03  0.17120000000E+03 0.  0.
        998    1    1    2    0    0  0.57188459502E+01  0.12190927056E+01  0.14689883548E+04  0.14690340288E+04  0.10000000000E+02 0. -1.
</event>
<event>
 5    1  0.1364103E-008  0.3714731E+03  0.7957747E-01  0.3489148E+00
         13   -1    0    0    0    0  0.00000000000E+00  0.00000000000E+00  0.14999999963E+04  0.15000000000E+04  0.10566000000E+00 0. -1.
        994   -1    0    0    0    0 -0.00000000000E+00 -0.00000000000E+00  0.11368683772E-12  0.17120000000E+03  0.17120000000E+03 0.  0.
         13    1    1    2    0    0 -0.11900249306E+02 -0.27652293699E+02  0.33518420545E+02  0.45052868502E+02  0.10566000000E+00 0. -1.
        994    1    1    2    0    0  0.10654118316E+02  0.24311751070E+02  0.14199724583E+02  0.17382647570E+03  0.17120000000E+03 0.  0.
        998    1    1    2    0    0  0.12461309898E+01  0.33405426292E+01  0.14522818512E+04  0.14523206558E+04  0.10000000000E+02 0. -1.
</event>
<event>
 5    1  0.1364103E-008  0.3783872E+03  0.7957747E-01  0.3458211E+00
         13   -1    0    0    0    0  0.00000000000E+00  0.00000000000E+00  0.14999999963E+04  0.15000000000E+04  0.10566000000E+00 0.  1.
        994   -1    0    0    0    0 -0.00000000000E+00 -0.00000000000E+00  0.11368683772E-12  0.17120000000E+03  0.17120000000E+03 0.  0.
         13    1    1    2    0    0  0.13695245948E+02 -0.56906329299E+02  0.29690312248E+03  0.30261752325E+03  0.10566000000E+00 0.  1.
        994    1    1    2    0    0 -0.24028389751E+02  0.46986383901E+02  0.14367392398E+02  0.17972463868E+03  0.17120000000E+03 0.  0.
        998    1    1    2    0    0  0.10333143802E+02  0.99199453974E+01  0.11887294814E+04  0.11888578381E+04  0.10000000000E+02 0.  1.
</event>
<event>
 5    1  0.1364103E-008  0.3741447E+03  0.7957747E-01  0.3477057E+00
         13   -1    0    0    0    0  0.00000000000E+00  0.00000000000E+00  0.14999999963E+04  0.15000000000E+04  0.10566000000E+00 0. -1.
        994   -1    0    0    0    0 -0.00000000000E+00 -0.00000000000E+00  0.11368683772E-12  0.17120000000E+03  0.17120000000E+03 0.  0.
         13    1    1    2    0    0  0.20403749533E+02 -0.11794890796E+01  0.26743735505E+02  0.33659214820E+02  0.10566000000E+00 0. -1.
        994    1    1    2    0    0 -0.86388850071E+01  0.67006390428E+00  0.73745719908E+01  0.17157768978E+03  0.17120000000E+03 0.  0.
        998    1    1    2    0    0 -0.11764864526E+02  0.50942517530E+00  0.14658816888E+04  0.14659630954E+04  0.10000000000E+02 0. -1.
</event>
<event>
 5    1  0.1364103E-008  0.3799715E+03  0.7957747E-01  0.3451283E+00
         13   -1    0    0    0    0  0.00000000000E+00  0.00000000000E+00  0.14999999963E+04  0.15000000000E+04  0.10566000000E+00 0. -1.
        994   -1    0    0    0    0 -0.00000000000E+00 -0.00000000000E+00  0.11368683772E-12  0.17120000000E+03  0.17120000000E+03 0.  0.
         13    1    1    2    0    0  0.24278795960E+02  0.17168121289E+02  0.11144139745E+03  0.11534036826E+03  0.10566000000E+00 0. -1.
        994    1    1    2    0    0 -0.10083220755E+02  0.14324384111E+01  0.44944006272E+01  0.17156154248E+03  0.17120000000E+03 0.  0.
        998    1    1    2    0    0 -0.14195575205E+02 -0.18600559700E+02  0.13840641982E+04  0.13842980893E+04  0.10000000000E+02 0. -1.
</event>
<event>
 5    1  0.1534697E-008  0.3860604E+03  0.7957747E-01  0.3425187E+00
         13   -1    0    0    0    0  0.00000000000E+00  0.00000000000E+00  0.14999999963E+04  0.15000000000E+04  0.10566000000E+00 0. -1.
        994   -1    0    0    0    0 -0.00000000000E+00 -0.00000000000E+00  0.11368683772E-12  0.17120000000E+03  0.17120000000E+03 0.  0.
         13    1    1    2    0    0 -0.91168748019E+01  0.59139396061E+01  0.54541824350E+02  0.55613971763E+02  0.10566000000E+00 0. -1.
        994    1    1    2    0    0  0.47541885429E+01 -0.41647771929E+01  0.12354972863E+01  0.17132108490E+03  0.17120000000E+03 0.  0.
        998    1    1    2    0    0  0.43626862590E+01 -0.17491624133E+01  0.14442226746E+04  0.14442649433E+04  0.10000000000E+02 0. -1.
</event>
<event>
 5    1  0.1364103E-008  0.3746123E+03  0.7957747E-01  0.3474959E+00
         13   -1    0    0    0    0  0.00000000000E+00  0.00000000000E+00  0.14999999963E+04  0.15000000000E+04  0.10566000000E+00 0. -1.
        994   -1    0    0    0    0 -0.00000000000E+00 -0.00000000000E+00  0.11368683772E-12  0.17120000000E+03  0.17120000000E+03 0.  0.
         13    1    1    2    0    0  0.23572116824E+02 -0.64584515154E+01  0.39767882994E+02  0.46678174444E+02  0.10566000000E+00 0. -1.
        994    1    1    2    0    0 -0.23574973974E+02  0.56301775195E+01  0.88801082822E+01  0.17313513398E+03  0.17120000000E+03 0.  0.
        998    1    1    2    0    0  0.28571495489E-02  0.82827399589E+00  0.14513520050E+04  0.14513866916E+04  0.10000000000E+02 0. -1.
</event>
<event>
 5    1  0.1364103E-008  0.3843854E+03  0.7957747E-01  0.3432283E+00
         13   -1    0    0    0    0  0.00000000000E+00  0.00000000000E+00  0.14999999963E+04  0.15000000000E+04  0.10566000000E+00 0. -1.
        994   -1    0    0    0    0 -0.00000000000E+00 -0.00000000000E+00  0.11368683772E-12  0.17120000000E+03  0.17120000000E+03 0.  0.
         13    1    1    2    0    0  0.91192472432E+01  0.78169364268E+01  0.36018602061E+02  0.37968618935E+02  0.10566000000E+00 0. -1.
        994    1    1    2    0    0 -0.12722886915E+02 -0.56894368393E+01  0.25758888506E+01  0.17178567096E+03  0.17120000000E+03 0.  0.
        998    1    1    2    0    0  0.36036396719E+01 -0.21274995876E+01  0.14614055054E+04  0.14614457101E+04  0.10000000000E+02 0. -1.
</event>
<event>
 5    1  0.1364103E-008  0.3753906E+03  0.7957747E-01  0.3471478E+00
         13   -1    0    0    0    0  0.00000000000E+00  0.00000000000E+00  0.14999999963E+04  0.15000000000E+04  0.10566000000E+00 0.  1.
        994   -1    0    0    0    0 -0.00000000000E+00 -0.00000000000E+00  0.11368683772E-12  0.17120000000E+03  0.17120000000E+03 0.  0.
         13    1    1    2    0    0  0.26967380372E+02  0.12190863126E+02  0.26890904412E+02  0.39987356152E+02  0.10566000000E+00 0.  1.
        994    1    1    2    0    0 -0.12602956067E+02  0.81946102293E+01  0.14623703826E+02  0.17247979259E+03  0.17120000000E+03 0.  0.
        998    1    1    2    0    0 -0.14364424305E+02 -0.20385473355E+02  0.14584853880E+04  0.14587328513E+04  0.10000000000E+02 0.  1.
</event>
<event>
 5    1  0.1364103E-008  0.3854995E+03  0.7957747E-01  0.3427556E+00
         13   -1    0    0    0    0  0.00000000000E+00  0.00000000000E+00  0.14999999963E+04  0.15000000000E+04  0.10566000000E+00 0.  1.
        994   -1    0    0    0    0 -0.00000000000E+00 -0.00000000000E+00  0.11368683772E-12  0.17120000000E+03  0.17120000000E+03 0.  0.
         13    1    1    2    0    0 -0.92570738872E+01  0.50289193359E+01  0.40674439843E+02  0.42016718901E+02  0.10566000000E+00 0.  1.
        994    1    1    2    0    0  0.42559673042E+01 -0.31999177553E+01  0.14754376212E+01  0.17128914048E+03  0.17120000000E+03 0.  0.
        998    1    1    2    0    0  0.50011065830E+01 -0.18290015806E+01  0.14578501188E+04  0.14578941406E+04  0.10000000000E+02 0.  1.
</event>
<event>
 5    1  0.1364103E-008  0.3841549E+03  0.7957747E-01  0.3433264E+00
         13   -1    0    0    0    0  0.00000000000E+00  0.00000000000E+00  0.14999999963E+04  0.15000000000E+04  0.10566000000E+00 0. -1.
        994   -1    0    0    0    0 -0.00000000000E+00 -0.00000000000E+00  0.11368683772E-12  0.17120000000E+03  0.17120000000E+03 0.  0.
         13    1    1    2    0    0  0.90520859787E+01  0.52711351627E+01  0.26488601745E+02  0.28484773352E+02  0.10566000000E+00 0. -1.
        994    1    1    2    0    0 -0.44511335184E+01 -0.58158006480E+00  0.21167374386E+01  0.17127192240E+03  0.17120000000E+03 0.  0.
        998    1    1    2    0    0 -0.46009524603E+01 -0.46895550979E+01  0.14713946571E+04  0.14714433042E+04  0.10000000000E+02 0. -1.
</event>
<event>
 5    1  0.1364103E-008  0.3776339E+03  0.7957747E-01  0.3461526E+00
         13   -1    0    0    0    0  0.00000000000E+00  0.00000000000E+00  0.14999999963E+04  0.15000000000E+04  0.10566000000E+00 0.  1.
        994   -1    0    0    0    0 -0.00000000000E+00 -0.00000000000E+00  0.11368683772E-12  0.17120000000E+03  0.17120000000E+03 0.  0.
         13    1    1    2    0    0  0.19434980585E+02  0.54087325735E+02  0.30503632332E+03  0.31040349061E+03  0.10566000000E+00 0.  1.
        994    1    1    2    0    0  0.64889342087E+00 -0.36483702530E+02  0.98315858471E+01  0.17532136690E+03  0.17120000000E+03 0.  0.
        998    1    1    2    0    0 -0.20083874006E+02 -0.17603623205E+02  0.11851320871E+04  0.11854751425E+04  0.10000000000E+02 0.  1.
</event>
<event>
 5    1  0.1364103E-008  0.3700925E+03  0.7957747E-01  0.3495466E+00
         13   -1    0    0    0    0  0.00000000000E+00  0.00000000000E+00  0.14999999963E+04  0.15000000000E+04  0.10566000000E+00 0.  1.
        994   -1    0    0    0    0 -0.00000000000E+00 -0.00000000000E+00  0.11368683772E-12  0.17120000000E+03  0.17120000000E+03 0.  0.
         13    1    1    2    0    0 -0.12629109737E+02  0.40349820718E+02  0.90286071665E+02  0.99695478059E+02  0.10566000000E+00 0.  1.
        994    1    1    2    0    0 -0.22112292795E+01  0.18415516646E+02  0.12191697501E+02  0.17263284240E+03  0.17120000000E+03 0.  0.
        998    1    1    2    0    0  0.14840339017E+02 -0.58765337364E+02  0.13975222271E+04  0.13988716795E+04  0.10000000000E+02 0.  1.
</event>
<event>
 5    1  0.1364103E-008  0.3821888E+03  0.7957747E-01  0.3441683E+00
         13   -1    0    0    0    0  0.00000000000E+00  0.00000000000E+00  0.14999999963E+04  0.15000000000E+04  0.10566000000E+00 0. -1.
        994   -1    0    0    0    0 -0.00000000000E+00 -0.00000000000E+00  0.11368683772E-12  0.17120000000E+03  0.17120000000E+03 0.  0.
         13    1    1    2    0    0 -0.52624997965E+01 -0.22597866897E+02  0.89557807805E+02  0.92514699347E+02  0.10566000000E+00 0. -1.
        994    1    1    2    0    0  0.13479068272E+01  0.10899683863E+02  0.34327550757E+01  0.17158625752E+03  0.17120000000E+03 0.  0.
        998    1    1    2    0    0  0.39145929693E+01  0.11698183035E+02  0.14070094334E+04  0.14070990431E+04  0.10000000000E+02 0. -1.
</event>
<event>
 5    1  0.1364103E-008  0.3805368E+03  0.7957747E-01  0.3448825E+00
         13   -1    0    0    0    0  0.00000000000E+00  0.00000000000E+00  0.14999999963E+04  0.15000000000E+04  0.10566000000E+00 0.  1.
        994   -1    0    0    0    0 -0.00000000000E+00 -0.00000000000E+00  0.11368683772E-12  0.17120000000E+03  0.17120000000E+03 0.  0.
         13    1    1    2    0    0  0.11385127168E+02  0.59605614630E+00  0.15614678021E+02  0.19334056411E+02  0.10566000000E+00 0.  1.
        994    1    1    2    0    0  0.32477724120E+01 -0.71905157882E+01  0.40701960773E+01  0.17143003832E+03  0.17120000000E+03 0.  0.
        998    1    1    2    0    0 -0.14632899580E+02  0.65944596420E+01  0.14803151222E+04  0.14804359053E+04  0.10000000000E+02 0.  1.
</event>
<event>
 5    1  0.1364103E-008  0.3851482E+03  0.7957747E-01  0.3429044E+00
         13   -1    0    0    0    0  0.00000000000E+00  0.00000000000E+00  0.14999999963E+04  0.15000000000E+04  0.10566000000E+00 0. -1.
        994   -1    0    0    0    0 -0.00000000000E+00 -0.00000000000E+00  0.11368683772E-12  0.17120000000E+03  0.17120000000E+03 0.  0.
         13    1    1    2    0    0  0.75505857653E+01  0.74964102999E+01  0.35733688991E+02  0.37284248761E+02  0.10566000000E+00 0. -1.
        994    1    1    2    0    0 -0.50638383320E+01 -0.94442280954E+01  0.19341201308E+01  0.17154596097E+03  0.17120000000E+03 0.  0.
        998    1    1    2    0    0 -0.24867474333E+01  0.19478177955E+01  0.14623321872E+04  0.14623697903E+04  0.10000000000E+02 0. -1.
</event>
<event>
 5    1  0.1364103E-008  0.3747606E+03  0.7957747E-01  0.3474294E+00
         13   -1    0    0    0    0  0.00000000000E+00  0.00000000000E+00  0.14999999963E+04  0.15000000000E+04  0.10566000000E+00 0.  1.
        994   -1    0    0    0    0 -0.00000000000E+00 -0.00000000000E+00  0.11368683772E-12  0.17120000000E+03  0.17120000000E+03 0.  0.
         13    1    1    2    0    0 -0.32004059588E+02 -0.33834823421E+02  0.14505697600E+03  0.15235022992E+03  0.10566000000E+00 0.  1.
        994    1    1    2    0    0  0.37126414737E+02  0.25059009597E+02  0.13657896954E+02  0.17748888073E+03  0.17120000000E+03 0.  0.
        998    1    1    2    0    0 -0.51223551487E+01  0.87758138243E+01  0.13412851233E+04  0.13413608894E+04  0.10000000000E+02 0.  1.
</event>
<event>
 5    1  0.1364103E-008  0.3824335E+03  0.7957747E-01  0.3440630E+00
         13   -1    0    0    0    0  0.00000000000E+00  0.00000000000E+00  0.14999999963E+04  0.15000000000E+04  0.10566000000E+00 0. -1.
        994   -1    0    0    0    0 -0.00000000000E+00 -0.00000000000E+00  0.11368683772E-12  0.17120000000E+03  0.17120000000E+03 0.  0.
         13    1    1    2    0    0  0.26588523713E+02 -0.80938240307E+01  0.13049108439E+03  0.13341811665E+03  0.10566000000E+00 0. -1.
        994    1    1    2    0    0 -0.21152436194E+02 -0.63468497561E+01  0.45287669064E+01  0.17267790185E+03  0.17120000000E+03 0.  0.
        998    1    1    2    0    0 -0.54360875192E+01  0.14440673787E+02  0.13649801450E+04  0.13651039815E+04  0.10000000000E+02 0. -1.
</event>
<event>
 5    1  0.1364103E-008  0.3837011E+03  0.7957747E-01  0.3435200E+00
         13   -1    0    0    0    0  0.00000000000E+00  0.00000000000E+00  0.14999999963E+04  0.15000000000E+04  0.10566000000E+00 0.  1.
        994   -1    0    0    0    0 -0.00000000000E+00 -0.00000000000E+00  0.11368683772E-12  0.17120000000E+03  0.17120000000E+03 0.  0.
         13    1    1    2    0    0  0.14202297351E+02 -0.22203035201E+02  0.13552026267E+03  0.13805952622E+03  0.10566000000E+00 0.  1.
        994    1    1    2    0    0 -0.24131006302E+02  0.21307540873E+02  0.57064002460E+01  0.17429377432E+03  0.17120000000E+03 0.  0.
        998    1    1    2    0    0  0.99287089508E+01  0.89549432859E+00  0.13587733334E+04  0.13588466995E+04  0.10000000000E+02 0.  1.
</event>
<event>
 5    1  0.1364103E-008  0.3835890E+03  0.7957747E-01  0.3435678E+00
         13   -1    0    0    0    0  0.00000000000E+00  0.00000000000E+00  0.14999999963E+04  0.15000000000E+04  0.10566000000E+00 0. -1.
        994   -1    0    0    0    0 -0.00000000000E+00 -0.00000000000E+00  0.11368683772E-12  0.17120000000E+03  0.17120000000E+03 0.  0.
         13    1    1    2    0    0  0.18613694934E+02  0.28689420667E+01  0.88204587117E+02  0.90192908924E+02  0.10566000000E+00 0. -1.
        994    1    1    2    0    0  0.12120246452E+02  0.20529407302E+01  0.28316824488E+01  0.17166412952E+03  0.17120000000E+03 0.  0.
        998    1    1    2    0    0 -0.30733941387E+02 -0.49218827969E+01  0.14089637267E+04  0.14093429616E+04  0.10000000000E+02 0. -1.
</event>
<event>
 5    1  0.1364103E-008  0.3841617E+03  0.7957747E-01  0.3433235E+00
         13   -1    0    0    0    0  0.00000000000E+00  0.00000000000E+00  0.14999999963E+04  0.15000000000E+04  0.10566000000E+00 0.  1.
        994   -1    0    0    0    0 -0.00000000000E+00 -0.00000000000E+00  0.11368683772E-12  0.17120000000E+03  0.17120000000E+03 0.  0.
         13    1    1    2    0    0 -0.11498129294E+02  0.20950225733E+02  0.12678801782E+03  0.12902066331E+03  0.10566000000E+00 0.  1.
        994    1    1    2    0    0  0.12874297900E+02 -0.23120807208E+02  0.43596823165E+01  0.17328810144E+03  0.17120000000E+03 0.  0.
        998    1    1    2    0    0 -0.13761686056E+01  0.21705814749E+01  0.13688522961E+04  0.13688912352E+04  0.10000000000E+02 0.  0.
</event>
<event>
 5    1  0.1364103E-008  0.3803656E+03  0.7957747E-01  0.3449568E+00
         13   -1    0    0    0    0  0.00000000000E+00  0.00000000000E+00  0.14999999963E+04  0.15000000000E+04  0.10566000000E+00 0.  1.
        994   -1    0    0    0    0 -0.00000000000E+00 -0.00000000000E+00  0.11368683772E-12  0.17120000000E+03  0.17120000000E+03 0.  0.
         13    1    1    2    0    0  0.18370178147E+02 -0.31806863549E+01  0.44005289558E+02  0.47791807708E+02  0.10566000000E+00 0.  1.
        994    1    1    2    0    0 -0.10162894245E+01  0.11385644906E+02  0.43850892073E+01  0.17163721846E+03  0.17120000000E+03 0.  0.
        998    1    1    2    0    0 -0.17353888722E+02 -0.82049585512E+01  0.14516096175E+04  0.14517709738E+04  0.10000000000E+02 0.  1.
</event>
<event>
 5    1  0.1364103E-008  0.3839054E+03  0.7957747E-01  0.3434328E+00
         13   -1    0    0    0    0  0.00000000000E+00  0.00000000000E+00  0.14999999963E+04  0.15000000000E+04  0.10566000000E+00 0. -1.
        994   -1    0    0    0    0 -0.00000000000E+00 -0.00000000000E+00  0.11368683772E-12  0.17120000000E+03  0.17120000000E+03 0.  0.
         13    1    1    2    0    0  0.12132202377E+02 -0.61669829218E+00  0.33796381347E+02  0.35913468330E+02  0.10566000000E+00 0. -1.
        994    1    1    2    0    0 -0.51585051999E+01 -0.40642948772E+01  0.23169117222E+01  0.17134157916E+03  0.17120000000E+03 0.  0.
        998    1    1    2    0    0 -0.69736971771E+01  0.46809931694E+01  0.14638867032E+04  0.14639449525E+04  0.10000000000E+02 0. -1.
</event>
<event>
 5    1  0.1364103E-008  0.3831453E+03  0.7957747E-01  0.3437576E+00
         13   -1    0    0    0    0  0.00000000000E+00  0.00000000000E+00  0.14999999963E+04  0.15000000000E+04  0.10566000000E+00 0.  1.
        994   -1    0    0    0    0 -0.00000000000E+00 -0.00000000000E+00  0.11368683772E-12  0.17120000000E+03  0.17120000000E+03 0.  0.
         13    1    1    2    0    0 -0.38701814461E+01 -0.12637523540E+02  0.33164797685E+02  0.35701544437E+02  0.10566000000E+00 0.  1.
        994    1    1    2    0    0  0.33867172138E+01  0.10099088726E+02  0.29292389317E+01  0.17155606048E+03  0.17120000000E+03 0.  0.
        998    1    1    2    0    0  0.48346423231E+00  0.25384348141E+01  0.14639059597E+04  0.14639423951E+04  0.10000000000E+02 0.  1.
</event>
<event>
 5    1  0.1364103E-008  0.3759562E+03  0.7957747E-01  0.3468957E+00
         13   -1    0    0    0    0  0.00000000000E+00  0.00000000000E+00  0.14999999963E+04  0.15000000000E+04  0.10566000000E+00 0. -1.
        994   -1    0    0    0    0 -0.00000000000E+00 -0.00000000000E+00  0.11368683772E-12  0.17120000000E+03  0.17120000000E+03 0.  0.
         13    1    1    2    0    0 -0.96962792896E+01  0.12740648659E+02  0.17902744299E+02  0.24017938667E+02  0.10566000000E+00 0. -1.
        994    1    1    2    0    0  0.85664474507E+01 -0.11719376723E+02  0.69028194199E+01  0.17195294917E+03  0.17120000000E+03 0.  0.
        998    1    1    2    0    0  0.11298318389E+01 -0.10212719362E+01  0.14751944326E+04  0.14752291122E+04  0.10000000000E+02 0. -1.
</event>
<event>
 5    1  0.1364103E-008  0.3842090E+03  0.7957747E-01  0.3433034E+00
         13   -1    0    0    0    0  0.00000000000E+00  0.00000000000E+00  0.14999999963E+04  0.15000000000E+04  0.10566000000E+00 0. -1.
        994   -1    0    0    0    0 -0.00000000000E+00 -0.00000000000E+00  0.11368683772E-12  0.17120000000E+03  0.17120000000E+03 0.  0.
         13    1    1    2    0    0  0.37989150185E-01 -0.14860450978E+02  0.56093506429E+02  0.58028674584E+02  0.10566000000E+00 0. -1.
        994    1    1    2    0    0 -0.67743067662E+01  0.34287434395E+01  0.22134784834E+01  0.17138257496E+03  0.17120000000E+03 0.  0.
        998    1    1    2    0    0  0.67363176160E+01  0.11431707539E+02  0.14416930114E+04  0.14417887505E+04  0.10000000000E+02 0. -1.
</event>
<event>
 5    1  0.1364103E-008  0.3840525E+03  0.7957747E-01  0.3433701E+00
         13   -1    0    0    0    0  0.00000000000E+00  0.00000000000E+00  0.14999999963E+04  0.15000000000E+04  0.10566000000E+00 0.  1.
        994   -1    0    0    0    0 -0.00000000000E+00 -0.00000000000E+00  0.11368683772E-12  0.17120000000E+03  0.17120000000E+03 0.  0.
         13    1    1    2    0    0  0.76097809208E+01  0.16086618875E+02  0.73100383113E+02  0.75235398901E+02  0.10566000000E+00 0.  1.
        994    1    1    2    0    0 -0.34041129145E+00 -0.17258899302E+02  0.30849029619E+01  0.17209573531E+03  0.17120000000E+03 0.  0.
        998    1    1    2    0    0 -0.72693696294E+01  0.11722804276E+01  0.14238147102E+04  0.14238688658E+04  0.10000000000E+02 0.  1.
</event>
<event>
 5    1  0.1364103E-008  0.3707289E+03  0.7957747E-01  0.3492548E+00
         13   -1    0    0    0    0  0.00000000000E+00  0.00000000000E+00  0.14999999963E+04  0.15000000000E+04  0.10566000000E+00 0. -1.
        994   -1    0    0    0    0 -0.00000000000E+00 -0.00000000000E+00  0.11368683772E-12  0.17120000000E+03  0.17120000000E+03 0.  0.
         13    1    1    2    0    0 -0.14678677069E+02 -0.31343827963E+02  0.48427306988E+02  0.59524065200E+02  0.10566000000E+00 0. -1.
        994    1    1    2    0    0  0.10604795179E+02  0.22114524527E+02  0.13435853156E+02  0.17346894830E+03  0.17120000000E+03 0.  0.
        998    1    1    2    0    0  0.40738818897E+01  0.92293034355E+01  0.14381368361E+04  0.14382069865E+04  0.10000000000E+02 0. -1.
</event>
<event>
 5    1  0.1364103E-008  0.3739072E+03  0.7957747E-01  0.3478124E+00
         13   -1    0    0    0    0  0.00000000000E+00  0.00000000000E+00  0.14999999963E+04  0.15000000000E+04  0.10566000000E+00 0. -1.
        994   -1    0    0    0    0 -0.00000000000E+00 -0.00000000000E+00  0.11368683772E-12  0.17120000000E+03  0.17120000000E+03 0.  0.
         13    1    1    2    0    0  0.19051055086E+02  0.58247735401E+02  0.13111351693E+03  0.14472908092E+03  0.10566000000E+00 0. -1.
        994    1    1    2    0    0 -0.15101091614E+02 -0.53751353999E+02  0.24152727775E+02  0.18168666788E+03  0.17120000000E+03 0.  0.
        998    1    1    2    0    0 -0.39499634720E+01 -0.44963814028E+01  0.13447337516E+04  0.13447842512E+04  0.10000000000E+02 0. -1.
</event>
<event>
 5    1  0.1364103E-008  0.3834734E+03  0.7957747E-01  0.3436173E+00
         13   -1    0    0    0    0  0.00000000000E+00  0.00000000000E+00  0.14999999963E+04  0.15000000000E+04  0.10566000000E+00 0.  1.
        994   -1    0    0    0    0 -0.00000000000E+00 -0.00000000000E+00  0.11368683772E-12  0.17120000000E+03  0.17120000000E+03 0.  0.
         13    1    1    2    0    0  0.30378206700E+02  0.23895575184E+02  0.19627370974E+03  0.20004303101E+03  0.10566000000E+00 0.  1.
        994    1    1    2    0    0 -0.56917176449E+02 -0.50548780792E+02  0.21783105539E+02  0.18862313724E+03  0.17120000000E+03 0.  0.
        998    1    1    2    0    0  0.26538969749E+02  0.26653205608E+02  0.12819431810E+04  0.12825338318E+04  0.10000000000E+02 0.  1.
</event>
<event>
 5    1  0.1364103E-008  0.3851036E+03  0.7957747E-01  0.3429233E+00
         13   -1    0    0    0    0  0.00000000000E+00  0.00000000000E+00  0.14999999963E+04  0.15000000000E+04  0.10566000000E+00 0. -1.
        994   -1    0    0    0    0 -0.00000000000E+00 -0.00000000000E+00  0.11368683772E-12  0.17120000000E+03  0.17120000000E+03 0.  0.
         13    1    1    2    0    0 -0.64766222458E+01  0.12947847684E+02  0.61314017202E+02  0.63000105276E+02  0.10566000000E+00 0. -1.
        994    1    1    2    0    0  0.57492637014E+01 -0.22455959625E+02  0.33471768933E+01  0.17279458252E+03  0.17120000000E+03 0.  0.
        998    1    1    2    0    0  0.72735854439E+00  0.95081119409E+01  0.14353388022E+04  0.14354053122E+04  0.10000000000E+02 0. -1.
</event>
<event>
 5    1  0.1364103E-008  0.3832787E+03  0.7957747E-01  0.3437006E+00
         13   -1    0    0    0    0  0.00000000000E+00  0.00000000000E+00  0.14999999963E+04  0.15000000000E+04  0.10566000000E+00 0.  1.
        994   -1    0    0    0    0 -0.00000000000E+00 -0.00000000000E+00  0.11368683772E-12  0.17120000000E+03  0.17120000000E+03 0.  0.
         13    1    1    2    0    0  0.15687586010E+02 -0.56785495040E+01  0.51403422753E+02  0.54043217095E+02  0.10566000000E+00 0.  1.
        994    1    1    2    0    0 -0.20359573847E+02  0.22055006930E+02  0.54723609715E+01  0.17389744769E+03  0.17120000000E+03 0.  0.
        998    1    1    2    0    0  0.46719878369E+01 -0.16376457426E+02  0.14431242126E+04  0.14432593352E+04  0.10000000000E+02 0.  1.
</event>
<event>
 5    1  0.1364103E-008  0.3848293E+03  0.7957747E-01  0.3430396E+00
         13   -1    0    0    0    0  0.00000000000E+00  0.00000000000E+00  0.14999999963E+04  0.15000000000E+04  0.10566000000E+00 0. -1.
        994   -1    0    0    0    0 -0.00000000000E+00 -0.00000000000E+00  0.11368683772E-12  0.17120000000E+03  0.17120000000E+03 0.  0.
         13    1    1    2    0    0  0.10747929799E+02 -0.13848652716E+02  0.10262305759E+03  0.10410958788E+03  0.10566000000E+00 0. -1.
        994    1    1    2    0    0 -0.11112188532E+01 -0.81608176351E+01  0.19381387159E+01  0.17140895581E+03  0.17120000000E+03 0.  0.
        998    1    1    2    0    0 -0.96367109461E+01  0.22009470351E+02  0.13954388000E+04  0.13956814563E+04  0.10000000000E+02 0. -1.
</event>
<event>
 5    1  0.1364103E-008  0.3713074E+03  0.7957747E-01  0.3489904E+00
         13   -1    0    0    0    0  0.00000000000E+00  0.00000000000E+00  0.14999999963E+04  0.15000000000E+04  0.10566000000E+00 0.  1.
        994   -1    0    0    0    0 -0.00000000000E+00 -0.00000000000E+00  0.11368683772E-12  0.17120000000E+03  0.17120000000E+03 0.  0.
         13    1    1    2    0    0  0.40985985320E+02  0.22034432301E+03  0.11789128057E+04  0.12000278689E+04  0.10566000000E+00 0.  1.
        994    1    1    2    0    0 -0.38670502411E+02 -0.21029280093E+03  0.17645593477E+03  0.32582910673E+03  0.17120000000E+03 0.  0.
        998    1    1    2    0    0 -0.23154829097E+01 -0.10051522083E+02  0.14463125584E+03  0.14534302434E+03  0.10000000000E+02 0.  1.
</event>
<event>
 5    1  0.1364103E-008  0.3844086E+03  0.7957747E-01  0.3432184E+00
         13   -1    0    0    0    0  0.00000000000E+00  0.00000000000E+00  0.14999999963E+04  0.15000000000E+04  0.10566000000E+00 0. -1.
        994   -1    0    0    0    0 -0.00000000000E+00 -0.00000000000E+00  0.11368683772E-12  0.17120000000E+03  0.17120000000E+03 0.  0.
         13    1    1    2    0    0  0.74111643495E+01  0.92738808465E+01  0.34755904017E+02  0.36727567998E+02  0.10566000000E+00 0. -1.
        994    1    1    2    0    0 -0.10111815940E+02 -0.14322349638E+02  0.29375052458E+01  0.17212044462E+03  0.17120000000E+03 0.  0.
        998    1    1    2    0    0  0.27006515903E+01  0.50484687917E+01  0.14623065870E+04  0.14623519874E+04  0.10000000000E+02 0. -1.
</event>
<event>
 5    1  0.1364103E-008  0.3704924E+03  0.7957747E-01  0.3493631E+00
         13   -1    0    0    0    0  0.00000000000E+00  0.00000000000E+00  0.14999999963E+04  0.15000000000E+04  0.10566000000E+00 0.  1.
        994   -1    0    0    0    0 -0.00000000000E+00 -0.00000000000E+00  0.11368683772E-12  0.17120000000E+03  0.17120000000E+03 0.  0.
         13    1    1    2    0    0  0.14924883117E+02  0.73007681726E+01  0.78797740823E+01  0.18389000940E+02  0.10566000000E+00 0.  1.
        994    1    1    2    0    0  0.24942835961E+02 -0.81010990218E+01  0.13611753244E+02  0.17373109306E+03  0.17120000000E+03 0.  0.
        998    1    1    2    0    0 -0.39867719077E+02  0.80033084923E+00  0.14785084690E+04  0.14790799060E+04  0.10000000000E+02 0.  1.
</event>
<event>
 5    1  0.1364103E-008  0.3846499E+03  0.7957747E-01  0.3431158E+00
         13   -1    0    0    0    0  0.00000000000E+00  0.00000000000E+00  0.14999999963E+04  0.15000000000E+04  0.10566000000E+00 0. -1.
        994   -1    0    0    0    0 -0.00000000000E+00 -0.00000000000E+00  0.11368683772E-12  0.17120000000E+03  0.17120000000E+03 0.  0.
         13    1    1    2    0    0 -0.11725653971E+02 -0.16696654780E+02  0.10542440953E+03  0.10738056868E+03  0.10566000000E+00 0. -1.
        994    1    1    2    0    0  0.12350863987E+02  0.21352731860E+02  0.38099794730E+01  0.17300993886E+03  0.17120000000E+03 0.  0.
        998    1    1    2    0    0 -0.62521001588E+00 -0.46560770799E+01  0.13907656073E+04  0.13908094925E+04  0.10000000000E+02 0. -1.
</event>
<event>
 5    1  0.1364103E-008  0.3828774E+03  0.7957747E-01  0.3438725E+00
         13   -1    0    0    0    0  0.00000000000E+00  0.00000000000E+00  0.14999999963E+04  0.15000000000E+04  0.10566000000E+00 0. -1.
        994   -1    0    0    0    0 -0.00000000000E+00 -0.00000000000E+00  0.11368683772E-12  0.17120000000E+03  0.17120000000E+03 0.  0.
         13    1    1    2    0    0 -0.95826188313E+01  0.43211102992E+01  0.20784733885E+02  0.23291949352E+02  0.10566000000E+00 0. -1.
        994    1    1    2    0    0 -0.11896524216E+02  0.37262070678E+01  0.32024530755E+01  0.17168316054E+03  0.17120000000E+03 0.  0.
        998    1    1    2    0    0  0.21479143048E+02 -0.80473173669E+01  0.14760128093E+04  0.14762248901E+04  0.10000000000E+02 0. -1.
</event>
<event>
 5    1  0.1364103E-008  0.3788498E+03  0.7957747E-01  0.3456182E+00
         13   -1    0    0    0    0  0.00000000000E+00  0.00000000000E+00  0.14999999963E+04  0.15000000000E+04  0.10566000000E+00 0. -1.
        994   -1    0    0    0    0 -0.00000000000E+00 -0.00000000000E+00  0.11368683772E-12  0.17120000000E+03  0.17120000000E+03 0.  0.
         13    1    1    2    0    0 -0.32302500065E+02 -0.59944621397E+02  0.19647062956E+03  0.20793635706E+03  0.10566000000E+00 0. -1.
        994    1    1    2    0    0  0.20584026347E+02 -0.45669261446E+02  0.24807341511E+02  0.18009505205E+03  0.17120000000E+03 0.  0.
        998    1    1    2    0    0  0.11718473718E+02  0.10561388284E+03  0.12787220252E+04  0.12831685909E+04  0.10000000000E+02 0. -1.
</event>
<event>
 5    1  0.1364103E-008  0.3845940E+03  0.7957747E-01  0.3431396E+00
         13   -1    0    0    0    0  0.00000000000E+00  0.00000000000E+00  0.14999999963E+04  0.15000000000E+04  0.10566000000E+00 0. -1.
        994   -1    0    0    0    0 -0.00000000000E+00 -0.00000000000E+00  0.11368683772E-12  0.17120000000E+03  0.17120000000E+03 0.  0.
         13    1    1    2    0    0  0.17290524681E+02  0.84749060936E+01  0.10192131811E+03  0.10372440661E+03  0.10566000000E+00 0. -1.
        994    1    1    2    0    0 -0.12487279901E+02  0.29235429212E+00  0.23457888504E+01  0.17167108189E+03  0.17120000000E+03 0.  0.
        998    1    1    2    0    0 -0.48032447799E+01 -0.87672603857E+01  0.13957328893E+04  0.13958045115E+04  0.10000000000E+02 0. -1.
</event>
<event>
 5    1  0.1364103E-008  0.3764809E+03  0.7957747E-01  0.3466626E+00
         13   -1    0    0    0    0  0.00000000000E+00  0.00000000000E+00  0.14999999963E+04  0.15000000000E+04  0.10566000000E+00 0.  1.
        994   -1    0    0    0    0 -0.00000000000E+00 -0.00000000000E+00  0.11368683772E-12  0.17120000000E+03  0.17120000000E+03 0.  0.
         13    1    1    2    0    0  0.21226755278E+02 -0.32630511252E+02  0.13958145889E+03  0.14490797160E+03  0.10566000000E+00 0.  1.
        994    1    1    2    0    0  0.11772753360E+02  0.12296135556E+02  0.69009626716E+01  0.17218262385E+03  0.17120000000E+03 0.  0.
        998    1    1    2    0    0 -0.32999508638E+02  0.20334375696E+02  0.13535175747E+04  0.13541094045E+04  0.10000000000E+02 0.  1.
</event>
<event>
 5    1  0.1364103E-008  0.3712942E+03  0.7957747E-01  0.3489964E+00
         13   -1    0    0    0    0  0.00000000000E+00  0.00000000000E+00  0.14999999963E+04  0.15000000000E+04  0.10566000000E+00 0. -1.
        994   -1    0    0    0    0 -0.00000000000E+00 -0.00000000000E+00  0.11368683772E-12  0.17120000000E+03  0.17120000000E+03 0.  0.
         13    1    1    2    0    0 -0.10302950489E+02  0.23697573332E+02  0.35626816711E+02  0.44011441735E+02  0.10566000000E+00 0. -1.
        994    1    1    2    0    0  0.61299377935E+01 -0.13775914776E+02  0.93771350395E+01  0.17211833902E+03  0.17120000000E+03 0.  0.
        998    1    1    2    0    0  0.41730126953E+01 -0.99216585560E+01  0.14549960445E+04  0.14550702192E+04  0.10000000000E+02 0. -1.
</event>
<event>
 5    1  0.1364103E-008  0.3712731E+03  0.7957747E-01  0.3490060E+00
         13   -1    0    0    0    0  0.00000000000E+00  0.00000000000E+00  0.14999999963E+04  0.15000000000E+04  0.10566000000E+00 0. -1.
        994   -1    0    0    0    0 -0.00000000000E+00 -0.00000000000E+00  0.11368683772E-12  0.17120000000E+03  0.17120000000E+03 0.  0.
         13    1    1    2    0    0 -0.48342178786E+01 -0.19840486196E+02  0.12297496331E+02  0.23838081614E+02  0.10566000000E+00 0. -1.
        994    1    1    2    0    0 -0.13419582322E+02  0.37562522832E+02  0.17221513893E+02  0.17662686334E+03  0.17120000000E+03 0.  0.
        998    1    1    2    0    0  0.18253800201E+02 -0.17722036636E+02  0.14704809861E+04  0.14707350550E+04  0.10000000000E+02 0. -1.
</event>
<event>
 5    1  0.1364103E-008  0.3699556E+03  0.7957747E-01  0.3496095E+00
         13   -1    0    0    0    0  0.00000000000E+00  0.00000000000E+00  0.14999999963E+04  0.15000000000E+04  0.10566000000E+00 0. -1.
        994   -1    0    0    0    0 -0.00000000000E+00 -0.00000000000E+00  0.11368683772E-12  0.17120000000E+03  0.17120000000E+03 0.  0.
         13    1    1    2    0    0 -0.38710178267E+02 -0.48727424387E+02  0.19416488167E+03  0.20389421823E+03  0.10566000000E+00 0. -1.
        994    1    1    2    0    0  0.73563292995E+01  0.12808338410E+02  0.11678292753E+02  0.17223237685E+03  0.17120000000E+03 0.  0.
        998    1    1    2    0    0  0.31353848967E+02  0.35919085977E+02  0.12941568219E+04  0.12950734049E+04  0.10000000000E+02 0. -1.
</event>
<event>
 5    1  0.1364103E-008  0.3792521E+03  0.7957747E-01  0.3454421E+00
         13   -1    0    0    0    0  0.00000000000E+00  0.00000000000E+00  0.14999999963E+04  0.15000000000E+04  0.10566000000E+00 0.  1.
        994   -1    0    0    0    0 -0.00000000000E+00 -0.00000000000E+00  0.11368683772E-12  0.17120000000E+03  0.17120000000E+03 0.  0.
         13    1    1    2    0    0 -0.63870307070E+01  0.23778175900E+02  0.69442282220E+02  0.73677931122E+02  0.10566000000E+00 0.  1.
        994    1    1    2    0    0  0.48213126572E+01 -0.60569216501E+00  0.45902801740E+01  0.17133044852E+03  0.17120000000E+03 0.  0.
        998    1    1    2    0    0  0.15657180498E+01 -0.23172483735E+02  0.14259674339E+04  0.14261916204E+04  0.10000000000E+02 0.  1.
</event>
<event>
 5    1  0.1364103E-008  0.3853797E+03  0.7957747E-01  0.3428063E+00
         13   -1    0    0    0    0  0.00000000000E+00  0.00000000000E+00  0.14999999963E+04  0.15000000000E+04  0.10566000000E+00 0.  1.
        994   -1    0    0    0    0 -0.00000000000E+00 -0.00000000000E+00  0.11368683772E-12  0.17120000000E+03  0.17120000000E+03 0.  0.
         13    1    1    2    0    0  0.11103702632E+02  0.10767787135E+02  0.82005768601E+02  0.83451750730E+02  0.10566000000E+00 0.  1.
        994    1    1    2    0    0 -0.62308979969E+01 -0.11030679378E+02  0.19690991054E+01  0.17167940275E+03  0.17120000000E+03 0.  0.
        998    1    1    2    0    0 -0.48728046355E+01  0.26289224286E+00  0.14160251286E+04  0.14160688465E+04  0.10000000000E+02 0.  1.
</event>
<event>
 5    1  0.1364103E-008  0.3794758E+03  0.7957747E-01  0.3453444E+00
         13   -1    0    0    0    0  0.00000000000E+00  0.00000000000E+00  0.14999999963E+04  0.15000000000E+04  0.10566000000E+00 0.  1.
        994   -1    0    0    0    0 -0.00000000000E+00 -0.00000000000E+00  0.11368683772E-12  0.17120000000E+03  0.17120000000E+03 0.  0.
         13    1    1    2    0    0 -0.10581247041E+02 -0.51412273515E+01  0.13766892464E+02  0.18108934253E+02  0.10566000000E+00 0.  1.
        994    1    1    2    0    0  0.11171991877E+02  0.13786774061E+00  0.48161349379E+01  0.17163177901E+03  0.17120000000E+03 0.  0.
        998    1    1    2    0    0 -0.59074483649E+00  0.50033596109E+01  0.14814169689E+04  0.14814592867E+04  0.10000000000E+02 0.  1.
</event>
<event>
 5    1  0.1364103E-008  0.3776418E+03  0.7957747E-01  0.3461491E+00
         13   -1    0    0    0    0  0.00000000000E+00  0.00000000000E+00  0.14999999963E+04  0.15000000000E+04  0.10566000000E+00 0. -1.
        994   -1    0    0    0    0 -0.00000000000E+00 -0.00000000000E+00  0.11368683772E-12  0.17120000000E+03  0.17120000000E+03 0.  0.
         13    1    1    2    0    0  0.89859708360E+02 -0.25182437446E+02  0.54985190518E+03  0.55771502681E+03  0.10566000000E+00 0. -1.
        994    1    1    2    0    0  0.30478724031E+01 -0.43556505255E+02  0.21918276553E+02  0.17803457395E+03  0.17120000000E+03 0.  0.
        998    1    1    2    0    0 -0.92907580763E+02  0.68738942701E+02  0.92822981455E+03  0.93545039923E+03  0.10000000000E+02 0. -1.
</event>
<event>
 5    1  0.1364103E-008  0.3772169E+03  0.7957747E-01  0.3463367E+00
         13   -1    0    0    0    0  0.00000000000E+00  0.00000000000E+00  0.14999999963E+04  0.15000000000E+04  0.10566000000E+00 0.  1.
        994   -1    0    0    0    0 -0.00000000000E+00 -0.00000000000E+00  0.11368683772E-12  0.17120000000E+03  0.17120000000E+03 0.  0.
         13    1    1    2    0    0  0.10667140699E+02 -0.28401641587E+01  0.84112951130E+01  0.13878597647E+02  0.10566000000E+00 0.  1.
        994    1    1    2    0    0 -0.11972306912E+02 -0.11470677399E+00  0.60284663377E+01  0.17172399860E+03  0.17120000000E+03 0.  0.
        998    1    1    2    0    0  0.13051662133E+01  0.29548709327E+01  0.14855602348E+04  0.14855974037E+04  0.10000000000E+02 0.  1.
</event>
<event>
 5    1  0.1364103E-008  0.3813551E+03  0.7957747E-01  0.3445279E+00
         13   -1    0    0    0    0  0.00000000000E+00  0.00000000000E+00  0.14999999963E+04  0.15000000000E+04  0.10566000000E+00 0. -1.
        994   -1    0    0    0    0 -0.00000000000E+00 -0.00000000000E+00  0.11368683772E-12  0.17120000000E+03  0.17120000000E+03 0.  0.
         13    1    1    2    0    0  0.24893961319E+02  0.10798580802E+02  0.10128728243E+03  0.10485915984E+03  0.10566000000E+00 0. -1.
        994    1    1    2    0    0 -0.22265386868E+02 -0.88196587074E+01  0.53616978746E+01  0.17295005532E+03  0.17120000000E+03 0.  0.
        998    1    1    2    0    0 -0.26285744505E+01 -0.19789220946E+01  0.13933510160E+04  0.13933907848E+04  0.10000000000E+02 0. -1.
</event>
<event>
 5    1  0.1364103E-008  0.3864174E+03  0.7957747E-01  0.3423683E+00
         13   -1    0    0    0    0  0.00000000000E+00  0.00000000000E+00  0.14999999963E+04  0.15000000000E+04  0.10566000000E+00 0.  1.
        994   -1    0    0    0    0 -0.00000000000E+00 -0.00000000000E+00  0.11368683772E-12  0.17120000000E+03  0.17120000000E+03 0.  0.
         13    1    1    2    0    0  0.70079969047E+01  0.79690265881E+01  0.62549813591E+02  0.63443736883E+02  0.10566000000E+00 0.  1.
        994    1    1    2    0    0 -0.62282309752E+01 -0.22618043813E+01  0.10718151445E+01  0.17133153652E+03  0.17120000000E+03 0.  0.
        998    1    1    2    0    0 -0.77976592952E+00 -0.57072222068E+01  0.14363783675E+04  0.14364247266E+04  0.10000000000E+02 0.  1.
</event>
<event>
 5    1  0.1364103E-008  0.3979422E+03  0.7957747E-01  0.3376571E+00
         13   -1    0    0    0    0  0.00000000000E+00  0.00000000000E+00  0.14999999963E+04  0.15000000000E+04  0.10566000000E+00 0.  1.
        994   -1    0    0    0    0 -0.00000000000E+00 -0.00000000000E+00  0.11368683772E-12  0.17120000000E+03  0.17120000000E+03 0.  0.
         13    1    1    2    0    0  0.28606587489E+02 -0.42435639284E+02  0.41445227366E+02  0.65854676103E+02  0.10566000000E+00 0.  1.
        994    1    1    2    0    0 -0.19482729876E+02  0.14580270178E+02  0.28856922656E+02  0.17531207325E+03  0.17120000000E+03 0.  0.
        998    1    1    2    0    0 -0.91238576129E+01  0.27855369106E+02  0.14296978463E+04  0.14300332506E+04  0.10000000000E+02 0.  1.
</event>
<event>
 5    1  0.1364103E-008  0.3816119E+03  0.7957747E-01  0.3444170E+00
         13   -1    0    0    0    0  0.00000000000E+00  0.00000000000E+00  0.14999999963E+04  0.15000000000E+04  0.10566000000E+00 0. -1.
        994   -1    0    0    0    0 -0.00000000000E+00 -0.00000000000E+00  0.11368683772E-12  0.17120000000E+03  0.17120000000E+03 0.  0.
         13    1    1    2    0    0  0.13284017562E+02 -0.87813735808E-01  0.25153678676E+02  0.28446292356E+02  0.10566000000E+00 0. -1.
        994    1    1    2    0    0 -0.10723734849E+02  0.33367569631E+01  0.37411799210E+01  0.17160876686E+03  0.17120000000E+03 0.  0.
        998    1    1    2    0    0 -0.25602827125E+01 -0.32489432273E+01  0.14711051377E+04  0.14711449408E+04  0.10000000000E+02 0. -1.
</event>
<event>
 5    1  0.1364103E-008  0.3833817E+03  0.7957747E-01  0.3436565E+00
         13   -1    0    0    0    0  0.00000000000E+00  0.00000000000E+00  0.14999999963E+04  0.15000000000E+04  0.10566000000E+00 0.  1.
        994   -1    0    0    0    0 -0.00000000000E+00 -0.00000000000E+00  0.11368683772E-12  0.17120000000E+03  0.17120000000E+03 0.  0.
         13    1    1    2    0    0 -0.78641288441E+01  0.14706967306E+02  0.57773793404E+02  0.60132867703E+02  0.10566000000E+00 0.  1.
        994    1    1    2    0    0  0.33961080991E+01 -0.52660545275E+01  0.25655341341E+01  0.17133384618E+03  0.17120000000E+03 0.  0.
        998    1    1    2    0    0  0.44680207450E+01 -0.94409127789E+01  0.14396606687E+04  0.14397332861E+04  0.10000000000E+02 0.  1.
</event>
<event>
 5    1  0.1364103E-008  0.3744053E+03  0.7957747E-01  0.3475887E+00
         13   -1    0    0    0    0  0.00000000000E+00  0.00000000000E+00  0.14999999963E+04  0.15000000000E+04  0.10566000000E+00 0. -1.
        994   -1    0    0    0    0 -0.00000000000E+00 -0.00000000000E+00  0.11368683772E-12  0.17120000000E+03  0.17120000000E+03 0.  0.
         13    1    1    2    0    0  0.14998502993E+02  0.25403893698E+02  0.61024349420E+02  0.67781231128E+02  0.10566000000E+00 0. -1.
        994    1    1    2    0    0 -0.44554856289E+01 -0.11671707524E+02  0.75162058482E+01  0.17181971208E+03  0.17120000000E+03 0.  0.
        998    1    1    2    0    0 -0.10543017364E+02 -0.13732186174E+02  0.14314594410E+04  0.14315990568E+04  0.10000000000E+02 0. -1.
</event>
<event>
 5    1  0.1364103E-008  0.3770250E+03  0.7957747E-01  0.3464215E+00
         13   -1    0    0    0    0  0.00000000000E+00  0.00000000000E+00  0.14999999963E+04  0.15000000000E+04  0.10566000000E+00 0.  1.
        994   -1    0    0    0    0 -0.00000000000E+00 -0.00000000000E+00  0.11368683772E-12  0.17120000000E+03  0.17120000000E+03 0.  0.
         13    1    1    2    0    0  0.46726511373E+02  0.32716569637E+02  0.25286745155E+03  0.25922133402E+03  0.10566000000E+00 0.  1.
        994    1    1    2    0    0 -0.51965211615E+02 -0.13602362531E+02  0.15446808824E+02  0.18009289655E+03  0.17120000000E+03 0.  0.
        998    1    1    2    0    0  0.52387002421E+01 -0.19114207106E+02  0.12316857359E+04  0.12318857694E+04  0.10000000000E+02 0. -1.
</event>
<event>
 5    1  0.1364103E-008  0.3837179E+03  0.7957747E-01  0.3435128E+00
         13   -1    0    0    0    0  0.00000000000E+00  0.00000000000E+00  0.14999999963E+04  0.15000000000E+04  0.10566000000E+00 0. -1.
        994   -1    0    0    0    0 -0.00000000000E+00 -0.00000000000E+00  0.11368683772E-12  0.17120000000E+03  0.17120000000E+03 0.  0.
         13    1    1    2    0    0 -0.10622244691E+02  0.11034289485E+01  0.24642869847E+02  0.26857621563E+02  0.10566000000E+00 0. -1.
        994    1    1    2    0    0  0.34423777892E+01 -0.13060427360E+02  0.28707003405E+01  0.17175594793E+03  0.17120000000E+03 0.  0.
        998    1    1    2    0    0  0.71798669014E+01  0.11956998411E+02  0.14724864261E+04  0.14725864305E+04  0.10000000000E+02 0. -1.
</event>
<event>
 5    1  0.1364103E-008  0.3840077E+03  0.7957747E-01  0.3433891E+00
         13   -1    0    0    0    0  0.00000000000E+00  0.00000000000E+00  0.14999999963E+04  0.15000000000E+04  0.10566000000E+00 0. -1.
        994   -1    0    0    0    0 -0.00000000000E+00 -0.00000000000E+00  0.11368683772E-12  0.17120000000E+03  0.17120000000E+03 0.  0.
         13    1    1    2    0    0  0.13756186832E+02  0.10454246022E+02  0.69474190635E+02  0.71590490042E+02  0.10566000000E+00 0. -1.
        994    1    1    2    0    0 -0.11856550798E+02 -0.45288240485E+01  0.26552262124E+01  0.17169035579E+03  0.17120000000E+03 0.  0.
        998    1    1    2    0    0 -0.18996360343E+01 -0.59254219731E+01  0.14278705794E+04  0.14279191542E+04  0.10000000000E+02 0. -1.
</event>
<event>
 5    1  0.1364103E-008  0.3812867E+03  0.7957747E-01  0.3445575E+00
         13   -1    0    0    0    0  0.00000000000E+00  0.00000000000E+00  0.14999999963E+04  0.15000000000E+04  0.10566000000E+00 0. -1.
        994   -1    0    0    0    0 -0.00000000000E+00 -0.00000000000E+00  0.11368683772E-12  0.17120000000E+03  0.17120000000E+03 0.  0.
         13    1    1    2    0    0  0.54159777841E+00 -0.39827266261E+02  0.20852817248E+03  0.21229817321E+03  0.10566000000E+00 0. -1.
        994    1    1    2    0    0  0.15323568279E+02  0.33819051413E+02  0.80875126174E+01  0.17536643876E+03  0.17120000000E+03 0.  0.
        998    1    1    2    0    0 -0.15865166058E+02  0.60082148480E+01  0.12833843112E+04  0.12835353880E+04  0.10000000000E+02 0. -1.
</event>
<event>
 5    1  0.1364103E-008  0.3786096E+03  0.7957747E-01  0.3457235E+00
         13   -1    0    0    0    0  0.00000000000E+00  0.00000000000E+00  0.14999999963E+04  0.15000000000E+04  0.10566000000E+00 0. -1.
        994   -1    0    0    0    0 -0.00000000000E+00 -0.00000000000E+00  0.11368683772E-12  0.17120000000E+03  0.17120000000E+03 0.  0.
         13    1    1    2    0    0  0.13121986239E+02  0.16166516034E+02  0.42106665926E+02  0.46973665420E+02  0.10566000000E+00 0. -1.
        994    1    1    2    0    0 -0.15450857622E+02 -0.12823382137E+02  0.61917812824E+01  0.17248462623E+03  0.17120000000E+03 0.  0.
        998    1    1    2    0    0  0.23288713832E+01 -0.33431338978E+01  0.14517015491E+04  0.14517417083E+04  0.10000000000E+02 0. -1.
</event>
<event>
 5    1  0.1364103E-008  0.3839011E+03  0.7957747E-01  0.3434346E+00
         13   -1    0    0    0    0  0.00000000000E+00  0.00000000000E+00  0.14999999963E+04  0.15000000000E+04  0.10566000000E+00 0.  1.
        994   -1    0    0    0    0 -0.00000000000E+00 -0.00000000000E+00  0.11368683772E-12  0.17120000000E+03  0.17120000000E+03 0.  0.
         13    1    1    2    0    0  0.83378840043E+01 -0.10720972298E+02  0.41580585428E+02  0.43742608579E+02  0.10566000000E+00 0.  1.
        994    1    1    2    0    0 -0.82622444352E+01  0.68037427514E+01  0.25549007880E+01  0.17155326612E+03  0.17120000000E+03 0.  0.
        998    1    1    2    0    0 -0.75639569006E-01  0.39172295469E+01  0.14558645101E+04  0.14559041253E+04  0.10000000000E+02 0.  1.
</event>
<event>
 5    1  0.1364103E-008  0.3849389E+03  0.7957747E-01  0.3429932E+00
         13   -1    0    0    0    0  0.00000000000E+00  0.00000000000E+00  0.14999999963E+04  0.15000000000E+04  0.10566000000E+00 0.  1.
        994   -1    0    0    0    0 -0.00000000000E+00 -0.00000000000E+00  0.11368683772E-12  0.17120000000E+03  0.17120000000E+03 0.  0.
         13    1    1    2    0    0  0.93674767576E+01  0.79315806761E+01  0.43753405991E+02  0.45442615381E+02  0.10566000000E+00 0.  1.
        994    1    1    2    0    0 -0.87532667717E+01 -0.12490871254E+02  0.24260985389E+01  0.17189522244E+03  0.17120000000E+03 0.  0.
        998    1    1    2    0    0 -0.61420998590E+00  0.45592905783E+01  0.14538204917E+04  0.14538621622E+04  0.10000000000E+02 0.  1.
</event>
<event>
 5    1  0.1364103E-008  0.3828726E+03  0.7957747E-01  0.3438745E+00
         13   -1    0    0    0    0  0.00000000000E+00  0.00000000000E+00  0.14999999963E+04  0.15000000000E+04  0.10566000000E+00 0. -1.
        994   -1    0    0    0    0 -0.00000000000E+00 -0.00000000000E+00  0.11368683772E-12  0.17120000000E+03  0.17120000000E+03 0.  0.
         13    1    1    2    0    0 -0.17801858001E+02  0.15675282772E+02  0.10090869260E+03  0.10365903745E+03  0.10566000000E+00 0. -1.
        994    1    1    2    0    0  0.72530673847E+01 -0.20972204461E+02  0.43224522261E+01  0.17268631660E+03  0.17120000000E+03 0.  0.
        998    1    1    2    0    0  0.10548790617E+02  0.52969216897E+01  0.13947688514E+04  0.13948546460E+04  0.10000000000E+02 0. -1.
</event>
<event>
 5    1  0.1364103E-008  0.3887631E+03  0.7957747E-01  0.3413868E+00
         13   -1    0    0    0    0  0.00000000000E+00  0.00000000000E+00  0.14999999963E+04  0.15000000000E+04  0.10566000000E+00 0.  1.
        994   -1    0    0    0    0 -0.00000000000E+00 -0.00000000000E+00  0.11368683772E-12  0.17120000000E+03  0.17120000000E+03 0.  0.
         13    1    1    2    0    0 -0.36178515228E+02  0.92382196683E+02  0.25792541762E+03  0.27634921286E+03  0.10566000000E+00 0.  1.
        994    1    1    2    0    0  0.70493508695E+01 -0.31745652626E+02  0.25195939224E+02  0.17607315287E+03  0.17120000000E+03 0.  0.
        998    1    1    2    0    0  0.29129164358E+02 -0.60636544057E+02  0.12168786394E+04  0.12187776343E+04  0.10000000000E+02 0.  1.
</event>
<event>
 5    1  0.1364103E-008  0.3828323E+03  0.7957747E-01  0.3438918E+00
         13   -1    0    0    0    0  0.00000000000E+00  0.00000000000E+00  0.14999999963E+04  0.15000000000E+04  0.10566000000E+00 0. -1.
        994   -1    0    0    0    0 -0.00000000000E+00 -0.00000000000E+00  0.11368683772E-12  0.17120000000E+03  0.17120000000E+03 0.  0.
         13    1    1    2    0    0  0.71695721155E+01  0.11920432631E+02  0.34088560186E+02  0.36817666656E+02  0.10566000000E+00 0. -1.
        994    1    1    2    0    0 -0.47697720667E+01 -0.14463252979E+02  0.34787216402E+01  0.17191125012E+03  0.17120000000E+03 0.  0.
        998    1    1    2    0    0 -0.23998000488E+01  0.25428203484E+01  0.14624327145E+04  0.14624710832E+04  0.10000000000E+02 0. -1.
</event>
<event>
 5    1  0.1364103E-008  0.3831781E+03  0.7957747E-01  0.3437436E+00
         13   -1    0    0    0    0  0.00000000000E+00  0.00000000000E+00  0.14999999963E+04  0.15000000000E+04  0.10566000000E+00 0.  1.
        994   -1    0    0    0    0 -0.00000000000E+00 -0.00000000000E+00  0.11368683772E-12  0.17120000000E+03  0.17120000000E+03 0.  0.
         13    1    1    2    0    0  0.10203087389E+01  0.21790757140E+02  0.10005453075E+03  0.10240507026E+03  0.10566000000E+00 0.  1.
        994    1    1    2    0    0 -0.19275010297E+02 -0.19994746350E+01  0.37806558638E+01  0.17233472453E+03  0.17120000000E+03 0.  0.
        998    1    1    2    0    0  0.18254701558E+02 -0.19791282505E+02  0.13961648097E+04  0.13964602052E+04  0.10000000000E+02 0.  1.
</event>
<event>
 5    1  0.1364103E-008  0.3746499E+03  0.7957747E-01  0.3474790E+00
         13   -1    0    0    0    0  0.00000000000E+00  0.00000000000E+00  0.14999999963E+04  0.15000000000E+04  0.10566000000E+00 0. -1.
        994   -1    0    0    0    0 -0.00000000000E+00 -0.00000000000E+00  0.11368683772E-12  0.17120000000E+03  0.17120000000E+03 0.  0.
         13    1    1    2    0    0  0.14101007651E+02  0.12896537660E+02  0.25510901443E+02  0.31874384023E+02  0.10566000000E+00 0. -1.
        994    1    1    2    0    0  0.16399785474E+02  0.50027232751E+01  0.78597508847E+01  0.17223587282E+03  0.17120000000E+03 0.  0.
        998    1    1    2    0    0 -0.30500793125E+02 -0.17899260935E+02  0.14666293440E+04  0.14670897432E+04  0.10000000000E+02 0. -1.
</event>
<event>
 5    1  0.1364103E-008  0.3809066E+03  0.7957747E-01  0.3447220E+00
         13   -1    0    0    0    0  0.00000000000E+00  0.00000000000E+00  0.14999999963E+04  0.15000000000E+04  0.10566000000E+00 0. -1.
        994   -1    0    0    0    0 -0.00000000000E+00 -0.00000000000E+00  0.11368683772E-12  0.17120000000E+03  0.17120000000E+03 0.  0.
         13    1    1    2    0    0 -0.74326545632E+01 -0.12179814678E+02  0.26499800980E+02  0.30097223384E+02  0.10566000000E+00 0. -1.
        994    1    1    2    0    0  0.91289234059E+01  0.21348956454E+01  0.39691990078E+01  0.17150244769E+03  0.17120000000E+03 0.  0.
        998    1    1    2    0    0 -0.16962688427E+01  0.10044919032E+02  0.14695309963E+04  0.14696003289E+04  0.10000000000E+02 0. -1.
</event>
<event>
 5    1  0.1364103E-008  0.3804529E+03  0.7957747E-01  0.3449189E+00
         13   -1    0    0    0    0  0.00000000000E+00  0.00000000000E+00  0.14999999963E+04  0.15000000000E+04  0.10566000000E+00 0.  1.
        994   -1    0    0    0    0 -0.00000000000E+00 -0.00000000000E+00  0.11368683772E-12  0.17120000000E+03  0.17120000000E+03 0.  0.
         13    1    1    2    0    0 -0.31164294472E+02 -0.17369997940E+01  0.13675958247E+03  0.14027624525E+03  0.10566000000E+00 0.  1.
        994    1    1    2    0    0  0.16785479530E+01  0.32845712650E+02  0.75236148785E+01  0.17449270226E+03  0.17120000000E+03 0.  0.
        998    1    1    2    0    0  0.29485746519E+02 -0.31108712856E+02  0.13557167989E+04  0.13564310525E+04  0.10000000000E+02 0.  1.
</event>
<event>
 5    1  0.1364103E-008  0.3854788E+03  0.7957747E-01  0.3427644E+00
         13   -1    0    0    0    0  0.00000000000E+00  0.00000000000E+00  0.14999999963E+04  0.15000000000E+04  0.10566000000E+00 0.  1.
        994   -1    0    0    0    0 -0.00000000000E+00 -0.00000000000E+00  0.11368683772E-12  0.17120000000E+03  0.17120000000E+03 0.  0.
         13    1    1    2    0    0  0.15094110499E+02 -0.11523736091E+01  0.83939888227E+02  0.85294056864E+02  0.10566000000E+00 0.  1.
        994    1    1    2    0    0 -0.77459829308E+01  0.24831528619E+01  0.16099209155E+01  0.17140069470E+03  0.17120000000E+03 0.  0.
        998    1    1    2    0    0 -0.73481275683E+01 -0.13307792528E+01  0.14144501871E+04  0.14145052484E+04  0.10000000000E+02 0.  1.
</event>
<event>
 5    1  0.1364103E-008  0.3793161E+03  0.7957747E-01  0.3454142E+00
         13   -1    0    0    0    0  0.00000000000E+00  0.00000000000E+00  0.14999999963E+04  0.15000000000E+04  0.10566000000E+00 0.  1.
        994   -1    0    0    0    0 -0.00000000000E+00 -0.00000000000E+00  0.11368683772E-12  0.17120000000E+03  0.17120000000E+03 0.  0.
         13    1    1    2    0    0 -0.39457891491E+00 -0.20895375679E+02  0.47847599711E+02  0.52212799000E+02  0.10566000000E+00 0.  1.
        994    1    1    2    0    0  0.10524631877E+02  0.88631971094E+01  0.51133686678E+01  0.17182814286E+03  0.17120000000E+03 0.  0.
        998    1    1    2    0    0 -0.10130052962E+02  0.12032178570E+02  0.14470390279E+04  0.14471590581E+04  0.10000000000E+02 0.  1.
</event>
<event>
 5    1  0.1364103E-008  0.3808776E+03  0.7957747E-01  0.3447346E+00
         13   -1    0    0    0    0  0.00000000000E+00  0.00000000000E+00  0.14999999963E+04  0.15000000000E+04  0.10566000000E+00 0. -1.
        994   -1    0    0    0    0 -0.00000000000E+00 -0.00000000000E+00  0.11368683772E-12  0.17120000000E+03  0.17120000000E+03 0.  0.
         13    1    1    2    0    0 -0.37034942989E+02  0.43213293620E+02  0.34326646386E+03  0.34795237048E+03  0.10566000000E+00 0. -1.
        994    1    1    2    0    0  0.28503196411E+02 -0.49702361098E+02  0.14711499267E+02  0.18113151331E+03  0.17120000000E+03 0.  0.
        998    1    1    2    0    0  0.85317465777E+01  0.64890674780E+01  0.11420220332E+04  0.11421161162E+04  0.10000000000E+02 0. -1.
</event>
<event>
 5    1  0.1364103E-008  0.3793676E+03  0.7957747E-01  0.3453917E+00
         13   -1    0    0    0    0  0.00000000000E+00  0.00000000000E+00  0.14999999963E+04  0.15000000000E+04  0.10566000000E+00 0. -1.
        994   -1    0    0    0    0 -0.00000000000E+00 -0.00000000000E+00  0.11368683772E-12  0.17120000000E+03  0.17120000000E+03 0.  0.
         13    1    1    2    0    0  0.88083715139E+01 -0.70814956964E+01  0.12110118646E+02  0.16565057431E+02  0.10566000000E+00 0. -1.
        994    1    1    2    0    0 -0.13786336870E+02  0.11110322996E+02  0.55036359463E+01  0.17220113928E+03  0.17120000000E+03 0.  0.
        998    1    1    2    0    0  0.49779653557E+01 -0.40288272994E+01  0.14823862417E+04  0.14824338033E+04  0.10000000000E+02 0. -1.
</event>
<event>
 5    1  0.1364103E-008  0.3860491E+03  0.7957747E-01  0.3425235E+00
         13   -1    0    0    0    0  0.00000000000E+00  0.00000000000E+00  0.14999999963E+04  0.15000000000E+04  0.10566000000E+00 0. -1.
        994   -1    0    0    0    0 -0.00000000000E+00 -0.00000000000E+00  0.11368683772E-12  0.17120000000E+03  0.17120000000E+03 0.  0.
         13    1    1    2    0    0  0.72957270505E+01  0.10964196347E+02  0.74052005618E+02  0.75214040809E+02  0.10566000000E+00 0. -1.
        994    1    1    2    0    0 -0.50827137698E+01 -0.16902214900E+02  0.21318574775E+01  0.17212060790E+03  0.17120000000E+03 0.  0.
        998    1    1    2    0    0 -0.22130132807E+01  0.59380185530E+01  0.14238161332E+04  0.14238653513E+04  0.10000000000E+02 0. -1.
</event>
<event>
 5    1  0.1364103E-008  0.3776180E+03  0.7957747E-01  0.3461596E+00
         13   -1    0    0    0    0  0.00000000000E+00  0.00000000000E+00  0.14999999963E+04  0.15000000000E+04  0.10566000000E+00 0. -1.
        994   -1    0    0    0    0 -0.00000000000E+00 -0.00000000000E+00  0.11368683772E-12  0.17120000000E+03  0.17120000000E+03 0.  0.
         13    1    1    2    0    0 -0.35477017281E+02 -0.24516656040E+02  0.18575114446E+03  0.19069133177E+03  0.10566000000E+00 0. -1.
        994    1    1    2    0    0  0.17672872558E+02 -0.18977706706E+01  0.64056586150E+01  0.17223938115E+03  0.17120000000E+03 0.  0.
        998    1    1    2    0    0  0.17804144722E+02  0.26414426710E+02  0.13078431932E+04  0.13082692871E+04  0.10000000000E+02 0. -1.
</event>
<event>
 5    1  0.1364103E-008  0.3766079E+03  0.7957747E-01  0.3466063E+00
         13   -1    0    0    0    0  0.00000000000E+00  0.00000000000E+00  0.14999999963E+04  0.15000000000E+04  0.10566000000E+00 0.  1.
        994   -1    0    0    0    0 -0.00000000000E+00 -0.00000000000E+00  0.11368683772E-12  0.17120000000E+03  0.17120000000E+03 0.  0.
         13    1    1    2    0    0  0.80589964654E-02  0.22630863350E+02  0.41725091089E+02  0.47467361748E+02  0.10566000000E+00 0.  1.
        994    1    1    2    0    0  0.40764276827E+01 -0.12670759691E+02  0.64545223525E+01  0.17183790697E+03  0.17120000000E+03 0.  0.
        998    1    1    2    0    0 -0.40844866791E+01 -0.99601036592E+01  0.14518203828E+04  0.14518947313E+04  0.10000000000E+02 0.  1.
</event>
<event>
 5    1  0.1364103E-008  0.3852298E+03  0.7957747E-01  0.3428698E+00
         13   -1    0    0    0    0  0.00000000000E+00  0.00000000000E+00  0.14999999963E+04  0.15000000000E+04  0.10566000000E+00 0. -1.
        994   -1    0    0    0    0 -0.00000000000E+00 -0.00000000000E+00  0.11368683772E-12  0.17120000000E+03  0.17120000000E+03 0.  0.
         13    1    1    2    0    0 -0.24463560103E+01  0.12513644369E+02  0.51517369506E+02  0.53071899137E+02  0.10566000000E+00 0. -1.
        994    1    1    2    0    0  0.46951028526E+01 -0.15047041864E+02  0.23329997666E+01  0.17193993238E+03  0.17120000000E+03 0.  0.
        998    1    1    2    0    0 -0.22487468423E+01  0.25333974945E+01  0.14461496270E+04  0.14461881685E+04  0.10000000000E+02 0. -1.
</event>
<event>
 5    1  0.1364103E-008  0.3754654E+03  0.7957747E-01  0.3471144E+00
         13   -1    0    0    0    0  0.00000000000E+00  0.00000000000E+00  0.14999999963E+04  0.15000000000E+04  0.10566000000E+00 0.  1.
        994   -1    0    0    0    0 -0.00000000000E+00 -0.00000000000E+00  0.11368683772E-12  0.17120000000E+03  0.17120000000E+03 0.  0.
         13    1    1    2    0    0 -0.69691014545E+02 -0.56279746990E+02  0.24454560407E+03  0.26043580987E+03  0.10566000000E+00 0.  1.
        994    1    1    2    0    0  0.30665365081E+02  0.98841911628E+02  0.53091631462E+02  0.20697403084E+03  0.17120000000E+03 0.  0.
        998    1    1    2    0    0  0.39025649464E+02 -0.42562164639E+02  0.12023627607E+04  0.12037901593E+04  0.10000000000E+02 0.  1.
</event>
<event>
 5    1  0.1364103E-008  0.3820042E+03  0.7957747E-01  0.3442478E+00
         13   -1    0    0    0    0  0.00000000000E+00  0.00000000000E+00  0.14999999963E+04  0.15000000000E+04  0.10566000000E+00 0.  1.
        994   -1    0    0    0    0 -0.00000000000E+00 -0.00000000000E+00  0.11368683772E-12  0.17120000000E+03  0.17120000000E+03 0.  0.
         13    1    1    2    0    0  0.86045743271E+01  0.74539385749E+01  0.19348313904E+02  0.22449238620E+02  0.10566000000E+00 0.  1.
        994    1    1    2    0    0 -0.47252909038E+01 -0.10801817483E+02  0.35866366972E+01  0.17164297713E+03  0.17120000000E+03 0.  0.
        998    1    1    2    0    0 -0.38792834233E+01  0.33478789082E+01  0.14770650457E+04  0.14771077843E+04  0.10000000000E+02 0.  1.
</event>
<event>
 5    1  0.1364103E-008  0.3814140E+03  0.7957747E-01  0.3445025E+00
         13   -1    0    0    0    0  0.00000000000E+00  0.00000000000E+00  0.14999999963E+04  0.15000000000E+04  0.10566000000E+00 0.  1.
        994   -1    0    0    0    0 -0.00000000000E+00 -0.00000000000E+00  0.11368683772E-12  0.17120000000E+03  0.17120000000E+03 0.  0.
         13    1    1    2    0    0 -0.25175404109E+00 -0.17789131259E+02  0.45992097417E+02  0.49313291919E+02  0.10566000000E+00 0.  1.
        994    1    1    2    0    0  0.72868438017E+01  0.62742882132E+01  0.37288145019E+01  0.17151037532E+03  0.17120000000E+03 0.  0.
        998    1    1    2    0    0 -0.70350897606E+01  0.11514843046E+02  0.14502790844E+04  0.14503763328E+04  0.10000000000E+02 0.  1.
</event>
<event>
 5    1  0.1364103E-008  0.3811949E+03  0.7957747E-01  0.3445972E+00
         13   -1    0    0    0    0  0.00000000000E+00  0.00000000000E+00  0.14999999963E+04  0.15000000000E+04  0.10566000000E+00 0. -1.
        994   -1    0    0    0    0 -0.00000000000E+00 -0.00000000000E+00  0.11368683772E-12  0.17120000000E+03  0.17120000000E+03 0.  0.
         13    1    1    2    0    0  0.61638307108E+02 -0.18832992712E+02  0.11981660506E+03  0.13605143340E+03  0.10566000000E+00 0. -1.
        994    1    1    2    0    0 -0.31606071001E+02  0.15450981167E+02  0.21502807534E+02  0.17609510861E+03  0.17120000000E+03 0.  0.
        998    1    1    2    0    0 -0.30032236107E+02  0.33820115444E+01  0.13586805837E+04  0.13590534580E+04  0.10000000000E+02 0. -1.
</event>
<event>
 5    1  0.1364103E-008  0.3804716E+03  0.7957747E-01  0.3449108E+00
         13   -1    0    0    0    0  0.00000000000E+00  0.00000000000E+00  0.14999999963E+04  0.15000000000E+04  0.10566000000E+00 0.  1.
        994   -1    0    0    0    0 -0.00000000000E+00 -0.00000000000E+00  0.11368683772E-12  0.17120000000E+03  0.17120000000E+03 0.  0.
         13    1    1    2    0    0 -0.96975687472E+01 -0.71672115496E+01  0.17383003226E+02  0.21156363728E+02  0.10566000000E+00 0.  1.
        994    1    1    2    0    0  0.55725439792E+01 -0.64883490958E+01  0.41394756941E+01  0.17146348643E+03  0.17120000000E+03 0.  0.
        998    1    1    2    0    0  0.41250247680E+01  0.13655560645E+02  0.14784775174E+04  0.14785801498E+04  0.10000000000E+02 0.  1.
</event>
<event>
 5    1  0.1364103E-008  0.3851163E+03  0.7957747E-01  0.3429179E+00
         13   -1    0    0    0    0  0.00000000000E+00  0.00000000000E+00  0.14999999963E+04  0.15000000000E+04  0.10566000000E+00 0. -1.
        994   -1    0    0    0    0 -0.00000000000E+00 -0.00000000000E+00  0.11368683772E-12  0.17120000000E+03  0.17120000000E+03 0.  0.
         13    1    1    2    0    0 -0.72283141785E+01  0.97573631937E+01  0.47533390096E+02  0.49060055039E+02  0.10566000000E+00 0. -1.
        994    1    1    2    0    0  0.21129792368E+01 -0.54292240127E+01  0.16839743005E+01  0.17130737557E+03  0.17120000000E+03 0.  0.
        998    1    1    2    0    0  0.51153349417E+01 -0.43281391810E+01  0.14507826319E+04  0.14508325694E+04  0.10000000000E+02 0. -1.
</event>
<event>
 5    1  0.1364103E-008  0.3759470E+03  0.7957747E-01  0.3468998E+00
         13   -1    0    0    0    0  0.00000000000E+00  0.00000000000E+00  0.14999999963E+04  0.15000000000E+04  0.10566000000E+00 0. -1.
        994   -1    0    0    0    0 -0.00000000000E+00 -0.00000000000E+00  0.11368683772E-12  0.17120000000E+03  0.17120000000E+03 0.  0.
         13    1    1    2    0    0 -0.37922542324E+02 -0.49180749004E+01  0.10860131647E+03  0.11513715204E+03  0.10566000000E+00 0. -1.
        994    1    1    2    0    0  0.37330828694E+02  0.41237038754E+01  0.10987804534E+02  0.17561539669E+03  0.17120000000E+03 0.  0.
        998    1    1    2    0    0  0.59171362973E+00  0.79437102504E+00  0.13804108753E+04  0.13804474513E+04  0.10000000000E+02 0.  0.
</event>
<event>
 5    1  0.1364103E-008  0.4076285E+03  0.7957747E-01  0.3339028E+00
         13   -1    0    0    0    0  0.00000000000E+00  0.00000000000E+00  0.14999999963E+04  0.15000000000E+04  0.10566000000E+00 0. -1.
        994   -1    0    0    0    0 -0.00000000000E+00 -0.00000000000E+00  0.11368683772E-12  0.17120000000E+03  0.17120000000E+03 0.  0.
         13    1    1    2    0    0 -0.84976600599E+02  0.51958914057E+02  0.16409845599E+03  0.19196110498E+03  0.10566000000E+00 0. -1.
        994    1    1    2    0    0 -0.18219649768E+02 -0.83369704580E+02  0.62505887750E+02  0.20124335836E+03  0.17120000000E+03 0.  0.
        998    1    1    2    0    0  0.10319625037E+03  0.31410790523E+02  0.12733956525E+04  0.12779955367E+04  0.10000000000E+02 0. -1.
</event>
<event>
 5    1  0.1490445E-008  0.3846439E+03  0.7957747E-01  0.3431184E+00
         13   -1    0    0    0    0  0.00000000000E+00  0.00000000000E+00  0.14999999963E+04  0.15000000000E+04  0.10566000000E+00 0.  1.
        994   -1    0    0    0    0 -0.00000000000E+00 -0.00000000000E+00  0.11368683772E-12  0.17120000000E+03  0.17120000000E+03 0.  0.
         13    1    1    2    0    0 -0.97534302751E+01  0.35617090696E+01  0.28820933020E+02  0.30634498818E+02  0.10566000000E+00 0.  1.
        994    1    1    2    0    0  0.11056664793E+02 -0.57056493016E+01  0.23168999179E+01  0.17166715555E+03  0.17120000000E+03 0.  0.
        998    1    1    2    0    0 -0.13032345178E+01  0.21439402320E+01  0.14688621633E+04  0.14688983456E+04  0.10000000000E+02 0.  1.
</event>
<event>
 5    1  0.1364103E-008  0.3861904E+03  0.7957747E-01  0.3424639E+00
         13   -1    0    0    0    0  0.00000000000E+00  0.00000000000E+00  0.14999999963E+04  0.15000000000E+04  0.10566000000E+00 0. -1.
        994   -1    0    0    0    0 -0.00000000000E+00 -0.00000000000E+00  0.11368683772E-12  0.17120000000E+03  0.17120000000E+03 0.  0.
         13    1    1    2    0    0  0.26496918473E+02 -0.10496632389E+02  0.11649669371E+02  0.30789477757E+02  0.10566000000E+00 0. -1.
        994    1    1    2    0    0 -0.36448473914E+02  0.13777958705E+02  0.25420549214E+02  0.17740904069E+03  0.17120000000E+03 0.  0.
        998    1    1    2    0    0  0.99515554411E+01 -0.32813263165E+01  0.14629297777E+04  0.14630014816E+04  0.10000000000E+02 0. -1.
</event>
<event>
 5    1  0.1364103E-008  0.3807043E+03  0.7957747E-01  0.3448098E+00
         13   -1    0    0    0    0  0.00000000000E+00  0.00000000000E+00  0.14999999963E+04  0.15000000000E+04  0.10566000000E+00 0.  1.
        994   -1    0    0    0    0 -0.00000000000E+00 -0.00000000000E+00  0.11368683772E-12  0.17120000000E+03  0.17120000000E+03 0.  0.
         13    1    1    2    0    0  0.13970301441E+02 -0.14651982782E+02  0.50940044247E+02  0.54815592615E+02  0.10566000000E+00 0.  1.
        994    1    1    2    0    0 -0.12066084838E+02  0.19834989836E+02  0.55778212409E+01  0.17285707771E+03  0.17120000000E+03 0.  0.
        998    1    1    2    0    0 -0.19042166024E+01 -0.51830070544E+01  0.14434821308E+04  0.14435273297E+04  0.10000000000E+02 0.  1.
</event>
<event>
 5    1  0.1364103E-008  0.3721921E+03  0.7957747E-01  0.3485877E+00
         13   -1    0    0    0    0  0.00000000000E+00  0.00000000000E+00  0.14999999963E+04  0.15000000000E+04  0.10566000000E+00 0.  1.
        994   -1    0    0    0    0 -0.00000000000E+00 -0.00000000000E+00  0.11368683772E-12  0.17120000000E+03  0.17120000000E+03 0.  0.
         13    1    1    2    0    0  0.99668426831E+01 -0.50543409855E+01  0.38846926349E+01  0.11831581330E+02  0.10566000000E+00 0.  1.
        994    1    1    2    0    0 -0.13534447774E+02 -0.17838561080E+01  0.87675707628E+01  0.17196707160E+03  0.17120000000E+03 0.  0.
        998    1    1    2    0    0  0.35676050913E+01  0.68381970935E+01  0.14873477329E+04  0.14874013471E+04  0.10000000000E+02 0.  1.
</event>
<event>
 5    1  0.1364103E-008  0.3771908E+03  0.7957747E-01  0.3463482E+00
         13   -1    0    0    0    0  0.00000000000E+00  0.00000000000E+00  0.14999999963E+04  0.15000000000E+04  0.10566000000E+00 0. -1.
        994   -1    0    0    0    0 -0.00000000000E+00 -0.00000000000E+00  0.11368683772E-12  0.17120000000E+03  0.17120000000E+03 0.  0.
         13    1    1    2    0    0 -0.47199917508E+02 -0.56686602987E+02  0.15991531442E+03  0.17610826817E+03  0.10566000000E+00 0. -1.
        994    1    1    2    0    0  0.21695880436E+02  0.79223618362E+02  0.39408436018E+02  0.19393183793E+03  0.17120000000E+03 0.  0.
        998    1    1    2    0    0  0.25504037073E+02 -0.22537015376E+02  0.13006762458E+04  0.13011598939E+04  0.10000000000E+02 0. -1.
</event>
<event>
 5    1  0.1364103E-008  0.3781708E+03  0.7957747E-01  0.3459162E+00
         13   -1    0    0    0    0  0.00000000000E+00  0.00000000000E+00  0.14999999963E+04  0.15000000000E+04  0.10566000000E+00 0. -1.
        994   -1    0    0    0    0 -0.00000000000E+00 -0.00000000000E+00  0.11368683772E-12  0.17120000000E+03  0.17120000000E+03 0.  0.
         13    1    1    2    0    0  0.15582481727E+02 -0.36216160063E+02  0.18613686804E+03  0.19026657299E+03  0.10566000000E+00 0. -1.
        994    1    1    2    0    0  0.12431634871E+02 -0.24875247290E+01  0.56001536618E+01  0.17176010901E+03  0.17120000000E+03 0.  0.
        998    1    1    2    0    0 -0.28014116598E+02  0.38703684792E+02  0.13082629746E+04  0.13091733180E+04  0.10000000000E+02 0. -1.
</event>
<event>
 5    1  0.1364103E-008  0.3841223E+03  0.7957747E-01  0.3433403E+00
         13   -1    0    0    0    0  0.00000000000E+00  0.00000000000E+00  0.14999999963E+04  0.15000000000E+04  0.10566000000E+00 0. -1.
        994   -1    0    0    0    0 -0.00000000000E+00 -0.00000000000E+00  0.11368683772E-12  0.17120000000E+03  0.17120000000E+03 0.  0.
         13    1    1    2    0    0  0.12831160780E+02  0.27048686250E+01  0.41283959247E+02  0.43316641794E+02  0.10566000000E+00 0. -1.
        994    1    1    2    0    0 -0.79189866096E+01 -0.13734274678E+01  0.22796152352E+01  0.17140371436E+03  0.17120000000E+03 0.  0.
        998    1    1    2    0    0 -0.49121741700E+01 -0.13314411572E+01  0.14564364218E+04  0.14564796438E+04  0.10000000000E+02 0. -1.
</event>
<event>
 5    1  0.1364103E-008  0.3722514E+03  0.7957747E-01  0.3485607E+00
         13   -1    0    0    0    0  0.00000000000E+00  0.00000000000E+00  0.14999999963E+04  0.15000000000E+04  0.10566000000E+00 0.  1.
        994   -1    0    0    0    0 -0.00000000000E+00 -0.00000000000E+00  0.11368683772E-12  0.17120000000E+03  0.17120000000E+03 0.  0.
         13    1    1    2    0    0  0.34707525058E+02 -0.99599689643E+01  0.88031592134E+02  0.95149280896E+02  0.10566000000E+00 0.  1.
        994    1    1    2    0    0  0.17043847748E+02  0.19373602578E+02  0.10384866269E+02  0.17344484619E+03  0.17120000000E+03 0.  0.
        998    1    1    2    0    0 -0.51751372806E+02 -0.94136336133E+01  0.14015835379E+04  0.14026058729E+04  0.10000000000E+02 0.  1.
</event>
<event>
 5    1  0.1364103E-008  0.3747247E+03  0.7957747E-01  0.3474455E+00
         13   -1    0    0    0    0  0.00000000000E+00  0.00000000000E+00  0.14999999963E+04  0.15000000000E+04  0.10566000000E+00 0.  1.
        994   -1    0    0    0    0 -0.00000000000E+00 -0.00000000000E+00  0.11368683772E-12  0.17120000000E+03  0.17120000000E+03 0.  0.
         13    1    1    2    0    0 -0.79838470067E+02  0.12485027264E+02  0.44506464653E+03  0.45234125167E+03  0.10566000000E+00 0.  1.
        994    1    1    2    0    0  0.51844689428E+02 -0.14852995557E+02  0.16781053651E+02  0.18027625207E+03  0.17120000000E+03 0.  0.
        998    1    1    2    0    0  0.27993780638E+02  0.23679682924E+01  0.10381542961E+04  0.10385824963E+04  0.10000000000E+02 0.  1.
</event>
<event>
 5    1  0.1364103E-008  0.3845534E+03  0.7957747E-01  0.3431569E+00
         13   -1    0    0    0    0  0.00000000000E+00  0.00000000000E+00  0.14999999963E+04  0.15000000000E+04  0.10566000000E+00 0. -1.
        994   -1    0    0    0    0 -0.00000000000E+00 -0.00000000000E+00  0.11368683772E-12  0.17120000000E+03  0.17120000000E+03 0.  0.
         13    1    1    2    0    0 -0.96377593925E+01 -0.12812440613E+02  0.70848485414E+02  0.72639962073E+02  0.10566000000E+00 0. -1.
        994    1    1    2    0    0  0.65041870046E+00  0.79038763130E+01  0.20592072998E+01  0.17139595865E+03  0.17120000000E+03 0.  0.
        998    1    1    2    0    0  0.89873406921E+01  0.49085642996E+01  0.14270923036E+04  0.14271640793E+04  0.10000000000E+02 0. -1.
</event>
<event>
 5    1  0.1364103E-008  0.3813880E+03  0.7957747E-01  0.3445137E+00
         13   -1    0    0    0    0  0.00000000000E+00  0.00000000000E+00  0.14999999963E+04  0.15000000000E+04  0.10566000000E+00 0.  1.
        994   -1    0    0    0    0 -0.00000000000E+00 -0.00000000000E+00  0.11368683772E-12  0.17120000000E+03  0.17120000000E+03 0.  0.
         13    1    1    2    0    0  0.22844859412E+02  0.40022754150E+01  0.73471732602E+02  0.77045522035E+02  0.10566000000E+00 0.  1.
        994    1    1    2    0    0 -0.23937082383E+02 -0.71979808010E+01  0.55160212580E+01  0.17310303675E+03  0.17120000000E+03 0.  0.
        998    1    1    2    0    0  0.10922229715E+01  0.31957053860E+01  0.14210122424E+04  0.14210514412E+04  0.10000000000E+02 0.  1.
</event>
<event>
 5    1  0.1364103E-008  0.3837441E+03  0.7957747E-01  0.3435016E+00
         13   -1    0    0    0    0  0.00000000000E+00  0.00000000000E+00  0.14999999963E+04  0.15000000000E+04  0.10566000000E+00 0.  1.
        994   -1    0    0    0    0 -0.00000000000E+00 -0.00000000000E+00  0.11368683772E-12  0.17120000000E+03  0.17120000000E+03 0.  0.
         13    1    1    2    0    0 -0.11890174393E+02 -0.19243115283E+02  0.10808756385E+03  0.11042919159E+03  0.10566000000E+00 0.  1.
        994    1    1    2    0    0  0.16477455312E+02  0.13754515395E+02  0.37776592740E+01  0.17258158632E+03  0.17120000000E+03 0.  0.
        998    1    1    2    0    0 -0.45872809187E+01  0.54885998878E+01  0.13881347732E+04  0.13881892221E+04  0.10000000000E+02 0.  1.
</event>
<event>
 5    1  0.1364103E-008  0.3736959E+03  0.7957747E-01  0.3479076E+00
         13   -1    0    0    0    0  0.00000000000E+00  0.00000000000E+00  0.14999999963E+04  0.15000000000E+04  0.10566000000E+00 0.  1.
        994   -1    0    0    0    0 -0.00000000000E+00 -0.00000000000E+00  0.11368683772E-12  0.17120000000E+03  0.17120000000E+03 0.  0.
         13    1    1    2    0    0  0.74401624492E+01  0.46317209440E+02  0.13367336036E+03  0.14166586866E+03  0.10566000000E+00 0.  1.
        994    1    1    2    0    0 -0.49910031975E+01 -0.48663837052E+02  0.15564812914E+02  0.17873103410E+03  0.17120000000E+03 0.  0.
        998    1    1    2    0    0 -0.24491592516E+01  0.23466276115E+01  0.13507618230E+04  0.13508030972E+04  0.10000000000E+02 0.  1.
</event>
<event>
 5    1  0.1364103E-008  0.3759931E+03  0.7957747E-01  0.3468793E+00
         13   -1    0    0    0    0  0.00000000000E+00  0.00000000000E+00  0.14999999963E+04  0.15000000000E+04  0.10566000000E+00 0. -1.
        994   -1    0    0    0    0 -0.00000000000E+00 -0.00000000000E+00  0.11368683772E-12  0.17120000000E+03  0.17120000000E+03 0.  0.
         13    1    1    2    0    0 -0.28328343669E+02 -0.46995135722E+02  0.20471327555E+03  0.21194002498E+03  0.10566000000E+00 0. -1.
        994    1    1    2    0    0  0.35378286014E+02  0.47496111806E+02  0.18146541414E+02  0.18206109064E+03  0.17120000000E+03 0.  0.
        998    1    1    2    0    0 -0.70499423446E+01 -0.50097608394E+00  0.12771401793E+04  0.12771988844E+04  0.10000000000E+02 0. -1.
</event>
<event>
 5    1  0.1364103E-008  0.3801705E+03  0.7957747E-01  0.3450416E+00
         13   -1    0    0    0    0  0.00000000000E+00  0.00000000000E+00  0.14999999963E+04  0.15000000000E+04  0.10566000000E+00 0. -1.
        994   -1    0    0    0    0 -0.00000000000E+00 -0.00000000000E+00  0.11368683772E-12  0.17120000000E+03  0.17120000000E+03 0.  0.
         13    1    1    2    0    0  0.11044211278E+02 -0.33253110002E+01  0.13759529878E+02  0.17954612847E+02  0.10566000000E+00 0. -1.
        994    1    1    2    0    0 -0.28619039731E+02  0.23957687791E+02  0.87152573958E+01  0.17543778370E+03  0.17120000000E+03 0.  0.
        998    1    1    2    0    0  0.17574828453E+02 -0.20632376791E+02  0.14775252090E+04  0.14778076034E+04  0.10000000000E+02 0. -1.
</event>
<event>
 5    1  0.1364103E-008  0.3831701E+03  0.7957747E-01  0.3437470E+00
         13   -1    0    0    0    0  0.00000000000E+00  0.00000000000E+00  0.14999999963E+04  0.15000000000E+04  0.10566000000E+00 0. -1.
        994   -1    0    0    0    0 -0.00000000000E+00 -0.00000000000E+00  0.11368683772E-12  0.17120000000E+03  0.17120000000E+03 0.  0.
         13    1    1    2    0    0 -0.25475026813E+02 -0.76401271850E+01  0.15863007486E+03  0.16084421143E+03  0.10566000000E+00 0. -1.
        994    1    1    2    0    0  0.52825982997E+01 -0.16887067257E+02  0.35777961495E+01  0.17214911998E+03  0.17120000000E+03 0.  0.
        998    1    1    2    0    0  0.20192428513E+02  0.24527194443E+02  0.13377921253E+04  0.13382066686E+04  0.10000000000E+02 0. -1.
</event>
<event>
 5    1  0.1364103E-008  0.3855775E+03  0.7957747E-01  0.3427227E+00
         13   -1    0    0    0    0  0.00000000000E+00  0.00000000000E+00  0.14999999963E+04  0.15000000000E+04  0.10566000000E+00 0.  1.
        994   -1    0    0    0    0 -0.00000000000E+00 -0.00000000000E+00  0.11368683772E-12  0.17120000000E+03  0.17120000000E+03 0.  0.
         13    1    1    2    0    0  0.10264927215E+02 -0.25848944069E+01  0.42175561144E+02  0.43483784698E+02  0.10566000000E+00 0.  1.
        994    1    1    2    0    0 -0.46175439252E+01  0.58928221898E+01  0.15276796607E+01  0.17137042006E+03  0.17120000000E+03 0.  0.
        998    1    1    2    0    0 -0.56473832901E+01 -0.33079277829E+01  0.14562967555E+04  0.14563457952E+04  0.10000000000E+02 0.  1.
</event>
<event>
 5    1  0.1364103E-008  0.3797313E+03  0.7957747E-01  0.3452329E+00
         13   -1    0    0    0    0  0.00000000000E+00  0.00000000000E+00  0.14999999963E+04  0.15000000000E+04  0.10566000000E+00 0.  1.
        994   -1    0    0    0    0 -0.00000000000E+00 -0.00000000000E+00  0.11368683772E-12  0.17120000000E+03  0.17120000000E+03 0.  0.
         13    1    1    2    0    0  0.14886303355E+02 -0.65875319484E+01  0.29126240450E+02  0.33366849589E+02  0.10566000000E+00 0.  1.
        994    1    1    2    0    0 -0.97656314727E+01  0.11104574801E+02  0.50008487180E+01  0.17191023131E+03  0.17120000000E+03 0.  0.
        998    1    1    2    0    0 -0.51206718820E+01 -0.45170428528E+01  0.14658729071E+04  0.14659229191E+04  0.10000000000E+02 0.  1.
</event>
<event>
 5    1  0.1364103E-008  0.3849885E+03  0.7957747E-01  0.3429721E+00
         13   -1    0    0    0    0  0.00000000000E+00  0.00000000000E+00  0.14999999963E+04  0.15000000000E+04  0.10566000000E+00 0. -1.
        994   -1    0    0    0    0 -0.00000000000E+00 -0.00000000000E+00  0.11368683772E-12  0.17120000000E+03  0.17120000000E+03 0.  0.
         13    1    1    2    0    0 -0.18271502249E+02  0.10998671287E+01  0.10673075469E+03  0.10828906992E+03  0.10566000000E+00 0. -1.
        994    1    1    2    0    0  0.67752047992E+01  0.16293858816E+01  0.17955764118E+01  0.17135116689E+03  0.17120000000E+03 0.  0.
        998    1    1    2    0    0  0.11496297450E+02 -0.27292530102E+01  0.13914736652E+04  0.13915597632E+04  0.10000000000E+02 0. -1.
</event>
<event>
 5    1  0.1364103E-008  0.3842777E+03  0.7957747E-01  0.3432741E+00
         13   -1    0    0    0    0  0.00000000000E+00  0.00000000000E+00  0.14999999963E+04  0.15000000000E+04  0.10566000000E+00 0.  1.
        994   -1    0    0    0    0 -0.00000000000E+00 -0.00000000000E+00  0.11368683772E-12  0.17120000000E+03  0.17120000000E+03 0.  0.
         13    1    1    2    0    0  0.10945056706E+01  0.24809732711E+02  0.13629951192E+03  0.13854345489E+03  0.10566000000E+00 0.  1.
        994    1    1    2    0    0 -0.24811850160E+01 -0.30433742370E+02  0.50686617604E+01  0.17397557382E+03  0.17120000000E+03 0.  0.
        998    1    1    2    0    0  0.13866793453E+01  0.56240096590E+01  0.13586318226E+04  0.13586809713E+04  0.10000000000E+02 0.  1.
</event>
<event>
 5    1  0.1364103E-008  0.3805912E+03  0.7957747E-01  0.3448588E+00
         13   -1    0    0    0    0  0.00000000000E+00  0.00000000000E+00  0.14999999963E+04  0.15000000000E+04  0.10566000000E+00 0. -1.
        994   -1    0    0    0    0 -0.00000000000E+00 -0.00000000000E+00  0.11368683772E-12  0.17120000000E+03  0.17120000000E+03 0.  0.
         13    1    1    2    0    0 -0.23489678772E+02  0.91249238262E+02  0.50790747211E+03  0.51657351837E+03  0.10566000000E+00 0. -1.
        994    1    1    2    0    0 -0.28189994797E+02  0.18557086871E+02  0.20799740349E+02  0.17573022073E+03  0.17120000000E+03 0.  0.
        998    1    1    2    0    0  0.51679673569E+02 -0.10980632513E+03  0.97129278382E+03  0.97889626090E+03  0.10000000000E+02 0. -1.
</event>
<event>
 5    1  0.1364103E-008  0.3737784E+03  0.7957747E-01  0.3478704E+00
         13   -1    0    0    0    0  0.00000000000E+00  0.00000000000E+00  0.14999999963E+04  0.15000000000E+04  0.10566000000E+00 0.  1.
        994   -1    0    0    0    0 -0.00000000000E+00 -0.00000000000E+00  0.11368683772E-12  0.17120000000E+03  0.17120000000E+03 0.  0.
         13    1    1    2    0    0 -0.31463854086E+02  0.16880996580E+02  0.80793405514E+02  0.88331917776E+02  0.10566000000E+00 0.  1.
        994    1    1    2    0    0  0.32978455656E+02 -0.11999226060E+02  0.11522594699E+02  0.17513928786E+03  0.17120000000E+03 0.  0.
        998    1    1    2    0    0 -0.15146015697E+01 -0.48817705199E+01  0.14076839961E+04  0.14077287944E+04  0.10000000000E+02 0.  1.
</event>
<event>
 5    1  0.1364103E-008  0.3844313E+03  0.7957747E-01  0.3432088E+00
         13   -1    0    0    0    0  0.00000000000E+00  0.00000000000E+00  0.14999999963E+04  0.15000000000E+04  0.10566000000E+00 0.  1.
        994   -1    0    0    0    0 -0.00000000000E+00 -0.00000000000E+00  0.11368683772E-12  0.17120000000E+03  0.17120000000E+03 0.  0.
         13    1    1    2    0    0 -0.11314557557E+02  0.27958847847E+01  0.35302668355E+02  0.37176951750E+02  0.10566000000E+00 0.  1.
        994    1    1    2    0    0  0.71623648546E+01  0.12330497471E+01  0.20868079979E+01  0.17136690068E+03  0.17120000000E+03 0.  0.
        998    1    1    2    0    0  0.41521927021E+01 -0.40289345318E+01  0.14626105199E+04  0.14626561476E+04  0.10000000000E+02 0.  1.
</event>
<event>
 5    1  0.1364103E-008  0.3854395E+03  0.7957747E-01  0.3427810E+00
         13   -1    0    0    0    0  0.00000000000E+00  0.00000000000E+00  0.14999999963E+04  0.15000000000E+04  0.10566000000E+00 0. -1.
        994   -1    0    0    0    0 -0.00000000000E+00 -0.00000000000E+00  0.11368683772E-12  0.17120000000E+03  0.17120000000E+03 0.  0.
         13    1    1    2    0    0 -0.11765292315E+02  0.11821689638E+02  0.88603844777E+02  0.90160007334E+02  0.10566000000E+00 0. -1.
        994    1    1    2    0    0  0.29883803406E+02 -0.61180322137E+01  0.44737200926E+01  0.17395380477E+03  0.17120000000E+03 0.  0.
        998    1    1    2    0    0 -0.18118511091E+02 -0.57036574242E+01  0.14069224314E+04  0.14070861879E+04  0.10000000000E+02 0. -1.
</event>
<event>
 5    1  0.1364103E-008  0.3784389E+03  0.7957747E-01  0.3457984E+00
         13   -1    0    0    0    0  0.00000000000E+00  0.00000000000E+00  0.14999999963E+04  0.15000000000E+04  0.10566000000E+00 0. -1.
        994   -1    0    0    0    0 -0.00000000000E+00 -0.00000000000E+00  0.11368683772E-12  0.17120000000E+03  0.17120000000E+03 0.  0.
         13    1    1    2    0    0 -0.17976764228E+02 -0.18231683708E+02  0.66703351914E+02  0.71448629543E+02  0.10566000000E+00 0. -1.
        994    1    1    2    0    0  0.10531137879E+02  0.19907691678E+01  0.53093466409E+01  0.17161729863E+03  0.17120000000E+03 0.  0.
        998    1    1    2    0    0  0.74456263488E+01  0.16240914540E+02  0.14279872977E+04  0.14281340718E+04  0.10000000000E+02 0. -1.
</event>
<event>
 5    1  0.1364103E-008  0.3724349E+03  0.7957747E-01  0.3484775E+00
         13   -1    0    0    0    0  0.00000000000E+00  0.00000000000E+00  0.14999999963E+04  0.15000000000E+04  0.10566000000E+00 0. -1.
        994   -1    0    0    0    0 -0.00000000000E+00 -0.00000000000E+00  0.11368683772E-12  0.17120000000E+03  0.17120000000E+03 0.  0.
         13    1    1    2    0    0 -0.28206081758E+02 -0.20019938842E+02  0.43086428271E+02  0.55252443065E+02  0.10566000000E+00 0. -1.
        994    1    1    2    0    0  0.31527344430E+02  0.13328274442E+02  0.16374536375E+02  0.17535444616E+03  0.17120000000E+03 0.  0.
        998    1    1    2    0    0 -0.33212626714E+01  0.66916644000E+01  0.14405390316E+04  0.14405931108E+04  0.10000000000E+02 0. -1.
</event>
<event>
 5    1  0.1364103E-008  0.3856703E+03  0.7957747E-01  0.3426835E+00
         13   -1    0    0    0    0  0.00000000000E+00  0.00000000000E+00  0.14999999963E+04  0.15000000000E+04  0.10566000000E+00 0. -1.
        994   -1    0    0    0    0 -0.00000000000E+00 -0.00000000000E+00  0.11368683772E-12  0.17120000000E+03  0.17120000000E+03 0.  0.
         13    1    1    2    0    0 -0.90980537912E+01 -0.10254431651E+02  0.74167281755E+02  0.75423635541E+02  0.10566000000E+00 0. -1.
        994    1    1    2    0    0  0.11108893925E+02 -0.62639511405E+00  0.17040904909E+01  0.17156964714E+03  0.17120000000E+03 0.  0.
        998    1    1    2    0    0 -0.20108401338E+01  0.10880826765E+02  0.14241286240E+04  0.14242067173E+04  0.10000000000E+02 0. -1.
</event>
<event>
 5    1  0.1364103E-008  0.3814067E+03  0.7957747E-01  0.3445056E+00
         13   -1    0    0    0    0  0.00000000000E+00  0.00000000000E+00  0.14999999963E+04  0.15000000000E+04  0.10566000000E+00 0. -1.
        994   -1    0    0    0    0 -0.00000000000E+00 -0.00000000000E+00  0.11368683772E-12  0.17120000000E+03  0.17120000000E+03 0.  0.
         13    1    1    2    0    0 -0.10475698497E+02 -0.16485408641E+01  0.14743056583E+02  0.18161135081E+02  0.10566000000E+00 0. -1.
        994    1    1    2    0    0  0.13614530489E+02  0.21381994962E+01  0.40569432626E+01  0.17180170583E+03  0.17120000000E+03 0.  0.
        998    1    1    2    0    0 -0.31388319920E+01 -0.48965863209E+00  0.14811999964E+04  0.14812371591E+04  0.10000000000E+02 0. -1.
</event>
<event>
 5    1  0.1364103E-008  0.3848201E+03  0.7957747E-01  0.3430435E+00
         13   -1    0    0    0    0  0.00000000000E+00  0.00000000000E+00  0.14999999963E+04  0.15000000000E+04  0.10566000000E+00 0.  1.
        994   -1    0    0    0    0 -0.00000000000E+00 -0.00000000000E+00  0.11368683772E-12  0.17120000000E+03  0.17120000000E+03 0.  0.
         13    1    1    2    0    0  0.67638968192E+01  0.11881753666E+02  0.53324907987E+02  0.55049826033E+02  0.10566000000E+00 0.  1.
        994    1    1    2    0    0 -0.74518960776E+01 -0.97066687397E+01  0.22123857018E+01  0.17165105541E+03  0.17120000000E+03 0.  0.
        998    1    1    2    0    0  0.68799925837E+00 -0.21750849262E+01  0.14444627026E+04  0.14444991186E+04  0.10000000000E+02 0.  1.
</event>
<event>
 5    1  0.1364103E-008  0.3826296E+03  0.7957747E-01  0.3439788E+00
         13   -1    0    0    0    0  0.00000000000E+00  0.00000000000E+00  0.14999999963E+04  0.15000000000E+04  0.10566000000E+00 0. -1.
        994   -1    0    0    0    0 -0.00000000000E+00 -0.00000000000E+00  0.11368683772E-12  0.17120000000E+03  0.17120000000E+03 0.  0.
         13    1    1    2    0    0 -0.31844279324E+02 -0.66536128013E+01  0.17056428651E+03  0.17363903849E+03  0.10566000000E+00 0. -1.
        994    1    1    2    0    0  0.27572138418E+02  0.20967702380E+02  0.67982862900E+01  0.17480138460E+03  0.17120000000E+03 0.  0.
        998    1    1    2    0    0  0.42721409059E+01 -0.14314089578E+02  0.13226374235E+04  0.13227595769E+04  0.10000000000E+02 0. -1.
</event>
<event>
 5    1  0.1364103E-008  0.3838246E+03  0.7957747E-01  0.3434672E+00
         13   -1    0    0    0    0  0.00000000000E+00  0.00000000000E+00  0.14999999963E+04  0.15000000000E+04  0.10566000000E+00 0. -1.
        994   -1    0    0    0    0 -0.00000000000E+00 -0.00000000000E+00  0.11368683772E-12  0.17120000000E+03  0.17120000000E+03 0.  0.
         13    1    1    2    0    0  0.47215992714E+01 -0.21209156210E+02  0.10150992152E+03  0.10380942702E+03  0.10566000000E+00 0. -1.
        994    1    1    2    0    0  0.15854169739E+02  0.24651204839E+02  0.50558537631E+01  0.17376431813E+03  0.17120000000E+03 0.  0.
        998    1    1    2    0    0 -0.20575769011E+02 -0.34420486296E+01  0.13934342210E+04  0.13936262548E+04  0.10000000000E+02 0. -1.
</event>
<event>
 5    1  0.1364103E-008  0.3850054E+03  0.7957747E-01  0.3429649E+00
         13   -1    0    0    0    0  0.00000000000E+00  0.00000000000E+00  0.14999999963E+04  0.15000000000E+04  0.10566000000E+00 0.  1.
        994   -1    0    0    0    0 -0.00000000000E+00 -0.00000000000E+00  0.11368683772E-12  0.17120000000E+03  0.17120000000E+03 0.  0.
         13    1    1    2    0    0  0.87126405887E+01  0.14077819808E+02  0.78281431720E+02  0.80013054140E+02  0.10566000000E+00 0.  1.
        994    1    1    2    0    0 -0.28925509833E+02 -0.80377590151E+01  0.45970363438E+01  0.17387312453E+03  0.17120000000E+03 0.  0.
        998    1    1    2    0    0  0.20212869244E+02 -0.60400607926E+01  0.14171215282E+04  0.14173138213E+04  0.10000000000E+02 0.  1.
</event>
<event>
 5    1  0.1364103E-008  0.3849477E+03  0.7957747E-01  0.3429894E+00
         13   -1    0    0    0    0  0.00000000000E+00  0.00000000000E+00  0.14999999963E+04  0.15000000000E+04  0.10566000000E+00 0.  1.
        994   -1    0    0    0    0 -0.00000000000E+00 -0.00000000000E+00  0.11368683772E-12  0.17120000000E+03  0.17120000000E+03 0.  0.
         13    1    1    2    0    0  0.18337033828E+02 -0.85090241030E+01  0.11065482551E+03  0.11248622971E+03  0.10566000000E+00 0.  1.
        994    1    1    2    0    0 -0.21064237727E+02  0.17159578799E+02  0.40877971864E+01  0.17339060915E+03  0.17120000000E+03 0.  0.
        998    1    1    2    0    0  0.27272038984E+01 -0.86505546964E+01  0.13852573736E+04  0.13853231611E+04  0.10000000000E+02 0.  1.
</event>
<event>
 5    1  0.1364103E-008  0.3841076E+03  0.7957747E-01  0.3433466E+00
         13   -1    0    0    0    0  0.00000000000E+00  0.00000000000E+00  0.14999999963E+04  0.15000000000E+04  0.10566000000E+00 0. -1.
        994   -1    0    0    0    0 -0.00000000000E+00 -0.00000000000E+00  0.11368683772E-12  0.17120000000E+03  0.17120000000E+03 0.  0.
         13    1    1    2    0    0  0.10685418874E+02 -0.10138436677E+02  0.51686699715E+02  0.53744694308E+02  0.10566000000E+00 0. -1.
        994    1    1    2    0    0 -0.85794675902E+01  0.62451748284E+01  0.24453442080E+01  0.17154599727E+03  0.17120000000E+03 0.  0.
        998    1    1    2    0    0 -0.21059512841E+01  0.38932618485E+01  0.14458679524E+04  0.14459093084E+04  0.10000000000E+02 0. -1.
</event>
<event>
 5    1  0.1364103E-008  0.3794987E+03  0.7957747E-01  0.3453344E+00
         13   -1    0    0    0    0  0.00000000000E+00  0.00000000000E+00  0.14999999963E+04  0.15000000000E+04  0.10566000000E+00 0.  1.
        994   -1    0    0    0    0 -0.00000000000E+00 -0.00000000000E+00  0.11368683772E-12  0.17120000000E+03  0.17120000000E+03 0.  0.
         13    1    1    2    0    0 -0.27883329199E+01  0.11696420927E+02  0.14331074553E+02  0.18707536579E+02  0.10566000000E+00 0.  1.
        994    1    1    2    0    0 -0.18716792119E+01 -0.16561232927E+02  0.53170745511E+01  0.17209151316E+03  0.17120000000E+03 0.  0.
        998    1    1    2    0    0  0.46600121318E+01  0.48648120001E+01  0.14803518472E+04  0.14804009503E+04  0.10000000000E+02 0.  1.
</event>
<event>
 5    1  0.1364103E-008  0.3805295E+03  0.7957747E-01  0.3448856E+00
         13   -1    0    0    0    0  0.00000000000E+00  0.00000000000E+00  0.14999999963E+04  0.15000000000E+04  0.10566000000E+00 0.  1.
        994   -1    0    0    0    0 -0.00000000000E+00 -0.00000000000E+00  0.11368683772E-12  0.17120000000E+03  0.17120000000E+03 0.  0.
         13    1    1    2    0    0  0.22693814556E+02 -0.18020074020E+02  0.96468552336E+02  0.10072698268E+03  0.10566000000E+00 0.  1.
        994    1    1    2    0    0 -0.30298505352E+02  0.23427278925E+02  0.87765758013E+01  0.17565108911E+03  0.17120000000E+03 0.  0.
        998    1    1    2    0    0  0.76046907967E+01 -0.54072049051E+01  0.13947548681E+04  0.13948219282E+04  0.10000000000E+02 0.  1.
</event>
<event>
 5    1  0.1364103E-008  0.3705273E+03  0.7957747E-01  0.3493471E+00
         13   -1    0    0    0    0  0.00000000000E+00  0.00000000000E+00  0.14999999963E+04  0.15000000000E+04  0.10566000000E+00 0. -1.
        994   -1    0    0    0    0 -0.00000000000E+00 -0.00000000000E+00  0.11368683772E-12  0.17120000000E+03  0.17120000000E+03 0.  0.
         13    1    1    2    0    0 -0.25551888684E+02 -0.28114232573E+02  0.59304727293E+02  0.70429900836E+02  0.10566000000E+00 0. -1.
        994    1    1    2    0    0  0.22484364561E+02  0.20507867520E+02  0.14468465864E+02  0.17448465773E+03  0.17120000000E+03 0.  0.
        998    1    1    2    0    0  0.30675241229E+01  0.76063650530E+01  0.14262268031E+04  0.14262854414E+04  0.10000000000E+02 0. -1.
</event>
<event>
 5    1  0.1364103E-008  0.3691975E+03  0.7957747E-01  0.3499587E+00
         13   -1    0    0    0    0  0.00000000000E+00  0.00000000000E+00  0.14999999963E+04  0.15000000000E+04  0.10566000000E+00 0. -1.
        994   -1    0    0    0    0 -0.00000000000E+00 -0.00000000000E+00  0.11368683772E-12  0.17120000000E+03  0.17120000000E+03 0.  0.
         13    1    1    2    0    0  0.13501658216E+02 -0.61294099577E+02  0.19563641115E+03  0.20545772789E+03  0.10566000000E+00 0. -1.
        994    1    1    2    0    0 -0.29038402011E+02  0.36519636521E+02  0.17275194983E+02  0.17828287917E+03  0.17120000000E+03 0.  0.
        998    1    1    2    0    0  0.15536743795E+02  0.24774463056E+02  0.12870883901E+04  0.12874593929E+04  0.10000000000E+02 0. -1.
</event>
<event>
 5    1  0.1364103E-008  0.3838458E+03  0.7957747E-01  0.3434582E+00
         13   -1    0    0    0    0  0.00000000000E+00  0.00000000000E+00  0.14999999963E+04  0.15000000000E+04  0.10566000000E+00 0. -1.
        994   -1    0    0    0    0 -0.00000000000E+00 -0.00000000000E+00  0.11368683772E-12  0.17120000000E+03  0.17120000000E+03 0.  0.
         13    1    1    2    0    0 -0.58351114612E+01  0.14254926720E+02  0.53000982741E+02  0.55193901811E+02  0.10566000000E+00 0. -1.
        994    1    1    2    0    0  0.93772642776E+01 -0.84050908946E+01  0.27279118817E+01  0.17168418722E+03  0.17120000000E+03 0.  0.
        998    1    1    2    0    0 -0.35421528164E+01 -0.58498358259E+01  0.14442711017E+04  0.14443219110E+04  0.10000000000E+02 0. -1.
</event>
<event>
 5    1  0.1364103E-008  0.3692982E+03  0.7957747E-01  0.3499122E+00
         13   -1    0    0    0    0  0.00000000000E+00  0.00000000000E+00  0.14999999963E+04  0.15000000000E+04  0.10566000000E+00 0. -1.
        994   -1    0    0    0    0 -0.00000000000E+00 -0.00000000000E+00  0.11368683772E-12  0.17120000000E+03  0.17120000000E+03 0.  0.
         13    1    1    2    0    0 -0.74997038868E+01  0.96263229275E+01  0.21589370474E+01  0.12392894121E+02  0.10566000000E+00 0. -1.
        994    1    1    2    0    0  0.28333973020E+01 -0.91265183066E+01  0.10886749994E+02  0.17181176561E+03  0.17120000000E+03 0.  0.
        998    1    1    2    0    0  0.46663065848E+01 -0.49980462093E+00  0.14869543092E+04  0.14869953403E+04  0.10000000000E+02 0. -1.
</event>
<event>
 5    1  0.1364103E-008  0.3826991E+03  0.7957747E-01  0.3439490E+00
         13   -1    0    0    0    0  0.00000000000E+00  0.00000000000E+00  0.14999999963E+04  0.15000000000E+04  0.10566000000E+00 0. -1.
        994   -1    0    0    0    0 -0.00000000000E+00 -0.00000000000E+00  0.11368683772E-12  0.17120000000E+03  0.17120000000E+03 0.  0.
         13    1    1    2    0    0 -0.34896962286E+02 -0.70514654007E+01  0.20177928351E+03  0.20489609942E+03  0.10566000000E+00 0. -1.
        994    1    1    2    0    0  0.34255346425E+02  0.40426955661E+01  0.67290157364E+01  0.17476982520E+03  0.17120000000E+03 0.  0.
        998    1    1    2    0    0  0.64161586166E+00  0.30087698346E+01  0.12914916970E+04  0.12915340754E+04  0.10000000000E+02 0. -1.
</event>
<event>
 5    1  0.1364103E-008  0.3825126E+03  0.7957747E-01  0.3440291E+00
         13   -1    0    0    0    0  0.00000000000E+00  0.00000000000E+00  0.14999999963E+04  0.15000000000E+04  0.10566000000E+00 0.  1.
        994   -1    0    0    0    0 -0.00000000000E+00 -0.00000000000E+00  0.11368683772E-12  0.17120000000E+03  0.17120000000E+03 0.  0.
         13    1    1    2    0    0 -0.11699836018E+02  0.19483045528E+02  0.98836427130E+02  0.10141560885E+03  0.10566000000E+00 0.  1.
        994    1    1    2    0    0 -0.22646761372E+02 -0.11108722299E+02  0.49825215431E+01  0.17312003071E+03  0.17120000000E+03 0.  0.
        998    1    1    2    0    0  0.34346597390E+02 -0.83743232298E+01  0.13961810476E+04  0.13966643604E+04  0.10000000000E+02 0.  1.
</event>
<event>
 5    1  0.1364103E-008  0.3787667E+03  0.7957747E-01  0.3456546E+00
         13   -1    0    0    0    0  0.00000000000E+00  0.00000000000E+00  0.14999999963E+04  0.15000000000E+04  0.10566000000E+00 0. -1.
        994   -1    0    0    0    0 -0.00000000000E+00 -0.00000000000E+00  0.11368683772E-12  0.17120000000E+03  0.17120000000E+03 0.  0.
         13    1    1    2    0    0  0.14315566869E+02 -0.57219014108E+01  0.23195272314E+02  0.27851524775E+02  0.10566000000E+00 0. -1.
        994    1    1    2    0    0 -0.88486401446E+01 -0.16374627047E+01  0.50288576959E+01  0.17151008462E+03  0.17120000000E+03 0.  0.
        998    1    1    2    0    0 -0.54669267249E+01  0.73593641155E+01  0.14717758663E+04  0.14718383906E+04  0.10000000000E+02 0. -1.
</event>
<event>
 5    1  0.1364103E-008  0.3841930E+03  0.7957747E-01  0.3433102E+00
         13   -1    0    0    0    0  0.00000000000E+00  0.00000000000E+00  0.14999999963E+04  0.15000000000E+04  0.10566000000E+00 0. -1.
        994   -1    0    0    0    0 -0.00000000000E+00 -0.00000000000E+00  0.11368683772E-12  0.17120000000E+03  0.17120000000E+03 0.  0.
         13    1    1    2    0    0 -0.95057389023E+00  0.12103248569E+02  0.36915819691E+02  0.38861048933E+02  0.10566000000E+00 0. -1.
        994    1    1    2    0    0 -0.60348144117E+01 -0.17778385966E+01  0.21618322217E+01  0.17132919545E+03  0.17120000000E+03 0.  0.
        998    1    1    2    0    0  0.69853883019E+01 -0.10325409973E+02  0.14609223444E+04  0.14610097556E+04  0.10000000000E+02 0. -1.
</event>
<event>
 5    1  0.1364103E-008  0.3821848E+03  0.7957747E-01  0.3441700E+00
         13   -1    0    0    0    0  0.00000000000E+00  0.00000000000E+00  0.14999999963E+04  0.15000000000E+04  0.10566000000E+00 0.  1.
        994   -1    0    0    0    0 -0.00000000000E+00 -0.00000000000E+00  0.11368683772E-12  0.17120000000E+03  0.17120000000E+03 0.  0.
         13    1    1    2    0    0  0.46580590087E+01 -0.24268535789E+02  0.13524161401E+03  0.13748077927E+03  0.10566000000E+00 0.  1.
        994    1    1    2    0    0  0.34601966758E+02 -0.19286376139E+02  0.82601658415E+01  0.17591739751E+03  0.17120000000E+03 0.  0.
        998    1    1    2    0    0 -0.39260025767E+02  0.43554911928E+02  0.13564982164E+04  0.13578018232E+04  0.10000000000E+02 0.  1.
</event>
<event>
 5    1  0.1364103E-008  0.3706038E+03  0.7957747E-01  0.3493121E+00
         13   -1    0    0    0    0  0.00000000000E+00  0.00000000000E+00  0.14999999963E+04  0.15000000000E+04  0.10566000000E+00 0. -1.
        994   -1    0    0    0    0 -0.00000000000E+00 -0.00000000000E+00  0.11368683772E-12  0.17120000000E+03  0.17120000000E+03 0.  0.
         13    1    1    2    0    0  0.20864353120E+03 -0.14691266624E+02  0.87544607112E+03  0.90008543540E+03  0.10566000000E+00 0. -1.
        994    1    1    2    0    0 -0.20173460480E+03  0.91754150099E+01  0.16625198882E+03  0.31261830209E+03  0.17120000000E+03 0.  0.
        998    1    1    2    0    0 -0.69089264053E+01  0.55158516143E+01  0.45830193634E+03  0.45849626251E+03  0.10000000000E+02 0.  0.
</event>
<event>
 5    1  0.1364103E-008  0.3692784E+03  0.7957747E-01  0.3499214E+00
         13   -1    0    0    0    0  0.00000000000E+00  0.00000000000E+00  0.14999999963E+04  0.15000000000E+04  0.10566000000E+00 0.  1.
        994   -1    0    0    0    0 -0.00000000000E+00 -0.00000000000E+00  0.11368683772E-12  0.17120000000E+03  0.17120000000E+03 0.  0.
         13    1    1    2    0    0 -0.98026592065E+01 -0.13386162409E+02  0.94663400570E+01  0.19102466586E+02  0.10566000000E+00 0.  1.
        994    1    1    2    0    0 -0.72490564021E+01  0.44182947757E+02  0.16627820970E+02  0.17773746403E+03  0.17120000000E+03 0.  0.
        998    1    1    2    0    0  0.17051715609E+02 -0.30796785348E+02  0.14739058353E+04  0.14743600694E+04  0.10000000000E+02 0.  1.
</event>
<event>
 5    1  0.1364103E-008  0.3888029E+03  0.7957747E-01  0.3413702E+00
         13   -1    0    0    0    0  0.00000000000E+00  0.00000000000E+00  0.14999999963E+04  0.15000000000E+04  0.10566000000E+00 0.  1.
        994   -1    0    0    0    0 -0.00000000000E+00 -0.00000000000E+00  0.11368683772E-12  0.17120000000E+03  0.17120000000E+03 0.  0.
         13    1    1    2    0    0  0.12572744674E+03 -0.58730966461E+02  0.34133582064E+03  0.36846556270E+03  0.10566000000E+00 0.  1.
        994    1    1    2    0    0 -0.12207445979E+03  0.55135369408E+02  0.92049640213E+02  0.23606071032E+03  0.17120000000E+03 0.  0.
        998    1    1    2    0    0 -0.36529869462E+01  0.35955970526E+01  0.10666145354E+04  0.10666737270E+04  0.10000000000E+02 0.  1.
</event>
<event>
 5    1  0.1364103E-008  0.3724954E+03  0.7957747E-01  0.3484500E+00
         13   -1    0    0    0    0  0.00000000000E+00  0.00000000000E+00  0.14999999963E+04  0.15000000000E+04  0.10566000000E+00 0.  1.
        994   -1    0    0    0    0 -0.00000000000E+00 -0.00000000000E+00  0.11368683772E-12  0.17120000000E+03  0.17120000000E+03 0.  0.
         13    1    1    2    0    0  0.43810394096E+02  0.16274886490E+02  0.97780309230E+02  0.10837537819E+03  0.10566000000E+00 0.  1.
        994    1    1    2    0    0  0.62233510201E+01  0.18184090452E+02  0.13568252306E+02  0.17280893702E+03  0.17120000000E+03 0.  0.
        998    1    1    2    0    0 -0.50033745117E+02 -0.34458976942E+02  0.13886514347E+04  0.13900156848E+04  0.10000000000E+02 0.  1.
</event>
<event>
 5    1  0.1364103E-008  0.3790835E+03  0.7957747E-01  0.3455159E+00
         13   -1    0    0    0    0  0.00000000000E+00  0.00000000000E+00  0.14999999963E+04  0.15000000000E+04  0.10566000000E+00 0.  1.
        994   -1    0    0    0    0 -0.00000000000E+00 -0.00000000000E+00  0.11368683772E-12  0.17120000000E+03  0.17120000000E+03 0.  0.
         13    1    1    2    0    0 -0.29216728850E+01  0.45806608557E+02  0.24734889621E+03  0.25157159852E+03  0.10566000000E+00 0.  1.
        994    1    1    2    0    0 -0.70995611679E+01 -0.16547495040E+02  0.56843997842E+01  0.17223813678E+03  0.17120000000E+03 0.  0.
        998    1    1    2    0    0  0.10021234053E+02 -0.29259113517E+02  0.12469667003E+04  0.12473902647E+04  0.10000000000E+02 0.  1.
</event>
<event>
 5    1  0.1364103E-008  0.3799009E+03  0.7957747E-01  0.3451590E+00
         13   -1    0    0    0    0  0.00000000000E+00  0.00000000000E+00  0.14999999963E+04  0.15000000000E+04  0.10566000000E+00 0.  1.
        994   -1    0    0    0    0 -0.00000000000E+00 -0.00000000000E+00  0.11368683772E-12  0.17120000000E+03  0.17120000000E+03 0.  0.
         13    1    1    2    0    0  0.69158643810E+02  0.24159127449E+02  0.22194679537E+03  0.23372413780E+03  0.10566000000E+00 0.  1.
        994    1    1    2    0    0  0.33872959733E+02 -0.18006756991E+02  0.21622067664E+02  0.17677266335E+03  0.17120000000E+03 0.  0.
        998    1    1    2    0    0 -0.10303160354E+03 -0.61523704575E+01  0.12564311332E+04  0.12607031988E+04  0.10000000000E+02 0.  1.
</event>
<event>
 5    1  0.1364103E-008  0.3819690E+03  0.7957747E-01  0.3442630E+00
         13   -1    0    0    0    0  0.00000000000E+00  0.00000000000E+00  0.14999999963E+04  0.15000000000E+04  0.10566000000E+00 0.  1.
        994   -1    0    0    0    0 -0.00000000000E+00 -0.00000000000E+00  0.11368683772E-12  0.17120000000E+03  0.17120000000E+03 0.  0.
         13    1    1    2    0    0  0.33314997386E+02  0.18174977409E+01  0.17830800463E+03  0.18140272332E+03  0.10566000000E+00 0.  1.
        994    1    1    2    0    0 -0.21176292138E+02  0.29954998523E+02  0.76250087034E+01  0.17525215560E+03  0.17120000000E+03 0.  0.
        998    1    1    2    0    0 -0.12138705248E+02 -0.31772496264E+02  0.13140669830E+04  0.13145451211E+04  0.10000000000E+02 0.  1.
</event>
<event>
 5    1  0.1364103E-008  0.3706989E+03  0.7957747E-01  0.3492685E+00
         13   -1    0    0    0    0  0.00000000000E+00  0.00000000000E+00  0.14999999963E+04  0.15000000000E+04  0.10566000000E+00 0.  1.
        994   -1    0    0    0    0 -0.00000000000E+00 -0.00000000000E+00  0.11368683772E-12  0.17120000000E+03  0.17120000000E+03 0.  0.
         13    1    1    2    0    0  0.27313489499E+02 -0.49904835280E+02  0.19377015511E+03  0.20194901205E+03  0.10566000000E+00 0.  1.
        994    1    1    2    0    0 -0.18942664303E+02  0.10626038684E+02  0.10533063544E+02  0.17289338523E+03  0.17120000000E+03 0.  0.
        998    1    1    2    0    0 -0.83708251956E+01  0.39278796596E+02  0.12956967776E+04  0.12963576027E+04  0.10000000000E+02 0.  1.
</event>
<event>
 5    1  0.1364103E-008  0.3831572E+03  0.7957747E-01  0.3437526E+00
         13   -1    0    0    0    0  0.00000000000E+00  0.00000000000E+00  0.14999999963E+04  0.15000000000E+04  0.10566000000E+00 0.  1.
        994   -1    0    0    0    0 -0.00000000000E+00 -0.00000000000E+00  0.11368683772E-12  0.17120000000E+03  0.17120000000E+03 0.  0.
         13    1    1    2    0    0  0.22905083566E+02  0.11853055950E+02  0.12175525136E+03  0.12445678039E+03  0.10566000000E+00 0.  1.
        994    1    1    2    0    0 -0.20122349572E+02 -0.15215998482E+02  0.46562596885E+01  0.17311139857E+03  0.17120000000E+03 0.  0.
        998    1    1    2    0    0 -0.27827339942E+01  0.33629425320E+01  0.13735884852E+04  0.13736318210E+04  0.10000000000E+02 0.  1.
</event>
<event>
 5    1  0.1364103E-008  0.3388397E+03  0.7957747E-01  0.3652621E+00
         13   -1    0    0    0    0  0.00000000000E+00  0.00000000000E+00  0.14999999963E+04  0.15000000000E+04  0.10566000000E+00 0. -1.
        994   -1    0    0    0    0 -0.00000000000E+00 -0.00000000000E+00  0.11368683772E-12  0.17120000000E+03  0.17120000000E+03 0.  0.
         13    1    1    2    0    0 -0.21875527931E+03  0.53471246505E+02  0.91642973761E+03  0.94369302295E+03  0.10566000000E+00 0. -1.
        994    1    1    2    0    0  0.18990543374E+03 -0.72787534070E+02  0.17709230474E+03  0.31942639728E+03  0.17120000000E+03 0.  0.
        998    1    1    2    0    0  0.28849845565E+02  0.19316287565E+02  0.40647795393E+03  0.40808057977E+03  0.10000000000E+02 0.  0.
</event>
<event>
 5    1  0.1364103E-008  0.3810946E+03  0.7957747E-01  0.3446406E+00
         13   -1    0    0    0    0  0.00000000000E+00  0.00000000000E+00  0.14999999963E+04  0.15000000000E+04  0.10566000000E+00 0.  1.
        994   -1    0    0    0    0 -0.00000000000E+00 -0.00000000000E+00  0.11368683772E-12  0.17120000000E+03  0.17120000000E+03 0.  0.
         13    1    1    2    0    0  0.30767189562E+02  0.86850498706E+01  0.12294789103E+03  0.12703639289E+03  0.10566000000E+00 0.  1.
        994    1    1    2    0    0 -0.41242391092E+02 -0.10806564084E+02  0.96599892675E+01  0.17669315788E+03  0.17120000000E+03 0.  0.
        998    1    1    2    0    0  0.10475201530E+02  0.21215142136E+01  0.13673921160E+04  0.13674704492E+04  0.10000000000E+02 0.  1.
</event>
<event>
 5    1  0.1364103E-008  0.3960401E+03  0.7957747E-01  0.3384158E+00
         13   -1    0    0    0    0  0.00000000000E+00  0.00000000000E+00  0.14999999963E+04  0.15000000000E+04  0.10566000000E+00 0. -1.
        994   -1    0    0    0    0 -0.00000000000E+00 -0.00000000000E+00  0.11368683772E-12  0.17120000000E+03  0.17120000000E+03 0.  0.
         13    1    1    2    0    0  0.66217796495E+02 -0.12949467889E+03  0.30935012090E+03  0.34183501415E+03  0.10566000000E+00 0. -1.
        994    1    1    2    0    0 -0.67015595074E+02  0.12954773007E+03  0.11305463797E+03  0.25172305321E+03  0.17120000000E+03 0.  0.
        998    1    1    2    0    0  0.79779857884E+00 -0.53051180127E-01  0.10775952374E+04  0.10776419326E+04  0.10000000000E+02 0.  0.
</event>
<event>
 5    1  0.1364103E-008  0.3738563E+03  0.7957747E-01  0.3478354E+00
         13   -1    0    0    0    0  0.00000000000E+00  0.00000000000E+00  0.14999999963E+04  0.15000000000E+04  0.10566000000E+00 0.  1.
        994   -1    0    0    0    0 -0.00000000000E+00 -0.00000000000E+00  0.11368683772E-12  0.17120000000E+03  0.17120000000E+03 0.  0.
         13    1    1    2    0    0  0.34040416923E+01  0.66702593096E+02  0.24728133225E+03  0.25614232737E+03  0.10566000000E+00 0.  1.
        994    1    1    2    0    0  0.35411285500E+01 -0.71606836357E+02  0.25015094024E+02  0.18728393827E+03  0.17120000000E+03 0.  0.
        998    1    1    2    0    0 -0.69451702423E+01  0.49042432607E+01  0.12277035700E+04  0.12277737344E+04  0.10000000000E+02 0.  1.
</event>
<event>
 5    1  0.1364103E-008  0.3813859E+03  0.7957747E-01  0.3445146E+00
         13   -1    0    0    0    0  0.00000000000E+00  0.00000000000E+00  0.14999999963E+04  0.15000000000E+04  0.10566000000E+00 0. -1.
        994   -1    0    0    0    0 -0.00000000000E+00 -0.00000000000E+00  0.11368683772E-12  0.17120000000E+03  0.17120000000E+03 0.  0.
         13    1    1    2    0    0  0.24510987241E+01  0.12777723068E+02  0.22861985518E+02  0.26305125691E+02  0.10566000000E+00 0. -1.
        994    1    1    2    0    0 -0.18268047949E+01 -0.15033400816E+02  0.41987178378E+01  0.17191977660E+03  0.17120000000E+03 0.  0.
        998    1    1    2    0    0 -0.62429392921E+00  0.22556777484E+01  0.14729392929E+04  0.14729750977E+04  0.10000000000E+02 0. -1.
</event>
<event>
 5    1  0.1364103E-008  0.3753825E+03  0.7957747E-01  0.3471514E+00
         13   -1    0    0    0    0  0.00000000000E+00  0.00000000000E+00  0.14999999963E+04  0.15000000000E+04  0.10566000000E+00 0.  1.
        994   -1    0    0    0    0 -0.00000000000E+00 -0.00000000000E+00  0.11368683772E-12  0.17120000000E+03  0.17120000000E+03 0.  0.
         13    1    1    2    0    0  0.50348078342E+02  0.11279211118E+03  0.74380652943E+03  0.75399280748E+03  0.10566000000E+00 0.  1.
        994    1    1    2    0    0 -0.65217102622E+02 -0.89992178629E+02  0.49642172882E+02  0.21006105783E+03  0.17120000000E+03 0.  0.
        998    1    1    2    0    0  0.14869024281E+02 -0.22799932548E+02  0.70655129396E+03  0.70714613469E+03  0.10000000000E+02 0.  1.
</event>
<event>
 5    1  0.1364103E-008  0.3836996E+03  0.7957747E-01  0.3435206E+00
         13   -1    0    0    0    0  0.00000000000E+00  0.00000000000E+00  0.14999999963E+04  0.15000000000E+04  0.10566000000E+00 0.  1.
        994   -1    0    0    0    0 -0.00000000000E+00 -0.00000000000E+00  0.11368683772E-12  0.17120000000E+03  0.17120000000E+03 0.  0.
         13    1    1    2    0    0  0.28622745962E+01 -0.14055190307E+02  0.45133867972E+02  0.47358401499E+02  0.10566000000E+00 0.  1.
        994    1    1    2    0    0  0.21838624159E+01  0.74882019068E+01  0.24780843681E+01  0.17139551723E+03  0.17120000000E+03 0.  0.
        998    1    1    2    0    0 -0.50461370122E+01  0.65669884006E+01  0.14523880439E+04  0.14524460813E+04  0.10000000000E+02 0.  1.
</event>
<event>
 5    1  0.1364103E-008  0.3851212E+03  0.7957747E-01  0.3429158E+00
         13   -1    0    0    0    0  0.00000000000E+00  0.00000000000E+00  0.14999999963E+04  0.15000000000E+04  0.10566000000E+00 0. -1.
        994   -1    0    0    0    0 -0.00000000000E+00 -0.00000000000E+00  0.11368683772E-12  0.17120000000E+03  0.17120000000E+03 0.  0.
         13    1    1    2    0    0  0.33401039173E+01  0.11543326046E+02  0.46609097644E+02  0.48133396074E+02  0.10566000000E+00 0. -1.
        994    1    1    2    0    0 -0.29796933871E+01 -0.49154106668E+01  0.16786029608E+01  0.17130469212E+03  0.17120000000E+03 0.  0.
        998    1    1    2    0    0 -0.36041053021E+00 -0.66279153791E+01  0.14517122957E+04  0.14517619118E+04  0.10000000000E+02 0. -1.
</event>
<event>
 5    1  0.1364103E-008  0.3827004E+03  0.7957747E-01  0.3439484E+00
         13   -1    0    0    0    0  0.00000000000E+00  0.00000000000E+00  0.14999999963E+04  0.15000000000E+04  0.10566000000E+00 0. -1.
        994   -1    0    0    0    0 -0.00000000000E+00 -0.00000000000E+00  0.11368683772E-12  0.17120000000E+03  0.17120000000E+03 0.  0.
         13    1    1    2    0    0 -0.51423051675E+00  0.17013774170E+02  0.49627920373E+02  0.52465937418E+02  0.10566000000E+00 0. -1.
        994    1    1    2    0    0 -0.20963030928E+01 -0.18869852978E+02  0.39714509004E+01  0.17229532280E+03  0.17120000000E+03 0.  0.
        998    1    1    2    0    0  0.26105336095E+01  0.18560788082E+01  0.14464006250E+04  0.14464387398E+04  0.10000000000E+02 0. -1.
</event>
<event>
 5    1  0.1364103E-008  0.3833802E+03  0.7957747E-01  0.3436571E+00
         13   -1    0    0    0    0  0.00000000000E+00  0.00000000000E+00  0.14999999963E+04  0.15000000000E+04  0.10566000000E+00 0.  1.
        994   -1    0    0    0    0 -0.00000000000E+00 -0.00000000000E+00  0.11368683772E-12  0.17120000000E+03  0.17120000000E+03 0.  0.
         13    1    1    2    0    0  0.43199981476E+01 -0.11534916636E+02  0.30392278056E+02  0.32793572774E+02  0.10566000000E+00 0.  1.
        994    1    1    2    0    0 -0.36597139852E+01  0.72885137286E+01  0.26564074977E+01  0.17141473811E+03  0.17120000000E+03 0.  0.
        998    1    1    2    0    0 -0.66028416243E+00  0.42464029076E+01  0.14669513107E+04  0.14669916891E+04  0.10000000000E+02 0.  1.
</event>
<event>
 5    1  0.1364103E-008  0.3801933E+03  0.7957747E-01  0.3450317E+00
         13   -1    0    0    0    0  0.00000000000E+00  0.00000000000E+00  0.14999999963E+04  0.15000000000E+04  0.10566000000E+00 0. -1.
        994   -1    0    0    0    0 -0.00000000000E+00 -0.00000000000E+00  0.11368683772E-12  0.17120000000E+03  0.17120000000E+03 0.  0.
         13    1    1    2    0    0  0.76671549929E+01  0.23440350925E+02  0.65758858128E+02  0.70231573409E+02  0.10566000000E+00 0. -1.
        994    1    1    2    0    0  0.86245921639E+01 -0.48440147029E+02  0.12165786332E+02  0.17854489013E+03  0.17120000000E+03 0.  0.
        998    1    1    2    0    0 -0.16291747157E+02  0.24999796104E+02  0.14220753518E+04  0.14224235365E+04  0.10000000000E+02 0. -1.
</event>
<event>
 5    1  0.1364103E-008  0.3585201E+03  0.7957747E-01  0.3550373E+00
         13   -1    0    0    0    0  0.00000000000E+00  0.00000000000E+00  0.14999999963E+04  0.15000000000E+04  0.10566000000E+00 0. -1.
        994   -1    0    0    0    0 -0.00000000000E+00 -0.00000000000E+00  0.11368683772E-12  0.17120000000E+03  0.17120000000E+03 0.  0.
         13    1    1    2    0    0  0.28166056175E+03 -0.11269813705E+02  0.89174314642E+03  0.93523554846E+03  0.10566000000E+00 0. -1.
        994    1    1    2    0    0 -0.27551376312E+03  0.16321815795E+02  0.35031903260E+03  0.47771026778E+03  0.17120000000E+03 0.  0.
        998    1    1    2    0    0 -0.61467986293E+01 -0.50520020895E+01  0.25793781726E+03  0.25825418376E+03  0.10000000000E+02 0.  1.
</event>
<event>
 5    1  0.1364103E-008  0.3778809E+03  0.7957747E-01  0.3460438E+00
         13   -1    0    0    0    0  0.00000000000E+00  0.00000000000E+00  0.14999999963E+04  0.15000000000E+04  0.10566000000E+00 0.  1.
        994   -1    0    0    0    0 -0.00000000000E+00 -0.00000000000E+00  0.11368683772E-12  0.17120000000E+03  0.17120000000E+03 0.  0.
         13    1    1    2    0    0 -0.31684593109E+01  0.14522435124E+02  0.19216228453E+02  0.24294337948E+02  0.10566000000E+00 0.  1.
        994    1    1    2    0    0  0.13550988558E+01 -0.57113011004E+01  0.53226886347E+01  0.17138327301E+03  0.17120000000E+03 0.  0.
        998    1    1    2    0    0  0.18133604551E+01 -0.88111340233E+01  0.14754610792E+04  0.14755223890E+04  0.10000000000E+02 0.  1.
</event>
<event>
 5    1  0.1364103E-008  0.3845641E+03  0.7957747E-01  0.3431523E+00
         13   -1    0    0    0    0  0.00000000000E+00  0.00000000000E+00  0.14999999963E+04  0.15000000000E+04  0.10566000000E+00 0. -1.
        994   -1    0    0    0    0 -0.00000000000E+00 -0.00000000000E+00  0.11368683772E-12  0.17120000000E+03  0.17120000000E+03 0.  0.
         13    1    1    2    0    0 -0.12474505965E+02 -0.46779146482E+01  0.47820902829E+02  0.49642180613E+02  0.10566000000E+00 0. -1.
        994    1    1    2    0    0  0.90676861825E+01  0.87690686939E+00  0.21200579465E+01  0.17145531938E+03  0.17120000000E+03 0.  0.
        998    1    1    2    0    0  0.34068197826E+01  0.38010077789E+01  0.14500590355E+04  0.14501025000E+04  0.10000000000E+02 0. -1.
</event>
<event>
 5    1  0.1364103E-008  0.3860347E+03  0.7957747E-01  0.3425296E+00
         13   -1    0    0    0    0  0.00000000000E+00  0.00000000000E+00  0.14999999963E+04  0.15000000000E+04  0.10566000000E+00 0.  1.
        994   -1    0    0    0    0 -0.00000000000E+00 -0.00000000000E+00  0.11368683772E-12  0.17120000000E+03  0.17120000000E+03 0.  0.
         13    1    1    2    0    0 -0.11630996907E+02 -0.30621615334E+01  0.65158205185E+02  0.66259035530E+02  0.10566000000E+00 0.  1.
        994    1    1    2    0    0  0.99064924294E+01 -0.30352852050E+01  0.14692480642E+01  0.17151953311E+03  0.17120000000E+03 0.  0.
        998    1    1    2    0    0  0.17245044776E+01  0.60974467384E+01  0.14333725430E+04  0.14334214314E+04  0.10000000000E+02 0.  1.
</event>
<event>
 5    1  0.1364103E-008  0.3732521E+03  0.7957747E-01  0.3481077E+00
         13   -1    0    0    0    0  0.00000000000E+00  0.00000000000E+00  0.14999999963E+04  0.15000000000E+04  0.10566000000E+00 0.  1.
        994   -1    0    0    0    0 -0.00000000000E+00 -0.00000000000E+00  0.11368683772E-12  0.17120000000E+03  0.17120000000E+03 0.  0.
         13    1    1    2    0    0  0.15842344404E+02 -0.20204258392E+01  0.13240426654E+02  0.20745651564E+02  0.10566000000E+00 0.  1.
        994    1    1    2    0    0 -0.19170314959E+02  0.28078931435E+01  0.88637052854E+01  0.17252069589E+03  0.17120000000E+03 0.  0.
        998    1    1    2    0    0  0.33279705547E+01 -0.78746730430E+00  0.14778958643E+04  0.14779336525E+04  0.10000000000E+02 0.  1.
</event>
<event>
 5    1  0.1364103E-008  0.4417022E+03  0.7957747E-01  0.3219855E+00
         13   -1    0    0    0    0  0.00000000000E+00  0.00000000000E+00  0.14999999963E+04  0.15000000000E+04  0.10566000000E+00 0. -1.
        994   -1    0    0    0    0 -0.00000000000E+00 -0.00000000000E+00  0.11368683772E-12  0.17120000000E+03  0.17120000000E+03 0.  0.
         13    1    1    2    0    0 -0.36736793508E+02 -0.30893040954E+02  0.44453818479E+00  0.48001882827E+02  0.10566000000E+00 0. -1.
        994    1    1    2    0    0  0.24295136325E+02  0.34781348979E+02  0.64125222414E+02  0.18767386615E+03  0.17120000000E+03 0.  0.
        998    1    1    2    0    0  0.12441657183E+02 -0.38883080252E+01  0.14354302357E+04  0.14355242510E+04  0.10000000000E+02 0. -1.
</event>
<event>
 5    1  0.1364103E-008  0.3765959E+03  0.7957747E-01  0.3466116E+00
         13   -1    0    0    0    0  0.00000000000E+00  0.00000000000E+00  0.14999999963E+04  0.15000000000E+04  0.10566000000E+00 0. -1.
        994   -1    0    0    0    0 -0.00000000000E+00 -0.00000000000E+00  0.11368683772E-12  0.17120000000E+03  0.17120000000E+03 0.  0.
         13    1    1    2    0    0 -0.14203377427E+02  0.26868164219E+02  0.72633956851E+02  0.78735868769E+02  0.10566000000E+00 0. -1.
        994    1    1    2    0    0 -0.82719281931E+01 -0.41899208986E+02  0.12053303833E+02  0.17685782607E+03  0.17120000000E+03 0.  0.
        998    1    1    2    0    0  0.22475305621E+02  0.15031044767E+02  0.14153127356E+04  0.14156063052E+04  0.10000000000E+02 0. -1.
</event>
<event>
 5    1  0.1364103E-008  0.3853742E+03  0.7957747E-01  0.3428087E+00
         13   -1    0    0    0    0  0.00000000000E+00  0.00000000000E+00  0.14999999963E+04  0.15000000000E+04  0.10566000000E+00 0.  1.
        994   -1    0    0    0    0 -0.00000000000E+00 -0.00000000000E+00  0.11368683772E-12  0.17120000000E+03  0.17120000000E+03 0.  0.
         13    1    1    2    0    0  0.12595183425E+02 -0.10073537584E+02  0.91856928995E+02  0.93262111135E+02  0.10566000000E+00 0.  1.
        994    1    1    2    0    0  0.14626509181E+01  0.15729982818E+02  0.22646609501E+01  0.17194225890E+03  0.17120000000E+03 0.  0.
        998    1    1    2    0    0 -0.14057834343E+02 -0.56564452339E+01  0.14058784063E+04  0.14059956300E+04  0.10000000000E+02 0.  1.
</event>
<event>
 5    1  0.1364103E-008  0.3758868E+03  0.7957747E-01  0.3469266E+00
         13   -1    0    0    0    0  0.00000000000E+00  0.00000000000E+00  0.14999999963E+04  0.15000000000E+04  0.10566000000E+00 0. -1.
        994   -1    0    0    0    0 -0.00000000000E+00 -0.00000000000E+00  0.11368683772E-12  0.17120000000E+03  0.17120000000E+03 0.  0.
         13    1    1    2    0    0 -0.16914955652E+02 -0.70455675162E+01  0.24075033569E+02  0.30255150829E+02  0.10566000000E+00 0. -1.
        994    1    1    2    0    0  0.15597141378E+02  0.74576946225E+01  0.72376611288E+01  0.17222285495E+03  0.17120000000E+03 0.  0.
        998    1    1    2    0    0  0.13178142739E+01 -0.41212710629E+00  0.14686873016E+04  0.14687219942E+04  0.10000000000E+02 0.  0.
</event>
<event>
 5    1  0.1364103E-008  0.3829408E+03  0.7957747E-01  0.3438453E+00
         13   -1    0    0    0    0  0.00000000000E+00  0.00000000000E+00  0.14999999963E+04  0.15000000000E+04  0.10566000000E+00 0. -1.
        994   -1    0    0    0    0 -0.00000000000E+00 -0.00000000000E+00  0.11368683772E-12  0.17120000000E+03  0.17120000000E+03 0.  0.
         13    1    1    2    0    0  0.68235102846E+01  0.95846969781E+01  0.25617812741E+02  0.28190604861E+02  0.10566000000E+00 0. -1.
        994    1    1    2    0    0 -0.13331944687E+02  0.66373708630E+01  0.33906114136E+01  0.17187999211E+03  0.17120000000E+03 0.  0.
        998    1    1    2    0    0  0.65084344028E+01 -0.16222067841E+02  0.14709915721E+04  0.14711294030E+04  0.10000000000E+02 0. -1.
</event>
<event>
 5    1  0.1364103E-008  0.3707425E+03  0.7957747E-01  0.3492485E+00
         13   -1    0    0    0    0  0.00000000000E+00  0.00000000000E+00  0.14999999963E+04  0.15000000000E+04  0.10566000000E+00 0.  1.
        994   -1    0    0    0    0 -0.00000000000E+00 -0.00000000000E+00  0.11368683772E-12  0.17120000000E+03  0.17120000000E+03 0.  0.
         13    1    1    2    0    0 -0.29233918461E+01  0.43443533144E+02  0.95241028388E+02  0.10472225859E+03  0.10566000000E+00 0.  1.
        994    1    1    2    0    0  0.24386393815E+01 -0.49712287207E+02  0.17474028759E+02  0.17914251350E+03  0.17120000000E+03 0.  0.
        998    1    1    2    0    0  0.48475246464E+00  0.62687540631E+01  0.13872849391E+04  0.13873352279E+04  0.10000000000E+02 0.  1.
</event>
<event>
 5    1  0.1364103E-008  0.3855183E+03  0.7957747E-01  0.3427477E+00
         13   -1    0    0    0    0  0.00000000000E+00  0.00000000000E+00  0.14999999963E+04  0.15000000000E+04  0.10566000000E+00 0. -1.
        994   -1    0    0    0    0 -0.00000000000E+00 -0.00000000000E+00  0.11368683772E-12  0.17120000000E+03  0.17120000000E+03 0.  0.
         13    1    1    2    0    0 -0.12272628735E+02 -0.80906584998E+01  0.74860665375E+02  0.76290278249E+02  0.10566000000E+00 0. -1.
        994    1    1    2    0    0  0.13667004910E+02  0.10494902262E+02  0.23485088496E+01  0.17208104338E+03  0.17120000000E+03 0.  0.
        998    1    1    2    0    0 -0.13943761751E+01 -0.24042437623E+01  0.14227908221E+04  0.14228286784E+04  0.10000000000E+02 0. -1.
</event>
<event>
 5    1  0.1364103E-008  0.3841667E+03  0.7957747E-01  0.3433214E+00
         13   -1    0    0    0    0  0.00000000000E+00  0.00000000000E+00  0.14999999963E+04  0.15000000000E+04  0.10566000000E+00 0. -1.
        994   -1    0    0    0    0 -0.00000000000E+00 -0.00000000000E+00  0.11368683772E-12  0.17120000000E+03  0.17120000000E+03 0.  0.
         13    1    1    2    0    0  0.17607147498E+02 -0.58149247226E+01  0.87230540682E+02  0.89179613053E+02  0.10566000000E+00 0. -1.
        994    1    1    2    0    0 -0.48261114348E+01  0.35190315726E+01  0.21620846371E+01  0.17131780277E+03  0.17120000000E+03 0.  0.
        998    1    1    2    0    0 -0.12781036063E+02  0.22958931500E+01  0.14106073710E+04  0.14107025842E+04  0.10000000000E+02 0. -1.
</event>
<event>
 5    1  0.1364103E-008  0.3837355E+03  0.7957747E-01  0.3435053E+00
         13   -1    0    0    0    0  0.00000000000E+00  0.00000000000E+00  0.14999999963E+04  0.15000000000E+04  0.10566000000E+00 0. -1.
        994   -1    0    0    0    0 -0.00000000000E+00 -0.00000000000E+00  0.11368683772E-12  0.17120000000E+03  0.17120000000E+03 0.  0.
         13    1    1    2    0    0  0.15146410195E+02  0.80743568132E+01  0.60392203394E+02  0.62784061469E+02  0.10566000000E+00 0. -1.
        994    1    1    2    0    0 -0.21157000464E+02 -0.11986723725E+02  0.42142542724E+01  0.17296965096E+03  0.17120000000E+03 0.  0.
        998    1    1    2    0    0  0.60105902689E+01  0.39123669122E+01  0.14353935386E+04  0.14354462876E+04  0.10000000000E+02 0. -1.
</event>
<event>
 5    1  0.1364103E-008  0.3716256E+03  0.7957747E-01  0.3488453E+00
         13   -1    0    0    0    0  0.00000000000E+00  0.00000000000E+00  0.14999999963E+04  0.15000000000E+04  0.10566000000E+00 0.  1.
        994   -1    0    0    0    0 -0.00000000000E+00 -0.00000000000E+00  0.11368683772E-12  0.17120000000E+03  0.17120000000E+03 0.  0.
         13    1    1    2    0    0 -0.86109745289E+01  0.80580783688E+01  0.44519019896E+00  0.11802155213E+02  0.10566000000E+00 0.  1.
        994    1    1    2    0    0  0.16903109877E+01 -0.58808855305E+01  0.11932664962E+02  0.17172440263E+03  0.17120000000E+03 0.  0.
        998    1    1    2    0    0  0.69206635412E+01 -0.21771928383E+01  0.14876221411E+04  0.14876734422E+04  0.10000000000E+02 0.  1.
</event>
<event>
 5    1  0.1364103E-008  0.3805957E+03  0.7957747E-01  0.3448569E+00
         13   -1    0    0    0    0  0.00000000000E+00  0.00000000000E+00  0.14999999963E+04  0.15000000000E+04  0.10566000000E+00 0.  1.
        994   -1    0    0    0    0 -0.00000000000E+00 -0.00000000000E+00  0.11368683772E-12  0.17120000000E+03  0.17120000000E+03 0.  0.
         13    1    1    2    0    0 -0.27555988104E+02  0.54247469383E+01  0.10961400572E+03  0.11315476911E+03  0.10566000000E+00 0.  1.
        994    1    1    2    0    0  0.48455413094E+01  0.60659807635E+01  0.40338498542E+01  0.17142341537E+03  0.17120000000E+03 0.  0.
        998    1    1    2    0    0  0.22710446795E+02 -0.11490727702E+02  0.13863521407E+04  0.13866218155E+04  0.10000000000E+02 0.  1.
</event>
<event>
 5    1  0.1364103E-008  0.3857384E+03  0.7957747E-01  0.3426547E+00
         13   -1    0    0    0    0  0.00000000000E+00  0.00000000000E+00  0.14999999963E+04  0.15000000000E+04  0.10566000000E+00 0.  1.
        994   -1    0    0    0    0 -0.00000000000E+00 -0.00000000000E+00  0.11368683772E-12  0.17120000000E+03  0.17120000000E+03 0.  0.
         13    1    1    2    0    0  0.23740797521E+01  0.11466233430E+02  0.59736611558E+02  0.60873513848E+02  0.10566000000E+00 0.  1.
        994    1    1    2    0    0  0.15105156655E+01  0.46778237173E+01  0.13432736706E+01  0.17127582455E+03  0.17120000000E+03 0.  0.
        998    1    1    2    0    0 -0.38845954176E+01 -0.16144057148E+02  0.14389201110E+04  0.14390506616E+04  0.10000000000E+02 0.  1.
</event>
<event>
 5    1  0.1364103E-008  0.3855332E+03  0.7957747E-01  0.3427414E+00
         13   -1    0    0    0    0  0.00000000000E+00  0.00000000000E+00  0.14999999963E+04  0.15000000000E+04  0.10566000000E+00 0.  1.
        994   -1    0    0    0    0 -0.00000000000E+00 -0.00000000000E+00  0.11368683772E-12  0.17120000000E+03  0.17120000000E+03 0.  0.
         13    1    1    2    0    0  0.65075402848E+01  0.77790599763E+01  0.39257352300E+02  0.40546426826E+02  0.10566000000E+00 0.  1.
        994    1    1    2    0    0  0.35570071798E+01 -0.26925349177E+01  0.14309963469E+01  0.17126409371E+03  0.17120000000E+03 0.  0.
        998    1    1    2    0    0 -0.10064547465E+02 -0.50865250586E+01  0.14593116476E+04  0.14593894795E+04  0.10000000000E+02 0.  1.
</event>
<event>
 5    1  0.1364103E-008  0.3781041E+03  0.7957747E-01  0.3459455E+00
         13   -1    0    0    0    0  0.00000000000E+00  0.00000000000E+00  0.14999999963E+04  0.15000000000E+04  0.10566000000E+00 0. -1.
        994   -1    0    0    0    0 -0.00000000000E+00 -0.00000000000E+00  0.11368683772E-12  0.17120000000E+03  0.17120000000E+03 0.  0.
         13    1    1    2    0    0  0.95618114251E+01 -0.28770423756E+02  0.83569138676E+02  0.88898693038E+02  0.10566000000E+00 0. -1.
        994    1    1    2    0    0 -0.77566156533E+01  0.30888136665E+02  0.85127261990E+01  0.17434491269E+03  0.17120000000E+03 0.  0.
        998    1    1    2    0    0 -0.18051957719E+01 -0.21177129086E+01  0.14079181314E+04  0.14079563943E+04  0.10000000000E+02 0. -1.
</event>
<event>
 5    1  0.1364103E-008  0.3815875E+03  0.7957747E-01  0.3444275E+00
         13   -1    0    0    0    0  0.00000000000E+00  0.00000000000E+00  0.14999999963E+04  0.15000000000E+04  0.10566000000E+00 0. -1.
        994   -1    0    0    0    0 -0.00000000000E+00 -0.00000000000E+00  0.11368683772E-12  0.17120000000E+03  0.17120000000E+03 0.  0.
         13    1    1    2    0    0  0.73229641579E+01  0.15193149924E+02  0.42214950022E+02  0.45459551010E+02  0.10566000000E+00 0. -1.
        994    1    1    2    0    0  0.11138894274E+01 -0.77623063240E+01  0.35384641161E+01  0.17141602865E+03  0.17120000000E+03 0.  0.
        998    1    1    2    0    0 -0.84368535853E+01 -0.74308435996E+01  0.14542465821E+04  0.14543244203E+04  0.10000000000E+02 0. -1.
</event>
<event>
 5    1  0.1364103E-008  0.3840170E+03  0.7957747E-01  0.3433852E+00
         13   -1    0    0    0    0  0.00000000000E+00  0.00000000000E+00  0.14999999963E+04  0.15000000000E+04  0.10566000000E+00 0.  1.
        994   -1    0    0    0    0 -0.00000000000E+00 -0.00000000000E+00  0.11368683772E-12  0.17120000000E+03  0.17120000000E+03 0.  0.
         13    1    1    2    0    0 -0.68419106431E+00  0.10378761027E+02  0.30089406186E+02  0.31836619270E+02  0.10566000000E+00 0.  1.
        994    1    1    2    0    0  0.14300280171E+02  0.40738939080E+02  0.82935302259E+01  0.17675514650E+03  0.17120000000E+03 0.  0.
        998    1    1    2    0    0 -0.13616089107E+02 -0.51117700107E+02  0.14616170599E+04  0.14626082342E+04  0.10000000000E+02 0.  1.
</event>
<event>
 5    1  0.1364103E-008  0.3702080E+03  0.7957747E-01  0.3494935E+00
         13   -1    0    0    0    0  0.00000000000E+00  0.00000000000E+00  0.14999999963E+04  0.15000000000E+04  0.10566000000E+00 0.  1.
        994   -1    0    0    0    0 -0.00000000000E+00 -0.00000000000E+00  0.11368683772E-12  0.17120000000E+03  0.17120000000E+03 0.  0.
         13    1    1    2    0    0  0.16961153233E+02 -0.16089423755E+02  0.19916734795E+02  0.30712176163E+02  0.10566000000E+00 0.  1.
        994    1    1    2    0    0 -0.15388797266E+02  0.12590179460E+02  0.12433100242E+02  0.17279858125E+03  0.17120000000E+03 0.  0.
        998    1    1    2    0    0 -0.15723559670E+01  0.34992442941E+01  0.14676501612E+04  0.14676892426E+04  0.10000000000E+02 0.  1.
</event>
<event>
 5    1  0.1364103E-008  0.3821521E+03  0.7957747E-01  0.3441841E+00
         13   -1    0    0    0    0  0.00000000000E+00  0.00000000000E+00  0.14999999963E+04  0.15000000000E+04  0.10566000000E+00 0. -1.
        994   -1    0    0    0    0 -0.00000000000E+00 -0.00000000000E+00  0.11368683772E-12  0.17120000000E+03  0.17120000000E+03 0.  0.
         13    1    1    2    0    0  0.20041455829E+02  0.13389243955E+02  0.89139674267E+02  0.92340806245E+02  0.10566000000E+00 0. -1.
        994    1    1    2    0    0 -0.17427156661E+02 -0.19052569428E+02  0.52668375438E+01  0.17321629764E+03  0.17120000000E+03 0.  0.
        998    1    1    2    0    0 -0.26142991683E+01  0.56633254726E+01  0.14055934845E+04  0.14056428961E+04  0.10000000000E+02 0. -1.
</event>
<event>
 5    1  0.1364103E-008  0.3857539E+03  0.7957747E-01  0.3426481E+00
         13   -1    0    0    0    0  0.00000000000E+00  0.00000000000E+00  0.14999999963E+04  0.15000000000E+04  0.10566000000E+00 0.  1.
        994   -1    0    0    0    0 -0.00000000000E+00 -0.00000000000E+00  0.11368683772E-12  0.17120000000E+03  0.17120000000E+03 0.  0.
         13    1    1    2    0    0 -0.24212148891E+01  0.12228430108E+02  0.63353558108E+02  0.64568423192E+02  0.10566000000E+00 0.  1.
        994    1    1    2    0    0 -0.22968480931E+01 -0.66438389456E+01  0.14184510896E+01  0.17135013309E+03  0.17120000000E+03 0.  0.
        998    1    1    2    0    0  0.47180629822E+01 -0.55845911627E+01  0.14352279871E+04  0.14352814437E+04  0.10000000000E+02 0.  1.
</event>
<event>
 5    1  0.1364103E-008  0.3786053E+03  0.7957747E-01  0.3457254E+00
         13   -1    0    0    0    0  0.00000000000E+00  0.00000000000E+00  0.14999999963E+04  0.15000000000E+04  0.10566000000E+00 0. -1.
        994   -1    0    0    0    0 -0.00000000000E+00 -0.00000000000E+00  0.11368683772E-12  0.17120000000E+03  0.17120000000E+03 0.  0.
         13    1    1    2    0    0 -0.13993406306E+02  0.10123247618E+02  0.28995334724E+02  0.33749609808E+02  0.10566000000E+00 0. -1.
        994    1    1    2    0    0  0.11320644142E+02 -0.16218629764E+01  0.52781862203E+01  0.17166271195E+03  0.17120000000E+03 0.  0.
        998    1    1    2    0    0  0.26727621641E+01 -0.85013846420E+01  0.14657264753E+04  0.14657876782E+04  0.10000000000E+02 0. -1.
</event>
<event>
 5    1  0.1364103E-008  0.3842403E+03  0.7957747E-01  0.3432901E+00
         13   -1    0    0    0    0  0.00000000000E+00  0.00000000000E+00  0.14999999963E+04  0.15000000000E+04  0.10566000000E+00 0.  1.
        994   -1    0    0    0    0 -0.00000000000E+00 -0.00000000000E+00  0.11368683772E-12  0.17120000000E+03  0.17120000000E+03 0.  0.
         13    1    1    2    0    0  0.19713307906E+02  0.15496521924E+02  0.14665358651E+03  0.14878186146E+03  0.10566000000E+00 0.  1.
        994    1    1    2    0    0 -0.18901726074E+02 -0.12430916337E+02  0.36968922590E+01  0.17272784935E+03  0.17120000000E+03 0.  0.
        998    1    1    2    0    0 -0.81158183277E+00 -0.30656055873E+01  0.13496495175E+04  0.13496902892E+04  0.10000000000E+02 0.  1.
</event>
<event>
 5    1  0.1364103E-008  0.3805622E+03  0.7957747E-01  0.3448714E+00
         13   -1    0    0    0    0  0.00000000000E+00  0.00000000000E+00  0.14999999963E+04  0.15000000000E+04  0.10566000000E+00 0.  1.
        994   -1    0    0    0    0 -0.00000000000E+00 -0.00000000000E+00  0.11368683772E-12  0.17120000000E+03  0.17120000000E+03 0.  0.
         13    1    1    2    0    0  0.17714522095E+02  0.21546244655E+01  0.38425668139E+02  0.42367320374E+02  0.10566000000E+00 0.  1.
        994    1    1    2    0    0 -0.23129885251E+02  0.12032768569E+01  0.56416254141E+01  0.17285169193E+03  0.17120000000E+03 0.  0.
        998    1    1    2    0    0  0.54153631562E+01 -0.33579013224E+01  0.14559327027E+04  0.14559809877E+04  0.10000000000E+02 0.  1.
</event>
<event>
 5    1  0.1364103E-008  0.3729409E+03  0.7957747E-01  0.3482483E+00
         13   -1    0    0    0    0  0.00000000000E+00  0.00000000000E+00  0.14999999963E+04  0.15000000000E+04  0.10566000000E+00 0.  1.
        994   -1    0    0    0    0 -0.00000000000E+00 -0.00000000000E+00  0.11368683772E-12  0.17120000000E+03  0.17120000000E+03 0.  0.
         13    1    1    2    0    0  0.29270950682E+02 -0.48462500135E+02  0.25105445901E+03  0.25735919457E+03  0.10566000000E+00 0.  1.
        994    1    1    2    0    0 -0.10111994483E+02 -0.41311966778E+01  0.81484450742E+01  0.17174153946E+03  0.17120000000E+03 0.  0.
        998    1    1    2    0    0 -0.19158956198E+02  0.52593696813E+02  0.12407970922E+04  0.12420992660E+04  0.10000000000E+02 0.  1.
</event>
<event>
 5    1  0.1364103E-008  0.3826727E+03  0.7957747E-01  0.3439603E+00
         13   -1    0    0    0    0  0.00000000000E+00  0.00000000000E+00  0.14999999963E+04  0.15000000000E+04  0.10566000000E+00 0. -1.
        994   -1    0    0    0    0 -0.00000000000E+00 -0.00000000000E+00  0.11368683772E-12  0.17120000000E+03  0.17120000000E+03 0.  0.
         13    1    1    2    0    0  0.11714683844E+02  0.22581605155E+02  0.10920890651E+03  0.11213277457E+03  0.10566000000E+00 0. -1.
        994    1    1    2    0    0 -0.72055624317E+01 -0.23168926460E+02  0.47432850737E+01  0.17297588860E+03  0.17120000000E+03 0.  0.
        998    1    1    2    0    0 -0.45091214125E+01  0.58732130586E+00  0.13860478047E+04  0.13860913368E+04  0.10000000000E+02 0. -1.
</event>
<event>
 5    1  0.1364103E-008  0.3841203E+03  0.7957747E-01  0.3433412E+00
         13   -1    0    0    0    0  0.00000000000E+00  0.00000000000E+00  0.14999999963E+04  0.15000000000E+04  0.10566000000E+00 0. -1.
        994   -1    0    0    0    0 -0.00000000000E+00 -0.00000000000E+00  0.11368683772E-12  0.17120000000E+03  0.17120000000E+03 0.  0.
         13    1    1    2    0    0 -0.14299771087E+02 -0.13827664838E+02  0.99990721281E+02  0.10195019997E+03  0.10566000000E+00 0. -1.
        994    1    1    2    0    0  0.47166304725E+01  0.34514817540E+01  0.21802109635E+01  0.17131360906E+03  0.17120000000E+03 0.  0.
        998    1    1    2    0    0  0.95831406147E+01  0.10376183084E+02  0.13978290640E+04  0.13979361910E+04  0.10000000000E+02 0. -1.
</event>
<event>
 5    1  0.1364103E-008  0.3789143E+03  0.7957747E-01  0.3455899E+00
         13   -1    0    0    0    0  0.00000000000E+00  0.00000000000E+00  0.14999999963E+04  0.15000000000E+04  0.10566000000E+00 0. -1.
        994   -1    0    0    0    0 -0.00000000000E+00 -0.00000000000E+00  0.11368683772E-12  0.17120000000E+03  0.17120000000E+03 0.  0.
         13    1    1    2    0    0 -0.10171866358E+02 -0.17250102363E+02  0.36765048733E+02  0.41865413757E+02  0.10566000000E+00 0. -1.
        994    1    1    2    0    0 -0.25989470360E+02  0.69725730548E+02  0.23489191297E+02  0.18814439183E+03  0.17120000000E+03 0.  0.
        998    1    1    2    0    0  0.36161336718E+02 -0.52475628186E+02  0.14397457562E+04  0.14411901944E+04  0.10000000000E+02 0. -1.
</event>
<event>
 5    1  0.1364103E-008  0.3859420E+03  0.7957747E-01  0.3425687E+00
         13   -1    0    0    0    0  0.00000000000E+00  0.00000000000E+00  0.14999999963E+04  0.15000000000E+04  0.10566000000E+00 0.  1.
        994   -1    0    0    0    0 -0.00000000000E+00 -0.00000000000E+00  0.11368683772E-12  0.17120000000E+03  0.17120000000E+03 0.  0.
         13    1    1    2    0    0 -0.60016495680E+01 -0.11514443384E+02  0.75525264986E+02  0.76633406679E+02  0.10566000000E+00 0.  1.
        994    1    1    2    0    0 -0.31735428373E+01  0.71206218279E+01  0.13624505607E+01  0.17138281974E+03  0.17120000000E+03 0.  0.
        998    1    1    2    0    0  0.91751924053E+01  0.43938215564E+01  0.14231122807E+04  0.14231837736E+04  0.10000000000E+02 0.  1.
</event>
<event>
 5    1  0.1364103E-008  0.3702756E+03  0.7957747E-01  0.3494625E+00
         13   -1    0    0    0    0  0.00000000000E+00  0.00000000000E+00  0.14999999963E+04  0.15000000000E+04  0.10566000000E+00 0.  1.
        994   -1    0    0    0    0 -0.00000000000E+00 -0.00000000000E+00  0.11368683772E-12  0.17120000000E+03  0.17120000000E+03 0.  0.
         13    1    1    2    0    0  0.23266899171E+02  0.48130577159E+02  0.16929522804E+03  0.17753531045E+03  0.10566000000E+00 0.  1.
        994    1    1    2    0    0  0.87444431602E+01 -0.17598514853E+02  0.10460174249E+02  0.17264132836E+03  0.17120000000E+03 0.  0.
        998    1    1    2    0    0 -0.32011342331E+02 -0.30532062306E+02  0.13202445940E+04  0.13210233612E+04  0.10000000000E+02 0.  1.
</event>
<event>
 5    1  0.1364103E-008  0.3824690E+03  0.7957747E-01  0.3440478E+00
         13   -1    0    0    0    0  0.00000000000E+00  0.00000000000E+00  0.14999999963E+04  0.15000000000E+04  0.10566000000E+00 0. -1.
        994   -1    0    0    0    0 -0.00000000000E+00 -0.00000000000E+00  0.11368683772E-12  0.17120000000E+03  0.17120000000E+03 0.  0.
         13    1    1    2    0    0 -0.23665284932E+01  0.22947111024E+02  0.84013568683E+02  0.87123253201E+02  0.10566000000E+00 0. -1.
        994    1    1    2    0    0 -0.35942280116E+01 -0.29812585141E+02  0.58876854087E+01  0.17391323569E+03  0.17120000000E+03 0.  0.
        998    1    1    2    0    0  0.59607565049E+01  0.68654741172E+01  0.14100987422E+04  0.14101635111E+04  0.10000000000E+02 0. -1.
</event>
<event>
 5    1  0.2043498E-008  0.3859692E+03  0.7957747E-01  0.3425572E+00
         13   -1    0    0    0    0  0.00000000000E+00  0.00000000000E+00  0.14999999963E+04  0.15000000000E+04  0.10566000000E+00 0.  1.
        994   -1    0    0    0    0 -0.00000000000E+00 -0.00000000000E+00  0.11368683772E-12  0.17120000000E+03  0.17120000000E+03 0.  0.
         13    1    1    2    0    0 -0.67046889189E+00  0.12792419300E+02  0.66910147223E+02  0.68125432003E+02  0.10566000000E+00 0.  1.
        994    1    1    2    0    0  0.83116536604E+00 -0.18562000295E+02  0.22823297871E+01  0.17222046255E+03  0.17120000000E+03 0.  0.
        998    1    1    2    0    0 -0.16069647415E+00  0.57695809951E+01  0.14308075193E+04  0.14308541054E+04  0.10000000000E+02 0.  1.
</event>
<event>
 5    1  0.1364103E-008  0.3816385E+03  0.7957747E-01  0.3444055E+00
         13   -1    0    0    0    0  0.00000000000E+00  0.00000000000E+00  0.14999999963E+04  0.15000000000E+04  0.10566000000E+00 0. -1.
        994   -1    0    0    0    0 -0.00000000000E+00 -0.00000000000E+00  0.11368683772E-12  0.17120000000E+03  0.17120000000E+03 0.  0.
         13    1    1    2    0    0 -0.62708556383E+01 -0.18595163544E+02  0.57549205213E+02  0.60803173621E+02  0.10566000000E+00 0. -1.
        994    1    1    2    0    0  0.56056235785E+01  0.94859923029E+01  0.37120727562E+01  0.17159436631E+03  0.17120000000E+03 0.  0.
        998    1    1    2    0    0  0.66523205972E+00  0.91091712415E+01  0.14387387183E+04  0.14388024601E+04  0.10000000000E+02 0. -1.
</event>
<event>
 5    1  0.1364103E-008  0.3830952E+03  0.7957747E-01  0.3437791E+00
         13   -1    0    0    0    0  0.00000000000E+00  0.00000000000E+00  0.14999999963E+04  0.15000000000E+04  0.10566000000E+00 0. -1.
        994   -1    0    0    0    0 -0.00000000000E+00 -0.00000000000E+00  0.11368683772E-12  0.17120000000E+03  0.17120000000E+03 0.  0.
         13    1    1    2    0    0 -0.19061096161E+02 -0.28452011115E+02  0.15846234607E+03  0.16212084569E+03  0.10566000000E+00 0. -1.
        994    1    1    2    0    0  0.41853777031E+02  0.52961795503E+02  0.17806301854E+02  0.18488697850E+03  0.17120000000E+03 0.  0.
        998    1    1    2    0    0 -0.22792680870E+02 -0.24509784388E+02  0.13237313484E+04  0.13241921758E+04  0.10000000000E+02 0. -1.
</event>
<event>
 5    1  0.1364103E-008  0.3714225E+03  0.7957747E-01  0.3489379E+00
         13   -1    0    0    0    0  0.00000000000E+00  0.00000000000E+00  0.14999999963E+04  0.15000000000E+04  0.10566000000E+00 0.  1.
        994   -1    0    0    0    0 -0.00000000000E+00 -0.00000000000E+00  0.11368683772E-12  0.17120000000E+03  0.17120000000E+03 0.  0.
         13    1    1    2    0    0  0.13705826529E+02  0.10716963923E+02  0.78492153918E+01  0.19087282229E+02  0.10566000000E+00 0.  1.
        994    1    1    2    0    0 -0.25699897969E+02  0.25893959871E+02  0.16383845339E+02  0.17580913600E+03  0.17120000000E+03 0.  0.
        998    1    1    2    0    0  0.11994071439E+02 -0.36610923795E+02  0.14757669355E+04  0.14763035818E+04  0.10000000000E+02 0.  1.
</event>
<event>
 5    1  0.1364103E-008  0.3748180E+03  0.7957747E-01  0.3474037E+00
         13   -1    0    0    0    0  0.00000000000E+00  0.00000000000E+00  0.14999999963E+04  0.15000000000E+04  0.10566000000E+00 0.  1.
        994   -1    0    0    0    0 -0.00000000000E+00 -0.00000000000E+00  0.11368683772E-12  0.17120000000E+03  0.17120000000E+03 0.  0.
         13    1    1    2    0    0  0.18006604725E+02 -0.18665063974E+02  0.19595535657E+02  0.32505670407E+02  0.10566000000E+00 0.  1.
        994    1    1    2    0    0 -0.70615267322E+01  0.83871605230E+01  0.13937003273E+02  0.17211591932E+03  0.17120000000E+03 0.  0.
        998    1    1    2    0    0 -0.10945077993E+02  0.10277903451E+02  0.14664674573E+04  0.14665784103E+04  0.10000000000E+02 0.  1.
</event>
<event>
 5    1  0.1364103E-008  0.3806972E+03  0.7957747E-01  0.3448128E+00
         13   -1    0    0    0    0  0.00000000000E+00  0.00000000000E+00  0.14999999963E+04  0.15000000000E+04  0.10566000000E+00 0. -1.
        994   -1    0    0    0    0 -0.00000000000E+00 -0.00000000000E+00  0.11368683772E-12  0.17120000000E+03  0.17120000000E+03 0.  0.
         13    1    1    2    0    0  0.13060505654E+02  0.12832591726E+02  0.44532606030E+02  0.48149936472E+02  0.10566000000E+00 0. -1.
        994    1    1    2    0    0 -0.53144407681E+01  0.23013276717E+01  0.38934942262E+01  0.17134216844E+03  0.17120000000E+03 0.  0.
        998    1    1    2    0    0 -0.77460648860E+01 -0.15133919398E+02  0.14515738960E+04  0.14517078951E+04  0.10000000000E+02 0. -1.
</event>
<event>
 5    1  0.1364103E-008  0.3816144E+03  0.7957747E-01  0.3444159E+00
         13   -1    0    0    0    0  0.00000000000E+00  0.00000000000E+00  0.14999999963E+04  0.15000000000E+04  0.10566000000E+00 0.  1.
        994   -1    0    0    0    0 -0.00000000000E+00 -0.00000000000E+00  0.11368683772E-12  0.17120000000E+03  0.17120000000E+03 0.  0.
         13    1    1    2    0    0 -0.33384530286E+01  0.22295567751E+02  0.71707285528E+02  0.75167702984E+02  0.10566000000E+00 0.  1.
        994    1    1    2    0    0  0.13861571084E+02 -0.23024762801E+02  0.57258681469E+01  0.17339120053E+03  0.17120000000E+03 0.  0.
        998    1    1    2    0    0 -0.10523118056E+02  0.72919504998E+00  0.14225668426E+04  0.14226410965E+04  0.10000000000E+02 0.  1.
</event>
<event>
 5    1  0.1364103E-008  0.3834710E+03  0.7957747E-01  0.3436183E+00
         13   -1    0    0    0    0  0.00000000000E+00  0.00000000000E+00  0.14999999963E+04  0.15000000000E+04  0.10566000000E+00 0.  1.
        994   -1    0    0    0    0 -0.00000000000E+00 -0.00000000000E+00  0.11368683772E-12  0.17120000000E+03  0.17120000000E+03 0.  0.
         13    1    1    2    0    0  0.45972340574E+00  0.45148990387E+02  0.27156606378E+03  0.27529398984E+03  0.10566000000E+00 0.  1.
        994    1    1    2    0    0  0.50583848360E+01 -0.69178047600E+02  0.18458015962E+02  0.18563762517E+03  0.17120000000E+03 0.  0.
        998    1    1    2    0    0 -0.55181082418E+01  0.24029057214E+02  0.12099759165E+04  0.12102683850E+04  0.10000000000E+02 0.  1.
</event>
<event>
 5    1  0.1364103E-008  0.3792737E+03  0.7957747E-01  0.3454327E+00
         13   -1    0    0    0    0  0.00000000000E+00  0.00000000000E+00  0.14999999963E+04  0.15000000000E+04  0.10566000000E+00 0.  1.
        994   -1    0    0    0    0 -0.00000000000E+00 -0.00000000000E+00  0.11368683772E-12  0.17120000000E+03  0.17120000000E+03 0.  0.
         13    1    1    2    0    0 -0.10116653435E+02 -0.92925070142E+01  0.19473462456E+02  0.23831161688E+02  0.10566000000E+00 0.  1.
        994    1    1    2    0    0  0.50518376148E+01 -0.32395295190E+01  0.46209322274E+01  0.17136746666E+03  0.17120000000E+03 0.  0.
        998    1    1    2    0    0  0.50648158200E+01  0.12532036533E+02  0.14759056016E+04  0.14760013717E+04  0.10000000000E+02 0.  1.
</event>
<event>
 5    1  0.1364103E-008  0.3754861E+03  0.7957747E-01  0.3471051E+00
         13   -1    0    0    0    0  0.00000000000E+00  0.00000000000E+00  0.14999999963E+04  0.15000000000E+04  0.10566000000E+00 0. -1.
        994   -1    0    0    0    0 -0.00000000000E+00 -0.00000000000E+00  0.11368683772E-12  0.17120000000E+03  0.17120000000E+03 0.  0.
         13    1    1    2    0    0 -0.41861531695E+02  0.45946167272E+02  0.26261310429E+03  0.26986865663E+03  0.10566000000E+00 0. -1.
        994    1    1    2    0    0  0.39413965646E+02 -0.37012397802E+02  0.16415544885E+02  0.18028391052E+03  0.17120000000E+03 0.  0.
        998    1    1    2    0    0  0.24475660490E+01 -0.89337694699E+01  0.12209713471E+04  0.12210474329E+04  0.10000000000E+02 0.  0.
</event>
<event>
 5    1  0.1364103E-008  0.3844745E+03  0.7957747E-01  0.3431904E+00
         13   -1    0    0    0    0  0.00000000000E+00  0.00000000000E+00  0.14999999963E+04  0.15000000000E+04  0.10566000000E+00 0. -1.
        994   -1    0    0    0    0 -0.00000000000E+00 -0.00000000000E+00  0.11368683772E-12  0.17120000000E+03  0.17120000000E+03 0.  0.
         13    1    1    2    0    0 -0.22357708516E+02 -0.15858651862E+02  0.15247744082E+03  0.15492173860E+03  0.10566000000E+00 0. -1.
        994    1    1    2    0    0  0.56575322258E+02  0.39150819548E+01  0.12558712556E+02  0.18078511060E+03  0.17120000000E+03 0.  0.
        998    1    1    2    0    0 -0.34217613743E+02  0.11943569907E+02  0.13349638429E+04  0.13354931508E+04  0.10000000000E+02 0. -1.
</event>
<event>
 5    1  0.1364103E-008  0.3802413E+03  0.7957747E-01  0.3450109E+00
         13   -1    0    0    0    0  0.00000000000E+00  0.00000000000E+00  0.14999999963E+04  0.15000000000E+04  0.10566000000E+00 0.  1.
        994   -1    0    0    0    0 -0.00000000000E+00 -0.00000000000E+00  0.11368683772E-12  0.17120000000E+03  0.17120000000E+03 0.  0.
         13    1    1    2    0    0  0.10737916149E+02 -0.21520002831E+02  0.74988767603E+02  0.78751125679E+02  0.10566000000E+00 0.  1.
        994    1    1    2    0    0  0.34219199789E+01  0.41452146141E+01  0.41079251265E+01  0.17133361430E+03  0.17120000000E+03 0.  0.
        998    1    1    2    0    0 -0.14159836128E+02  0.17374788217E+02  0.14209033035E+04  0.14211152600E+04  0.10000000000E+02 0.  1.
</event>
<event>
 5    1  0.1364103E-008  0.3684486E+03  0.7957747E-01  0.3503051E+00
         13   -1    0    0    0    0  0.00000000000E+00  0.00000000000E+00  0.14999999963E+04  0.15000000000E+04  0.10566000000E+00 0. -1.
        994   -1    0    0    0    0 -0.00000000000E+00 -0.00000000000E+00  0.11368683772E-12  0.17120000000E+03  0.17120000000E+03 0.  0.
         13    1    1    2    0    0  0.10368523618E+03  0.69766140802E+02  0.48273297224E+03  0.49864724631E+03  0.10566000000E+00 0. -1.
        994    1    1    2    0    0 -0.10290224088E+03 -0.78541849855E+02  0.70823959120E+02  0.22601585463E+03  0.17120000000E+03 0.  0.
        998    1    1    2    0    0 -0.78299529787E+00  0.87757090539E+01  0.94644306492E+03  0.94653689906E+03  0.10000000000E+02 0. -1.
</event>
<event>
 5    1  0.1364103E-008  0.3714026E+03  0.7957747E-01  0.3489469E+00
         13   -1    0    0    0    0  0.00000000000E+00  0.00000000000E+00  0.14999999963E+04  0.15000000000E+04  0.10566000000E+00 0.  1.
        994   -1    0    0    0    0 -0.00000000000E+00 -0.00000000000E+00  0.11368683772E-12  0.17120000000E+03  0.17120000000E+03 0.  0.
         13    1    1    2    0    0  0.94961318182E+02 -0.11306853832E+03  0.53344332695E+03  0.55350152713E+03  0.10566000000E+00 0.  1.
        994    1    1    2    0    0 -0.10185722748E+03  0.11308936210E+03  0.98159622262E+02  0.24921647227E+03  0.17120000000E+03 0.  0.
        998    1    1    2    0    0  0.68959093009E+01 -0.20823782173E-01  0.86839704707E+03  0.86848200059E+03  0.10000000000E+02 0. -1.
</event>
<event>
 5    1  0.1364103E-008  0.3684708E+03  0.7957747E-01  0.3502948E+00
         13   -1    0    0    0    0  0.00000000000E+00  0.00000000000E+00  0.14999999963E+04  0.15000000000E+04  0.10566000000E+00 0.  1.
        994   -1    0    0    0    0 -0.00000000000E+00 -0.00000000000E+00  0.11368683772E-12  0.17120000000E+03  0.17120000000E+03 0.  0.
         13    1    1    2    0    0 -0.97614839424E+01 -0.90445020017E+01  0.40334107997E+01  0.13905723711E+02  0.10566000000E+00 0.  1.
        994    1    1    2    0    0  0.10814723120E+02  0.94477762523E+01  0.10849887509E+02  0.17214348309E+03  0.17120000000E+03 0.  0.
        998    1    1    2    0    0 -0.10532391778E+01 -0.40327425065E+00  0.14851166980E+04  0.14851507932E+04  0.10000000000E+02 0.  1.
</event>
<event>
 5    1  0.1364103E-008  0.3745985E+03  0.7957747E-01  0.3475021E+00
         13   -1    0    0    0    0  0.00000000000E+00  0.00000000000E+00  0.14999999963E+04  0.15000000000E+04  0.10566000000E+00 0. -1.
        994   -1    0    0    0    0 -0.00000000000E+00 -0.00000000000E+00  0.11368683772E-12  0.17120000000E+03  0.17120000000E+03 0.  0.
         13    1    1    2    0    0 -0.69598563934E+01 -0.53493493915E+02  0.18100873674E+03  0.18887606368E+03  0.10566000000E+00 0. -1.
        994    1    1    2    0    0  0.12019920948E+02  0.56502155163E+02  0.18329623712E+02  0.18161053698E+03  0.17120000000E+03 0.  0.
        998    1    1    2    0    0 -0.50600645547E+01 -0.30086612481E+01  0.13006616358E+04  0.13007133993E+04  0.10000000000E+02 0. -1.
</event>
<event>
 5    1  0.1364103E-008  0.3786904E+03  0.7957747E-01  0.3456881E+00
         13   -1    0    0    0    0  0.00000000000E+00  0.00000000000E+00  0.14999999963E+04  0.15000000000E+04  0.10566000000E+00 0.  1.
        994   -1    0    0    0    0 -0.00000000000E+00 -0.00000000000E+00  0.11368683772E-12  0.17120000000E+03  0.17120000000E+03 0.  0.
         13    1    1    2    0    0 -0.31513750586E+02 -0.49493200030E+02  0.26559319301E+03  0.27199714826E+03  0.10566000000E+00 0.  1.
        994    1    1    2    0    0  0.19212224901E+02  0.73708309954E+02  0.24529332512E+02  0.18897923879E+03  0.17120000000E+03 0.  0.
        998    1    1    2    0    0  0.12301525685E+02 -0.24215109924E+02  0.12098774708E+04  0.12102236129E+04  0.10000000000E+02 0.  1.
</event>
<event>
 5    1  0.1364103E-008  0.3838694E+03  0.7957747E-01  0.3434482E+00
         13   -1    0    0    0    0  0.00000000000E+00  0.00000000000E+00  0.14999999963E+04  0.15000000000E+04  0.10566000000E+00 0. -1.
        994   -1    0    0    0    0 -0.00000000000E+00 -0.00000000000E+00  0.11368683772E-12  0.17120000000E+03  0.17120000000E+03 0.  0.
         13    1    1    2    0    0 -0.95497161023E+00  0.17620902549E+02  0.77243716902E+02  0.79233901470E+02  0.10566000000E+00 0. -1.
        994    1    1    2    0    0 -0.25566504336E+01  0.33492739475E+01  0.22511318904E+01  0.17126663917E+03  0.17120000000E+03 0.  0.
        998    1    1    2    0    0  0.35116220439E+01 -0.20970176497E+02  0.14205051475E+04  0.14206994594E+04  0.10000000000E+02 0. -1.
</event>
<event>
 5    1  0.1364103E-008  0.3689232E+03  0.7957747E-01  0.3500854E+00
         13   -1    0    0    0    0  0.00000000000E+00  0.00000000000E+00  0.14999999963E+04  0.15000000000E+04  0.10566000000E+00 0. -1.
        994   -1    0    0    0    0 -0.00000000000E+00 -0.00000000000E+00  0.11368683772E-12  0.17120000000E+03  0.17120000000E+03 0.  0.
         13    1    1    2    0    0  0.10466163582E+02  0.59899744403E+02  0.20890633646E+03  0.21757616721E+03  0.10566000000E+00 0. -1.
        994    1    1    2    0    0 -0.90208488502E+00 -0.12819675569E+02  0.10406379047E+02  0.17199677486E+03  0.17120000000E+03 0.  0.
        998    1    1    2    0    0 -0.95640786965E+01 -0.47080068834E+02  0.12806872808E+04  0.12816270579E+04  0.10000000000E+02 0. -1.
</event>
<event>
 5    1  0.1364103E-008  0.3848913E+03  0.7957747E-01  0.3430133E+00
         13   -1    0    0    0    0  0.00000000000E+00  0.00000000000E+00  0.14999999963E+04  0.15000000000E+04  0.10566000000E+00 0.  1.
        994   -1    0    0    0    0 -0.00000000000E+00 -0.00000000000E+00  0.11368683772E-12  0.17120000000E+03  0.17120000000E+03 0.  0.
         13    1    1    2    0    0  0.97382817996E+01  0.13653018902E+02  0.83498827181E+02  0.85166333503E+02  0.10566000000E+00 0.  1.
        994    1    1    2    0    0 -0.81039711126E+01 -0.75266277528E+01  0.20866375982E+01  0.17156957344E+03  0.17120000000E+03 0.  0.
        998    1    1    2    0    0 -0.16343106870E+01 -0.61263911493E+01  0.14144145315E+04  0.14144640931E+04  0.10000000000E+02 0.  1.
</event>
<event>
 5    1  0.1364103E-008  0.3855515E+03  0.7957747E-01  0.3427337E+00
         13   -1    0    0    0    0  0.00000000000E+00  0.00000000000E+00  0.14999999963E+04  0.15000000000E+04  0.10566000000E+00 0. -1.
        994   -1    0    0    0    0 -0.00000000000E+00 -0.00000000000E+00  0.11368683772E-12  0.17120000000E+03  0.17120000000E+03 0.  0.
         13    1    1    2    0    0  0.39427863534E+00 -0.11123172105E+02  0.48717731873E+02  0.49973082516E+02  0.10566000000E+00 0. -1.
        994    1    1    2    0    0  0.72993486964E+01 -0.21095237839E+01  0.15461352720E+01  0.17137549742E+03  0.17120000000E+03 0.  0.
        998    1    1    2    0    0 -0.76936273317E+01  0.13232695889E+02  0.14497361291E+04  0.14498514201E+04  0.10000000000E+02 0. -1.
</event>
<event>
 5    1  0.1364103E-008  0.3746890E+03  0.7957747E-01  0.3474615E+00
         13   -1    0    0    0    0  0.00000000000E+00  0.00000000000E+00  0.14999999963E+04  0.15000000000E+04  0.10566000000E+00 0. -1.
        994   -1    0    0    0    0 -0.00000000000E+00 -0.00000000000E+00  0.11368683772E-12  0.17120000000E+03  0.17120000000E+03 0.  0.
         13    1    1    2    0    0 -0.53584943827E+01  0.66835727220E+02  0.29884559624E+03  0.30627508787E+03  0.10566000000E+00 0. -1.
        994    1    1    2    0    0 -0.14236505287E+02 -0.52097147661E+02  0.16829265646E+02  0.18030378548E+03  0.17120000000E+03 0.  0.
        998    1    1    2    0    0  0.19594999670E+02 -0.14738579559E+02  0.11843251344E+04  0.11846211266E+04  0.10000000000E+02 0. -1.
</event>
<event>
 5    1  0.1364103E-008  0.3820096E+03  0.7957747E-01  0.3442455E+00
         13   -1    0    0    0    0  0.00000000000E+00  0.00000000000E+00  0.14999999963E+04  0.15000000000E+04  0.10566000000E+00 0. -1.
        994   -1    0    0    0    0 -0.00000000000E+00 -0.00000000000E+00  0.11368683772E-12  0.17120000000E+03  0.17120000000E+03 0.  0.
         13    1    1    2    0    0 -0.20588001478E+02  0.17783511347E+02  0.10964456099E+03  0.11296928786E+03  0.10566000000E+00 0. -1.
        994    1    1    2    0    0  0.20634133511E+02 -0.18964952821E+02  0.57348544466E+01  0.17357351600E+03  0.17120000000E+03 0.  0.
        998    1    1    2    0    0 -0.46132032935E-01  0.11814414732E+01  0.13846205808E+04  0.13846571961E+04  0.10000000000E+02 0.  0.
</event>
<event>
 5    1  0.1364103E-008  0.3702711E+03  0.7957747E-01  0.3494646E+00
         13   -1    0    0    0    0  0.00000000000E+00  0.00000000000E+00  0.14999999963E+04  0.15000000000E+04  0.10566000000E+00 0.  1.
        994   -1    0    0    0    0 -0.00000000000E+00 -0.00000000000E+00  0.11368683772E-12  0.17120000000E+03  0.17120000000E+03 0.  0.
         13    1    1    2    0    0 -0.45755946590E+02 -0.74001807726E+02  0.28913826243E+03  0.30194506150E+03  0.10566000000E+00 0.  1.
        994    1    1    2    0    0  0.10061821755E+03  0.65881193897E+02  0.60888661596E+02  0.21790187361E+03  0.17120000000E+03 0.  0.
        998    1    1    2    0    0 -0.54862270955E+02  0.81206138288E+01  0.11499730722E+04  0.11513530649E+04  0.10000000000E+02 0.  1.
</event>
<event>
 5    1  0.1364103E-008  0.3821064E+03  0.7957747E-01  0.3442038E+00
         13   -1    0    0    0    0  0.00000000000E+00  0.00000000000E+00  0.14999999963E+04  0.15000000000E+04  0.10566000000E+00 0. -1.
        994   -1    0    0    0    0 -0.00000000000E+00 -0.00000000000E+00  0.11368683772E-12  0.17120000000E+03  0.17120000000E+03 0.  0.
         13    1    1    2    0    0 -0.26376740989E+02 -0.13283033084E+02  0.16234932826E+03  0.16501359636E+03  0.10566000000E+00 0. -1.
        994    1    1    2    0    0 -0.34155359343E+01  0.51488701001E+01  0.32003822248E+01  0.17134135285E+03  0.17120000000E+03 0.  0.
        998    1    1    2    0    0  0.29792276923E+02  0.81341629839E+01  0.13344502858E+04  0.13348450508E+04  0.10000000000E+02 0. -1.
</event>
<event>
 5    1  0.1364103E-008  0.3808364E+03  0.7957747E-01  0.3447525E+00
         13   -1    0    0    0    0  0.00000000000E+00  0.00000000000E+00  0.14999999963E+04  0.15000000000E+04  0.10566000000E+00 0. -1.
        994   -1    0    0    0    0 -0.00000000000E+00 -0.00000000000E+00  0.11368683772E-12  0.17120000000E+03  0.17120000000E+03 0.  0.
         13    1    1    2    0    0  0.24265070308E+02 -0.42167123299E+01  0.10804887128E+03  0.11082032327E+03  0.10566000000E+00 0. -1.
        994    1    1    2    0    0  0.27069680992E+02 -0.40569597536E+02  0.11682262505E+02  0.17839443694E+03  0.17120000000E+03 0.  0.
        998    1    1    2    0    0 -0.51334751300E+02  0.44786309866E+02  0.13802688625E+04  0.13819852398E+04  0.10000000000E+02 0. -1.
</event>
<event>
 5    1  0.1364103E-008  0.3753620E+03  0.7957747E-01  0.3471606E+00
         13   -1    0    0    0    0  0.00000000000E+00  0.00000000000E+00  0.14999999963E+04  0.15000000000E+04  0.10566000000E+00 0. -1.
        994   -1    0    0    0    0 -0.00000000000E+00 -0.00000000000E+00  0.11368683772E-12  0.17120000000E+03  0.17120000000E+03 0.  0.
         13    1    1    2    0    0 -0.11658692997E+01 -0.12099228593E+02  0.87364173219E+01  0.14969526894E+02  0.10566000000E+00 0. -1.
        994    1    1    2    0    0  0.20925925402E+00 -0.66273553226E+01  0.66422558873E+01  0.17145706515E+03  0.17120000000E+03 0.  0.
        998    1    1    2    0    0  0.95661004564E+00  0.18726583916E+02  0.14846213231E+04  0.14847734080E+04  0.10000000000E+02 0. -1.
</event>
<event>
 5    1  0.1364103E-008  0.3854583E+03  0.7957747E-01  0.3427731E+00
         13   -1    0    0    0    0  0.00000000000E+00  0.00000000000E+00  0.14999999963E+04  0.15000000000E+04  0.10566000000E+00 0.  1.
        994   -1    0    0    0    0 -0.00000000000E+00 -0.00000000000E+00  0.11368683772E-12  0.17120000000E+03  0.17120000000E+03 0.  0.
         13    1    1    2    0    0  0.14453842700E+02 -0.74514177948E+01  0.89755973240E+02  0.91217230238E+02  0.10566000000E+00 0.  1.
        994    1    1    2    0    0 -0.12271806242E+02  0.13993250397E+02  0.25411452428E+01  0.17222748243E+03  0.17120000000E+03 0.  0.
        998    1    1    2    0    0 -0.21820364581E+01 -0.65418326020E+01  0.14077028778E+04  0.14077552873E+04  0.10000000000E+02 0.  1.
</event>
<event>
 5    1  0.1364103E-008  0.3843181E+03  0.7957747E-01  0.3432569E+00
         13   -1    0    0    0    0  0.00000000000E+00  0.00000000000E+00  0.14999999963E+04  0.15000000000E+04  0.10566000000E+00 0. -1.
        994   -1    0    0    0    0 -0.00000000000E+00 -0.00000000000E+00  0.11368683772E-12  0.17120000000E+03  0.17120000000E+03 0.  0.
         13    1    1    2    0    0  0.77078315242E+01  0.10510580434E+02  0.39889814509E+02  0.41965359923E+02  0.10566000000E+00 0. -1.
        994    1    1    2    0    0 -0.32616221637E+02 -0.60282810990E+01  0.56035677156E+01  0.17447348812E+03  0.17120000000E+03 0.  0.
        998    1    1    2    0    0  0.24908390113E+02 -0.44822993354E+01  0.14545066141E+04  0.14547611520E+04  0.10000000000E+02 0. -1.
</event>
<event>
 5    1  0.1364103E-008  0.3721746E+03  0.7957747E-01  0.3485956E+00
         13   -1    0    0    0    0  0.00000000000E+00  0.00000000000E+00  0.14999999963E+04  0.15000000000E+04  0.10566000000E+00 0.  1.
        994   -1    0    0    0    0 -0.00000000000E+00 -0.00000000000E+00  0.11368683772E-12  0.17120000000E+03  0.17120000000E+03 0.  0.
         13    1    1    2    0    0  0.31957000085E+02  0.43918984838E+02  0.16231687046E+03  0.17116338593E+03  0.10566000000E+00 0.  1.
        994    1    1    2    0    0 -0.38177199582E+02 -0.36159554235E+02  0.17686466621E+02  0.17996461606E+03  0.17120000000E+03 0.  0.
        998    1    1    2    0    0  0.62201994973E+01 -0.77594306031E+01  0.13199966592E+04  0.13200719980E+04  0.10000000000E+02 0.  1.
</event>
<event>
 5    1  0.1364103E-008  0.3844635E+03  0.7957747E-01  0.3431951E+00
         13   -1    0    0    0    0  0.00000000000E+00  0.00000000000E+00  0.14999999963E+04  0.15000000000E+04  0.10566000000E+00 0. -1.
        994   -1    0    0    0    0 -0.00000000000E+00 -0.00000000000E+00  0.11368683772E-12  0.17120000000E+03  0.17120000000E+03 0.  0.
         13    1    1    2    0    0  0.99980413172E+01 -0.16432931703E+02  0.89887151901E+02  0.91922322182E+02  0.10566000000E+00 0. -1.
        994    1    1    2    0    0 -0.20380642832E+02  0.15640506455E+02  0.40740421878E+01  0.17316475930E+03  0.17120000000E+03 0.  0.
        998    1    1    2    0    0  0.10382601515E+02  0.79242524812E+00  0.14060388022E+04  0.14061129185E+04  0.10000000000E+02 0. -1.
</event>
<event>
 5    1  0.1364103E-008  0.3732615E+03  0.7957747E-01  0.3481035E+00
         13   -1    0    0    0    0  0.00000000000E+00  0.00000000000E+00  0.14999999963E+04  0.15000000000E+04  0.10566000000E+00 0.  1.
        994   -1    0    0    0    0 -0.00000000000E+00 -0.00000000000E+00  0.11368683772E-12  0.17120000000E+03  0.17120000000E+03 0.  0.
         13    1    1    2    0    0  0.50901263153E+02 -0.21909878443E+02  0.21393358039E+03  0.22099450071E+03  0.10566000000E+00 0.  1.
        994    1    1    2    0    0 -0.26067324082E+02 -0.66174243759E+01  0.10051302447E+02  0.17359079576E+03  0.17120000000E+03 0.  0.
        998    1    1    2    0    0 -0.24833939071E+02  0.28527302819E+02  0.12760151134E+04  0.12766147035E+04  0.10000000000E+02 0.  1.
</event>
<event>
 5    1  0.1462210E-008  0.3827716E+03  0.7957747E-01  0.3439179E+00
         13   -1    0    0    0    0  0.00000000000E+00  0.00000000000E+00  0.14999999963E+04  0.15000000000E+04  0.10566000000E+00 0.  1.
        994   -1    0    0    0    0 -0.00000000000E+00 -0.00000000000E+00  0.11368683772E-12  0.17120000000E+03  0.17120000000E+03 0.  0.
         13    1    1    2    0    0  0.83913112910E+01  0.61618301216E+01  0.18664107201E+02  0.21371530532E+02  0.10566000000E+00 0.  1.
        994    1    1    2    0    0 -0.65738011141E+01 -0.52463018608E+01  0.29749273042E+01  0.17143228616E+03  0.17120000000E+03 0.  0.
        998    1    1    2    0    0 -0.18175101769E+01 -0.91552826085E+00  0.14783609618E+04  0.14783961833E+04  0.10000000000E+02 0.  1.
</event>
<event>
 5    1  0.1364103E-008  0.3747798E+03  0.7957747E-01  0.3474208E+00
         13   -1    0    0    0    0  0.00000000000E+00  0.00000000000E+00  0.14999999963E+04  0.15000000000E+04  0.10566000000E+00 0. -1.
        994   -1    0    0    0    0 -0.00000000000E+00 -0.00000000000E+00  0.11368683772E-12  0.17120000000E+03  0.17120000000E+03 0.  0.
         13    1    1    2    0    0  0.39246326429E+02  0.40130438096E+02  0.97935433443E+02  0.11288085085E+03  0.10566000000E+00 0. -1.
        994    1    1    2    0    0 -0.42086017397E+02 -0.66178059547E+02  0.35695314025E+02  0.19166210859E+03  0.17120000000E+03 0.  0.
        998    1    1    2    0    0  0.28396909676E+01  0.26047621451E+02  0.13663692488E+04  0.13666570406E+04  0.10000000000E+02 0. -1.
</event>
<event>
 5    1  0.1364103E-008  0.3819962E+03  0.7957747E-01  0.3442512E+00
         13   -1    0    0    0    0  0.00000000000E+00  0.00000000000E+00  0.14999999963E+04  0.15000000000E+04  0.10566000000E+00 0. -1.
        994   -1    0    0    0    0 -0.00000000000E+00 -0.00000000000E+00  0.11368683772E-12  0.17120000000E+03  0.17120000000E+03 0.  0.
         13    1    1    2    0    0 -0.12185440209E+02 -0.26541468466E+02  0.14585228952E+03  0.14874755805E+03  0.10566000000E+00 0. -1.
        994    1    1    2    0    0 -0.63851061473E+01  0.10686792555E+02  0.36437009977E+01  0.17169069186E+03  0.17120000000E+03 0.  0.
        998    1    1    2    0    0  0.18570546356E+02  0.15854675911E+02  0.13505040058E+04  0.13507617501E+04  0.10000000000E+02 0. -1.
</event>
<event>
 5    1  0.1364103E-008  0.3743908E+03  0.7957747E-01  0.3475952E+00
         13   -1    0    0    0    0  0.00000000000E+00  0.00000000000E+00  0.14999999963E+04  0.15000000000E+04  0.10566000000E+00 0.  1.
        994   -1    0    0    0    0 -0.00000000000E+00 -0.00000000000E+00  0.11368683772E-12  0.17120000000E+03  0.17120000000E+03 0.  0.
         13    1    1    2    0    0 -0.54770981509E+02 -0.61936477153E+02  0.45785992364E+03  0.46526520228E+03  0.10566000000E+00 0.  1.
        994    1    1    2    0    0  0.11163275559E+02  0.65195441410E+02  0.22043536148E+02  0.18485243246E+03  0.17120000000E+03 0.  0.
        998    1    1    2    0    0  0.43607705950E+02 -0.32589642575E+01  0.10200965365E+04  0.10210823653E+04  0.10000000000E+02 0.  1.
</event>
<event>
 5    1  0.1364103E-008  0.3763030E+03  0.7957747E-01  0.3467416E+00
         13   -1    0    0    0    0  0.00000000000E+00  0.00000000000E+00  0.14999999963E+04  0.15000000000E+04  0.10566000000E+00 0.  1.
        994   -1    0    0    0    0 -0.00000000000E+00 -0.00000000000E+00  0.11368683772E-12  0.17120000000E+03  0.17120000000E+03 0.  0.
         13    1    1    2    0    0  0.13530771502E+01  0.29447014936E+02  0.74066239453E+02  0.79716852027E+02  0.10566000000E+00 0.  1.
        994    1    1    2    0    0 -0.55151871915E+01 -0.39144686041E+01  0.61659333649E+01  0.17144444899E+03  0.17120000000E+03 0.  0.
        998    1    1    2    0    0  0.41621100413E+01 -0.25532546332E+02  0.14197678235E+04  0.14200386990E+04  0.10000000000E+02 0.  1.
</event>
<event>
 5    1  0.1364103E-008  0.3797271E+03  0.7957747E-01  0.3452348E+00
         13   -1    0    0    0    0  0.00000000000E+00  0.00000000000E+00  0.14999999963E+04  0.15000000000E+04  0.10566000000E+00 0.  1.
        994   -1    0    0    0    0 -0.00000000000E+00 -0.00000000000E+00  0.11368683772E-12  0.17120000000E+03  0.17120000000E+03 0.  0.
         13    1    1    2    0    0  0.85749722252E+02  0.44950932509E+02  0.50238444495E+03  0.51162852041E+03  0.10566000000E+00 0.  1.
        994    1    1    2    0    0 -0.10856762677E+03 -0.60480284567E+02  0.57811354091E+02  0.21930888506E+03  0.17120000000E+03 0.  0.
        998    1    1    2    0    0  0.22817904517E+02  0.15529352058E+02  0.93980419723E+03  0.94026259453E+03  0.10000000000E+02 0.  1.
</event>
<event>
 5    1  0.1364103E-008  0.3792832E+03  0.7957747E-01  0.3454286E+00
         13   -1    0    0    0    0  0.00000000000E+00  0.00000000000E+00  0.14999999963E+04  0.15000000000E+04  0.10566000000E+00 0. -1.
        994   -1    0    0    0    0 -0.00000000000E+00 -0.00000000000E+00  0.11368683772E-12  0.17120000000E+03  0.17120000000E+03 0.  0.
         13    1    1    2    0    0  0.22736361837E+02 -0.48571232853E+01  0.59481644602E+02  0.63864003983E+02  0.10566000000E+00 0. -1.
        994    1    1    2    0    0 -0.97194407664E+01  0.46273432137E+01  0.48838202995E+01  0.17160760920E+03  0.17120000000E+03 0.  0.
        998    1    1    2    0    0 -0.13016921071E+02  0.22978007162E+00  0.14356345314E+04  0.14357283868E+04  0.10000000000E+02 0. -1.
</event>
<event>
 5    1  0.1364103E-008  0.3759558E+03  0.7957747E-01  0.3468959E+00
         13   -1    0    0    0    0  0.00000000000E+00  0.00000000000E+00  0.14999999963E+04  0.15000000000E+04  0.10566000000E+00 0.  1.
        994   -1    0    0    0    0 -0.00000000000E+00 -0.00000000000E+00  0.11368683772E-12  0.17120000000E+03  0.17120000000E+03 0.  0.
         13    1    1    2    0    0  0.10668200562E+02 -0.35697673288E+02  0.10894004416E+03  0.11513504578E+03  0.10566000000E+00 0.  1.
        994    1    1    2    0    0 -0.16577866883E+02  0.20847205947E+02  0.85962208431E+01  0.17347266839E+03  0.17120000000E+03 0.  0.
        998    1    1    2    0    0  0.59096663204E+01  0.14850467341E+02  0.13824637313E+04  0.13825922858E+04  0.10000000000E+02 0.  1.
</event>
<event>
 5    1  0.1364103E-008  0.3730636E+03  0.7957747E-01  0.3481929E+00
         13   -1    0    0    0    0  0.00000000000E+00  0.00000000000E+00  0.14999999963E+04  0.15000000000E+04  0.10566000000E+00 0.  1.
        994   -1    0    0    0    0 -0.00000000000E+00 -0.00000000000E+00  0.11368683772E-12  0.17120000000E+03  0.17120000000E+03 0.  0.
         13    1    1    2    0    0  0.17802264718E+02 -0.93419859241E+01  0.23875654067E+02  0.31212999716E+02  0.10566000000E+00 0.  1.
        994    1    1    2    0    0  0.50230231330E+01  0.10090251444E+02  0.81112945749E+01  0.17176226895E+03  0.17120000000E+03 0.  0.
        998    1    1    2    0    0 -0.22825287851E+02 -0.74826551959E+00  0.14680130476E+04  0.14682247313E+04  0.10000000000E+02 0.  1.
</event>
<event>
 5    1  0.1364103E-008  0.3845191E+03  0.7957747E-01  0.3431714E+00
         13   -1    0    0    0    0  0.00000000000E+00  0.00000000000E+00  0.14999999963E+04  0.15000000000E+04  0.10566000000E+00 0. -1.
        994   -1    0    0    0    0 -0.00000000000E+00 -0.00000000000E+00  0.11368683772E-12  0.17120000000E+03  0.17120000000E+03 0.  0.
         13    1    1    2    0    0  0.15812233716E+02 -0.18123975356E+01  0.74220440397E+02  0.75907815518E+02  0.10566000000E+00 0. -1.
        994    1    1    2    0    0  0.47828467138E+01  0.49797883634E+01  0.20261152867E+01  0.17135115715E+03  0.17120000000E+03 0.  0.
        998    1    1    2    0    0 -0.20595080430E+02 -0.31673908278E+01  0.14237534406E+04  0.14239410273E+04  0.10000000000E+02 0. -1.
</event>
<event>
 5    1  0.1364103E-008  0.3843352E+03  0.7957747E-01  0.3432496E+00
         13   -1    0    0    0    0  0.00000000000E+00  0.00000000000E+00  0.14999999963E+04  0.15000000000E+04  0.10566000000E+00 0.  1.
        994   -1    0    0    0    0 -0.00000000000E+00 -0.00000000000E+00  0.11368683772E-12  0.17120000000E+03  0.17120000000E+03 0.  0.
         13    1    1    2    0    0  0.20238073222E+02 -0.94600904148E+01  0.12390722075E+03  0.12590505723E+03  0.10566000000E+00 0.  1.
        994    1    1    2    0    0 -0.21550103385E+02 -0.55104886549E+01  0.35928787842E+01  0.17267634818E+03  0.17120000000E+03 0.  0.
        998    1    1    2    0    0  0.13120301625E+01  0.14970579070E+02  0.13724998967E+04  0.13726185946E+04  0.10000000000E+02 0.  1.
</event>
<event>
 5    1  0.1364103E-008  0.3777727E+03  0.7957747E-01  0.3460914E+00
         13   -1    0    0    0    0  0.00000000000E+00  0.00000000000E+00  0.14999999963E+04  0.15000000000E+04  0.10566000000E+00 0.  1.
        994   -1    0    0    0    0 -0.00000000000E+00 -0.00000000000E+00  0.11368683772E-12  0.17120000000E+03  0.17120000000E+03 0.  0.
         13    1    1    2    0    0 -0.41100428525E+00 -0.10474260872E+02  0.81205175441E+01  0.13260204922E+02  0.10566000000E+00 0.  1.
        994    1    1    2    0    0  0.19065182298E+01  0.40714824784E+01  0.53297932907E+01  0.17134193438E+03  0.17120000000E+03 0.  0.
        998    1    1    2    0    0 -0.14955139445E+01  0.64027783939E+01  0.14865496854E+04  0.14865978607E+04  0.10000000000E+02 0.  1.
</event>
<event>
 5    1  0.1364103E-008  0.3810538E+03  0.7957747E-01  0.3446583E+00
         13   -1    0    0    0    0  0.00000000000E+00  0.00000000000E+00  0.14999999963E+04  0.15000000000E+04  0.10566000000E+00 0. -1.
        994   -1    0    0    0    0 -0.00000000000E+00 -0.00000000000E+00  0.11368683772E-12  0.17120000000E+03  0.17120000000E+03 0.  0.
         13    1    1    2    0    0 -0.23915041801E+02 -0.24178033314E+01  0.78423922206E+02  0.82024982387E+02  0.10566000000E+00 0. -1.
        994    1    1    2    0    0  0.16782750867E+02 -0.23589033068E+01  0.45595659439E+01  0.17209722483E+03  0.17120000000E+03 0.  0.
        998    1    1    2    0    0  0.71322909337E+01  0.47767066382E+01  0.14170165081E+04  0.14170777928E+04  0.10000000000E+02 0. -1.
</event>
<event>
 5    1  0.1364103E-008  0.2432720E+03  0.7957747E-01  0.4408269E+00
         13   -1    0    0    0    0  0.00000000000E+00  0.00000000000E+00  0.14999999963E+04  0.15000000000E+04  0.10566000000E+00 0. -1.
        994   -1    0    0    0    0 -0.00000000000E+00 -0.00000000000E+00  0.11368683772E-12  0.17120000000E+03  0.17120000000E+03 0.  0.
         13    1    1    2    0    0 -0.86984062234E+02  0.13498353641E+03  0.24590335081E+03  0.29369244336E+03  0.10566000000E+00 0. -1.
        994    1    1    2    0    0  0.98215075754E+02 -0.13927840924E+03  0.17499052508E+03  0.29828811618E+03  0.17120000000E+03 0.  0.
        998    1    1    2    0    0 -0.11231013520E+02  0.42948728309E+01  0.10791061204E+04  0.10792194405E+04  0.10000000000E+02 0. -1.
</event>
<event>
 5    1  0.1364103E-008  0.3830200E+03  0.7957747E-01  0.3438113E+00
         13   -1    0    0    0    0  0.00000000000E+00  0.00000000000E+00  0.14999999963E+04  0.15000000000E+04  0.10566000000E+00 0. -1.
        994   -1    0    0    0    0 -0.00000000000E+00 -0.00000000000E+00  0.11368683772E-12  0.17120000000E+03  0.17120000000E+03 0.  0.
         13    1    1    2    0    0 -0.12799340890E+02 -0.10424196335E+02  0.50822502701E+02  0.53436176335E+02  0.10566000000E+00 0. -1.
        994    1    1    2    0    0  0.31239266632E+00  0.20252213544E+02  0.39754518776E+01  0.17243982707E+03  0.17120000000E+03 0.  0.
        998    1    1    2    0    0  0.12486948223E+02 -0.98280172088E+01  0.14452020417E+04  0.14453239966E+04  0.10000000000E+02 0. -1.
</event>
<event>
 5    1  0.1364103E-008  0.3837274E+03  0.7957747E-01  0.3435088E+00
         13   -1    0    0    0    0  0.00000000000E+00  0.00000000000E+00  0.14999999963E+04  0.15000000000E+04  0.10566000000E+00 0. -1.
        994   -1    0    0    0    0 -0.00000000000E+00 -0.00000000000E+00  0.11368683772E-12  0.17120000000E+03  0.17120000000E+03 0.  0.
         13    1    1    2    0    0 -0.20603996225E+02  0.77591695880E+01  0.12095050766E+03  0.12293805693E+03  0.10566000000E+00 0. -1.
        994    1    1    2    0    0 -0.27084659802E+01  0.13667254705E+01  0.22936970184E+01  0.17124224004E+03  0.17120000000E+03 0.  0.
        998    1    1    2    0    0  0.23312462205E+02 -0.91258950585E+01  0.13767557916E+04  0.13770197030E+04  0.10000000000E+02 0. -1.
</event>
<event>
 5    1  0.1364103E-008  0.2574142E+03  0.7957747E-01  0.4256409E+00
         13   -1    0    0    0    0  0.00000000000E+00  0.00000000000E+00  0.14999999963E+04  0.15000000000E+04  0.10566000000E+00 0. -1.
        994   -1    0    0    0    0 -0.00000000000E+00 -0.00000000000E+00  0.11368683772E-12  0.17120000000E+03  0.17120000000E+03 0.  0.
         13    1    1    2    0    0  0.13599790389E+03  0.12291219805E+03  0.38096211753E+03  0.42277060500E+03  0.10566000000E+00 0. -1.
        994    1    1    2    0    0 -0.96405622242E+02 -0.10956381633E+03  0.13275609677E+03  0.26121235629E+03  0.17120000000E+03 0.  0.
        998    1    1    2    0    0 -0.39592281651E+02 -0.13348381716E+02  0.98628178198E+03  0.98721703871E+03  0.10000000000E+02 0. -1.
</event>
<event>
 5    1  0.1364103E-008  0.3842890E+03  0.7957747E-01  0.3432693E+00
         13   -1    0    0    0    0  0.00000000000E+00  0.00000000000E+00  0.14999999963E+04  0.15000000000E+04  0.10566000000E+00 0.  1.
        994   -1    0    0    0    0 -0.00000000000E+00 -0.00000000000E+00  0.11368683772E-12  0.17120000000E+03  0.17120000000E+03 0.  0.
         13    1    1    2    0    0 -0.93100273117E+01 -0.15969833023E+02  0.84464616989E+02  0.86463835575E+02  0.10566000000E+00 0.  1.
        994    1    1    2    0    0  0.71939913834E+01  0.12328721680E+02  0.26554369503E+01  0.17181455769E+03  0.17120000000E+03 0.  0.
        998    1    1    2    0    0  0.21160359283E+01  0.36411113427E+01  0.14128799423E+04  0.14129216067E+04  0.10000000000E+02 0.  1.
</event>
<event>
 5    1  0.1364103E-008  0.3771044E+03  0.7957747E-01  0.3463864E+00
         13   -1    0    0    0    0  0.00000000000E+00  0.00000000000E+00  0.14999999963E+04  0.15000000000E+04  0.10566000000E+00 0. -1.
        994   -1    0    0    0    0 -0.00000000000E+00 -0.00000000000E+00  0.11368683772E-12  0.17120000000E+03  0.17120000000E+03 0.  0.
         13    1    1    2    0    0 -0.20240844857E+02 -0.35633602826E+02  0.50085533928E+02  0.64714892596E+02  0.10566000000E+00 0. -1.
        994    1    1    2    0    0  0.18917854235E+02  0.33840730569E+02  0.20154243988E+02  0.17668818241E+03  0.17120000000E+03 0.  0.
        998    1    1    2    0    0  0.13229906222E+01  0.17928722570E+01  0.14297602184E+04  0.14297969250E+04  0.10000000000E+02 0. -1.
</event>
<event>
 5    1  0.1364103E-008  0.3709563E+03  0.7957747E-01  0.3491508E+00
         13   -1    0    0    0    0  0.00000000000E+00  0.00000000000E+00  0.14999999963E+04  0.15000000000E+04  0.10566000000E+00 0. -1.
        994   -1    0    0    0    0 -0.00000000000E+00 -0.00000000000E+00  0.11368683772E-12  0.17120000000E+03  0.17120000000E+03 0.  0.
         13    1    1    2    0    0  0.20163434769E+02  0.39493673310E+02  0.10287214417E+03  0.11202233502E+03  0.10566000000E+00 0. -1.
        994    1    1    2    0    0 -0.19809126474E+02 -0.37663830707E+02  0.15037105549E+02  0.17704948511E+03  0.17120000000E+03 0.  0.
        998    1    1    2    0    0 -0.35430829494E+00 -0.18298426024E+01  0.13820907466E+04  0.13821281799E+04  0.10000000000E+02 0. -1.
</event>
<event>
 5    1  0.1364103E-008  0.3835705E+03  0.7957747E-01  0.3435757E+00
         13   -1    0    0    0    0  0.00000000000E+00  0.00000000000E+00  0.14999999963E+04  0.15000000000E+04  0.10566000000E+00 0. -1.
        994   -1    0    0    0    0 -0.00000000000E+00 -0.00000000000E+00  0.11368683772E-12  0.17120000000E+03  0.17120000000E+03 0.  0.
         13    1    1    2    0    0 -0.11390933748E+02 -0.13793855542E+02  0.62896133017E+02  0.65390813842E+02  0.10566000000E+00 0. -1.
        994    1    1    2    0    0  0.21388961401E+02  0.15873461985E+02  0.46890387935E+01  0.17332305545E+03  0.17120000000E+03 0.  0.
        998    1    1    2    0    0 -0.99980276532E+01 -0.20796064433E+01  0.14324148245E+04  0.14324861307E+04  0.10000000000E+02 0. -1.
</event>
<event>
 5    1  0.1364103E-008  0.3833113E+03  0.7957747E-01  0.3436866E+00
         13   -1    0    0    0    0  0.00000000000E+00  0.00000000000E+00  0.14999999963E+04  0.15000000000E+04  0.10566000000E+00 0.  1.
        994   -1    0    0    0    0 -0.00000000000E+00 -0.00000000000E+00  0.11368683772E-12  0.17120000000E+03  0.17120000000E+03 0.  0.
         13    1    1    2    0    0 -0.74015572783E+01 -0.25437099236E+02  0.15605754167E+03  0.15829022883E+03  0.10566000000E+00 0.  1.
        994    1    1    2    0    0 -0.80484159927E-01  0.41947890112E+01  0.25290750708E+01  0.17127007606E+03  0.17120000000E+03 0.  0.
        998    1    1    2    0    0  0.74820414382E+01  0.21242310225E+02  0.13414133795E+04  0.13416396951E+04  0.10000000000E+02 0.  1.
</event>
<event>
 5    1  0.1364103E-008  0.3787428E+03  0.7957747E-01  0.3456651E+00
         13   -1    0    0    0    0  0.00000000000E+00  0.00000000000E+00  0.14999999963E+04  0.15000000000E+04  0.10566000000E+00 0. -1.
        994   -1    0    0    0    0 -0.00000000000E+00 -0.00000000000E+00  0.11368683772E-12  0.17120000000E+03  0.17120000000E+03 0.  0.
         13    1    1    2    0    0 -0.13486990717E+02 -0.74255660029E+01  0.22677734381E+02  0.27410376680E+02  0.10566000000E+00 0. -1.
        994    1    1    2    0    0  0.11908170872E+02  0.68357995713E+01  0.54022516000E+01  0.17183467930E+03  0.17120000000E+03 0.  0.
        998    1    1    2    0    0  0.15788198455E+01  0.58976643165E+00  0.14719200103E+04  0.14719549440E+04  0.10000000000E+02 0. -1.
</event>
<event>
 5    1  0.1364103E-008  0.3805968E+03  0.7957747E-01  0.3448564E+00
         13   -1    0    0    0    0  0.00000000000E+00  0.00000000000E+00  0.14999999963E+04  0.15000000000E+04  0.10566000000E+00 0.  1.
        994   -1    0    0    0    0 -0.00000000000E+00 -0.00000000000E+00  0.11368683772E-12  0.17120000000E+03  0.17120000000E+03 0.  0.
         13    1    1    2    0    0 -0.32738293498E+02  0.12238400571E+02  0.18505272254E+03  0.18832444237E+03  0.10566000000E+00 0.  1.
        994    1    1    2    0    0 -0.16762766596E+01 -0.30695198507E+01  0.38730004391E+01  0.17127951421E+03  0.17120000000E+03 0.  0.
        998    1    1    2    0    0  0.34414570158E+02 -0.91688807204E+01  0.13110742733E+04  0.13115960434E+04  0.10000000000E+02 0.  1.
</event>
<event>
 5    1  0.1364103E-008  0.3809698E+03  0.7957747E-01  0.3446947E+00
         13   -1    0    0    0    0  0.00000000000E+00  0.00000000000E+00  0.14999999963E+04  0.15000000000E+04  0.10566000000E+00 0.  1.
        994   -1    0    0    0    0 -0.00000000000E+00 -0.00000000000E+00  0.11368683772E-12  0.17120000000E+03  0.17120000000E+03 0.  0.
         13    1    1    2    0    0  0.13065626299E+02 -0.12796476206E+01  0.21516002385E+02  0.25205110817E+02  0.10566000000E+00 0.  1.
        994    1    1    2    0    0 -0.19760582071E+02 -0.28144442867E+00  0.49469371325E+01  0.17240786525E+03  0.17120000000E+03 0.  0.
        998    1    1    2    0    0  0.66949557722E+01  0.15610920492E+01  0.14735370568E+04  0.14735870239E+04  0.10000000000E+02 0.  1.
</event>
<event>
 5    1  0.1364103E-008  0.3842303E+03  0.7957747E-01  0.3432943E+00
         13   -1    0    0    0    0  0.00000000000E+00  0.00000000000E+00  0.14999999963E+04  0.15000000000E+04  0.10566000000E+00 0. -1.
        994   -1    0    0    0    0 -0.00000000000E+00 -0.00000000000E+00  0.11368683772E-12  0.17120000000E+03  0.17120000000E+03 0.  0.
         13    1    1    2    0    0  0.48722737299E+01  0.17015999365E+02  0.75168195680E+02  0.77224038301E+02  0.10566000000E+00 0. -1.
        994    1    1    2    0    0 -0.17903885124E+00 -0.17011466641E+02  0.29675385346E+01  0.17206878955E+03  0.17120000000E+03 0.  0.
        998    1    1    2    0    0 -0.46932348786E+01 -0.45327235360E-02  0.14218642621E+04  0.14219071721E+04  0.10000000000E+02 0. -1.
</event>
<event>
 5    1  0.1364103E-008  0.3744664E+03  0.7957747E-01  0.3475613E+00
         13   -1    0    0    0    0  0.00000000000E+00  0.00000000000E+00  0.14999999963E+04  0.15000000000E+04  0.10566000000E+00 0. -1.
        994   -1    0    0    0    0 -0.00000000000E+00 -0.00000000000E+00  0.11368683772E-12  0.17120000000E+03  0.17120000000E+03 0.  0.
         13    1    1    2    0    0 -0.31700795158E+01  0.29629356643E+02  0.65193465028E+02  0.71680870709E+02  0.10566000000E+00 0. -1.
        994    1    1    2    0    0 -0.97912651455E+01 -0.20909716362E+01  0.72944229090E+01  0.17164757394E+03  0.17120000000E+03 0.  0.
        998    1    1    2    0    0  0.12961344661E+02 -0.27538385007E+02  0.14275121083E+04  0.14278715553E+04  0.10000000000E+02 0. -1.
</event>
<event>
 5    1  0.1364103E-008  0.3821078E+03  0.7957747E-01  0.3442032E+00
         13   -1    0    0    0    0  0.00000000000E+00  0.00000000000E+00  0.14999999963E+04  0.15000000000E+04  0.10566000000E+00 0.  1.
        994   -1    0    0    0    0 -0.00000000000E+00 -0.00000000000E+00  0.11368683772E-12  0.17120000000E+03  0.17120000000E+03 0.  0.
         13    1    1    2    0    0  0.17901125192E+01  0.11546090049E+02  0.21099211673E+02  0.24118552932E+02  0.10566000000E+00 0.  1.
        994    1    1    2    0    0 -0.46893824688E+01 -0.61851911634E+01  0.32729213876E+01  0.17140711453E+03  0.17120000000E+03 0.  0.
        998    1    1    2    0    0  0.28992699497E+01 -0.53608988852E+01  0.14756278632E+04  0.14756743325E+04  0.10000000000E+02 0.  1.
</event>
<event>
 5    1  0.1364103E-008  0.3748243E+03  0.7957747E-01  0.3474009E+00
         13   -1    0    0    0    0  0.00000000000E+00  0.00000000000E+00  0.14999999963E+04  0.15000000000E+04  0.10566000000E+00 0.  1.
        994   -1    0    0    0    0 -0.00000000000E+00 -0.00000000000E+00  0.11368683772E-12  0.17120000000E+03  0.17120000000E+03 0.  0.
         13    1    1    2    0    0 -0.13123502867E+02  0.72581146595E+01  0.13448514890E+02  0.20143988500E+02  0.10566000000E+00 0.  1.
        994    1    1    2    0    0  0.13288574409E+02 -0.10035816202E+02  0.77127026064E+01  0.17218080496E+03  0.17120000000E+03 0.  0.
        998    1    1    2    0    0 -0.16507154201E+00  0.27777015425E+01  0.14788387788E+04  0.14788752065E+04  0.10000000000E+02 0.  1.
</event>
<event>
 5    1  0.1364103E-008  0.3708283E+03  0.7957747E-01  0.3492093E+00
         13   -1    0    0    0    0  0.00000000000E+00  0.00000000000E+00  0.14999999963E+04  0.15000000000E+04  0.10566000000E+00 0. -1.
        994   -1    0    0    0    0 -0.00000000000E+00 -0.00000000000E+00  0.11368683772E-12  0.17120000000E+03  0.17120000000E+03 0.  0.
         13    1    1    2    0    0 -0.28461445341E+02  0.36541452558E+02  0.12619209075E+03  0.13442390620E+03  0.10566000000E+00 0. -1.
        994    1    1    2    0    0  0.12792768990E+02 -0.67826374563E+01  0.95599285719E+01  0.17207699249E+03  0.17120000000E+03 0.  0.
        998    1    1    2    0    0  0.15668676351E+02 -0.29758815102E+02  0.13642479770E+04  0.13646991013E+04  0.10000000000E+02 0. -1.
</event>
<event>
 5    1  0.1364103E-008  0.3780114E+03  0.7957747E-01  0.3459863E+00
         13   -1    0    0    0    0  0.00000000000E+00  0.00000000000E+00  0.14999999963E+04  0.15000000000E+04  0.10566000000E+00 0.  1.
        994   -1    0    0    0    0 -0.00000000000E+00 -0.00000000000E+00  0.11368683772E-12  0.17120000000E+03  0.17120000000E+03 0.  0.
         13    1    1    2    0    0  0.17143797112E+01 -0.17002963919E+02  0.23657253615E+02  0.29184185657E+02  0.10566000000E+00 0.  1.
        994    1    1    2    0    0 -0.56866900507E-01  0.50357937018E+02  0.13721798650E+02  0.17897947595E+03  0.17120000000E+03 0.  0.
        998    1    1    2    0    0 -0.16575128107E+01 -0.33354973099E+02  0.14626209440E+04  0.14630363384E+04  0.10000000000E+02 0.  1.
</event>
<event>
 5    1  0.1364103E-008  0.3858408E+03  0.7957747E-01  0.3426114E+00
         13   -1    0    0    0    0  0.00000000000E+00  0.00000000000E+00  0.14999999963E+04  0.15000000000E+04  0.10566000000E+00 0. -1.
        994   -1    0    0    0    0 -0.00000000000E+00 -0.00000000000E+00  0.11368683772E-12  0.17120000000E+03  0.17120000000E+03 0.  0.
         13    1    1    2    0    0 -0.72960595006E+01 -0.85221039383E+01  0.57531025089E+02  0.58614748584E+02  0.10566000000E+00 0. -1.
        994    1    1    2    0    0 -0.26751425070E+01 -0.55671622508E+01  0.13383859852E+01  0.17131661029E+03  0.17120000000E+03 0.  0.
        998    1    1    2    0    0  0.99712020076E+01  0.14089266189E+02  0.14411305852E+04  0.14412686411E+04  0.10000000000E+02 0. -1.
</event>
<event>
 5    1  0.1364103E-008  0.3738114E+03  0.7957747E-01  0.3478556E+00
         13   -1    0    0    0    0  0.00000000000E+00  0.00000000000E+00  0.14999999963E+04  0.15000000000E+04  0.10566000000E+00 0.  1.
        994   -1    0    0    0    0 -0.00000000000E+00 -0.00000000000E+00  0.11368683772E-12  0.17120000000E+03  0.17120000000E+03 0.  0.
         13    1    1    2    0    0  0.41837904541E+01  0.15460367263E+02  0.40327183529E+01  0.16516689735E+02  0.10566000000E+00 0.  1.
        994    1    1    2    0    0 -0.88449623531E+00 -0.11522558866E+02  0.13441893327E+02  0.17211529912E+03  0.17120000000E+03 0.  0.
        998    1    1    2    0    0 -0.32992942188E+01 -0.39378083966E+01  0.14825253846E+04  0.14825680111E+04  0.10000000000E+02 0.  1.
</event>
<event>
 5    1  0.1364103E-008  0.3832688E+03  0.7957747E-01  0.3437048E+00
         13   -1    0    0    0    0  0.00000000000E+00  0.00000000000E+00  0.14999999963E+04  0.15000000000E+04  0.10566000000E+00 0.  1.
        994   -1    0    0    0    0 -0.00000000000E+00 -0.00000000000E+00  0.11368683772E-12  0.17120000000E+03  0.17120000000E+03 0.  0.
         13    1    1    2    0    0 -0.84057598096E+01  0.18377457487E+02  0.80456863261E+02  0.82956047106E+02  0.10566000000E+00 0.  1.
        994    1    1    2    0    0  0.88150609968E+00 -0.15638466200E+02  0.33038977451E+01  0.17194677787E+03  0.17120000000E+03 0.  0.
        998    1    1    2    0    0  0.75242537099E+01 -0.27389912868E+01  0.14162392353E+04  0.14162971750E+04  0.10000000000E+02 0.  1.
</event>
<event>
 5    1  0.1690225E-008  0.3859016E+03  0.7957747E-01  0.3425858E+00
         13   -1    0    0    0    0  0.00000000000E+00  0.00000000000E+00  0.14999999963E+04  0.15000000000E+04  0.10566000000E+00 0. -1.
        994   -1    0    0    0    0 -0.00000000000E+00 -0.00000000000E+00  0.11368683772E-12  0.17120000000E+03  0.17120000000E+03 0.  0.
         13    1    1    2    0    0  0.11030414652E+02  0.30155472786E+01  0.54247739887E+02  0.55439985748E+02  0.10566000000E+00 0. -1.
        994    1    1    2    0    0 -0.12082130915E+02 -0.10811115254E+01  0.16658412570E+01  0.17163729699E+03  0.17120000000E+03 0.  0.
        998    1    1    2    0    0  0.10517162631E+01 -0.19344357531E+01  0.14440864151E+04  0.14441227173E+04  0.10000000000E+02 0. -1.
</event>
<event>
 5    1  0.1364103E-008  0.3851473E+03  0.7957747E-01  0.3429048E+00
         13   -1    0    0    0    0  0.00000000000E+00  0.00000000000E+00  0.14999999963E+04  0.15000000000E+04  0.10566000000E+00 0. -1.
        994   -1    0    0    0    0 -0.00000000000E+00 -0.00000000000E+00  0.11368683772E-12  0.17120000000E+03  0.17120000000E+03 0.  0.
         13    1    1    2    0    0  0.79949169370E+01 -0.11875299130E+02  0.66622284472E+02  0.68143094870E+02  0.10566000000E+00 0. -1.
        994    1    1    2    0    0 -0.11708157476E+01  0.86515198846E+01  0.18076166168E+01  0.17143198967E+03  0.17120000000E+03 0.  0.
        998    1    1    2    0    0 -0.68241011894E+01  0.32237792455E+01  0.14315700952E+04  0.14316249155E+04  0.10000000000E+02 0. -1.
</event>
<event>
 5    1  0.1525176E-008  0.3862689E+03  0.7957747E-01  0.3424308E+00
         13   -1    0    0    0    0  0.00000000000E+00  0.00000000000E+00  0.14999999963E+04  0.15000000000E+04  0.10566000000E+00 0. -1.
        994   -1    0    0    0    0 -0.00000000000E+00 -0.00000000000E+00  0.11368683772E-12  0.17120000000E+03  0.17120000000E+03 0.  0.
         13    1    1    2    0    0  0.66948497986E+01  0.96417626909E+01  0.56516308272E+02  0.57722516113E+02  0.10566000000E+00 0. -1.
        994    1    1    2    0    0 -0.12019959525E+01 -0.45961334032E+02  0.79556036249E+01  0.17744469744E+03  0.17120000000E+03 0.  0.
        998    1    1    2    0    0 -0.54928538461E+01  0.36319571341E+02  0.14355280844E+04  0.14360327864E+04  0.10000000000E+02 0. -1.
</event>
<event>
 5    1  0.1364103E-008  0.3831457E+03  0.7957747E-01  0.3437575E+00
         13   -1    0    0    0    0  0.00000000000E+00  0.00000000000E+00  0.14999999963E+04  0.15000000000E+04  0.10566000000E+00 0.  1.
        994   -1    0    0    0    0 -0.00000000000E+00 -0.00000000000E+00  0.11368683772E-12  0.17120000000E+03  0.17120000000E+03 0.  0.
         13    1    1    2    0    0  0.17098631093E+02  0.99311885634E+01  0.77416740553E+02  0.79902156250E+02  0.10566000000E+00 0.  1.
        994    1    1    2    0    0 -0.55677893588E+01 -0.82979186496E+01  0.28840306114E+01  0.17151563592E+03  0.17120000000E+03 0.  0.
        998    1    1    2    0    0 -0.11530841735E+02 -0.16332699138E+01  0.14196992251E+04  0.14197822078E+04  0.10000000000E+02 0.  1.
</event>
<event>
 5    1  0.1364103E-008  0.3829542E+03  0.7957747E-01  0.3438395E+00
         13   -1    0    0    0    0  0.00000000000E+00  0.00000000000E+00  0.14999999963E+04  0.15000000000E+04  0.10566000000E+00 0.  1.
        994   -1    0    0    0    0 -0.00000000000E+00 -0.00000000000E+00  0.11368683772E-12  0.17120000000E+03  0.17120000000E+03 0.  0.
         13    1    1    2    0    0  0.90116861905E+01  0.97131968591E+01  0.32595336521E+02  0.35185562496E+02  0.10566000000E+00 0.  1.
        994    1    1    2    0    0 -0.41434280397E+01 -0.45397872849E+01  0.27743473049E+01  0.17133276005E+03  0.17120000000E+03 0.  0.
        998    1    1    2    0    0 -0.48682581508E+01 -0.51734095742E+01  0.14646303125E+04  0.14646816775E+04  0.10000000000E+02 0.  1.
</event>
<event>
 5    1  0.1364103E-008  0.3831193E+03  0.7957747E-01  0.3437688E+00
         13   -1    0    0    0    0  0.00000000000E+00  0.00000000000E+00  0.14999999963E+04  0.15000000000E+04  0.10566000000E+00 0.  1.
        994   -1    0    0    0    0 -0.00000000000E+00 -0.00000000000E+00  0.11368683772E-12  0.17120000000E+03  0.17120000000E+03 0.  0.
         13    1    1    2    0    0  0.71829896314E+01  0.79726081218E+01  0.21363414311E+02  0.23907414235E+02  0.10566000000E+00 0.  1.
        994    1    1    2    0    0 -0.12144266786E+02 -0.18926107301E+01  0.30667705760E+01  0.17166802344E+03  0.17120000000E+03 0.  0.
        998    1    1    2    0    0  0.49612771546E+01 -0.60799973917E+01  0.14755698114E+04  0.14756245623E+04  0.10000000000E+02 0.  1.
</event>
<event>
 5    1  0.1364103E-008  0.3828306E+03  0.7957747E-01  0.3438925E+00
         13   -1    0    0    0    0  0.00000000000E+00  0.00000000000E+00  0.14999999963E+04  0.15000000000E+04  0.10566000000E+00 0.  1.
        994   -1    0    0    0    0 -0.00000000000E+00 -0.00000000000E+00  0.11368683772E-12  0.17120000000E+03  0.17120000000E+03 0.  0.
         13    1    1    2    0    0 -0.23522893519E+02  0.78242268369E+01  0.11889934036E+03  0.12145620341E+03  0.10566000000E+00 0.  1.
        994    1    1    2    0    0  0.10028340971E+02  0.72336026605E+01  0.32175995547E+01  0.17167610660E+03  0.17120000000E+03 0.  0.
        998    1    1    2    0    0  0.13494552548E+02 -0.15057829497E+02  0.13778830564E+04  0.13780676900E+04  0.10000000000E+02 0.  1.
</event>
<event>
 5    1  0.1364103E-008  0.3870589E+03  0.7957747E-01  0.3420987E+00
         13   -1    0    0    0    0  0.00000000000E+00  0.00000000000E+00  0.14999999963E+04  0.15000000000E+04  0.10566000000E+00 0.  1.
        994   -1    0    0    0    0 -0.00000000000E+00 -0.00000000000E+00  0.11368683772E-12  0.17120000000E+03  0.17120000000E+03 0.  0.
         13    1    1    2    0    0 -0.62933391766E+02 -0.49368621842E+02  0.17412512310E+03  0.19161795918E+03  0.10566000000E+00 0.  1.
        994    1    1    2    0    0  0.64524835032E+01  0.16007172545E+02  0.21368932737E+02  0.17338954814E+03  0.17120000000E+03 0.  0.
        998    1    1    2    0    0  0.56480908262E+02  0.33361449297E+02  0.13045059404E+04  0.13061924927E+04  0.10000000000E+02 0.  1.
</event>
<event>
 5    1  0.1364103E-008  0.3861521E+03  0.7957747E-01  0.3424801E+00
         13   -1    0    0    0    0  0.00000000000E+00  0.00000000000E+00  0.14999999963E+04  0.15000000000E+04  0.10566000000E+00 0.  1.
        994   -1    0    0    0    0 -0.00000000000E+00 -0.00000000000E+00  0.11368683772E-12  0.17120000000E+03  0.17120000000E+03 0.  0.
         13    1    1    2    0    0 -0.58008817687E+01  0.93383429015E+01  0.59628288834E+02  0.60633314859E+02  0.10566000000E+00 0.  1.
        994    1    1    2    0    0  0.64949948781E+01 -0.20594329427E-01  0.11974389291E+01  0.17132734529E+03  0.17120000000E+03 0.  0.
        998    1    1    2    0    0 -0.69411310933E+00 -0.93177485720E+01  0.14391742685E+04  0.14392393399E+04  0.10000000000E+02 0.  1.
</event>
<event>
 5    1  0.1364103E-008  0.3799131E+03  0.7957747E-01  0.3451537E+00
         13   -1    0    0    0    0  0.00000000000E+00  0.00000000000E+00  0.14999999963E+04  0.15000000000E+04  0.10566000000E+00 0.  1.
        994   -1    0    0    0    0 -0.00000000000E+00 -0.00000000000E+00  0.11368683772E-12  0.17120000000E+03  0.17120000000E+03 0.  0.
         13    1    1    2    0    0  0.38179582231E+02  0.18729347558E+02  0.21481724000E+03  0.21898613364E+03  0.10566000000E+00 0.  1.
        994    1    1    2    0    0 -0.18975870188E+02 -0.17354718827E+02  0.63913531477E+01  0.17323844640E+03  0.17120000000E+03 0.  0.
        998    1    1    2    0    0 -0.19203712043E+02 -0.13746287307E+01  0.12787914031E+04  0.12789754200E+04  0.10000000000E+02 0.  1.
</event>
<event>
 5    1  0.1364103E-008  0.3828030E+03  0.7957747E-01  0.3439044E+00
         13   -1    0    0    0    0  0.00000000000E+00  0.00000000000E+00  0.14999999963E+04  0.15000000000E+04  0.10566000000E+00 0.  1.
        994   -1    0    0    0    0 -0.00000000000E+00 -0.00000000000E+00  0.11368683772E-12  0.17120000000E+03  0.17120000000E+03 0.  0.
         13    1    1    2    0    0 -0.11655375106E+02  0.10596290030E+01  0.24706643128E+02  0.27338616665E+02  0.10566000000E+00 0.  1.
        994    1    1    2    0    0  0.18648176158E+00 -0.10883647087E+02  0.31174083650E+01  0.17157402713E+03  0.17120000000E+03 0.  0.
        998    1    1    2    0    0  0.11468893344E+02  0.98240180845E+01  0.14721759448E+04  0.14722873562E+04  0.10000000000E+02 0.  1.
</event>
<event>
 5    1  0.1364103E-008  0.3794165E+03  0.7957747E-01  0.3453703E+00
         13   -1    0    0    0    0  0.00000000000E+00  0.00000000000E+00  0.14999999963E+04  0.15000000000E+04  0.10566000000E+00 0.  1.
        994   -1    0    0    0    0 -0.00000000000E+00 -0.00000000000E+00  0.11368683772E-12  0.17120000000E+03  0.17120000000E+03 0.  0.
         13    1    1    2    0    0 -0.13947423701E+02  0.19653421575E+02  0.67965591781E+02  0.72111860590E+02  0.10566000000E+00 0.  1.
        994    1    1    2    0    0  0.83451781250E+01  0.48588683942E+01  0.47403945539E+01  0.17153764001E+03  0.17120000000E+03 0.  0.
        998    1    1    2    0    0  0.56022455757E+01 -0.24512289969E+02  0.14272940099E+04  0.14275504994E+04  0.10000000000E+02 0.  1.
</event>
<event>
 5    1  0.1364103E-008  0.3859038E+03  0.7957747E-01  0.3425848E+00
         13   -1    0    0    0    0  0.00000000000E+00  0.00000000000E+00  0.14999999963E+04  0.15000000000E+04  0.10566000000E+00 0. -1.
        994   -1    0    0    0    0 -0.00000000000E+00 -0.00000000000E+00  0.11368683772E-12  0.17120000000E+03  0.17120000000E+03 0.  0.
         13    1    1    2    0    0  0.68540893527E+01 -0.83454656237E+01  0.53052240427E+02  0.54140342774E+02  0.10566000000E+00 0. -1.
        994    1    1    2    0    0  0.36745602581E+01  0.44292640151E+00  0.12270156300E+01  0.17124439887E+03  0.17120000000E+03 0.  0.
        998    1    1    2    0    0 -0.10528649611E+02  0.79025392222E+01  0.14457207402E+04  0.14458152584E+04  0.10000000000E+02 0. -1.
</event>
<event>
 5    1  0.1641158E-008  0.3860649E+03  0.7957747E-01  0.3425168E+00
         13   -1    0    0    0    0  0.00000000000E+00  0.00000000000E+00  0.14999999963E+04  0.15000000000E+04  0.10566000000E+00 0. -1.
        994   -1    0    0    0    0 -0.00000000000E+00 -0.00000000000E+00  0.11368683772E-12  0.17120000000E+03  0.17120000000E+03 0.  0.
         13    1    1    2    0    0  0.93221335113E+01  0.41925398070E+01  0.49158076750E+02  0.50209632911E+02  0.10566000000E+00 0. -1.
        994    1    1    2    0    0 -0.12292978506E+01 -0.54168449270E+01  0.12034625306E+01  0.17129431311E+03  0.17120000000E+03 0.  0.
        998    1    1    2    0    0 -0.80928356607E+01  0.12243051199E+01  0.14496384570E+04  0.14496960540E+04  0.10000000000E+02 0. -1.
</event>
<event>
 5    1  0.1364103E-008  0.3849261E+03  0.7957747E-01  0.3429986E+00
         13   -1    0    0    0    0  0.00000000000E+00  0.00000000000E+00  0.14999999963E+04  0.15000000000E+04  0.10566000000E+00 0.  1.
        994   -1    0    0    0    0 -0.00000000000E+00 -0.00000000000E+00  0.11368683772E-12  0.17120000000E+03  0.17120000000E+03 0.  0.
         13    1    1    2    0    0 -0.35877411790E+01  0.19540469933E+02  0.11499267254E+03  0.11669630566E+03  0.10566000000E+00 0.  1.
        994    1    1    2    0    0  0.27957466439E+01 -0.15766304601E+02  0.25106821636E+01  0.17196550842E+03  0.17120000000E+03 0.  0.
        998    1    1    2    0    0  0.79199453507E+00 -0.37741653311E+01  0.13824966416E+04  0.13825381859E+04  0.10000000000E+02 0.  1.
</event>
<event>
 5    1  0.1364103E-008  0.3826241E+03  0.7957747E-01  0.3439812E+00
         13   -1    0    0    0    0  0.00000000000E+00  0.00000000000E+00  0.14999999963E+04  0.15000000000E+04  0.10566000000E+00 0.  1.
        994   -1    0    0    0    0 -0.00000000000E+00 -0.00000000000E+00  0.11368683772E-12  0.17120000000E+03  0.17120000000E+03 0.  0.
         13    1    1    2    0    0 -0.61007360998E+01  0.92912917536E+01  0.21162201493E+02  0.23903912221E+02  0.10566000000E+00 0.  1.
        994    1    1    2    0    0 -0.13901975043E+01 -0.50755487051E+01  0.29061280932E+01  0.17130551487E+03  0.17120000000E+03 0.  0.
        998    1    1    2    0    0  0.74909336041E+01 -0.42157430485E+01  0.14759316667E+04  0.14759905729E+04  0.10000000000E+02 0.  1.
</event>
<event>
 5    1  0.1364103E-008  0.3790792E+03  0.7957747E-01  0.3455178E+00
         13   -1    0    0    0    0  0.00000000000E+00  0.00000000000E+00  0.14999999963E+04  0.15000000000E+04  0.10566000000E+00 0.  1.
        994   -1    0    0    0    0 -0.00000000000E+00 -0.00000000000E+00  0.11368683772E-12  0.17120000000E+03  0.17120000000E+03 0.  0.
         13    1    1    2    0    0 -0.17595358513E+02  0.39326481410E+01  0.32814254453E+02  0.37441271639E+02  0.10566000000E+00 0.  1.
        994    1    1    2    0    0  0.18547895023E+02 -0.43132990169E+01  0.58155536084E+01  0.17235396608E+03  0.17120000000E+03 0.  0.
        998    1    1    2    0    0 -0.95253651063E+00  0.38065087587E+00  0.14613701882E+04  0.14614047623E+04  0.10000000000E+02 0.  1.
</event>
<event>
 5    1  0.1364103E-008  0.3828673E+03  0.7957747E-01  0.3438768E+00
         13   -1    0    0    0    0  0.00000000000E+00  0.00000000000E+00  0.14999999963E+04  0.15000000000E+04  0.10566000000E+00 0.  1.
        994   -1    0    0    0    0 -0.00000000000E+00 -0.00000000000E+00  0.11368683772E-12  0.17120000000E+03  0.17120000000E+03 0.  0.
         13    1    1    2    0    0 -0.59062374158E-01  0.10277629156E+02  0.18218359933E+02  0.20917766422E+02  0.10566000000E+00 0.  1.
        994    1    1    2    0    0  0.72980214813E+01 -0.13929864937E+02  0.35120744376E+01  0.17195661349E+03  0.17120000000E+03 0.  0.
        998    1    1    2    0    0 -0.72389591071E+01  0.36522357815E+01  0.14782695619E+04  0.14783256201E+04  0.10000000000E+02 0.  1.
</event>
<event>
 5    1  0.1364103E-008  0.3815806E+03  0.7957747E-01  0.3444305E+00
         13   -1    0    0    0    0  0.00000000000E+00  0.00000000000E+00  0.14999999963E+04  0.15000000000E+04  0.10566000000E+00 0. -1.
        994   -1    0    0    0    0 -0.00000000000E+00 -0.00000000000E+00  0.11368683772E-12  0.17120000000E+03  0.17120000000E+03 0.  0.
         13    1    1    2    0    0  0.25105478617E+02  0.27839545696E+02  0.20370558418E+03  0.20712629372E+03  0.10566000000E+00 0. -1.
        994    1    1    2    0    0  0.83284381335E+01 -0.44256800491E+02  0.10111228086E+02  0.17731244797E+03  0.17120000000E+03 0.  0.
        998    1    1    2    0    0 -0.33433916750E+02  0.16417254795E+02  0.12861831840E+04  0.12867612583E+04  0.10000000000E+02 0. -1.
</event>
<event>
 5    1  0.1364103E-008  0.3830150E+03  0.7957747E-01  0.3438134E+00
         13   -1    0    0    0    0  0.00000000000E+00  0.00000000000E+00  0.14999999963E+04  0.15000000000E+04  0.10566000000E+00 0. -1.
        994   -1    0    0    0    0 -0.00000000000E+00 -0.00000000000E+00  0.11368683772E-12  0.17120000000E+03  0.17120000000E+03 0.  0.
         13    1    1    2    0    0 -0.51318240110E+01  0.12138647133E+02  0.31655549113E+02  0.34289463770E+02  0.10566000000E+00 0. -1.
        994    1    1    2    0    0  0.65935976805E+01 -0.12772082250E+02  0.33029862655E+01  0.17183408083E+03  0.17120000000E+03 0.  0.
        998    1    1    2    0    0 -0.14617736695E+01  0.63343511715E+00  0.14650414609E+04  0.14650764554E+04  0.10000000000E+02 0. -1.
</event>
<event>
 5    1  0.1364103E-008  0.3816818E+03  0.7957747E-01  0.3443868E+00
         13   -1    0    0    0    0  0.00000000000E+00  0.00000000000E+00  0.14999999963E+04  0.15000000000E+04  0.10566000000E+00 0. -1.
        994   -1    0    0    0    0 -0.00000000000E+00 -0.00000000000E+00  0.11368683772E-12  0.17120000000E+03  0.17120000000E+03 0.  0.
         13    1    1    2    0    0  0.11410087803E+01 -0.11965039632E+02  0.20873472693E+02  0.24086865731E+02  0.10566000000E+00 0. -1.
        994    1    1    2    0    0  0.10525779067E+02  0.60519295393E+01  0.37768089497E+01  0.17167155315E+03  0.17120000000E+03 0.  0.
        998    1    1    2    0    0 -0.11666787847E+02  0.59131100931E+01  0.14753497146E+04  0.14754415811E+04  0.10000000000E+02 0. -1.
</event>
<event>
 5    1  0.1364103E-008  0.3769059E+03  0.7957747E-01  0.3464743E+00
         13   -1    0    0    0    0  0.00000000000E+00  0.00000000000E+00  0.14999999963E+04  0.15000000000E+04  0.10566000000E+00 0.  1.
        994   -1    0    0    0    0 -0.00000000000E+00 -0.00000000000E+00  0.11368683772E-12  0.17120000000E+03  0.17120000000E+03 0.  0.
         13    1    1    2    0    0  0.11215475581E+02 -0.18536925059E+01  0.86632193246E+01  0.14292851413E+02  0.10566000000E+00 0.  1.
        994    1    1    2    0    0 -0.12044810127E+02  0.47804582090E+01  0.62706352151E+01  0.17180422317E+03  0.17120000000E+03 0.  0.
        998    1    1    2    0    0  0.82933454605E+00 -0.29267657031E+01  0.14850661417E+04  0.14851029254E+04  0.10000000000E+02 0.  1.
</event>
<event>
 5    1  0.1364103E-008  0.3830061E+03  0.7957747E-01  0.3438173E+00
         13   -1    0    0    0    0  0.00000000000E+00  0.00000000000E+00  0.14999999963E+04  0.15000000000E+04  0.10566000000E+00 0.  1.
        994   -1    0    0    0    0 -0.00000000000E+00 -0.00000000000E+00  0.11368683772E-12  0.17120000000E+03  0.17120000000E+03 0.  0.
         13    1    1    2    0    0  0.80381059768E+01 -0.17248350346E+02  0.66043092213E+02  0.68730036596E+02  0.10566000000E+00 0.  1.
        994    1    1    2    0    0 -0.12852592662E+02  0.14671243054E+02  0.38835893549E+01  0.17235125987E+03  0.17120000000E+03 0.  0.
        998    1    1    2    0    0  0.48144866850E+01  0.25771072925E+01  0.14300733147E+04  0.14301187035E+04  0.10000000000E+02 0.  1.
</event>
<event>
 5    1  0.1364103E-008  0.3858904E+03  0.7957747E-01  0.3425904E+00
         13   -1    0    0    0    0  0.00000000000E+00  0.00000000000E+00  0.14999999963E+04  0.15000000000E+04  0.10566000000E+00 0. -1.
        994   -1    0    0    0    0 -0.00000000000E+00 -0.00000000000E+00  0.11368683772E-12  0.17120000000E+03  0.17120000000E+03 0.  0.
         13    1    1    2    0    0 -0.57425163341E+01  0.84393339958E+01  0.46222522984E+02  0.47336367068E+02  0.10566000000E+00 0. -1.
        994    1    1    2    0    0  0.74078140487E+01  0.49998244886E+01  0.14506547946E+01  0.17143925558E+03  0.17120000000E+03 0.  0.
        998    1    1    2    0    0 -0.16652977147E+01 -0.13439158484E+02  0.14523268185E+04  0.14524243774E+04  0.10000000000E+02 0. -1.
</event>
<event>
 5    1  0.1364103E-008  0.3839960E+03  0.7957747E-01  0.3433941E+00
         13   -1    0    0    0    0  0.00000000000E+00  0.00000000000E+00  0.14999999963E+04  0.15000000000E+04  0.10566000000E+00 0.  1.
        994   -1    0    0    0    0 -0.00000000000E+00 -0.00000000000E+00  0.11368683772E-12  0.17120000000E+03  0.17120000000E+03 0.  0.
         13    1    1    2    0    0  0.83906039769E+01  0.98880185579E+01  0.37550757246E+02  0.39727140344E+02  0.10566000000E+00 0.  1.
        994    1    1    2    0    0 -0.49536145249E+01 -0.18478518248E+02  0.33379083897E+01  0.17229792676E+03  0.17120000000E+03 0.  0.
        998    1    1    2    0    0 -0.34369894520E+01  0.85904996905E+01  0.14591113306E+04  0.14591749329E+04  0.10000000000E+02 0.  1.
</event>
<event>
 5    1  0.1364103E-008  0.3780558E+03  0.7957747E-01  0.3459668E+00
         13   -1    0    0    0    0  0.00000000000E+00  0.00000000000E+00  0.14999999963E+04  0.15000000000E+04  0.10566000000E+00 0.  1.
        994   -1    0    0    0    0 -0.00000000000E+00 -0.00000000000E+00  0.11368683772E-12  0.17120000000E+03  0.17120000000E+03 0.  0.
         13    1    1    2    0    0  0.10042795247E+03 -0.11833728681E+02  0.35035700056E+03  0.36465853861E+03  0.10566000000E+00 0.  1.
        994    1    1    2    0    0 -0.49467282665E+02  0.69443002928E+01  0.24295803258E+02  0.17998600339E+03  0.17120000000E+03 0.  0.
        998    1    1    2    0    0 -0.50960669809E+02  0.48894283883E+01  0.11253471925E+04  0.11265554580E+04  0.10000000000E+02 0.  1.
</event>
<event>
 5    1  0.1364103E-008  0.3821245E+03  0.7957747E-01  0.3441960E+00
         13   -1    0    0    0    0  0.00000000000E+00  0.00000000000E+00  0.14999999963E+04  0.15000000000E+04  0.10566000000E+00 0. -1.
        994   -1    0    0    0    0 -0.00000000000E+00 -0.00000000000E+00  0.11368683772E-12  0.17120000000E+03  0.17120000000E+03 0.  0.
         13    1    1    2    0    0  0.16508435806E+01 -0.11772612373E+02  0.21989172466E+02  0.24997090959E+02  0.10566000000E+00 0. -1.
        994    1    1    2    0    0 -0.30373872287E+01  0.61586798263E+01  0.32210929430E+01  0.17136793894E+03  0.17120000000E+03 0.  0.
        998    1    1    2    0    0  0.13865436481E+01  0.56139325468E+01  0.14747897309E+04  0.14748349701E+04  0.10000000000E+02 0. -1.
</event>
<event>
 5    1  0.1364103E-008  0.3704869E+03  0.7957747E-01  0.3493656E+00
         13   -1    0    0    0    0  0.00000000000E+00  0.00000000000E+00  0.14999999963E+04  0.15000000000E+04  0.10566000000E+00 0. -1.
        994   -1    0    0    0    0 -0.00000000000E+00 -0.00000000000E+00  0.11368683772E-12  0.17120000000E+03  0.17120000000E+03 0.  0.
         13    1    1    2    0    0 -0.22047568864E+02 -0.86247033757E+02  0.48690409188E+03  0.49497500137E+03  0.10566000000E+00 0. -1.
        994    1    1    2    0    0  0.28391756779E+02  0.34448965934E+02  0.15925294505E+02  0.17763974249E+03  0.17120000000E+03 0.  0.
        998    1    1    2    0    0 -0.63441879143E+01  0.51798067823E+02  0.99717060989E+03  0.99858525614E+03  0.10000000000E+02 0. -1.
</event>
<event>
 5    1  0.1364103E-008  0.3968148E+03  0.7957747E-01  0.3381059E+00
         13   -1    0    0    0    0  0.00000000000E+00  0.00000000000E+00  0.14999999963E+04  0.15000000000E+04  0.10566000000E+00 0. -1.
        994   -1    0    0    0    0 -0.00000000000E+00 -0.00000000000E+00  0.11368683772E-12  0.17120000000E+03  0.17120000000E+03 0.  0.
         13    1    1    2    0    0  0.15136262653E+03 -0.37642368238E+02  0.34349092232E+03  0.37724477131E+03  0.10566000000E+00 0. -1.
        994    1    1    2    0    0 -0.14579805572E+03  0.44126600105E+02  0.12246869768E+03  0.25983119866E+03  0.17120000000E+03 0.  0.
        998    1    1    2    0    0 -0.55645708167E+01 -0.64842318673E+01  0.10340403763E+04  0.10341240300E+04  0.10000000000E+02 0. -1.
</event>
<event>
 5    1  0.1364103E-008  0.3786794E+03  0.7957747E-01  0.3456929E+00
         13   -1    0    0    0    0  0.00000000000E+00  0.00000000000E+00  0.14999999963E+04  0.15000000000E+04  0.10566000000E+00 0. -1.
        994   -1    0    0    0    0 -0.00000000000E+00 -0.00000000000E+00  0.11368683772E-12  0.17120000000E+03  0.17120000000E+03 0.  0.
         13    1    1    2    0    0  0.85741641390E+01  0.53934996536E+01  0.85309595918E+01  0.13243661306E+02  0.10566000000E+00 0. -1.
        994    1    1    2    0    0 -0.97068488551E+01  0.27248183772E+01  0.51426389243E+01  0.17157369928E+03  0.17120000000E+03 0.  0.
        998    1    1    2    0    0  0.11326847161E+01 -0.81183180308E+01  0.14863263978E+04  0.14863826394E+04  0.10000000000E+02 0. -1.
</event>
<event>
 5    1  0.1364103E-008  0.3696715E+03  0.7957747E-01  0.3497402E+00
         13   -1    0    0    0    0  0.00000000000E+00  0.00000000000E+00  0.14999999963E+04  0.15000000000E+04  0.10566000000E+00 0.  1.
        994   -1    0    0    0    0 -0.00000000000E+00 -0.00000000000E+00  0.11368683772E-12  0.17120000000E+03  0.17120000000E+03 0.  0.
         13    1    1    2    0    0 -0.33626061551E+02 -0.53921568544E+02  0.24090741695E+03  0.24914783217E+03  0.10566000000E+00 0.  1.
        994    1    1    2    0    0 -0.17065792709E+02 -0.13250070932E+01  0.11788994868E+02  0.17245700138E+03  0.17120000000E+03 0.  0.
        998    1    1    2    0    0  0.50691854260E+02  0.55246575637E+02  0.12473035845E+04  0.12495951665E+04  0.10000000000E+02 0. -1.
</event>
<event>
 5    1  0.1364103E-008  0.3938750E+03  0.7957747E-01  0.3392883E+00
         13   -1    0    0    0    0  0.00000000000E+00  0.00000000000E+00  0.14999999963E+04  0.15000000000E+04  0.10566000000E+00 0.  1.
        994   -1    0    0    0    0 -0.00000000000E+00 -0.00000000000E+00  0.11368683772E-12  0.17120000000E+03  0.17120000000E+03 0.  0.
         13    1    1    2    0    0 -0.11717130324E+03  0.41564419309E+02  0.34766521675E+03  0.36922598684E+03  0.10566000000E+00 0.  1.
        994    1    1    2    0    0  0.25760031165E+02 -0.10937482370E+03  0.74213287720E+02  0.21781525048E+03  0.17120000000E+03 0.  0.
        998    1    1    2    0    0  0.91411272075E+02  0.67810404395E+02  0.10781214918E+04  0.10841587627E+04  0.10000000000E+02 0.  1.
</event>
<event>
 5    1  0.1364103E-008  0.3855824E+03  0.7957747E-01  0.3427206E+00
         13   -1    0    0    0    0  0.00000000000E+00  0.00000000000E+00  0.14999999963E+04  0.15000000000E+04  0.10566000000E+00 0. -1.
        994   -1    0    0    0    0 -0.00000000000E+00 -0.00000000000E+00  0.11368683772E-12  0.17120000000E+03  0.17120000000E+03 0.  0.
         13    1    1    2    0    0  0.27067362325E+01  0.13659617633E+02  0.73283240010E+02  0.74594611101E+02  0.10566000000E+00 0. -1.
        994    1    1    2    0    0  0.27854961522E+01 -0.88689659453E+01  0.16249898649E+01  0.17145990242E+03  0.17120000000E+03 0.  0.
        998    1    1    2    0    0 -0.54922323847E+01 -0.47906516874E+01  0.14250917664E+04  0.14251454865E+04  0.10000000000E+02 0. -1.
</event>
<event>
 5    1  0.1364103E-008  0.4192838E+03  0.7957747E-01  0.3296128E+00
         13   -1    0    0    0    0  0.00000000000E+00  0.00000000000E+00  0.14999999963E+04  0.15000000000E+04  0.10566000000E+00 0. -1.
        994   -1    0    0    0    0 -0.00000000000E+00 -0.00000000000E+00  0.11368683772E-12  0.17120000000E+03  0.17120000000E+03 0.  0.
         13    1    1    2    0    0  0.30094143298E+02  0.12863338275E+03  0.26282479240E+03  0.29415826910E+03  0.10566000000E+00 0. -1.
        994    1    1    2    0    0  0.18742816323E+03 -0.73334526266E+02  0.24699782070E+03  0.36169687937E+03  0.17120000000E+03 0.  0.
        998    1    1    2    0    0 -0.21752230653E+03 -0.55298856482E+02  0.99017738318E+03  0.10153448515E+04  0.10000000000E+02 0. -1.
</event>
<event>
 5    1  0.1364103E-008  0.3840401E+03  0.7957747E-01  0.3433753E+00
         13   -1    0    0    0    0  0.00000000000E+00  0.00000000000E+00  0.14999999963E+04  0.15000000000E+04  0.10566000000E+00 0.  1.
        994   -1    0    0    0    0 -0.00000000000E+00 -0.00000000000E+00  0.11368683772E-12  0.17120000000E+03  0.17120000000E+03 0.  0.
         13    1    1    2    0    0 -0.64568289451E+01  0.13683333889E+02  0.52611392709E+02  0.54743895305E+02  0.10566000000E+00 0.  1.
        994    1    1    2    0    0  0.10818531935E+02 -0.11132028934E+02  0.29027630640E+01  0.17192681215E+03  0.17120000000E+03 0.  0.
        998    1    1    2    0    0 -0.43617029896E+01 -0.25513049555E+01  0.14444858405E+04  0.14445292925E+04  0.10000000000E+02 0.  1.
</event>
<event>
 5    1  0.1364103E-008  0.3848176E+03  0.7957747E-01  0.3430446E+00
         13   -1    0    0    0    0  0.00000000000E+00  0.00000000000E+00  0.14999999963E+04  0.15000000000E+04  0.10566000000E+00 0. -1.
        994   -1    0    0    0    0 -0.00000000000E+00 -0.00000000000E+00  0.11368683772E-12  0.17120000000E+03  0.17120000000E+03 0.  0.
         13    1    1    2    0    0  0.14010127916E+02 -0.56902076656E+01  0.63689149236E+02  0.65459766589E+02  0.10566000000E+00 0. -1.
        994    1    1    2    0    0 -0.16678727072E+02  0.33987677887E+01  0.26746919680E+01  0.17206488758E+03  0.17120000000E+03 0.  0.
        998    1    1    2    0    0  0.26685991558E+01  0.22914398769E+01  0.14336361551E+04  0.14336753458E+04  0.10000000000E+02 0. -1.
</event>
<event>
 5    1  0.1364103E-008  0.3860723E+03  0.7957747E-01  0.3425137E+00
         13   -1    0    0    0    0  0.00000000000E+00  0.00000000000E+00  0.14999999963E+04  0.15000000000E+04  0.10566000000E+00 0. -1.
        994   -1    0    0    0    0 -0.00000000000E+00 -0.00000000000E+00  0.11368683772E-12  0.17120000000E+03  0.17120000000E+03 0.  0.
         13    1    1    2    0    0  0.50465120927E+01  0.87732626265E+01  0.46252522106E+02  0.47347063126E+02  0.10566000000E+00 0. -1.
        994    1    1    2    0    0 -0.57669589238E+01 -0.82587543810E+01  0.14312852453E+01  0.17150205077E+03  0.17120000000E+03 0.  0.
        998    1    1    2    0    0  0.72044683117E+00 -0.51450824552E+00  0.14523161889E+04  0.14523508861E+04  0.10000000000E+02 0. -1.
</event>
<event>
 5    1  0.1364103E-008  0.3717327E+03  0.7957747E-01  0.3487965E+00
         13   -1    0    0    0    0  0.00000000000E+00  0.00000000000E+00  0.14999999963E+04  0.15000000000E+04  0.10566000000E+00 0.  1.
        994   -1    0    0    0    0 -0.00000000000E+00 -0.00000000000E+00  0.11368683772E-12  0.17120000000E+03  0.17120000000E+03 0.  0.
         13    1    1    2    0    0 -0.47276388508E+02 -0.34871683309E+02  0.30036851766E+03  0.30605938766E+03  0.10566000000E+00 0.  1.
        994    1    1    2    0    0  0.27769183723E+02 -0.60048954213E+02  0.23563934813E+02  0.18504513906E+03  0.17120000000E+03 0.  0.
        998    1    1    2    0    0  0.19507204785E+02  0.94920637522E+02  0.11760675438E+04  0.11800954733E+04  0.10000000000E+02 0.  1.
</event>
<event>
 5    1  0.1364103E-008  0.3739659E+03  0.7957747E-01  0.3477860E+00
         13   -1    0    0    0    0  0.00000000000E+00  0.00000000000E+00  0.14999999963E+04  0.15000000000E+04  0.10566000000E+00 0.  1.
        994   -1    0    0    0    0 -0.00000000000E+00 -0.00000000000E+00  0.11368683772E-12  0.17120000000E+03  0.17120000000E+03 0.  0.
         13    1    1    2    0    0  0.70647380929E+02 -0.63695610605E+02  0.45062950940E+03  0.46055960434E+03  0.10566000000E+00 0.  1.
        994    1    1    2    0    0 -0.73220233551E+02  0.54444523469E+02  0.36163929133E+02  0.19733899388E+03  0.17120000000E+03 0.  0.
        998    1    1    2    0    0  0.25728526222E+01  0.92510871354E+01  0.10132065577E+04  0.10133014018E+04  0.10000000000E+02 0.  1.
</event>
<event>
 5    1  0.1364103E-008  0.3857801E+03  0.7957747E-01  0.3426370E+00
         13   -1    0    0    0    0  0.00000000000E+00  0.00000000000E+00  0.14999999963E+04  0.15000000000E+04  0.10566000000E+00 0. -1.
        994   -1    0    0    0    0 -0.00000000000E+00 -0.00000000000E+00  0.11368683772E-12  0.17120000000E+03  0.17120000000E+03 0.  0.
         13    1    1    2    0    0  0.77916985385E+02  0.25193333012E+02  0.16250732032E+03  0.18197362711E+03  0.10566000000E+00 0. -1.
        994    1    1    2    0    0 -0.56221161666E+02 -0.15063388607E+02  0.32190770691E+02  0.18366657402E+03  0.17120000000E+03 0.  0.
        998    1    1    2    0    0 -0.21695823719E+02 -0.10129944404E+02  0.13053019053E+04  0.13055597989E+04  0.10000000000E+02 0. -1.
</event>
<event>
 5    1  0.1364103E-008  0.3857847E+03  0.7957747E-01  0.3426351E+00
         13   -1    0    0    0    0  0.00000000000E+00  0.00000000000E+00  0.14999999963E+04  0.15000000000E+04  0.10566000000E+00 0. -1.
        994   -1    0    0    0    0 -0.00000000000E+00 -0.00000000000E+00  0.11368683772E-12  0.17120000000E+03  0.17120000000E+03 0.  0.
         13    1    1    2    0    0 -0.14668236480E+02 -0.28354582359E+01  0.86412901574E+02  0.87694912665E+02  0.10566000000E+00 0. -1.
        994    1    1    2    0    0  0.16726860765E+02 -0.42347609587E+01  0.22182569056E+01  0.17208161359E+03  0.17120000000E+03 0.  0.
        998    1    1    2    0    0 -0.20586242857E+01  0.70702191946E+01  0.14113688378E+04  0.14114234737E+04  0.10000000000E+02 0. -1.
</event>
<event>
 5    1  0.1364103E-008  0.3793642E+03  0.7957747E-01  0.3453932E+00
         13   -1    0    0    0    0  0.00000000000E+00  0.00000000000E+00  0.14999999963E+04  0.15000000000E+04  0.10566000000E+00 0.  1.
        994   -1    0    0    0    0 -0.00000000000E+00 -0.00000000000E+00  0.11368683772E-12  0.17120000000E+03  0.17120000000E+03 0.  0.
         13    1    1    2    0    0  0.15933583686E+02  0.38878886167E+02  0.24277689112E+03  0.24638603229E+03  0.10566000000E+00 0.  1.
        994    1    1    2    0    0  0.29333882542E+02 -0.12534183781E+02  0.78708144306E+01  0.17432433034E+03  0.17120000000E+03 0.  0.
        998    1    1    2    0    0 -0.45267466228E+02 -0.26344702386E+02  0.12493522907E+04  0.12504896374E+04  0.10000000000E+02 0.  1.
</event>
<event>
 5    1  0.1364103E-008  0.3808927E+03  0.7957747E-01  0.3447281E+00
         13   -1    0    0    0    0  0.00000000000E+00  0.00000000000E+00  0.14999999963E+04  0.15000000000E+04  0.10566000000E+00 0.  1.
        994   -1    0    0    0    0 -0.00000000000E+00 -0.00000000000E+00  0.11368683772E-12  0.17120000000E+03  0.17120000000E+03 0.  0.
         13    1    1    2    0    0 -0.13097989059E+02  0.10548164152E+02  0.37505902136E+02  0.41103831250E+02  0.10566000000E+00 0.  1.
        994    1    1    2    0    0  0.87059009004E+01 -0.10366497598E+01  0.39394383727E+01  0.17146960818E+03  0.17120000000E+03 0.  0.
        998    1    1    2    0    0  0.43920881585E+01 -0.95115143924E+01  0.14585546558E+04  0.14586265606E+04  0.10000000000E+02 0.  1.
</event>
<event>
 5    1  0.1364103E-008  0.3794740E+03  0.7957747E-01  0.3453452E+00
         13   -1    0    0    0    0  0.00000000000E+00  0.00000000000E+00  0.14999999963E+04  0.15000000000E+04  0.10566000000E+00 0. -1.
        994   -1    0    0    0    0 -0.00000000000E+00 -0.00000000000E+00  0.11368683772E-12  0.17120000000E+03  0.17120000000E+03 0.  0.
         13    1    1    2    0    0  0.12617387120E+02 -0.31800521950E+02  0.16081962152E+03  0.16441847063E+03  0.10566000000E+00 0. -1.
        994    1    1    2    0    0 -0.10316763555E+01 -0.11468101416E+02  0.48430281728E+01  0.17165510953E+03  0.17120000000E+03 0.  0.
        998    1    1    2    0    0 -0.11585710765E+02  0.43268623366E+02  0.13343373466E+04  0.13351264198E+04  0.10000000000E+02 0. -1.
</event>
<event>
 5    1  0.1364103E-008  0.3782120E+03  0.7957747E-01  0.3458981E+00
         13   -1    0    0    0    0  0.00000000000E+00  0.00000000000E+00  0.14999999963E+04  0.15000000000E+04  0.10566000000E+00 0. -1.
        994   -1    0    0    0    0 -0.00000000000E+00 -0.00000000000E+00  0.11368683772E-12  0.17120000000E+03  0.17120000000E+03 0.  0.
         13    1    1    2    0    0 -0.57769733541E+01  0.14351917693E+02  0.21836660987E+02  0.26761948541E+02  0.10566000000E+00 0. -1.
        994    1    1    2    0    0 -0.13923083232E+02 -0.13229091863E+02  0.62798415436E+01  0.17238833350E+03  0.17120000000E+03 0.  0.
        998    1    1    2    0    0  0.19700056586E+02 -0.11228258299E+01  0.14718834937E+04  0.14720497180E+04  0.10000000000E+02 0. -1.
</event>
<event>
 5    1  0.1364103E-008  0.3831106E+03  0.7957747E-01  0.3437725E+00
         13   -1    0    0    0    0  0.00000000000E+00  0.00000000000E+00  0.14999999963E+04  0.15000000000E+04  0.10566000000E+00 0. -1.
        994   -1    0    0    0    0 -0.00000000000E+00 -0.00000000000E+00  0.11368683772E-12  0.17120000000E+03  0.17120000000E+03 0.  0.
         13    1    1    2    0    0  0.13956529764E+02  0.13498643394E+02  0.72944109253E+02  0.75484119756E+02  0.10566000000E+00 0. -1.
        994    1    1    2    0    0 -0.63154169952E+01 -0.10076745238E+02  0.30391828135E+01  0.17163945327E+03  0.17120000000E+03 0.  0.
        998    1    1    2    0    0 -0.76411127684E+01 -0.34218981562E+01  0.14240167042E+04  0.14240764270E+04  0.10000000000E+02 0. -1.
</event>
<event>
 5    1  0.1364103E-008  0.3803330E+03  0.7957747E-01  0.3449710E+00
         13   -1    0    0    0    0  0.00000000000E+00  0.00000000000E+00  0.14999999963E+04  0.15000000000E+04  0.10566000000E+00 0.  1.
        994   -1    0    0    0    0 -0.00000000000E+00 -0.00000000000E+00  0.11368683772E-12  0.17120000000E+03  0.17120000000E+03 0.  0.
         13    1    1    2    0    0 -0.21646382122E+02  0.20720642927E+02  0.11838440407E+03  0.12211793150E+03  0.10566000000E+00 0.  1.
        994    1    1    2    0    0  0.14787463694E+02  0.33909794243E+01  0.47341061389E+01  0.17193609157E+03  0.17120000000E+03 0.  0.
        998    1    1    2    0    0  0.68589184285E+01 -0.24111622351E+02  0.13768814861E+04  0.13771459769E+04  0.10000000000E+02 0.  1.
</event>
<event>
 5    1  0.1364103E-008  0.3852525E+03  0.7957747E-01  0.3428602E+00
         13   -1    0    0    0    0  0.00000000000E+00  0.00000000000E+00  0.14999999963E+04  0.15000000000E+04  0.10566000000E+00 0.  1.
        994   -1    0    0    0    0 -0.00000000000E+00 -0.00000000000E+00  0.11368683772E-12  0.17120000000E+03  0.17120000000E+03 0.  0.
         13    1    1    2    0    0 -0.81789582962E+01  0.12324655836E+02  0.71603490276E+02  0.73115412083E+02  0.10566000000E+00 0.  1.
        994    1    1    2    0    0  0.38669473083E+01 -0.12215469291E+02  0.20444687365E+01  0.17169097479E+03  0.17120000000E+03 0.  0.
        998    1    1    2    0    0  0.43120109879E+01 -0.10918654467E+00  0.14263520373E+04  0.14263936131E+04  0.10000000000E+02 0.  1.
</event>
<event>
 5    1  0.1364103E-008  0.3822774E+03  0.7957747E-01  0.3441302E+00
         13   -1    0    0    0    0  0.00000000000E+00  0.00000000000E+00  0.14999999963E+04  0.15000000000E+04  0.10566000000E+00 0.  1.
        994   -1    0    0    0    0 -0.00000000000E+00 -0.00000000000E+00  0.11368683772E-12  0.17120000000E+03  0.17120000000E+03 0.  0.
         13    1    1    2    0    0 -0.30230930607E+02 -0.58249893675E+01  0.13515833251E+03  0.13862043745E+03  0.10566000000E+00 0.  1.
        994    1    1    2    0    0  0.40706348478E+02  0.60106433213E+01  0.86260881376E+01  0.17628665303E+03  0.17120000000E+03 0.  0.
        998    1    1    2    0    0 -0.10475417871E+02 -0.18565395382E+00  0.13562155756E+04  0.13562929095E+04  0.10000000000E+02 0.  1.
</event>
<event>
 5    1  0.1364103E-008  0.3832616E+03  0.7957747E-01  0.3437078E+00
         13   -1    0    0    0    0  0.00000000000E+00  0.00000000000E+00  0.14999999963E+04  0.15000000000E+04  0.10566000000E+00 0. -1.
        994   -1    0    0    0    0 -0.00000000000E+00 -0.00000000000E+00  0.11368683772E-12  0.17120000000E+03  0.17120000000E+03 0.  0.
         13    1    1    2    0    0  0.32402275340E+01  0.14858214305E+03  0.28991623975E+03  0.32578917960E+03  0.10566000000E+00 0. -1.
        994    1    1    2    0    0  0.11455852657E+02 -0.22022215540E+03  0.22769980734E+03  0.36025779180E+03  0.17120000000E+03 0.  0.
        998    1    1    2    0    0 -0.14696080191E+02  0.71640012355E+02  0.98238394918E+03  0.98515302860E+03  0.10000000000E+02 0. -1.
</event>
<event>
 5    1  0.1364103E-008  0.3842380E+03  0.7957747E-01  0.3432910E+00
         13   -1    0    0    0    0  0.00000000000E+00  0.00000000000E+00  0.14999999963E+04  0.15000000000E+04  0.10566000000E+00 0.  1.
        994   -1    0    0    0    0 -0.00000000000E+00 -0.00000000000E+00  0.11368683772E-12  0.17120000000E+03  0.17120000000E+03 0.  0.
         13    1    1    2    0    0 -0.56313609045E+01 -0.12041032437E+02  0.41344894340E+02  0.43429369553E+02  0.10566000000E+00 0.  1.
        994    1    1    2    0    0 -0.11546404594E+02  0.28053242492E+02  0.50488603605E+01  0.17394031983E+03  0.17120000000E+03 0.  0.
        998    1    1    2    0    0  0.17177765499E+02 -0.16012210055E+02  0.14536062416E+04  0.14538303106E+04  0.10000000000E+02 0.  1.
</event>
<event>
 5    1  0.1364103E-008  0.3788654E+03  0.7957747E-01  0.3456114E+00
         13   -1    0    0    0    0  0.00000000000E+00  0.00000000000E+00  0.14999999963E+04  0.15000000000E+04  0.10566000000E+00 0.  1.
        994   -1    0    0    0    0 -0.00000000000E+00 -0.00000000000E+00  0.11368683772E-12  0.17120000000E+03  0.17120000000E+03 0.  0.
         13    1    1    2    0    0 -0.93660322808E+01 -0.19710462446E+02  0.49544560082E+02  0.54137782446E+02  0.10566000000E+00 0.  1.
        994    1    1    2    0    0  0.19291952241E+02  0.19111091146E+01  0.59691010504E+01  0.17239751137E+03  0.17120000000E+03 0.  0.
        998    1    1    2    0    0 -0.99259199602E+01  0.17799353331E+02  0.14444863351E+04  0.14446647062E+04  0.10000000000E+02 0.  1.
</event>
<event>
 5    1  0.1364103E-008  0.3841375E+03  0.7957747E-01  0.3433338E+00
         13   -1    0    0    0    0  0.00000000000E+00  0.00000000000E+00  0.14999999963E+04  0.15000000000E+04  0.10566000000E+00 0. -1.
        994   -1    0    0    0    0 -0.00000000000E+00 -0.00000000000E+00  0.11368683772E-12  0.17120000000E+03  0.17120000000E+03 0.  0.
         13    1    1    2    0    0 -0.16223996300E+02 -0.62670275739E+01  0.71535886999E+02  0.73619888504E+02  0.10566000000E+00 0. -1.
        994    1    1    2    0    0  0.13058106524E+02  0.74783056268E+01  0.28060621361E+01  0.17188296363E+03  0.17120000000E+03 0.  0.
        998    1    1    2    0    0  0.31658897755E+01 -0.12112780528E+01  0.14256580471E+04  0.14256971479E+04  0.10000000000E+02 0. -1.
</event>
<event>
 5    1  0.1364103E-008  0.3841125E+03  0.7957747E-01  0.3433445E+00
         13   -1    0    0    0    0  0.00000000000E+00  0.00000000000E+00  0.14999999963E+04  0.15000000000E+04  0.10566000000E+00 0. -1.
        994   -1    0    0    0    0 -0.00000000000E+00 -0.00000000000E+00  0.11368683772E-12  0.17120000000E+03  0.17120000000E+03 0.  0.
         13    1    1    2    0    0 -0.11999408735E+02  0.52120532235E+01  0.39826318914E+02  0.41920140160E+02  0.10566000000E+00 0. -1.
        994    1    1    2    0    0  0.36655779141E+01 -0.28497138087E+02  0.47988529802E+01  0.17366056642E+03  0.17120000000E+03 0.  0.
        998    1    1    2    0    0  0.83338308205E+01  0.23285084864E+02  0.14553748244E+04  0.14556192934E+04  0.10000000000E+02 0. -1.
</event>
<event>
 5    1  0.1364103E-008  0.3831291E+03  0.7957747E-01  0.3437646E+00
         13   -1    0    0    0    0  0.00000000000E+00  0.00000000000E+00  0.14999999963E+04  0.15000000000E+04  0.10566000000E+00 0.  1.
        994   -1    0    0    0    0 -0.00000000000E+00 -0.00000000000E+00  0.11368683772E-12  0.17120000000E+03  0.17120000000E+03 0.  0.
         13    1    1    2    0    0  0.12141665540E+02 -0.80462926711E+01  0.40962590674E+02  0.43475370805E+02  0.10566000000E+00 0.  1.
        994    1    1    2    0    0 -0.12070576212E+02 -0.41018858374E+01  0.30997881231E+01  0.17170198882E+03  0.17120000000E+03 0.  0.
        998    1    1    2    0    0 -0.71089327785E-01  0.12148178509E+02  0.14559376175E+04  0.14560226404E+04  0.10000000000E+02 0.  1.
</event>
<event>
 5    1  0.1364103E-008  0.3799006E+03  0.7957747E-01  0.3451591E+00
         13   -1    0    0    0    0  0.00000000000E+00  0.00000000000E+00  0.14999999963E+04  0.15000000000E+04  0.10566000000E+00 0. -1.
        994   -1    0    0    0    0 -0.00000000000E+00 -0.00000000000E+00  0.11368683772E-12  0.17120000000E+03  0.17120000000E+03 0.  0.
         13    1    1    2    0    0  0.33289439843E+01 -0.32909582494E+02  0.12223992209E+03  0.12663621995E+03  0.10566000000E+00 0. -1.
        994    1    1    2    0    0 -0.73143914389E+01  0.29215817898E+02  0.72224789766E+01  0.17397893131E+03  0.17120000000E+03 0.  0.
        998    1    1    2    0    0  0.39854474546E+01  0.36937645963E+01  0.13705375952E+04  0.13705848487E+04  0.10000000000E+02 0. -1.
</event>
<event>
 5    1  0.1364103E-008  0.3756413E+03  0.7957747E-01  0.3470360E+00
         13   -1    0    0    0    0  0.00000000000E+00  0.00000000000E+00  0.14999999963E+04  0.15000000000E+04  0.10566000000E+00 0. -1.
        994   -1    0    0    0    0 -0.00000000000E+00 -0.00000000000E+00  0.11368683772E-12  0.17120000000E+03  0.17120000000E+03 0.  0.
         13    1    1    2    0    0 -0.48011365691E+02  0.22146140185E+02  0.17780227058E+03  0.18549717343E+03  0.10566000000E+00 0. -1.
        994    1    1    2    0    0  0.50576268867E+02 -0.51775353342E+02  0.24330992008E+02  0.18745688400E+03  0.17120000000E+03 0.  0.
        998    1    1    2    0    0 -0.25649031753E+01  0.29629213158E+02  0.12978667337E+04  0.12982459426E+04  0.10000000000E+02 0. -1.
</event>
<event>
 5    1  0.1364103E-008  0.3723410E+03  0.7957747E-01  0.3485201E+00
         13   -1    0    0    0    0  0.00000000000E+00  0.00000000000E+00  0.14999999963E+04  0.15000000000E+04  0.10566000000E+00 0.  1.
        994   -1    0    0    0    0 -0.00000000000E+00 -0.00000000000E+00  0.11368683772E-12  0.17120000000E+03  0.17120000000E+03 0.  0.
         13    1    1    2    0    0  0.22097162241E+02  0.39235127440E+02  0.12634591581E+03  0.13413046414E+03  0.10566000000E+00 0.  1.
        994    1    1    2    0    0 -0.13327775281E+02 -0.17180870248E+02  0.96739509235E+01  0.17284628206E+03  0.17120000000E+03 0.  0.
        998    1    1    2    0    0 -0.87693869603E+01 -0.22054257192E+02  0.13639801295E+04  0.13642232538E+04  0.10000000000E+02 0.  1.
</event>
<event>
 5    1  0.1364103E-008  0.3859457E+03  0.7957747E-01  0.3425671E+00
         13   -1    0    0    0    0  0.00000000000E+00  0.00000000000E+00  0.14999999963E+04  0.15000000000E+04  0.10566000000E+00 0. -1.
        994   -1    0    0    0    0 -0.00000000000E+00 -0.00000000000E+00  0.11368683772E-12  0.17120000000E+03  0.17120000000E+03 0.  0.
         13    1    1    2    0    0  0.48266415801E+01 -0.92828310183E+01  0.46830581605E+02  0.47985226457E+02  0.10566000000E+00 0. -1.
        994    1    1    2    0    0 -0.74875631772E+01  0.71030212583E+01  0.15106175720E+01  0.17151745823E+03  0.17120000000E+03 0.  0.
        998    1    1    2    0    0  0.26609215972E+01  0.21798097600E+01  0.14516587971E+04  0.14516973153E+04  0.10000000000E+02 0. -1.
</event>
<event>
 5    1  0.1364103E-008  0.3571231E+03  0.7957747E-01  0.3557248E+00
         13   -1    0    0    0    0  0.00000000000E+00  0.00000000000E+00  0.14999999963E+04  0.15000000000E+04  0.10566000000E+00 0.  1.
        994   -1    0    0    0    0 -0.00000000000E+00 -0.00000000000E+00  0.11368683772E-12  0.17120000000E+03  0.17120000000E+03 0.  0.
         13    1    1    2    0    0  0.15872224672E+03 -0.11711876230E+03  0.11334406969E+04  0.11504770231E+04  0.10566000000E+00 0.  1.
        994    1    1    2    0    0 -0.12092907975E+03  0.13630106775E+03  0.13311239600E+03  0.28324931309E+03  0.17120000000E+03 0.  0.
        998    1    1    2    0    0 -0.37793166974E+02 -0.19182305451E+02  0.23344690334E+03  0.23747366378E+03  0.10000000000E+02 0.  1.
</event>
<event>
 5    1  0.1364103E-008  0.3836201E+03  0.7957747E-01  0.3435546E+00
         13   -1    0    0    0    0  0.00000000000E+00  0.00000000000E+00  0.14999999963E+04  0.15000000000E+04  0.10566000000E+00 0.  1.
        994   -1    0    0    0    0 -0.00000000000E+00 -0.00000000000E+00  0.11368683772E-12  0.17120000000E+03  0.17120000000E+03 0.  0.
         13    1    1    2    0    0 -0.92142156167E+01 -0.75215925656E+01 -0.45928770529E+01  0.12750757147E+02  0.10566000000E+00 0.  1.
        994    1    1    2    0    0  0.83063748697E+01  0.35844345453E+01  0.18631021619E+02  0.17244825021E+03  0.17120000000E+03 0.  0.
        998    1    1    2    0    0  0.90784074699E+00  0.39371580203E+01  0.14859618517E+04  0.14860009926E+04  0.10000000000E+02 0.  1.
</event>
<event>
 5    1  0.1364103E-008  0.3785589E+03  0.7957747E-01  0.3457457E+00
         13   -1    0    0    0    0  0.00000000000E+00  0.00000000000E+00  0.14999999963E+04  0.15000000000E+04  0.10566000000E+00 0.  1.
        994   -1    0    0    0    0 -0.00000000000E+00 -0.00000000000E+00  0.11368683772E-12  0.17120000000E+03  0.17120000000E+03 0.  0.
         13    1    1    2    0    0 -0.31611034632E+02  0.69501042253E+01  0.98725253737E+02  0.10389537212E+03  0.10566000000E+00 0.  1.
        994    1    1    2    0    0  0.32464795912E+02 -0.13896305342E+02  0.90625871849E+01  0.17503896927E+03  0.17120000000E+03 0.  0.
        998    1    1    2    0    0 -0.85376128010E+00  0.69462011169E+01  0.13922121554E+04  0.13922656586E+04  0.10000000000E+02 0.  1.
</event>
<event>
 5    1  0.1364103E-008  0.3858224E+03  0.7957747E-01  0.3426192E+00
         13   -1    0    0    0    0  0.00000000000E+00  0.00000000000E+00  0.14999999963E+04  0.15000000000E+04  0.10566000000E+00 0.  1.
        994   -1    0    0    0    0 -0.00000000000E+00 -0.00000000000E+00  0.11368683772E-12  0.17120000000E+03  0.17120000000E+03 0.  0.
         13    1    1    2    0    0 -0.87268020757E+01  0.76837579452E+01  0.65078767050E+02  0.66109411550E+02  0.10566000000E+00 0.  1.
        994    1    1    2    0    0 -0.12104477682E+02  0.54747385874E+01  0.18014435887E+01  0.17172412859E+03  0.17120000000E+03 0.  0.
        998    1    1    2    0    0  0.20831279758E+02 -0.13158496533E+02  0.14331197856E+04  0.14333664599E+04  0.10000000000E+02 0.  1.
</event>
<event>
 5    1  0.1364103E-008  0.3782032E+03  0.7957747E-01  0.3459020E+00
         13   -1    0    0    0    0  0.00000000000E+00  0.00000000000E+00  0.14999999963E+04  0.15000000000E+04  0.10566000000E+00 0. -1.
        994   -1    0    0    0    0 -0.00000000000E+00 -0.00000000000E+00  0.11368683772E-12  0.17120000000E+03  0.17120000000E+03 0.  0.
         13    1    1    2    0    0 -0.27318809949E+02  0.10710678619E+02  0.87051890848E+02  0.91864459274E+02  0.10566000000E+00 0. -1.
        994    1    1    2    0    0  0.10290892178E+02  0.17454351445E+01  0.54093656208E+01  0.17160317667E+03  0.17120000000E+03 0.  0.
        998    1    1    2    0    0  0.17027917772E+02 -0.12456113763E+02  0.14075387398E+04  0.14077323641E+04  0.10000000000E+02 0. -1.
</event>
<event>
 5    1  0.1364103E-008  0.3798512E+03  0.7957747E-01  0.3451807E+00
         13   -1    0    0    0    0  0.00000000000E+00  0.00000000000E+00  0.14999999963E+04  0.15000000000E+04  0.10566000000E+00 0. -1.
        994   -1    0    0    0    0 -0.00000000000E+00 -0.00000000000E+00  0.11368683772E-12  0.17120000000E+03  0.17120000000E+03 0.  0.
         13    1    1    2    0    0 -0.30371039406E+02 -0.16527817855E+02  0.14925868411E+03  0.15321140539E+03  0.10566000000E+00 0. -1.
        994    1    1    2    0    0 -0.26203366987E+01  0.29486112057E+02  0.71446385845E+01  0.17388727046E+03  0.17120000000E+03 0.  0.
        998    1    1    2    0    0  0.32991376105E+02 -0.12958294202E+02  0.13435966736E+04  0.13441013241E+04  0.10000000000E+02 0. -1.
</event>
<event>
 5    1  0.1364103E-008  0.3795211E+03  0.7957747E-01  0.3453247E+00
         13   -1    0    0    0    0  0.00000000000E+00  0.00000000000E+00  0.14999999963E+04  0.15000000000E+04  0.10566000000E+00 0. -1.
        994   -1    0    0    0    0 -0.00000000000E+00 -0.00000000000E+00  0.11368683772E-12  0.17120000000E+03  0.17120000000E+03 0.  0.
         13    1    1    2    0    0  0.20633256229E+02  0.20806438094E+02  0.97516617906E+02  0.10182406916E+03  0.10566000000E+00 0. -1.
        994    1    1    2    0    0 -0.47765783874E+01 -0.17846191439E+02  0.55186839687E+01  0.17228232098E+03  0.17120000000E+03 0.  0.
        998    1    1    2    0    0 -0.15856677841E+02 -0.29602466554E+01  0.13969646944E+04  0.13970936099E+04  0.10000000000E+02 0. -1.
</event>
<event>
 5    1  0.1364103E-008  0.3796677E+03  0.7957747E-01  0.3452607E+00
         13   -1    0    0    0    0  0.00000000000E+00  0.00000000000E+00  0.14999999963E+04  0.15000000000E+04  0.10566000000E+00 0. -1.
        994   -1    0    0    0    0 -0.00000000000E+00 -0.00000000000E+00  0.11368683772E-12  0.17120000000E+03  0.17120000000E+03 0.  0.
         13    1    1    2    0    0  0.38827001476E+02 -0.19344331455E+02  0.21779076615E+03  0.22206883659E+03  0.10566000000E+00 0. -1.
        994    1    1    2    0    0 -0.21988338365E+02  0.11082454314E+02  0.63326950727E+01  0.17307758620E+03  0.17120000000E+03 0.  0.
        998    1    1    2    0    0 -0.16838663110E+02  0.82618771409E+01  0.12758765351E+04  0.12760535772E+04  0.10000000000E+02 0. -1.
</event>
<event>
 5    1  0.1364103E-008  0.3788733E+03  0.7957747E-01  0.3456079E+00
         13   -1    0    0    0    0  0.00000000000E+00  0.00000000000E+00  0.14999999963E+04  0.15000000000E+04  0.10566000000E+00 0. -1.
        994   -1    0    0    0    0 -0.00000000000E+00 -0.00000000000E+00  0.11368683772E-12  0.17120000000E+03  0.17120000000E+03 0.  0.
         13    1    1    2    0    0  0.13852140121E+02  0.29886099021E+02  0.11288153759E+03  0.11758959730E+03  0.10566000000E+00 0. -1.
        994    1    1    2    0    0 -0.77359763519E+01 -0.19837666964E+02  0.62257011417E+01  0.17263133469E+03  0.17120000000E+03 0.  0.
        998    1    1    2    0    0 -0.61161637687E+01 -0.10048432057E+02  0.13808927575E+04  0.13809790680E+04  0.10000000000E+02 0. -1.
</event>
<event>
 5    1  0.1364103E-008  0.3834177E+03  0.7957747E-01  0.3436411E+00
         13   -1    0    0    0    0  0.00000000000E+00  0.00000000000E+00  0.14999999963E+04  0.15000000000E+04  0.10566000000E+00 0.  1.
        994   -1    0    0    0    0 -0.00000000000E+00 -0.00000000000E+00  0.11368683772E-12  0.17120000000E+03  0.17120000000E+03 0.  0.
         13    1    1    2    0    0 -0.16340425799E+02 -0.29157198789E+02  0.20002261803E+03  0.20279598281E+03  0.10566000000E+00 0.  1.
        994    1    1    2    0    0  0.21207735858E+02  0.28104529441E+02  0.65263359364E+01  0.17490473320E+03  0.17120000000E+03 0.  0.
        998    1    1    2    0    0 -0.48673100595E+01  0.10526693487E+01  0.12934510423E+04  0.12934992840E+04  0.10000000000E+02 0.  1.
</event>
<event>
 5    1  0.1364103E-008  0.3849589E+03  0.7957747E-01  0.3429847E+00
         13   -1    0    0    0    0  0.00000000000E+00  0.00000000000E+00  0.14999999963E+04  0.15000000000E+04  0.10566000000E+00 0.  1.
        994   -1    0    0    0    0 -0.00000000000E+00 -0.00000000000E+00  0.11368683772E-12  0.17120000000E+03  0.17120000000E+03 0.  0.
         13    1    1    2    0    0 -0.18842803160E+02  0.27126909975E-01  0.11318424033E+03  0.11474203845E+03  0.10566000000E+00 0.  1.
        994    1    1    2    0    0  0.59269534168E+01  0.32626920240E+01  0.18011216906E+01  0.17134310017E+03  0.17120000000E+03 0.  0.
        998    1    1    2    0    0  0.12915849743E+02 -0.32898189340E+01  0.13850146343E+04  0.13851148614E+04  0.10000000000E+02 0.  1.
</event>
<event>
 5    1  0.1364103E-008  0.3803754E+03  0.7957747E-01  0.3449526E+00
         13   -1    0    0    0    0  0.00000000000E+00  0.00000000000E+00  0.14999999963E+04  0.15000000000E+04  0.10566000000E+00 0.  1.
        994   -1    0    0    0    0 -0.00000000000E+00 -0.00000000000E+00  0.11368683772E-12  0.17120000000E+03  0.17120000000E+03 0.  0.
         13    1    1    2    0    0  0.24901787700E+02  0.14030432692E+01  0.76494908490E+02  0.80458372777E+02  0.10566000000E+00 0.  1.
        994    1    1    2    0    0 -0.19184330479E+02  0.12077464545E+02  0.56614742097E+01  0.17278714066E+03  0.17120000000E+03 0.  0.
        998    1    1    2    0    0 -0.57174572205E+01 -0.13480507814E+02  0.14178436136E+04  0.14179544866E+04  0.10000000000E+02 0.  1.
</event>
<event>
 5    1  0.1364103E-008  0.3846723E+03  0.7957747E-01  0.3431063E+00
         13   -1    0    0    0    0  0.00000000000E+00  0.00000000000E+00  0.14999999963E+04  0.15000000000E+04  0.10566000000E+00 0.  1.
        994   -1    0    0    0    0 -0.00000000000E+00 -0.00000000000E+00  0.11368683772E-12  0.17120000000E+03  0.17120000000E+03 0.  0.
         13    1    1    2    0    0  0.19837854530E+02 -0.37005443861E+01  0.12007355048E+03  0.12175755906E+03  0.10566000000E+00 0.  1.
        994    1    1    2    0    0 -0.73305692186E+01 -0.68637416768E+01  0.21250030846E+01  0.17150744542E+03  0.17120000000E+03 0.  0.
        998    1    1    2    0    0 -0.12507285311E+02  0.10564286063E+02  0.13778014427E+04  0.13779349955E+04  0.10000000000E+02 0.  1.
</event>
<event>
 5    1  0.1364103E-008  0.3687806E+03  0.7957747E-01  0.3501514E+00
         13   -1    0    0    0    0  0.00000000000E+00  0.00000000000E+00  0.14999999963E+04  0.15000000000E+04  0.10566000000E+00 0.  1.
        994   -1    0    0    0    0 -0.00000000000E+00 -0.00000000000E+00  0.11368683772E-12  0.17120000000E+03  0.17120000000E+03 0.  0.
         13    1    1    2    0    0  0.42136694597E+01  0.25462685903E+02  0.28127531128E+02  0.38174239418E+02  0.10566000000E+00 0.  1.
        994    1    1    2    0    0  0.92092102784E+01 -0.19644223319E+02  0.11935773487E+02  0.17298152431E+03  0.17120000000E+03 0.  0.
        998    1    1    2    0    0 -0.13422879738E+02 -0.58184625844E+01  0.14599366917E+04  0.14600442363E+04  0.10000000000E+02 0.  1.
</event>
<event>
 5    1  0.1364103E-008  0.3777575E+03  0.7957747E-01  0.3460981E+00
         13   -1    0    0    0    0  0.00000000000E+00  0.00000000000E+00  0.14999999963E+04  0.15000000000E+04  0.10566000000E+00 0. -1.
        994   -1    0    0    0    0 -0.00000000000E+00 -0.00000000000E+00  0.11368683772E-12  0.17120000000E+03  0.17120000000E+03 0.  0.
         13    1    1    2    0    0 -0.72687733277E+01 -0.35056523504E+02  0.11593098805E+03  0.12133342516E+03  0.10566000000E+00 0. -1.
        994    1    1    2    0    0  0.26484810445E+01  0.28117180309E+02  0.79602961471E+01  0.17369627686E+03  0.17120000000E+03 0.  0.
        998    1    1    2    0    0  0.46202922832E+01  0.69393431957E+01  0.13761087121E+04  0.13761702980E+04  0.10000000000E+02 0. -1.
</event>
<event>
 5    1  0.1364103E-008  0.3838217E+03  0.7957747E-01  0.3434685E+00
         13   -1    0    0    0    0  0.00000000000E+00  0.00000000000E+00  0.14999999963E+04  0.15000000000E+04  0.10566000000E+00 0. -1.
        994   -1    0    0    0    0 -0.00000000000E+00 -0.00000000000E+00  0.11368683772E-12  0.17120000000E+03  0.17120000000E+03 0.  0.
         13    1    1    2    0    0  0.13803393501E+02  0.12377041663E+02  0.73732945319E+02  0.76028173869E+02  0.10566000000E+00 0. -1.
        994    1    1    2    0    0 -0.16213826809E+02 -0.11145217215E+02  0.34952370804E+01  0.17236229497E+03  0.17120000000E+03 0.  0.
        998    1    1    2    0    0  0.24104333081E+01 -0.12318244477E+01  0.14227718139E+04  0.14228095312E+04  0.10000000000E+02 0. -1.
</event>
<event>
 5    1  0.1364103E-008  0.3704972E+03  0.7957747E-01  0.3493609E+00
         13   -1    0    0    0    0  0.00000000000E+00  0.00000000000E+00  0.14999999963E+04  0.15000000000E+04  0.10566000000E+00 0.  1.
        994   -1    0    0    0    0 -0.00000000000E+00 -0.00000000000E+00  0.11368683772E-12  0.17120000000E+03  0.17120000000E+03 0.  0.
         13    1    1    2    0    0 -0.22145206038E+02 -0.39260687765E+02  0.89347462373E+02  0.10007393242E+03  0.10566000000E+00 0.  1.
        994    1    1    2    0    0  0.67043979492E+01  0.19448902223E+02  0.12685434197E+02  0.17289756791E+03  0.17120000000E+03 0.  0.
        998    1    1    2    0    0  0.15440808089E+02  0.19811785542E+02  0.13979670997E+04  0.13982284997E+04  0.10000000000E+02 0.  1.
</event>
<event>
 5    1  0.1364103E-008  0.3727346E+03  0.7957747E-01  0.3483417E+00
         13   -1    0    0    0    0  0.00000000000E+00  0.00000000000E+00  0.14999999963E+04  0.15000000000E+04  0.10566000000E+00 0.  1.
        994   -1    0    0    0    0 -0.00000000000E+00 -0.00000000000E+00  0.11368683772E-12  0.17120000000E+03  0.17120000000E+03 0.  0.
         13    1    1    2    0    0  0.93790305811E+02  0.14564654510E+03  0.75404687699E+03  0.77369001637E+03  0.10566000000E+00 0.  1.
        994    1    1    2    0    0 -0.97163783400E+02 -0.14924829704E+03  0.12573298333E+03  0.27718960671E+03  0.17120000000E+03 0.  0.
        998    1    1    2    0    0  0.33734775888E+01  0.36017519350E+01  0.62022013596E+03  0.62032037692E+03  0.10000000000E+02 0.  0.
</event>
<event>
 5    1  0.1364103E-008  0.3822896E+03  0.7957747E-01  0.3441249E+00
         13   -1    0    0    0    0  0.00000000000E+00  0.00000000000E+00  0.14999999963E+04  0.15000000000E+04  0.10566000000E+00 0.  1.
        994   -1    0    0    0    0 -0.00000000000E+00 -0.00000000000E+00  0.11368683772E-12  0.17120000000E+03  0.17120000000E+03 0.  0.
         13    1    1    2    0    0  0.25847407498E+02  0.18775447417E+01  0.10286510598E+03  0.10607947417E+03  0.10566000000E+00 0.  1.
        994    1    1    2    0    0 -0.29058424865E+02 -0.10263787394E+02  0.61392492799E+01  0.17405995452E+03  0.17120000000E+03 0.  0.
        998    1    1    2    0    0  0.32110173670E+01  0.83862426522E+01  0.13909956410E+04  0.13910605713E+04  0.10000000000E+02 0.  1.
</event>
<event>
 5    1  0.1364103E-008  0.3701173E+03  0.7957747E-01  0.3495352E+00
         13   -1    0    0    0    0  0.00000000000E+00  0.00000000000E+00  0.14999999963E+04  0.15000000000E+04  0.10566000000E+00 0. -1.
        994   -1    0    0    0    0 -0.00000000000E+00 -0.00000000000E+00  0.11368683772E-12  0.17120000000E+03  0.17120000000E+03 0.  0.
         13    1    1    2    0    0 -0.22056293220E+02 -0.33549439431E+02  0.97264309895E+02  0.10522548218E+03  0.10566000000E+00 0. -1.
        994    1    1    2    0    0  0.16829327558E+01 -0.17022970959E+02  0.10219729087E+02  0.17235572710E+03  0.17120000000E+03 0.  0.
        998    1    1    2    0    0  0.20373360464E+02  0.50572410390E+02  0.13925159573E+04  0.13936187907E+04  0.10000000000E+02 0. -1.
</event>
<event>
 5    1  0.1570149E-008  0.3853451E+03  0.7957747E-01  0.3428210E+00
         13   -1    0    0    0    0  0.00000000000E+00  0.00000000000E+00  0.14999999963E+04  0.15000000000E+04  0.10566000000E+00 0.  1.
        994   -1    0    0    0    0 -0.00000000000E+00 -0.00000000000E+00  0.11368683772E-12  0.17120000000E+03  0.17120000000E+03 0.  0.
         13    1    1    2    0    0 -0.58998619866E+01 -0.89246907668E+01  0.39305679972E+02  0.40735808803E+02  0.10566000000E+00 0.  1.
        994    1    1    2    0    0  0.26026189037E+01  0.66603540171E+01  0.16268733459E+01  0.17135699769E+03  0.17120000000E+03 0.  0.
        998    1    1    2    0    0  0.32972430829E+01  0.22643367496E+01  0.14590674430E+04  0.14591071935E+04  0.10000000000E+02 0.  1.
</event>
<event>
 5    1  0.1364103E-008  0.3737338E+03  0.7957747E-01  0.3478905E+00
         13   -1    0    0    0    0  0.00000000000E+00  0.00000000000E+00  0.14999999963E+04  0.15000000000E+04  0.10566000000E+00 0. -1.
        994   -1    0    0    0    0 -0.00000000000E+00 -0.00000000000E+00  0.11368683772E-12  0.17120000000E+03  0.17120000000E+03 0.  0.
         13    1    1    2    0    0 -0.19905457919E+02 -0.58995799789E+01  0.24305326125E+02  0.31965486715E+02  0.10566000000E+00 0. -1.
        994    1    1    2    0    0  0.39952636129E+02  0.25566630429E+02  0.15050090565E+02  0.17828575644E+03  0.17120000000E+03 0.  0.
        998    1    1    2    0    0 -0.20047178210E+02 -0.19667050450E+02  0.14606445796E+04  0.14609487568E+04  0.10000000000E+02 0. -1.
</event>
