<event>
 5    1  0.2022058E-009  0.3882657E+03  0.7957747E-01  0.3415939E+00
         13   -1    0    0    0    0  0.00000000000E+00  0.00000000000E+00  0.14999999963E+04  0.15000000000E+04  0.10566000000E+00 0.  1.
        994   -1    0    0    0    0 -0.00000000000E+00 -0.00000000000E+00  0.11368683772E-12  0.17120000000E+03  0.17120000000E+03 0.  0.
         13    1    1    2    0    0 -0.23148687416E+03  0.13923038409E+03  0.11441772537E+04  0.11756329665E+04  0.10566000000E+00 0.  1.
        994    1    1    2    0    0  0.23861026979E+03 -0.14340584042E+03  0.31497474329E+03  0.45389274595E+03  0.17120000000E+03 0.  0.
        998    1    1    2    0    0 -0.71233956298E+01  0.41754563284E+01  0.40847999285E+02  0.41674287594E+02  0.10000000000E+00 0.  1.
</event>
<event>
 5    1  0.2022058E-009  0.3882960E+03  0.7957747E-01  0.3415813E+00
         13   -1    0    0    0    0  0.00000000000E+00  0.00000000000E+00  0.14999999963E+04  0.15000000000E+04  0.10566000000E+00 0. -1.
        994   -1    0    0    0    0 -0.00000000000E+00 -0.00000000000E+00  0.11368683772E-12  0.17120000000E+03  0.17120000000E+03 0.  0.
         13    1    1    2    0    0  0.28709062879E+02  0.36207795747E+02  0.15346030888E+03  0.16026631689E+03  0.10566000000E+00 0. -1.
        994    1    1    2    0    0 -0.20103679818E+03 -0.24313264487E+03  0.45456053555E+03  0.57919253940E+03  0.17120000000E+03 0.  0.
        998    1    1    2    0    0  0.17232773530E+03  0.20692484912E+03  0.89197915185E+03  0.93174114371E+03  0.10000000000E+00 0. -1.
</event>
<event>
 5    1  0.2022058E-009  0.3882933E+03  0.7957747E-01  0.3415824E+00
         13   -1    0    0    0    0  0.00000000000E+00  0.00000000000E+00  0.14999999963E+04  0.15000000000E+04  0.10566000000E+00 0. -1.
        994   -1    0    0    0    0 -0.00000000000E+00 -0.00000000000E+00  0.11368683772E-12  0.17120000000E+03  0.17120000000E+03 0.  0.
         13    1    1    2    0    0  0.26538878641E+03 -0.11984189199E+03  0.11158922286E+04  0.11532600591E+04  0.10566000000E+00 0. -1.
        994    1    1    2    0    0 -0.26889628606E+03  0.12106874595E+03  0.36919400128E+03  0.50256990009E+03  0.17120000000E+03 0.  0.
        998    1    1    2    0    0  0.35074996500E+01 -0.12268539605E+01  0.14913766425E+02  0.15370040775E+02  0.10000000000E+00 0. -1.
</event>
<event>
 5    1  0.2022058E-009  0.3883007E+03  0.7957747E-01  0.3415793E+00
         13   -1    0    0    0    0  0.00000000000E+00  0.00000000000E+00  0.14999999963E+04  0.15000000000E+04  0.10566000000E+00 0.  1.
        994   -1    0    0    0    0 -0.00000000000E+00 -0.00000000000E+00  0.11368683772E-12  0.17120000000E+03  0.17120000000E+03 0.  0.
         13    1    1    2    0    0  0.33782967040E+02  0.19150481664E+03  0.80025831400E+03  0.82354645524E+03  0.10566000000E+00 0.  1.
        994    1    1    2    0    0 -0.49135551178E+02 -0.27932724443E+03  0.33106309161E+03  0.46834839862E+03  0.17120000000E+03 0.  0.
        998    1    1    2    0    0  0.15352584138E+02  0.87822427791E+02  0.36867859067E+03  0.37930514613E+03  0.10000000000E+00 0.  1.
</event>
<event>
 5    1  0.2022058E-009  0.3864201E+03  0.7957747E-01  0.3423672E+00
         13   -1    0    0    0    0  0.00000000000E+00  0.00000000000E+00  0.14999999963E+04  0.15000000000E+04  0.10566000000E+00 0.  1.
        994   -1    0    0    0    0 -0.00000000000E+00 -0.00000000000E+00  0.11368683772E-12  0.17120000000E+03  0.17120000000E+03 0.  0.
         13    1    1    2    0    0  0.36766239354E+02  0.41872764846E+02  0.29164790613E+03  0.29692355431E+03  0.10566000000E+00 0.  1.
        994    1    1    2    0    0 -0.94828177509E+02 -0.13755741231E+03  0.98346405825E+02  0.25864237949E+03  0.17120000000E+03 0.  0.
        998    1    1    2    0    0  0.58061938155E+02  0.95684647463E+02  0.11100056843E+04  0.11156340662E+04  0.10000000000E+00 0.  1.
</event>
<event>
 5    1  0.2022058E-009  0.3882461E+03  0.7957747E-01  0.3416021E+00
         13   -1    0    0    0    0  0.00000000000E+00  0.00000000000E+00  0.14999999963E+04  0.15000000000E+04  0.10566000000E+00 0.  1.
        994   -1    0    0    0    0 -0.00000000000E+00 -0.00000000000E+00  0.11368683772E-12  0.17120000000E+03  0.17120000000E+03 0.  0.
         13    1    1    2    0    0 -0.22318627439E+03 -0.25809471356E+01  0.13139102768E+04  0.13327336572E+04  0.10566000000E+00 0.  1.
        994    1    1    2    0    0  0.22334292096E+03  0.28610629470E+01  0.18374594557E+03  0.33609858455E+03  0.17120000000E+03 0.  0.
        998    1    1    2    0    0 -0.15664657821E+00 -0.28011581142E+00  0.23437738771E+01  0.23677582236E+01  0.10000000000E+00 0. -1.
</event>
<event>
 5    1  0.2022058E-009  0.3882486E+03  0.7957747E-01  0.3416010E+00
         13   -1    0    0    0    0  0.00000000000E+00  0.00000000000E+00  0.14999999963E+04  0.15000000000E+04  0.10566000000E+00 0. -1.
        994   -1    0    0    0    0 -0.00000000000E+00 -0.00000000000E+00  0.11368683772E-12  0.17120000000E+03  0.17120000000E+03 0.  0.
         13    1    1    2    0    0  0.21030393521E+03  0.13124918426E+03  0.12554945907E+04  0.12797346490E+04  0.10566000000E+00 0. -1.
        994    1    1    2    0    0 -0.21186525008E+03 -0.13187601790E+03  0.23876298270E+03  0.38548070016E+03  0.17120000000E+03 0.  0.
        998    1    1    2    0    0  0.15613148741E+01  0.62683363844E+00  0.57424228892E+01  0.59846507989E+01  0.10000000000E+00 0. -1.
</event>
<event>
 5    1  0.2022058E-009  0.3881963E+03  0.7957747E-01  0.3416228E+00
         13   -1    0    0    0    0  0.00000000000E+00  0.00000000000E+00  0.14999999963E+04  0.15000000000E+04  0.10566000000E+00 0. -1.
        994   -1    0    0    0    0 -0.00000000000E+00 -0.00000000000E+00  0.11368683772E-12  0.17120000000E+03  0.17120000000E+03 0.  0.
         13    1    1    2    0    0 -0.73909282547E+02 -0.51316037981E+01  0.44622398058E+03  0.45233258496E+03  0.10566000000E+00 0. -1.
        994    1    1    2    0    0  0.20795608913E+03  0.26044532512E+02  0.15901150315E+03  0.31387601185E+03  0.17120000000E+03 0.  0.
        998    1    1    2    0    0 -0.13404680658E+03 -0.20912928714E+02  0.89476451255E+03  0.90499140319E+03  0.10000000000E+00 0. -1.
</event>
<event>
 5    1  0.2022058E-009  0.3882999E+03  0.7957747E-01  0.3415796E+00
         13   -1    0    0    0    0  0.00000000000E+00  0.00000000000E+00  0.14999999963E+04  0.15000000000E+04  0.10566000000E+00 0. -1.
        994   -1    0    0    0    0 -0.00000000000E+00 -0.00000000000E+00  0.11368683772E-12  0.17120000000E+03  0.17120000000E+03 0.  0.
         13    1    1    2    0    0  0.89755133403E+02  0.16293416749E+03  0.10568172148E+04  0.10730639140E+04  0.10566000000E+00 0. -1.
        994    1    1    2    0    0 -0.11021596677E+03 -0.20125117801E+03  0.19548977310E+03  0.34666307471E+03  0.17120000000E+03 0.  0.
        998    1    1    2    0    0  0.20460833370E+02  0.38317010521E+02  0.24769300842E+03  0.25147301131E+03  0.10000000000E+00 0.  1.
</event>
<event>
 5    1  0.2022058E-009  0.3881231E+03  0.7957747E-01  0.3416534E+00
         13   -1    0    0    0    0  0.00000000000E+00  0.00000000000E+00  0.14999999963E+04  0.15000000000E+04  0.10566000000E+00 0. -1.
        994   -1    0    0    0    0 -0.00000000000E+00 -0.00000000000E+00  0.11368683772E-12  0.17120000000E+03  0.17120000000E+03 0.  0.
         13    1    1    2    0    0 -0.25009557497E+03 -0.12755843001E+03  0.11624047341E+04  0.11958276325E+04  0.10566000000E+00 0. -1.
        994    1    1    2    0    0  0.25240889460E+03  0.12716951029E+03  0.32836839342E+03  0.46585145295E+03  0.17120000000E+03 0.  0.
        998    1    1    2    0    0 -0.23133196344E+01  0.38891972346E+00  0.92268687935E+01  0.95209145577E+01  0.10000000000E+00 0. -1.
</event>
<event>
 5    1  0.2022058E-009  0.3882572E+03  0.7957747E-01  0.3415974E+00
         13   -1    0    0    0    0  0.00000000000E+00  0.00000000000E+00  0.14999999963E+04  0.15000000000E+04  0.10566000000E+00 0. -1.
        994   -1    0    0    0    0 -0.00000000000E+00 -0.00000000000E+00  0.11368683772E-12  0.17120000000E+03  0.17120000000E+03 0.  0.
         13    1    1    2    0    0 -0.17259196925E+03 -0.19836103877E+03  0.12141740365E+04  0.12423178706E+04  0.10566000000E+00 0. -1.
        994    1    1    2    0    0  0.17340749281E+03  0.19964074577E+03  0.27564535457E+03  0.41858856581E+03  0.17120000000E+03 0.  0.
        998    1    1    2    0    0 -0.81552356154E+00 -0.12797070022E+01  0.10180605176E+02  0.10293563545E+02  0.10000000000E+00 0.  1.
</event>
<event>
 5    1  0.2022058E-009  0.3882996E+03  0.7957747E-01  0.3415798E+00
         13   -1    0    0    0    0  0.00000000000E+00  0.00000000000E+00  0.14999999963E+04  0.15000000000E+04  0.10566000000E+00 0.  1.
        994   -1    0    0    0    0 -0.00000000000E+00 -0.00000000000E+00  0.11368683772E-12  0.17120000000E+03  0.17120000000E+03 0.  0.
         13    1    1    2    0    0  0.17471207582E+03  0.56917867668E+02  0.94388605034E+03  0.96160534539E+03  0.10566000000E+00 0.  1.
        994    1    1    2    0    0 -0.23415770022E+03 -0.77053263550E+02  0.23168266578E+03  0.37914816579E+03  0.17120000000E+03 0.  0.
        998    1    1    2    0    0  0.59445624400E+02  0.20135395882E+02  0.32443128016E+03  0.33044648882E+03  0.10000000000E+00 0. -1.
</event>
<event>
 5    1  0.2022058E-009  0.3882881E+03  0.7957747E-01  0.3415845E+00
         13   -1    0    0    0    0  0.00000000000E+00  0.00000000000E+00  0.14999999963E+04  0.15000000000E+04  0.10566000000E+00 0. -1.
        994   -1    0    0    0    0 -0.00000000000E+00 -0.00000000000E+00  0.11368683772E-12  0.17120000000E+03  0.17120000000E+03 0.  0.
         13    1    1    2    0    0  0.22013698334E+03  0.34630614401E+02  0.12612326522E+04  0.12807682792E+04  0.10566000000E+00 0. -1.
        994    1    1    2    0    0 -0.22757959386E+03 -0.35009301024E+02  0.19710073847E+03  0.34810381182E+03  0.17120000000E+03 0.  0.
        998    1    1    2    0    0  0.74426105109E+01  0.37868662321E+00  0.41666605578E+02  0.42327908939E+02  0.10000000000E+00 0. -1.
</event>
<event>
 5    1  0.2022058E-009  0.3880325E+03  0.7957747E-01  0.3416912E+00
         13   -1    0    0    0    0  0.00000000000E+00  0.00000000000E+00  0.14999999963E+04  0.15000000000E+04  0.10566000000E+00 0.  1.
        994   -1    0    0    0    0 -0.00000000000E+00 -0.00000000000E+00  0.11368683772E-12  0.17120000000E+03  0.17120000000E+03 0.  0.
         13    1    1    2    0    0 -0.26833356174E+03 -0.17162741443E+03  0.93094676870E+03  0.98393128167E+03  0.10566000000E+00 0.  1.
        994    1    1    2    0    0  0.27731435788E+03  0.17603955011E+03  0.52771726558E+03  0.64473880656E+03  0.17120000000E+03 0.  0.
        998    1    1    2    0    0 -0.89807961433E+01 -0.44121356778E+01  0.41335962003E+02  0.42529911771E+02  0.10000000000E+00 0. -1.
</event>
<event>
 5    1  0.2022058E-009  0.3881393E+03  0.7957747E-01  0.3416466E+00
         13   -1    0    0    0    0  0.00000000000E+00  0.00000000000E+00  0.14999999963E+04  0.15000000000E+04  0.10566000000E+00 0. -1.
        994   -1    0    0    0    0 -0.00000000000E+00 -0.00000000000E+00  0.11368683772E-12  0.17120000000E+03  0.17120000000E+03 0.  0.
         13    1    1    2    0    0 -0.30667260546E+03  0.74908440376E+02  0.10346201858E+04  0.10817108215E+04  0.10566000000E+00 0. -1.
        994    1    1    2    0    0  0.30775188238E+03 -0.74266029186E+02  0.46057294453E+03  0.58451992390E+03  0.17120000000E+03 0.  0.
        998    1    1    2    0    0 -0.10792769202E+01 -0.64241118960E+00  0.48068659779E+01  0.49692546057E+01  0.10000000000E+00 0. -1.
</event>
<event>
 5    1  0.2022058E-009  0.3882935E+03  0.7957747E-01  0.3415823E+00
         13   -1    0    0    0    0  0.00000000000E+00  0.00000000000E+00  0.14999999963E+04  0.15000000000E+04  0.10566000000E+00 0.  1.
        994   -1    0    0    0    0 -0.00000000000E+00 -0.00000000000E+00  0.11368683772E-12  0.17120000000E+03  0.17120000000E+03 0.  0.
         13    1    1    2    0    0  0.36345329939E+02 -0.44481842198E+00  0.14340665682E+03  0.14794141156E+03  0.10566000000E+00 0.  1.
        994    1    1    2    0    0 -0.29450949715E+03 -0.11929256359E+01  0.36781861240E+03  0.50133545517E+03  0.17120000000E+03 0.  0.
        998    1    1    2    0    0  0.25816416721E+03  0.16377440579E+01  0.98877472706E+03  0.10219231333E+04  0.10000000000E+00 0.  1.
</event>
<event>
 5    1  0.2022058E-009  0.3882632E+03  0.7957747E-01  0.3415949E+00
         13   -1    0    0    0    0  0.00000000000E+00  0.00000000000E+00  0.14999999963E+04  0.15000000000E+04  0.10566000000E+00 0.  1.
        994   -1    0    0    0    0 -0.00000000000E+00 -0.00000000000E+00  0.11368683772E-12  0.17120000000E+03  0.17120000000E+03 0.  0.
         13    1    1    2    0    0  0.22375129962E+03  0.33454379287E+02  0.91759826188E+03  0.94507693917E+03  0.10566000000E+00 0.  1.
        994    1    1    2    0    0 -0.28424528596E+03 -0.45039829838E+02  0.34471294741E+03  0.48058342145E+03  0.17120000000E+03 0.  0.
        998    1    1    2    0    0  0.60493986335E+02  0.11585450552E+02  0.23768878699E+03  0.24553963938E+03  0.10000000000E+00 0. -1.
</event>
<event>
 5    1  0.2022058E-009  0.3879564E+03  0.7957747E-01  0.3417230E+00
         13   -1    0    0    0    0  0.00000000000E+00  0.00000000000E+00  0.14999999963E+04  0.15000000000E+04  0.10566000000E+00 0. -1.
        994   -1    0    0    0    0 -0.00000000000E+00 -0.00000000000E+00  0.11368683772E-12  0.17120000000E+03  0.17120000000E+03 0.  0.
         13    1    1    2    0    0 -0.29393510969E+03 -0.80572062550E+02  0.10455775239E+04  0.10890923173E+04  0.10566000000E+00 0. -1.
        994    1    1    2    0    0  0.29966042703E+03  0.79172725499E+02  0.43019346298E+03  0.55717191923E+03  0.17120000000E+03 0.  0.
        998    1    1    2    0    0 -0.57253173392E+01  0.13993370514E+01  0.24229009375E+02  0.24935763435E+02  0.10000000000E+00 0.  1.
</event>
<event>
 5    1  0.2022058E-009  0.3882611E+03  0.7957747E-01  0.3415958E+00
         13   -1    0    0    0    0  0.00000000000E+00  0.00000000000E+00  0.14999999963E+04  0.15000000000E+04  0.10566000000E+00 0. -1.
        994   -1    0    0    0    0 -0.00000000000E+00 -0.00000000000E+00  0.11368683772E-12  0.17120000000E+03  0.17120000000E+03 0.  0.
         13    1    1    2    0    0  0.22531878245E+03 -0.94536266906E+02  0.12586920195E+04  0.12821900291E+04  0.10566000000E+00 0. -1.
        994    1    1    2    0    0 -0.22737345763E+03  0.94663106487E+02  0.23124833595E+03  0.37874137065E+03  0.17120000000E+03 0.  0.
        998    1    1    2    0    0  0.20546751827E+01 -0.12683958064E+00  0.10059640811E+02  0.10268600276E+02  0.10000000000E+00 0.  1.
</event>
<event>
 5    1  0.2022058E-009  0.3882312E+03  0.7957747E-01  0.3416083E+00
         13   -1    0    0    0    0  0.00000000000E+00  0.00000000000E+00  0.14999999963E+04  0.15000000000E+04  0.10566000000E+00 0.  1.
        994   -1    0    0    0    0 -0.00000000000E+00 -0.00000000000E+00  0.11368683772E-12  0.17120000000E+03  0.17120000000E+03 0.  0.
         13    1    1    2    0    0  0.19568543788E+02 -0.20360245225E+03  0.10345513484E+04  0.10545773515E+04  0.10566000000E+00 0.  1.
        994    1    1    2    0    0 -0.23916427667E+02  0.24488201846E+03  0.23073976954E+03  0.37827170093E+03  0.17120000000E+03 0.  0.
        998    1    1    2    0    0  0.43478838788E+01 -0.41279566206E+02  0.23470887829E+03  0.23835094761E+03  0.10000000000E+00 0.  1.
</event>
<event>
 5    1  0.2022058E-009  0.3822211E+03  0.7957747E-01  0.3441544E+00
         13   -1    0    0    0    0  0.00000000000E+00  0.00000000000E+00  0.14999999963E+04  0.15000000000E+04  0.10566000000E+00 0.  1.
        994   -1    0    0    0    0 -0.00000000000E+00 -0.00000000000E+00  0.11368683772E-12  0.17120000000E+03  0.17120000000E+03 0.  0.
         13    1    1    2    0    0  0.42742351780E+02  0.16154563314E+03  0.87329426884E+03  0.88913822962E+03  0.10566000000E+00 0.  1.
        994    1    1    2    0    0 -0.87854354635E+01 -0.25945223252E+03  0.27404529354E+03  0.41449114315E+03  0.17120000000E+03 0.  0.
        998    1    1    2    0    0 -0.33956916317E+02  0.97906599375E+02  0.35266043389E+03  0.36757062723E+03  0.10000000000E+00 0.  1.
</event>
<event>
 5    1  0.2022058E-009  0.3882712E+03  0.7957747E-01  0.3415916E+00
         13   -1    0    0    0    0  0.00000000000E+00  0.00000000000E+00  0.14999999963E+04  0.15000000000E+04  0.10566000000E+00 0.  1.
        994   -1    0    0    0    0 -0.00000000000E+00 -0.00000000000E+00  0.11368683772E-12  0.17120000000E+03  0.17120000000E+03 0.  0.
         13    1    1    2    0    0 -0.11011313938E+03 -0.27937005561E+02  0.65746409233E+03  0.66720643253E+03  0.10566000000E+00 0.  1.
        994    1    1    2    0    0  0.21443843915E+03  0.54958277947E+02  0.17996984184E+03  0.33272036377E+03  0.17120000000E+03 0.  0.
        998    1    1    2    0    0 -0.10432529977E+03 -0.27021272386E+02  0.66256606211E+03  0.67127320369E+03  0.10000000000E+00 0.  1.
</event>
<event>
 5    1  0.2022058E-009  0.3883008E+03  0.7957747E-01  0.3415793E+00
         13   -1    0    0    0    0  0.00000000000E+00  0.00000000000E+00  0.14999999963E+04  0.15000000000E+04  0.10566000000E+00 0.  1.
        994   -1    0    0    0    0 -0.00000000000E+00 -0.00000000000E+00  0.11368683772E-12  0.17120000000E+03  0.17120000000E+03 0.  0.
         13    1    1    2    0    0 -0.15375018777E+03  0.88925984782E+02  0.92623556757E+03  0.94311149330E+03  0.10566000000E+00 0.  1.
        994    1    1    2    0    0  0.21164628495E+03 -0.12216327791E+03  0.22687295536E+03  0.37483168792E+03  0.17120000000E+03 0.  0.
        998    1    1    2    0    0 -0.57896097181E+02  0.33237293125E+02  0.34689147336E+03  0.35325681877E+03  0.10000000000E+00 0.  1.
</event>
<event>
 5    1  0.2022058E-009  0.3881820E+03  0.7957747E-01  0.3416288E+00
         13   -1    0    0    0    0  0.00000000000E+00  0.00000000000E+00  0.14999999963E+04  0.15000000000E+04  0.10566000000E+00 0.  1.
        994   -1    0    0    0    0 -0.00000000000E+00 -0.00000000000E+00  0.11368683772E-12  0.17120000000E+03  0.17120000000E+03 0.  0.
         13    1    1    2    0    0 -0.25106083134E+03  0.82212554219E+02  0.11176096488E+04  0.11484083696E+04  0.10566000000E+00 0.  1.
        994    1    1    2    0    0  0.26537204649E+03 -0.84005297313E+02  0.31504302000E+03  0.45391712623E+03  0.17120000000E+03 0.  0.
        998    1    1    2    0    0 -0.14311215147E+02  0.17927430941E+01  0.67347327515E+02  0.68874504210E+02  0.10000000000E+00 0. -1.
</event>
<event>
 5    1  0.2114755E-009  0.3882860E+03  0.7957747E-01  0.3415854E+00
         13   -1    0    0    0    0  0.00000000000E+00  0.00000000000E+00  0.14999999963E+04  0.15000000000E+04  0.10566000000E+00 0.  1.
        994   -1    0    0    0    0 -0.00000000000E+00 -0.00000000000E+00  0.11368683772E-12  0.17120000000E+03  0.17120000000E+03 0.  0.
         13    1    1    2    0    0 -0.13487828046E+03  0.17934978794E+03  0.13128222778E+04  0.13318636722E+04  0.10566000000E+00 0.  1.
        994    1    1    2    0    0  0.13507520031E+03 -0.17946016896E+03  0.18607882894E+03  0.33821004207E+03  0.17120000000E+03 0.  0.
        998    1    1    2    0    0 -0.19691985128E+00  0.11038102229E+00  0.10988894938E+01  0.11262857176E+01  0.10000000000E+00 0.  0.
</event>
<event>
 5    1  0.2022058E-009  0.3882931E+03  0.7957747E-01  0.3415825E+00
         13   -1    0    0    0    0  0.00000000000E+00  0.00000000000E+00  0.14999999963E+04  0.15000000000E+04  0.10566000000E+00 0. -1.
        994   -1    0    0    0    0 -0.00000000000E+00 -0.00000000000E+00  0.11368683772E-12  0.17120000000E+03  0.17120000000E+03 0.  0.
         13    1    1    2    0    0 -0.22217757186E+03 -0.53453034205E+02  0.12946788864E+04  0.13146914202E+04  0.10566000000E+00 0. -1.
        994    1    1    2    0    0  0.22365122162E+03  0.53555939708E+02  0.19653081386E+03  0.34759445969E+03  0.17120000000E+03 0.  0.
        998    1    1    2    0    0 -0.14736497622E+01 -0.10290550360E+00  0.87902960587E+01  0.89141201453E+01  0.10000000000E+00 0.  1.
</event>
<event>
 5    1  0.2022058E-009  0.3883003E+03  0.7957747E-01  0.3415795E+00
         13   -1    0    0    0    0  0.00000000000E+00  0.00000000000E+00  0.14999999963E+04  0.15000000000E+04  0.10566000000E+00 0. -1.
        994   -1    0    0    0    0 -0.00000000000E+00 -0.00000000000E+00  0.11368683772E-12  0.17120000000E+03  0.17120000000E+03 0.  0.
         13    1    1    2    0    0 -0.21652853952E+03  0.12071660873E+03  0.10945046980E+04  0.11222288773E+04  0.10566000000E+00 0. -1.
        994    1    1    2    0    0  0.23812961608E+03 -0.13250905778E+03  0.29771031973E+03  0.43841217926E+03  0.17120000000E+03 0.  0.
        998    1    1    2    0    0 -0.21601076559E+02  0.11792449050E+02  0.10778497859E+03  0.11055894343E+03  0.10000000000E+00 0.  1.
</event>
<event>
 5    1  0.2022058E-009  0.3883009E+03  0.7957747E-01  0.3415792E+00
         13   -1    0    0    0    0  0.00000000000E+00  0.00000000000E+00  0.14999999963E+04  0.15000000000E+04  0.10566000000E+00 0.  1.
        994   -1    0    0    0    0 -0.00000000000E+00 -0.00000000000E+00  0.11368683772E-12  0.17120000000E+03  0.17120000000E+03 0.  0.
         13    1    1    2    0    0  0.33416896282E+02 -0.24207278697E+03  0.86727701579E+03  0.90104681145E+03  0.10566000000E+00 0.  1.
        994    1    1    2    0    0 -0.41978605759E+02  0.30330384583E+03  0.41291332616E+03  0.54181388055E+03  0.17120000000E+03 0.  0.
        998    1    1    2    0    0  0.85617094770E+01 -0.61231058861E+02  0.21980965433E+03  0.22833930800E+03  0.10000000000E+00 0.  1.
</event>
<event>
 5    1  0.2022058E-009  0.3880097E+03  0.7957747E-01  0.3417007E+00
         13   -1    0    0    0    0  0.00000000000E+00  0.00000000000E+00  0.14999999963E+04  0.15000000000E+04  0.10566000000E+00 0.  1.
        994   -1    0    0    0    0 -0.00000000000E+00 -0.00000000000E+00  0.11368683772E-12  0.17120000000E+03  0.17120000000E+03 0.  0.
         13    1    1    2    0    0 -0.17359029970E+03  0.26087851687E+03  0.10305614886E+04  0.10771481726E+04  0.10566000000E+00 0.  1.
        994    1    1    2    0    0  0.17459835784E+03 -0.26442803785E+03  0.46250684763E+03  0.58619859934E+03  0.17120000000E+03 0.  0.
        998    1    1    2    0    0 -0.10080581354E+01  0.35495209892E+01  0.69316600458E+01  0.78532280909E+01  0.10000000000E+00 0. -1.
</event>
<event>
 5    1  0.2022058E-009  0.3832830E+03  0.7957747E-01  0.3436987E+00
         13   -1    0    0    0    0  0.00000000000E+00  0.00000000000E+00  0.14999999963E+04  0.15000000000E+04  0.10566000000E+00 0.  1.
        994   -1    0    0    0    0 -0.00000000000E+00 -0.00000000000E+00  0.11368683772E-12  0.17120000000E+03  0.17120000000E+03 0.  0.
         13    1    1    2    0    0 -0.27856310359E+02 -0.29533274977E+02  0.83113170138E+02  0.92498640920E+02  0.10566000000E+00 0.  1.
        994    1    1    2    0    0  0.27052961283E+03  0.10437138205E+03  0.36503733664E+03  0.49662999703E+03  0.17120000000E+03 0.  0.
        998    1    1    2    0    0 -0.24267330247E+03 -0.74838107078E+02  0.10518494895E+04  0.10820713621E+04  0.10000000000E+00 0.  1.
</event>
<event>
 5    1  0.2022058E-009  0.3866792E+03  0.7957747E-01  0.3422582E+00
         13   -1    0    0    0    0  0.00000000000E+00  0.00000000000E+00  0.14999999963E+04  0.15000000000E+04  0.10566000000E+00 0. -1.
        994   -1    0    0    0    0 -0.00000000000E+00 -0.00000000000E+00  0.11368683772E-12  0.17120000000E+03  0.17120000000E+03 0.  0.
         13    1    1    2    0    0 -0.12975978553E+02  0.10732488653E+02  0.90222726630E+02  0.91780792635E+02  0.10566000000E+00 0. -1.
        994    1    1    2    0    0  0.80723503974E+02 -0.34196150227E+02  0.26352622682E+02  0.19413799604E+03  0.17120000000E+03 0.  0.
        998    1    1    2    0    0 -0.67747525421E+02  0.23463661573E+02  0.13834246470E+04  0.13852812113E+04  0.10000000000E+00 0. -1.
</event>
<event>
 5    1  0.2022058E-009  0.3882981E+03  0.7957747E-01  0.3415804E+00
         13   -1    0    0    0    0  0.00000000000E+00  0.00000000000E+00  0.14999999963E+04  0.15000000000E+04  0.10566000000E+00 0. -1.
        994   -1    0    0    0    0 -0.00000000000E+00 -0.00000000000E+00  0.11368683772E-12  0.17120000000E+03  0.17120000000E+03 0.  0.
         13    1    1    2    0    0 -0.22406910998E+03 -0.10783601297E+02  0.12392689150E+04  0.12594088720E+04  0.10566000000E+00 0. -1.
        994    1    1    2    0    0  0.23420319990E+03  0.11641763564E+02  0.20568265842E+03  0.35581099685E+03  0.17120000000E+03 0.  0.
        998    1    1    2    0    0 -0.10134089918E+02 -0.85816226665E+00  0.55048422879E+02  0.55980131139E+02  0.10000000000E+00 0. -1.
</event>
<event>
 5    1  0.2022058E-009  0.3876679E+03  0.7957747E-01  0.3418436E+00
         13   -1    0    0    0    0  0.00000000000E+00  0.00000000000E+00  0.14999999963E+04  0.15000000000E+04  0.10566000000E+00 0.  1.
        994   -1    0    0    0    0 -0.00000000000E+00 -0.00000000000E+00  0.11368683772E-12  0.17120000000E+03  0.17120000000E+03 0.  0.
         13    1    1    2    0    0 -0.51491289572E+02 -0.10297480303E+03  0.63789471530E+03  0.64820123568E+03  0.10566000000E+00 0.  1.
        994    1    1    2    0    0  0.11348553809E+03  0.22879172440E+03  0.25365522063E+03  0.39859130882E+03  0.17120000000E+03 0.  0.
        998    1    1    2    0    0 -0.61994248520E+02 -0.12581692137E+03  0.60845006035E+03  0.62440745551E+03  0.10000000000E+00 0.  1.
</event>
<event>
 5    1  0.2022058E-009  0.3881995E+03  0.7957747E-01  0.3416215E+00
         13   -1    0    0    0    0  0.00000000000E+00  0.00000000000E+00  0.14999999963E+04  0.15000000000E+04  0.10566000000E+00 0.  1.
        994   -1    0    0    0    0 -0.00000000000E+00 -0.00000000000E+00  0.11368683772E-12  0.17120000000E+03  0.17120000000E+03 0.  0.
         13    1    1    2    0    0  0.14217835269E+03 -0.22887769456E+03  0.11656195771E+04  0.11963564238E+04  0.10566000000E+00 0.  1.
        994    1    1    2    0    0 -0.14714647353E+03  0.23344594539E+03  0.30786025473E+03  0.44747789950E+03  0.17120000000E+03 0.  0.
        998    1    1    2    0    0  0.49681208487E+01 -0.45682508323E+01  0.26520164395E+02  0.27365676676E+02  0.10000000000E+00 0. -1.
</event>
<event>
 5    1  0.2022058E-009  0.3742333E+03  0.7957747E-01  0.3476659E+00
         13   -1    0    0    0    0  0.00000000000E+00  0.00000000000E+00  0.14999999963E+04  0.15000000000E+04  0.10566000000E+00 0.  1.
        994   -1    0    0    0    0 -0.00000000000E+00 -0.00000000000E+00  0.11368683772E-12  0.17120000000E+03  0.17120000000E+03 0.  0.
         13    1    1    2    0    0  0.23814647998E+02 -0.22976681705E+03  0.82506984464E+03  0.85679646789E+03  0.10566000000E+00 0.  1.
        994    1    1    2    0    0  0.39505204601E+02  0.26858610125E+03  0.32532321862E+03  0.45699430144E+03  0.17120000000E+03 0.  0.
        998    1    1    2    0    0 -0.63319852599E+02 -0.38819284196E+02  0.34960693302E+03  0.35740923068E+03  0.10000000000E+00 0. -1.
</event>
<event>
 5    1  0.2022058E-009  0.3883007E+03  0.7957747E-01  0.3415793E+00
         13   -1    0    0    0    0  0.00000000000E+00  0.00000000000E+00  0.14999999963E+04  0.15000000000E+04  0.10566000000E+00 0.  1.
        994   -1    0    0    0    0 -0.00000000000E+00 -0.00000000000E+00  0.11368683772E-12  0.17120000000E+03  0.17120000000E+03 0.  0.
         13    1    1    2    0    0 -0.17482582133E+03 -0.19491210034E+03  0.89732981646E+03  0.93474895311E+03  0.10566000000E+00 0.  1.
        994    1    1    2    0    0  0.20757302879E+03  0.23151274289E+03  0.43342648789E+03  0.56022555530E+03  0.17120000000E+03 0.  0.
        998    1    1    2    0    0 -0.32747207454E+02 -0.36600642549E+02  0.16924369193E+03  0.17622549160E+03  0.10000000000E+00 0.  1.
</event>
<event>
 5    1  0.2022058E-009  0.3882997E+03  0.7957747E-01  0.3415797E+00
         13   -1    0    0    0    0  0.00000000000E+00  0.00000000000E+00  0.14999999963E+04  0.15000000000E+04  0.10566000000E+00 0. -1.
        994   -1    0    0    0    0 -0.00000000000E+00 -0.00000000000E+00  0.11368683772E-12  0.17120000000E+03  0.17120000000E+03 0.  0.
         13    1    1    2    0    0 -0.16590611261E+03 -0.18908291617E+03  0.10371800950E+04  0.10672486815E+04  0.10566000000E+00 0. -1.
        994    1    1    2    0    0  0.18673842356E+03  0.21301826274E+03  0.33000289613E+03  0.46739637413E+03  0.17120000000E+03 0.  0.
        998    1    1    2    0    0 -0.20832310954E+02 -0.23935346568E+02  0.13281700510E+03  0.13655494440E+03  0.10000000000E+00 0. -1.
</event>
<event>
 5    1  0.2022058E-009  0.3882946E+03  0.7957747E-01  0.3415818E+00
         13   -1    0    0    0    0  0.00000000000E+00  0.00000000000E+00  0.14999999963E+04  0.15000000000E+04  0.10566000000E+00 0.  1.
        994   -1    0    0    0    0 -0.00000000000E+00 -0.00000000000E+00  0.11368683772E-12  0.17120000000E+03  0.17120000000E+03 0.  0.
         13    1    1    2    0    0  0.62426896837E+02  0.25306912045E+03  0.10746091477E+04  0.11057693831E+04  0.10566000000E+00 0.  1.
        994    1    1    2    0    0 -0.67937582354E+02 -0.27584190422E+03  0.33257030913E+03  0.46969854346E+03  0.17120000000E+03 0.  0.
        998    1    1    2    0    0  0.55106855163E+01  0.22772783771E+02  0.92820539500E+02  0.95732073458E+02  0.10000000000E+00 0.  1.
</event>
<event>
 5    1  0.2022058E-009  0.3882824E+03  0.7957747E-01  0.3415869E+00
         13   -1    0    0    0    0  0.00000000000E+00  0.00000000000E+00  0.14999999963E+04  0.15000000000E+04  0.10566000000E+00 0. -1.
        994   -1    0    0    0    0 -0.00000000000E+00 -0.00000000000E+00  0.11368683772E-12  0.17120000000E+03  0.17120000000E+03 0.  0.
         13    1    1    2    0    0  0.24861397742E+03  0.15984335969E+03  0.10229457330E+04  0.10647895535E+04  0.10566000000E+00 0. -1.
        994    1    1    2    0    0 -0.26015139568E+03 -0.16847635907E+03  0.42903949422E+03  0.55627992939E+03  0.17120000000E+03 0.  0.
        998    1    1    2    0    0  0.11537418264E+02  0.86329993820E+01  0.48014769100E+02  0.50130517155E+02  0.10000000000E+00 0. -1.
</event>
<event>
 5    1  0.2022058E-009  0.3871441E+03  0.7957747E-01  0.3420630E+00
         13   -1    0    0    0    0  0.00000000000E+00  0.00000000000E+00  0.14999999963E+04  0.15000000000E+04  0.10566000000E+00 0.  1.
        994   -1    0    0    0    0 -0.00000000000E+00 -0.00000000000E+00  0.11368683772E-12  0.17120000000E+03  0.17120000000E+03 0.  0.
         13    1    1    2    0    0 -0.18990881838E+03  0.98073618050E+02  0.11546701391E+04  0.11742857128E+04  0.10566000000E+00 0.  1.
        994    1    1    2    0    0  0.19987735799E+03 -0.10920493041E+03  0.19367037363E+03  0.34452043290E+03  0.17120000000E+03 0.  0.
        998    1    1    2    0    0 -0.99685396090E+01  0.11131312364E+02  0.15165948351E+03  0.15239385432E+03  0.10000000000E+00 0.  1.
</event>
<event>
 5    1  0.2022058E-009  0.3883008E+03  0.7957747E-01  0.3415792E+00
         13   -1    0    0    0    0  0.00000000000E+00  0.00000000000E+00  0.14999999963E+04  0.15000000000E+04  0.10566000000E+00 0.  1.
        994   -1    0    0    0    0 -0.00000000000E+00 -0.00000000000E+00  0.11368683772E-12  0.17120000000E+03  0.17120000000E+03 0.  0.
         13    1    1    2    0    0  0.59653512547E+01 -0.19396451704E+03  0.11627000843E+04  0.11787829811E+04  0.10566000000E+00 0.  1.
        994    1    1    2    0    0 -0.66692423460E+01  0.22051417095E+03  0.17853078956E+03  0.33144179157E+03  0.17120000000E+03 0.  0.
        998    1    1    2    0    0  0.70389109132E+00 -0.26549653904E+02  0.15876912239E+03  0.16097522731E+03  0.10000000000E+00 0. -1.
</event>
<event>
 5    1  0.2022058E-009  0.3882490E+03  0.7957747E-01  0.3416008E+00
         13   -1    0    0    0    0  0.00000000000E+00  0.00000000000E+00  0.14999999963E+04  0.15000000000E+04  0.10566000000E+00 0. -1.
        994   -1    0    0    0    0 -0.00000000000E+00 -0.00000000000E+00  0.11368683772E-12  0.17120000000E+03  0.17120000000E+03 0.  0.
         13    1    1    2    0    0 -0.44704723632E+02  0.23835925565E+03  0.12613379448E+04  0.12844403720E+04  0.10566000000E+00 0. -1.
        994    1    1    2    0    0  0.45422492721E+02 -0.23986073763E+03  0.22639596570E+03  0.37438075483E+03  0.17120000000E+03 0.  0.
        998    1    1    2    0    0 -0.71776908871E+00  0.15014819821E+01  0.12266085742E+02  0.12378873132E+02  0.10000000000E+00 0. -1.
</event>
<event>
 5    1  0.2022058E-009  0.3882811E+03  0.7957747E-01  0.3415875E+00
         13   -1    0    0    0    0  0.00000000000E+00  0.00000000000E+00  0.14999999963E+04  0.15000000000E+04  0.10566000000E+00 0. -1.
        994   -1    0    0    0    0 -0.00000000000E+00 -0.00000000000E+00  0.11368683772E-12  0.17120000000E+03  0.17120000000E+03 0.  0.
         13    1    1    2    0    0 -0.16017537228E+03 -0.17381758908E+03  0.11565465798E+04  0.11804527549E+04  0.10566000000E+00 0. -1.
        994    1    1    2    0    0  0.17416571574E+03  0.18702711638E+03  0.25304516102E+03  0.39831411263E+03  0.17120000000E+03 0.  0.
        998    1    1    2    0    0 -0.13990343468E+02 -0.13209527308E+02  0.90408255472E+02  0.92433132477E+02  0.10000000000E+00 0.  1.
</event>
<event>
 5    1  0.2022058E-009  0.3882925E+03  0.7957747E-01  0.3415827E+00
         13   -1    0    0    0    0  0.00000000000E+00  0.00000000000E+00  0.14999999963E+04  0.15000000000E+04  0.10566000000E+00 0.  1.
        994   -1    0    0    0    0 -0.00000000000E+00 -0.00000000000E+00  0.11368683772E-12  0.17120000000E+03  0.17120000000E+03 0.  0.
         13    1    1    2    0    0 -0.42187695802E+02  0.20555812882E+03  0.12359439383E+04  0.12536312758E+04  0.10566000000E+00 0.  1.
        994    1    1    2    0    0  0.44287874901E+02 -0.21845931947E+03  0.18282204690E+03  0.33528977163E+03  0.17120000000E+03 0.  0.
        998    1    1    2    0    0 -0.21001790989E+01  0.12901190647E+02  0.81234011115E+02  0.82278952559E+02  0.10000000000E+00 0. -1.
</event>
<event>
 5    1  0.2022058E-009  0.3882749E+03  0.7957747E-01  0.3415901E+00
         13   -1    0    0    0    0  0.00000000000E+00  0.00000000000E+00  0.14999999963E+04  0.15000000000E+04  0.10566000000E+00 0. -1.
        994   -1    0    0    0    0 -0.00000000000E+00 -0.00000000000E+00  0.11368683772E-12  0.17120000000E+03  0.17120000000E+03 0.  0.
         13    1    1    2    0    0  0.59593561414E+02 -0.18213364140E+03  0.11037108939E+04  0.11202239974E+04  0.10566000000E+00 0. -1.
        994    1    1    2    0    0 -0.71790569084E+02  0.21394715187E+03  0.18812225363E+03  0.34003925055E+03  0.17120000000E+03 0.  0.
        998    1    1    2    0    0  0.12197007670E+02 -0.31813510470E+02  0.20816684877E+03  0.21093675206E+03  0.10000000000E+00 0. -1.
</event>
<event>
 5    1  0.2022058E-009  0.3882945E+03  0.7957747E-01  0.3415819E+00
         13   -1    0    0    0    0  0.00000000000E+00  0.00000000000E+00  0.14999999963E+04  0.15000000000E+04  0.10566000000E+00 0. -1.
        994   -1    0    0    0    0 -0.00000000000E+00 -0.00000000000E+00  0.11368683772E-12  0.17120000000E+03  0.17120000000E+03 0.  0.
         13    1    1    2    0    0  0.71615532071E+02  0.18896695413E+03  0.10369577107E+04  0.10564651433E+04  0.10566000000E+00 0. -1.
        994    1    1    2    0    0 -0.88918052150E+02 -0.23077650948E+03  0.23352176943E+03  0.38079663092E+03  0.17120000000E+03 0.  0.
        998    1    1    2    0    0  0.17302520079E+02  0.41809555351E+02  0.22952051617E+03  0.23393822574E+03  0.10000000000E+00 0. -1.
</event>
<event>
 5    1  0.2022058E-009  0.3882662E+03  0.7957747E-01  0.3415937E+00
         13   -1    0    0    0    0  0.00000000000E+00  0.00000000000E+00  0.14999999963E+04  0.15000000000E+04  0.10566000000E+00 0.  1.
        994   -1    0    0    0    0 -0.00000000000E+00 -0.00000000000E+00  0.11368683772E-12  0.17120000000E+03  0.17120000000E+03 0.  0.
         13    1    1    2    0    0 -0.96957954655E+02 -0.12577456112E+03  0.70354781252E+03  0.72124865398E+03  0.10566000000E+00 0.  1.
        994    1    1    2    0    0  0.16182090776E+03  0.21951721880E+03  0.29835093243E+03  0.43897213399E+03  0.17120000000E+03 0.  0.
        998    1    1    2    0    0 -0.64862953102E+02 -0.93742657681E+02  0.49810125133E+03  0.51097921203E+03  0.10000000000E+00 0.  1.
</event>
<event>
 5    1  0.2022058E-009  0.3881476E+03  0.7957747E-01  0.3416431E+00
         13   -1    0    0    0    0  0.00000000000E+00  0.00000000000E+00  0.14999999963E+04  0.15000000000E+04  0.10566000000E+00 0. -1.
        994   -1    0    0    0    0 -0.00000000000E+00 -0.00000000000E+00  0.11368683772E-12  0.17120000000E+03  0.17120000000E+03 0.  0.
         13    1    1    2    0    0  0.24640299580E+03  0.23693172010E+03  0.82325962994E+03  0.89140759801E+03  0.10566000000E+00 0. -1.
        994    1    1    2    0    0 -0.24909012914E+03 -0.23769197915E+03  0.67003618582E+03  0.77252915783E+03  0.17120000000E+03 0.  0.
        998    1    1    2    0    0  0.26871333403E+01  0.76025904923E+00  0.67041805180E+01  0.72632441669E+01  0.10000000000E+00 0. -1.
</event>
<event>
 5    1  0.2022058E-009  0.3853773E+03  0.7957747E-01  0.3428074E+00
         13   -1    0    0    0    0  0.00000000000E+00  0.00000000000E+00  0.14999999963E+04  0.15000000000E+04  0.10566000000E+00 0.  1.
        994   -1    0    0    0    0 -0.00000000000E+00 -0.00000000000E+00  0.11368683772E-12  0.17120000000E+03  0.17120000000E+03 0.  0.
         13    1    1    2    0    0  0.52488260745E-01 -0.20749969999E+02  0.12019380205E+03  0.12197182144E+03  0.10566000000E+00 0.  1.
        994    1    1    2    0    0  0.77723997858E+02  0.47572877477E+02  0.29211423212E+02  0.19612992062E+03  0.17120000000E+03 0.  0.
        998    1    1    2    0    0 -0.77776486118E+02 -0.26822907478E+02  0.13505947710E+04  0.13530982579E+04  0.10000000000E+00 0.  1.
</event>
<event>
 5    1  0.2022058E-009  0.2769623E+03  0.7957747E-01  0.4075581E+00
         13   -1    0    0    0    0  0.00000000000E+00  0.00000000000E+00  0.14999999963E+04  0.15000000000E+04  0.10566000000E+00 0. -1.
        994   -1    0    0    0    0 -0.00000000000E+00 -0.00000000000E+00  0.11368683772E-12  0.17120000000E+03  0.17120000000E+03 0.  0.
         13    1    1    2    0    0 -0.12855719079E+03 -0.18675125563E+02  0.69422695186E+03  0.70627670461E+03  0.10566000000E+00 0. -1.
        994    1    1    2    0    0  0.78389554076E+01  0.47518467124E+02  0.31312946692E+02  0.18058071483E+03  0.17120000000E+03 0.  0.
        998    1    1    2    0    0  0.12071823538E+03 -0.28843341560E+02  0.77446009772E+03  0.78434258055E+03  0.10000000000E+00 0. -1.
</event>
<event>
 5    1  0.2022058E-009  0.3820627E+03  0.7957747E-01  0.3442226E+00
         13   -1    0    0    0    0  0.00000000000E+00  0.00000000000E+00  0.14999999963E+04  0.15000000000E+04  0.10566000000E+00 0.  1.
        994   -1    0    0    0    0 -0.00000000000E+00 -0.00000000000E+00  0.11368683772E-12  0.17120000000E+03  0.17120000000E+03 0.  0.
         13    1    1    2    0    0 -0.30579057006E+02 -0.11535776243E+02  0.19211550782E+03  0.19487568440E+03  0.10566000000E+00 0.  1.
        994    1    1    2    0    0 -0.10808769741E+02  0.56920496298E+02  0.14322166968E+02  0.18130454178E+03  0.17120000000E+03 0.  0.
        998    1    1    2    0    0  0.41387826747E+02 -0.45384720056E+02  0.12935623215E+04  0.12950197738E+04  0.10000000000E+00 0.  1.
</event>
<event>
 5    1  0.2022058E-009  0.3882985E+03  0.7957747E-01  0.3415802E+00
         13   -1    0    0    0    0  0.00000000000E+00  0.00000000000E+00  0.14999999963E+04  0.15000000000E+04  0.10566000000E+00 0.  1.
        994   -1    0    0    0    0 -0.00000000000E+00 -0.00000000000E+00  0.11368683772E-12  0.17120000000E+03  0.17120000000E+03 0.  0.
         13    1    1    2    0    0 -0.14994845900E+03 -0.17554408568E+03  0.11186647296E+04  0.11422394910E+04  0.10566000000E+00 0.  1.
        994    1    1    2    0    0  0.16678833713E+03  0.19569773773E+03  0.25687329231E+03  0.40175774076E+03  0.17120000000E+03 0.  0.
        998    1    1    2    0    0 -0.16839878125E+02 -0.20153652054E+02  0.12446197440E+03  0.12720276828E+03  0.10000000000E+00 0.  1.
</event>
<event>
 5    1  0.2022058E-009  0.3826610E+03  0.7957747E-01  0.3439653E+00
         13   -1    0    0    0    0  0.00000000000E+00  0.00000000000E+00  0.14999999963E+04  0.15000000000E+04  0.10566000000E+00 0.  1.
        994   -1    0    0    0    0 -0.00000000000E+00 -0.00000000000E+00  0.11368683772E-12  0.17120000000E+03  0.17120000000E+03 0.  0.
         13    1    1    2    0    0  0.17335084246E+02  0.15008040999E+02  0.12741728582E+03  0.12946398082E+03  0.10566000000E+00 0.  1.
        994    1    1    2    0    0 -0.24250541713E+03  0.11170417779E+03  0.29343383860E+03  0.43208744290E+03  0.17120000000E+03 0.  0.
        998    1    1    2    0    0  0.22517033289E+03 -0.12671221879E+03  0.10791488719E+04  0.11096485763E+04  0.10000000000E+00 0.  1.
</event>
<event>
 5    1  0.2022058E-009  0.3882949E+03  0.7957747E-01  0.3415817E+00
         13   -1    0    0    0    0  0.00000000000E+00  0.00000000000E+00  0.14999999963E+04  0.15000000000E+04  0.10566000000E+00 0. -1.
        994   -1    0    0    0    0 -0.00000000000E+00 -0.00000000000E+00  0.11368683772E-12  0.17120000000E+03  0.17120000000E+03 0.  0.
         13    1    1    2    0    0 -0.11616072308E+03 -0.28835856087E+03  0.10595100615E+04  0.11041764147E+04  0.10566000000E+00 0. -1.
        994    1    1    2    0    0  0.11644595581E+03  0.28918012523E+03  0.43706829968E+03  0.56349174265E+03  0.17120000000E+03 0.  0.
        998    1    1    2    0    0 -0.28523272702E+00 -0.82156435858E+00  0.34216350622E+01  0.35318426073E+01  0.10000000000E+00 0.  1.
</event>
<event>
 5    1  0.2022058E-009  0.3378128E+03  0.7957747E-01  0.3658296E+00
         13   -1    0    0    0    0  0.00000000000E+00  0.00000000000E+00  0.14999999963E+04  0.15000000000E+04  0.10566000000E+00 0.  1.
        994   -1    0    0    0    0 -0.00000000000E+00 -0.00000000000E+00  0.11368683772E-12  0.17120000000E+03  0.17120000000E+03 0.  0.
         13    1    1    2    0    0 -0.20713387480E+03  0.13079862061E+03  0.10662440164E+04  0.10940242387E+04  0.10566000000E+00 0.  1.
        994    1    1    2    0    0  0.19036385780E+03 -0.32653375939E+02  0.21167821847E+03  0.33379896569E+03  0.17120000000E+03 0.  0.
        998    1    1    2    0    0  0.16770016998E+02 -0.98145244668E+02  0.22207776140E+03  0.24337679559E+03  0.10000000000E+00 0.  1.
</event>
<event>
 5    1  0.2022058E-009  0.3882925E+03  0.7957747E-01  0.3415827E+00
         13   -1    0    0    0    0  0.00000000000E+00  0.00000000000E+00  0.14999999963E+04  0.15000000000E+04  0.10566000000E+00 0. -1.
        994   -1    0    0    0    0 -0.00000000000E+00 -0.00000000000E+00  0.11368683772E-12  0.17120000000E+03  0.17120000000E+03 0.  0.
         13    1    1    2    0    0 -0.28333542956E+03  0.81696263940E+02  0.11200094736E+04  0.11581772219E+04  0.10566000000E+00 0. -1.
        994    1    1    2    0    0  0.28460924084E+03 -0.82107259440E+02  0.37399313300E+03  0.50687703199E+03  0.17120000000E+03 0.  0.
        998    1    1    2    0    0 -0.12738112797E+01  0.41099550020E+00  0.59973897156E+01  0.61457461612E+01  0.10000000000E+00 0. -1.
</event>
<event>
 5    1  0.2022058E-009  0.3882784E+03  0.7957747E-01  0.3415886E+00
         13   -1    0    0    0    0  0.00000000000E+00  0.00000000000E+00  0.14999999963E+04  0.15000000000E+04  0.10566000000E+00 0.  1.
        994   -1    0    0    0    0 -0.00000000000E+00 -0.00000000000E+00  0.11368683772E-12  0.17120000000E+03  0.17120000000E+03 0.  0.
         13    1    1    2    0    0  0.24499263377E+03 -0.88733411230E+02  0.11753348199E+04  0.12038716538E+04  0.10566000000E+00 0.  1.
        994    1    1    2    0    0 -0.25300136614E+03  0.90558060717E+02  0.28714592589E+03  0.42892036135E+03  0.17120000000E+03 0.  0.
        998    1    1    2    0    0  0.80087323664E+01 -0.18246494867E+01  0.37519250520E+02  0.38407984839E+02  0.10000000000E+00 0.  1.
</event>
<event>
 5    1  0.2022058E-009  0.3881740E+03  0.7957747E-01  0.3416321E+00
         13   -1    0    0    0    0  0.00000000000E+00  0.00000000000E+00  0.14999999963E+04  0.15000000000E+04  0.10566000000E+00 0.  1.
        994   -1    0    0    0    0 -0.00000000000E+00 -0.00000000000E+00  0.11368683772E-12  0.17120000000E+03  0.17120000000E+03 0.  0.
         13    1    1    2    0    0  0.44142951492E+02  0.22011407291E+03  0.13074521266E+04  0.13265857981E+04  0.10566000000E+00 0.  1.
        994    1    1    2    0    0 -0.45115061698E+02 -0.22068455165E+03  0.18743915613E+03  0.33938166918E+03  0.17120000000E+03 0.  0.
        998    1    1    2    0    0  0.97211020628E+00  0.57047874249E+00  0.51087135731E+01  0.52325327157E+01  0.10000000000E+00 0. -1.
</event>
<event>
 5    1  0.2022058E-009  0.3745833E+03  0.7957747E-01  0.3475089E+00
         13   -1    0    0    0    0  0.00000000000E+00  0.00000000000E+00  0.14999999963E+04  0.15000000000E+04  0.10566000000E+00 0. -1.
        994   -1    0    0    0    0 -0.00000000000E+00 -0.00000000000E+00  0.11368683772E-12  0.17120000000E+03  0.17120000000E+03 0.  0.
         13    1    1    2    0    0 -0.14072514042E+02  0.70083714819E+01  0.42489291373E+01  0.16285499229E+02  0.10566000000E+00 0. -1.
        994    1    1    2    0    0 -0.15757611990E+03 -0.18070794223E+02  0.10907495342E+03  0.25761128203E+03  0.17120000000E+03 0.  0.
        998    1    1    2    0    0  0.17164863394E+03  0.11062422741E+02  0.13866761137E+04  0.13973032187E+04  0.10000000000E+00 0. -1.
</event>
<event>
 5    1  0.2404928E-009  0.3882863E+03  0.7957747E-01  0.3415853E+00
         13   -1    0    0    0    0  0.00000000000E+00  0.00000000000E+00  0.14999999963E+04  0.15000000000E+04  0.10566000000E+00 0. -1.
        994   -1    0    0    0    0 -0.00000000000E+00 -0.00000000000E+00  0.11368683772E-12  0.17120000000E+03  0.17120000000E+03 0.  0.
         13    1    1    2    0    0 -0.28566511745E+03 -0.79391414191E+02  0.11210150637E+04  0.11595612706E+04  0.10566000000E+00 0. -1.
        994    1    1    2    0    0  0.28617994499E+03  0.79369896233E+02  0.37682698042E+03  0.50941785845E+03  0.17120000000E+03 0.  0.
        998    1    1    2    0    0 -0.51482753444E+00  0.21517958260E-01  0.21579521286E+01  0.22208709557E+01  0.10000000000E+00 0. -1.
</event>
<event>
 5    1  0.2022058E-009  0.3883003E+03  0.7957747E-01  0.3415795E+00
         13   -1    0    0    0    0  0.00000000000E+00  0.00000000000E+00  0.14999999963E+04  0.15000000000E+04  0.10566000000E+00 0. -1.
        994   -1    0    0    0    0 -0.00000000000E+00 -0.00000000000E+00  0.11368683772E-12  0.17120000000E+03  0.17120000000E+03 0.  0.
         13    1    1    2    0    0 -0.17711136838E+03  0.10917162735E+03  0.10771414355E+04  0.10970508485E+04  0.10566000000E+00 0. -1.
        994    1    1    2    0    0  0.20912273085E+03 -0.12901952776E+03  0.22989530368E+03  0.37754423020E+03  0.17120000000E+03 0.  0.
        998    1    1    2    0    0 -0.32011362469E+02  0.19847900409E+02  0.19296325710E+03  0.19660492127E+03  0.10000000000E+00 0.  1.
</event>
<event>
 5    1  0.2022058E-009  0.3882967E+03  0.7957747E-01  0.3415810E+00
         13   -1    0    0    0    0  0.00000000000E+00  0.00000000000E+00  0.14999999963E+04  0.15000000000E+04  0.10566000000E+00 0. -1.
        994   -1    0    0    0    0 -0.00000000000E+00 -0.00000000000E+00  0.11368683772E-12  0.17120000000E+03  0.17120000000E+03 0.  0.
         13    1    1    2    0    0  0.87290915110E+02  0.19895034915E+03  0.12953281418E+04  0.13134214675E+04  0.10566000000E+00 0. -1.
        994    1    1    2    0    0 -0.88632225391E+02 -0.20277093329E+03  0.17980132759E+03  0.33258033642E+03  0.17120000000E+03 0.  0.
        998    1    1    2    0    0  0.13413102807E+01  0.38205841377E+01  0.24870526880E+02  0.25198196041E+02  0.10000000000E+00 0. -1.
</event>
<event>
 5    1  0.2022058E-009  0.3882928E+03  0.7957747E-01  0.3415826E+00
         13   -1    0    0    0    0  0.00000000000E+00  0.00000000000E+00  0.14999999963E+04  0.15000000000E+04  0.10566000000E+00 0.  1.
        994   -1    0    0    0    0 -0.00000000000E+00 -0.00000000000E+00  0.11368683772E-12  0.17120000000E+03  0.17120000000E+03 0.  0.
         13    1    1    2    0    0 -0.31759099942E+02  0.30260273864E+03  0.10783303926E+04  0.11204345160E+04  0.10566000000E+00 0.  1.
        994    1    1    2    0    0  0.32257431604E+02 -0.30471838645E+03  0.41388387757E+03  0.54268143607E+03  0.17120000000E+03 0.  0.
        998    1    1    2    0    0 -0.49833166214E+00  0.21156478112E+01  0.77857261248E+01  0.80840479586E+01  0.10000000000E+00 0. -1.
</event>
<event>
 5    1  0.2022058E-009  0.3882469E+03  0.7957747E-01  0.3416017E+00
         13   -1    0    0    0    0  0.00000000000E+00  0.00000000000E+00  0.14999999963E+04  0.15000000000E+04  0.10566000000E+00 0. -1.
        994   -1    0    0    0    0 -0.00000000000E+00 -0.00000000000E+00  0.11368683772E-12  0.17120000000E+03  0.17120000000E+03 0.  0.
         13    1    1    2    0    0  0.24326826785E+03  0.19538147457E+02  0.12592231455E+04  0.12826551098E+04  0.10566000000E+00 0. -1.
        994    1    1    2    0    0 -0.24550006544E+03 -0.20335859292E+02  0.23138071967E+03  0.37885393852E+03  0.17120000000E+03 0.  0.
        998    1    1    2    0    0  0.22317975893E+01  0.79771183489E+00  0.93961310776E+01  0.96909516498E+01  0.10000000000E+00 0.  1.
</event>
<event>
 5    1  0.2022058E-009  0.3882559E+03  0.7957747E-01  0.3415980E+00
         13   -1    0    0    0    0  0.00000000000E+00  0.00000000000E+00  0.14999999963E+04  0.15000000000E+04  0.10566000000E+00 0.  1.
        994   -1    0    0    0    0 -0.00000000000E+00 -0.00000000000E+00  0.11368683772E-12  0.17120000000E+03  0.17120000000E+03 0.  0.
         13    1    1    2    0    0 -0.35593477820E+02  0.21712099834E+03  0.13210161131E+04  0.13392132041E+04  0.10566000000E+00 0.  1.
        994    1    1    2    0    0  0.35629922718E+02 -0.21745746967E+03  0.17810804478E+03  0.33104253220E+03  0.17120000000E+03 0.  0.
        998    1    1    2    0    0 -0.36444897590E-01  0.33647133422E+00  0.87583834643E+00  0.94426373349E+00  0.10000000000E+00 0.  1.
</event>
<event>
 5    1  0.2022058E-009  0.3883004E+03  0.7957747E-01  0.3415794E+00
         13   -1    0    0    0    0  0.00000000000E+00  0.00000000000E+00  0.14999999963E+04  0.15000000000E+04  0.10566000000E+00 0.  1.
        994   -1    0    0    0    0 -0.00000000000E+00 -0.00000000000E+00  0.11368683772E-12  0.17120000000E+03  0.17120000000E+03 0.  0.
         13    1    1    2    0    0 -0.82300617087E+02  0.20984470443E+03  0.11619291960E+04  0.11835910017E+04  0.10566000000E+00 0.  1.
        994    1    1    2    0    0  0.89674769952E+02 -0.22933864801E+03  0.23108682257E+03  0.37861370736E+03  0.17120000000E+03 0.  0.
        998    1    1    2    0    0 -0.73741528644E+01  0.19493943579E+02  0.10698397772E+03  0.10899529098E+03  0.10000000000E+00 0.  1.
</event>
<event>
 5    1  0.2022058E-009  0.3882920E+03  0.7957747E-01  0.3415829E+00
         13   -1    0    0    0    0  0.00000000000E+00  0.00000000000E+00  0.14999999963E+04  0.15000000000E+04  0.10566000000E+00 0. -1.
        994   -1    0    0    0    0 -0.00000000000E+00 -0.00000000000E+00  0.11368683772E-12  0.17120000000E+03  0.17120000000E+03 0.  0.
         13    1    1    2    0    0  0.12184438088E+03  0.18504017817E+03  0.12841970002E+04  0.13031683955E+04  0.10566000000E+00 0. -1.
        994    1    1    2    0    0 -0.12436574186E+03 -0.18847363182E+03  0.18836458260E+03  0.34026431434E+03  0.17120000000E+03 0.  0.
        998    1    1    2    0    0  0.25213609855E+01  0.34334536437E+01  0.27438413489E+02  0.27767290108E+02  0.10000000000E+00 0. -1.
</event>
<event>
 5    1  0.2022058E-009  0.3882986E+03  0.7957747E-01  0.3415802E+00
         13   -1    0    0    0    0  0.00000000000E+00  0.00000000000E+00  0.14999999963E+04  0.15000000000E+04  0.10566000000E+00 0. -1.
        994   -1    0    0    0    0 -0.00000000000E+00 -0.00000000000E+00  0.11368683772E-12  0.17120000000E+03  0.17120000000E+03 0.  0.
         13    1    1    2    0    0 -0.27809415130E+01 -0.25683039737E+03  0.12354798882E+04  0.12618954600E+04  0.10566000000E+00 0. -1.
        994    1    1    2    0    0  0.27877979761E+01  0.25802461336E+03  0.25913633018E+03  0.40378899259E+03  0.17120000000E+03 0.  0.
        998    1    1    2    0    0 -0.68564630562E-02 -0.11942159916E+01  0.53837779312E+01  0.55155474487E+01  0.10000000000E+00 0.  0.
</event>
<event>
 5    1  0.2022058E-009  0.3881800E+03  0.7957747E-01  0.3416296E+00
         13   -1    0    0    0    0  0.00000000000E+00  0.00000000000E+00  0.14999999963E+04  0.15000000000E+04  0.10566000000E+00 0.  1.
        994   -1    0    0    0    0 -0.00000000000E+00 -0.00000000000E+00  0.11368683772E-12  0.17120000000E+03  0.17120000000E+03 0.  0.
         13    1    1    2    0    0 -0.13731145778E+03  0.16118193324E+02  0.76252774728E+03  0.77495987582E+03  0.10566000000E+00 0.  1.
        994    1    1    2    0    0  0.23600437446E+03 -0.37252582345E+02  0.21515917270E+03  0.36426464178E+03  0.17120000000E+03 0.  0.
        998    1    1    2    0    0 -0.98692916677E+02  0.21134389021E+02  0.52231307630E+03  0.53197548240E+03  0.10000000000E+00 0.  1.
</event>
<event>
 5    1  0.2022058E-009  0.3883003E+03  0.7957747E-01  0.3415795E+00
         13   -1    0    0    0    0  0.00000000000E+00  0.00000000000E+00  0.14999999963E+04  0.15000000000E+04  0.10566000000E+00 0.  1.
        994   -1    0    0    0    0 -0.00000000000E+00 -0.00000000000E+00  0.11368683772E-12  0.17120000000E+03  0.17120000000E+03 0.  0.
         13    1    1    2    0    0 -0.16517441639E+03 -0.83550078250E+02  0.84202210491E+03  0.86212785578E+03  0.10566000000E+00 0.  1.
        994    1    1    2    0    0  0.23904662988E+03  0.12080939274E+03  0.28469636337E+03  0.42673136743E+03  0.17120000000E+03 0.  0.
        998    1    1    2    0    0 -0.73872213496E+02 -0.37259314492E+02  0.37328152801E+03  0.38234077679E+03  0.10000000000E+00 0. -1.
</event>
<event>
 5    1  0.2022058E-009  0.3873733E+03  0.7957747E-01  0.3419669E+00
         13   -1    0    0    0    0  0.00000000000E+00  0.00000000000E+00  0.14999999963E+04  0.15000000000E+04  0.10566000000E+00 0.  1.
        994   -1    0    0    0    0 -0.00000000000E+00 -0.00000000000E+00  0.11368683772E-12  0.17120000000E+03  0.17120000000E+03 0.  0.
         13    1    1    2    0    0  0.17559223532E+03 -0.73234260083E+01  0.93325708086E+03  0.94966049502E+03  0.10566000000E+00 0.  1.
        994    1    1    2    0    0 -0.25418969287E+03 -0.68599828694E+00  0.25121711968E+03  0.39627307727E+03  0.17120000000E+03 0.  0.
        998    1    1    2    0    0  0.78597457550E+02  0.80094242952E+01  0.31552579575E+03  0.32526642771E+03  0.10000000000E+00 0. -1.
</event>
<event>
 5    1  0.2022058E-009  0.3882966E+03  0.7957747E-01  0.3415810E+00
         13   -1    0    0    0    0  0.00000000000E+00  0.00000000000E+00  0.14999999963E+04  0.15000000000E+04  0.10566000000E+00 0. -1.
        994   -1    0    0    0    0 -0.00000000000E+00 -0.00000000000E+00  0.11368683772E-12  0.17120000000E+03  0.17120000000E+03 0.  0.
         13    1    1    2    0    0 -0.26620517524E+03  0.27029413368E+02  0.12013509230E+04  0.12307882986E+04  0.10566000000E+00 0. -1.
        994    1    1    2    0    0  0.26810722587E+03 -0.27167262211E+02  0.28920550086E+03  0.43077697992E+03  0.17120000000E+03 0.  0.
        998    1    1    2    0    0 -0.19020506240E+01  0.13784884309E+00  0.94435724000E+01  0.96347215089E+01  0.10000000000E+00 0.  0.
</event>
<event>
 5    1  0.2022058E-009  0.3882468E+03  0.7957747E-01  0.3416018E+00
         13   -1    0    0    0    0  0.00000000000E+00  0.00000000000E+00  0.14999999963E+04  0.15000000000E+04  0.10566000000E+00 0. -1.
        994   -1    0    0    0    0 -0.00000000000E+00 -0.00000000000E+00  0.11368683772E-12  0.17120000000E+03  0.17120000000E+03 0.  0.
         13    1    1    2    0    0  0.22933354079E+03 -0.15169635004E+03  0.10307370218E+04  0.10667822996E+04  0.10566000000E+00 0. -1.
        994    1    1    2    0    0 -0.24868817617E+03  0.16267216940E+03  0.37761926324E+03  0.51011154823E+03  0.17120000000E+03 0.  0.
        998    1    1    2    0    0  0.19354635382E+02 -0.10975819360E+02  0.91643711270E+02  0.94306152168E+02  0.10000000000E+00 0. -1.
</event>
<event>
 5    1  0.2022058E-009  0.3882865E+03  0.7957747E-01  0.3415852E+00
         13   -1    0    0    0    0  0.00000000000E+00  0.00000000000E+00  0.14999999963E+04  0.15000000000E+04  0.10566000000E+00 0.  1.
        994   -1    0    0    0    0 -0.00000000000E+00 -0.00000000000E+00  0.11368683772E-12  0.17120000000E+03  0.17120000000E+03 0.  0.
         13    1    1    2    0    0 -0.29266185414E+03 -0.47206695985E+02  0.11042594791E+04  0.11433584046E+04  0.10566000000E+00 0.  1.
        994    1    1    2    0    0  0.29564745843E+03  0.47483518789E+02  0.38602993764E+03  0.51767814034E+03  0.17120000000E+03 0.  0.
        998    1    1    2    0    0 -0.29856042907E+01 -0.27682280393E+00  0.97105795380E+01  0.10163455063E+02  0.10000000000E+00 0.  1.
</event>
<event>
 5    1  0.2022058E-009  0.3882368E+03  0.7957747E-01  0.3416060E+00
         13   -1    0    0    0    0  0.00000000000E+00  0.00000000000E+00  0.14999999963E+04  0.15000000000E+04  0.10566000000E+00 0. -1.
        994   -1    0    0    0    0 -0.00000000000E+00 -0.00000000000E+00  0.11368683772E-12  0.17120000000E+03  0.17120000000E+03 0.  0.
         13    1    1    2    0    0 -0.21553066622E+03  0.81429003387E+02  0.92339246142E+03  0.95170257940E+03  0.10566000000E+00 0. -1.
        994    1    1    2    0    0  0.27120927726E+03 -0.10423904487E+03  0.35408954035E+03  0.48898782513E+03  0.17120000000E+03 0.  0.
        998    1    1    2    0    0 -0.55678611036E+02  0.22810041483E+02  0.22251799451E+03  0.23050959546E+03  0.10000000000E+00 0. -1.
</event>
<event>
 5    1  0.2022058E-009  0.3882999E+03  0.7957747E-01  0.3415796E+00
         13   -1    0    0    0    0  0.00000000000E+00  0.00000000000E+00  0.14999999963E+04  0.15000000000E+04  0.10566000000E+00 0. -1.
        994   -1    0    0    0    0 -0.00000000000E+00 -0.00000000000E+00  0.11368683772E-12  0.17120000000E+03  0.17120000000E+03 0.  0.
         13    1    1    2    0    0  0.69068263753E+02  0.24969279510E+03  0.12015311913E+04  0.12291436579E+04  0.10566000000E+00 0. -1.
        994    1    1    2    0    0 -0.70286467139E+02 -0.25459648947E+03  0.27473299764E+03  0.41778848705E+03  0.17120000000E+03 0.  0.
        998    1    1    2    0    0  0.12182033868E+01  0.49036943661E+01  0.23735807346E+02  0.24267855041E+02  0.10000000000E+00 0.  1.
</event>
<event>
 5    1  0.2022058E-009  0.3881800E+03  0.7957747E-01  0.3416296E+00
         13   -1    0    0    0    0  0.00000000000E+00  0.00000000000E+00  0.14999999963E+04  0.15000000000E+04  0.10566000000E+00 0. -1.
        994   -1    0    0    0    0 -0.00000000000E+00 -0.00000000000E+00  0.11368683772E-12  0.17120000000E+03  0.17120000000E+03 0.  0.
         13    1    1    2    0    0 -0.20662646649E+03  0.58333688293E+02  0.11506052729E+04  0.11704656428E+04  0.10566000000E+00 0. -1.
        994    1    1    2    0    0  0.23169856648E+03 -0.60696357225E+02  0.21642391364E+03  0.36539981374E+03  0.17120000000E+03 0.  0.
        998    1    1    2    0    0 -0.25072099993E+02  0.23626689324E+01  0.13297080972E+03  0.13533454341E+03  0.10000000000E+00 0. -1.
</event>
<event>
 5    1  0.2022058E-009  0.3880995E+03  0.7957747E-01  0.3416632E+00
         13   -1    0    0    0    0  0.00000000000E+00  0.00000000000E+00  0.14999999963E+04  0.15000000000E+04  0.10566000000E+00 0.  1.
        994   -1    0    0    0    0 -0.00000000000E+00 -0.00000000000E+00  0.11368683772E-12  0.17120000000E+03  0.17120000000E+03 0.  0.
         13    1    1    2    0    0  0.94862889935E+01  0.26201976510E+03  0.87033237644E+03  0.90896798823E+03  0.10566000000E+00 0.  1.
        994    1    1    2    0    0 -0.19084967916E+02 -0.31494570582E+03  0.45552876284E+03  0.57997493686E+03  0.17120000000E+03 0.  0.
        998    1    1    2    0    0  0.95986789222E+01  0.52925940718E+02  0.17413885700E+03  0.18225707491E+03  0.10000000000E+00 0.  1.
</event>
<event>
 5    1  0.2022058E-009  0.3717688E+03  0.7957747E-01  0.3487801E+00
         13   -1    0    0    0    0  0.00000000000E+00  0.00000000000E+00  0.14999999963E+04  0.15000000000E+04  0.10566000000E+00 0.  1.
        994   -1    0    0    0    0 -0.00000000000E+00 -0.00000000000E+00  0.11368683772E-12  0.17120000000E+03  0.17120000000E+03 0.  0.
         13    1    1    2    0    0 -0.28957354009E+02  0.23986506301E+03  0.11545875466E+04  0.11795957743E+04  0.10566000000E+00 0.  1.
        994    1    1    2    0    0 -0.25700056285E+01 -0.25167383002E+03  0.26188207688E+03  0.40154449795E+03  0.17120000000E+03 0.  0.
        998    1    1    2    0    0  0.31527359638E+02  0.11808767007E+02  0.83530372838E+02  0.90059727794E+02  0.10000000000E+00 0. -1.
</event>
<event>
 5    1  0.2022058E-009  0.3882343E+03  0.7957747E-01  0.3416070E+00
         13   -1    0    0    0    0  0.00000000000E+00  0.00000000000E+00  0.14999999963E+04  0.15000000000E+04  0.10566000000E+00 0.  1.
        994   -1    0    0    0    0 -0.00000000000E+00 -0.00000000000E+00  0.11368683772E-12  0.17120000000E+03  0.17120000000E+03 0.  0.
         13    1    1    2    0    0  0.20157232684E+02  0.65410278122E+02  0.32164406323E+03  0.32884606290E+03  0.10566000000E+00 0.  1.
        994    1    1    2    0    0 -0.66284630605E+02 -0.24333829670E+03  0.24501864896E+03  0.39108919345E+03  0.17120000000E+03 0.  0.
        998    1    1    2    0    0  0.46127397921E+02  0.17792801858E+03  0.93333728409E+03  0.95126474364E+03  0.10000000000E+00 0.  1.
</event>
<event>
 5    1  0.2022058E-009  0.3882365E+03  0.7957747E-01  0.3416061E+00
         13   -1    0    0    0    0  0.00000000000E+00  0.00000000000E+00  0.14999999963E+04  0.15000000000E+04  0.10566000000E+00 0. -1.
        994   -1    0    0    0    0 -0.00000000000E+00 -0.00000000000E+00  0.11368683772E-12  0.17120000000E+03  0.17120000000E+03 0.  0.
         13    1    1    2    0    0 -0.22759301393E+03  0.25923537411E+03  0.65911234628E+03  0.74392920051E+03  0.10566000000E+00 0. -1.
        994    1    1    2    0    0  0.23014304723E+03 -0.26086676477E+03  0.83576632762E+03  0.92132083746E+03  0.17120000000E+03 0.  0.
        998    1    1    2    0    0 -0.25500333004E+01  0.16313906688E+01  0.51213223733E+01  0.59499620334E+01  0.10000000000E+00 0. -1.
</event>
<event>
 5    1  0.2022058E-009  0.3877478E+03  0.7957747E-01  0.3418101E+00
         13   -1    0    0    0    0  0.00000000000E+00  0.00000000000E+00  0.14999999963E+04  0.15000000000E+04  0.10566000000E+00 0.  1.
        994   -1    0    0    0    0 -0.00000000000E+00 -0.00000000000E+00  0.11368683772E-12  0.17120000000E+03  0.17120000000E+03 0.  0.
         13    1    1    2    0    0 -0.13445779280E+02  0.20759305621E+03  0.12166708565E+04  0.12343272055E+04  0.10566000000E+00 0.  1.
        994    1    1    2    0    0  0.19005829319E+02 -0.21849611699E+03  0.17681671825E+03  0.32965947058E+03  0.17120000000E+03 0.  0.
        998    1    1    2    0    0 -0.55600500387E+01  0.10903060782E+02  0.10651242151E+03  0.10721332392E+03  0.10000000000E+00 0. -1.
</event>
<event>
 5    1  0.2022058E-009  0.3883000E+03  0.7957747E-01  0.3415796E+00
         13   -1    0    0    0    0  0.00000000000E+00  0.00000000000E+00  0.14999999963E+04  0.15000000000E+04  0.10566000000E+00 0. -1.
        994   -1    0    0    0    0 -0.00000000000E+00 -0.00000000000E+00  0.11368683772E-12  0.17120000000E+03  0.17120000000E+03 0.  0.
         13    1    1    2    0    0 -0.20766621640E+03  0.39460525092E+02  0.12212685500E+04  0.12394269937E+04  0.10566000000E+00 0. -1.
        994    1    1    2    0    0  0.22262645968E+03 -0.42072111459E+02  0.18982329602E+03  0.34157711695E+03  0.17120000000E+03 0.  0.
        998    1    1    2    0    0 -0.14960243277E+02  0.26115863675E+01  0.88908150303E+02  0.90195889333E+02  0.10000000000E+00 0.  1.
</event>
<event>
 5    1  0.2022058E-009  0.3882956E+03  0.7957747E-01  0.3415814E+00
         13   -1    0    0    0    0  0.00000000000E+00  0.00000000000E+00  0.14999999963E+04  0.15000000000E+04  0.10566000000E+00 0. -1.
        994   -1    0    0    0    0 -0.00000000000E+00 -0.00000000000E+00  0.11368683772E-12  0.17120000000E+03  0.17120000000E+03 0.  0.
         13    1    1    2    0    0 -0.18941879595E+03 -0.21416396526E+03  0.11494721268E+04  0.11844964608E+04  0.10566000000E+00 0. -1.
        994    1    1    2    0    0  0.19042339078E+03  0.21533616959E+03  0.34352029429E+03  0.47952723205E+03  0.17120000000E+03 0.  0.
        998    1    1    2    0    0 -0.10045948297E+01 -0.11722043291E+01  0.70075752160E+01  0.71763071400E+01  0.10000000000E+00 0. -1.
</event>
<event>
 5    1  0.2022058E-009  0.3883008E+03  0.7957747E-01  0.3415793E+00
         13   -1    0    0    0    0  0.00000000000E+00  0.00000000000E+00  0.14999999963E+04  0.15000000000E+04  0.10566000000E+00 0.  1.
        994   -1    0    0    0    0 -0.00000000000E+00 -0.00000000000E+00  0.11368683772E-12  0.17120000000E+03  0.17120000000E+03 0.  0.
         13    1    1    2    0    0 -0.21518360410E+02  0.27967937128E+03  0.10721932777E+04  0.11082788578E+04  0.10566000000E+00 0.  1.
        994    1    1    2    0    0  0.22703911259E+02 -0.29450758729E+03  0.37093164624E+03  0.50413283244E+03  0.17120000000E+03 0.  0.
        998    1    1    2    0    0 -0.11855508485E+01  0.14828216008E+02  0.56875072289E+02  0.58788309796E+02  0.10000000000E+00 0.  0.
</event>
<event>
 5    1  0.2022058E-009  0.3857027E+03  0.7957747E-01  0.3426698E+00
         13   -1    0    0    0    0  0.00000000000E+00  0.00000000000E+00  0.14999999963E+04  0.15000000000E+04  0.10566000000E+00 0. -1.
        994   -1    0    0    0    0 -0.00000000000E+00 -0.00000000000E+00  0.11368683772E-12  0.17120000000E+03  0.17120000000E+03 0.  0.
         13    1    1    2    0    0 -0.21407658025E+03 -0.31638446494E+02  0.58934930548E+03  0.62782353296E+03  0.10566000000E+00 0. -1.
        994    1    1    2    0    0  0.32431470325E+03  0.92031857514E+02  0.61235800504E+03  0.71968163508E+03  0.17120000000E+03 0.  0.
        998    1    1    2    0    0 -0.11023812300E+03 -0.60393411020E+02  0.29829268576E+03  0.32369483196E+03  0.10000000000E+00 0. -1.
</event>
<event>
 5    1  0.2022058E-009  0.3881755E+03  0.7957747E-01  0.3416315E+00
         13   -1    0    0    0    0  0.00000000000E+00  0.00000000000E+00  0.14999999963E+04  0.15000000000E+04  0.10566000000E+00 0. -1.
        994   -1    0    0    0    0 -0.00000000000E+00 -0.00000000000E+00  0.11368683772E-12  0.17120000000E+03  0.17120000000E+03 0.  0.
         13    1    1    2    0    0 -0.14676616436E+03  0.88022433174E+02  0.10037370193E+04  0.10182221127E+04  0.10566000000E+00 0. -1.
        994    1    1    2    0    0  0.18602829314E+03 -0.11502819432E+03  0.17519136175E+03  0.32838919679E+03  0.17120000000E+03 0.  0.
        998    1    1    2    0    0 -0.39262128787E+02  0.27005761142E+02  0.32107161524E+03  0.32458869051E+03  0.10000000000E+00 0.  1.
</event>
<event>
 5    1  0.2022058E-009  0.3882891E+03  0.7957747E-01  0.3415842E+00
         13   -1    0    0    0    0  0.00000000000E+00  0.00000000000E+00  0.14999999963E+04  0.15000000000E+04  0.10566000000E+00 0.  1.
        994   -1    0    0    0    0 -0.00000000000E+00 -0.00000000000E+00  0.11368683772E-12  0.17120000000E+03  0.17120000000E+03 0.  0.
         13    1    1    2    0    0 -0.21516139988E+03  0.44829818290E+02  0.13066539879E+04  0.13250089796E+04  0.10566000000E+00 0.  1.
        994    1    1    2    0    0  0.21689610253E+03 -0.45258037836E+02  0.18031846363E+03  0.33304113501E+03  0.17120000000E+03 0.  0.
        998    1    1    2    0    0 -0.17347026448E+01  0.42821954650E+00  0.13027544706E+02  0.13149885411E+02  0.10000000000E+00 0.  1.
</event>
<event>
 5    1  0.2022058E-009  0.3881126E+03  0.7957747E-01  0.3416578E+00
         13   -1    0    0    0    0  0.00000000000E+00  0.00000000000E+00  0.14999999963E+04  0.15000000000E+04  0.10566000000E+00 0. -1.
        994   -1    0    0    0    0 -0.00000000000E+00 -0.00000000000E+00  0.11368683772E-12  0.17120000000E+03  0.17120000000E+03 0.  0.
         13    1    1    2    0    0  0.45997043978E+02  0.15474535126E+03  0.38682494170E+03  0.41916034936E+03  0.10566000000E+00 0. -1.
        994    1    1    2    0    0 -0.10307161022E+03 -0.32573744413E+03  0.63638653125E+03  0.74231118576E+03  0.17120000000E+03 0.  0.
        998    1    1    2    0    0  0.57074566239E+02  0.17099209287E+03  0.47678852333E+03  0.50972846488E+03  0.10000000000E+00 0. -1.
</event>
<event>
 5    1  0.2022058E-009  0.3828627E+03  0.7957747E-01  0.3438788E+00
         13   -1    0    0    0    0  0.00000000000E+00  0.00000000000E+00  0.14999999963E+04  0.15000000000E+04  0.10566000000E+00 0.  1.
        994   -1    0    0    0    0 -0.00000000000E+00 -0.00000000000E+00  0.11368683772E-12  0.17120000000E+03  0.17120000000E+03 0.  0.
         13    1    1    2    0    0  0.19005740388E+02  0.47864429836E+02  0.20254766926E+03  0.20899232354E+03  0.10566000000E+00 0.  1.
        994    1    1    2    0    0  0.26158146985E+02 -0.17478507373E+03  0.11412099221E+03  0.27123257827E+03  0.17120000000E+03 0.  0.
        998    1    1    2    0    0 -0.45163887373E+02  0.12692064390E+03  0.11833313348E+04  0.11909750982E+04  0.10000000000E+00 0.  1.
</event>
<event>
 5    1  0.2022058E-009  0.3813377E+03  0.7957747E-01  0.3445354E+00
         13   -1    0    0    0    0  0.00000000000E+00  0.00000000000E+00  0.14999999963E+04  0.15000000000E+04  0.10566000000E+00 0.  1.
        994   -1    0    0    0    0 -0.00000000000E+00 -0.00000000000E+00  0.11368683772E-12  0.17120000000E+03  0.17120000000E+03 0.  0.
         13    1    1    2    0    0  0.73375888729E+02 -0.44759109647E+02  0.51432108536E+03  0.52145334303E+03  0.10566000000E+00 0.  1.
        994    1    1    2    0    0 -0.12813405160E+03  0.12963916208E+02  0.60787490223E+02  0.22269027206E+03  0.17120000000E+03 0.  0.
        998    1    1    2    0    0  0.54758162875E+02  0.31795193439E+02  0.92489142070E+03  0.92705638491E+03  0.10000000000E+00 0.  1.
</event>
<event>
 5    1  0.2022058E-009  0.3882960E+03  0.7957747E-01  0.3415813E+00
         13   -1    0    0    0    0  0.00000000000E+00  0.00000000000E+00  0.14999999963E+04  0.15000000000E+04  0.10566000000E+00 0.  1.
        994   -1    0    0    0    0 -0.00000000000E+00 -0.00000000000E+00  0.11368683772E-12  0.17120000000E+03  0.17120000000E+03 0.  0.
         13    1    1    2    0    0  0.15822292772E+03 -0.15672424300E+03  0.12828435139E+04  0.13020309042E+04  0.10566000000E+00 0.  1.
        994    1    1    2    0    0 -0.16151573566E+03  0.16019121066E+03  0.19161239067E+03  0.34318115493E+03  0.17120000000E+03 0.  0.
        998    1    1    2    0    0  0.32928079459E+01 -0.34669676684E+01  0.25544091714E+02  0.25987940866E+02  0.10000000000E+00 0. -1.
</event>
<event>
 5    1  0.2022058E-009  0.3882920E+03  0.7957747E-01  0.3415829E+00
         13   -1    0    0    0    0  0.00000000000E+00  0.00000000000E+00  0.14999999963E+04  0.15000000000E+04  0.10566000000E+00 0. -1.
        994   -1    0    0    0    0 -0.00000000000E+00 -0.00000000000E+00  0.11368683772E-12  0.17120000000E+03  0.17120000000E+03 0.  0.
         13    1    1    2    0    0 -0.21414309559E+03  0.85445452318E+02  0.12764577301E+04  0.12971131557E+04  0.10566000000E+00 0. -1.
        994    1    1    2    0    0  0.21742399443E+03 -0.86296772528E+02  0.20452073076E+03  0.35476540927E+03  0.17120000000E+03 0.  0.
        998    1    1    2    0    0 -0.32808988443E+01  0.85132021065E+00  0.19021535418E+02  0.19321435065E+02  0.10000000000E+00 0.  1.
</event>
<event>
 5    1  0.2022058E-009  0.3882919E+03  0.7957747E-01  0.3415830E+00
         13   -1    0    0    0    0  0.00000000000E+00  0.00000000000E+00  0.14999999963E+04  0.15000000000E+04  0.10566000000E+00 0.  1.
        994   -1    0    0    0    0 -0.00000000000E+00 -0.00000000000E+00  0.11368683772E-12  0.17120000000E+03  0.17120000000E+03 0.  0.
         13    1    1    2    0    0 -0.21934509043E+03 -0.54112899417E+02  0.12973346736E+04  0.13168590438E+04  0.10566000000E+00 0.  1.
        994    1    1    2    0    0  0.22088085661E+03  0.54651463276E+02  0.19173187825E+03  0.34328659803E+03  0.17120000000E+03 0.  0.
        998    1    1    2    0    0 -0.15357661765E+01 -0.53856385869E+00  0.10933444402E+02  0.11054358203E+02  0.10000000000E+00 0. -1.
</event>
<event>
 5    1  0.2022058E-009  0.3883002E+03  0.7957747E-01  0.3415795E+00
         13   -1    0    0    0    0  0.00000000000E+00  0.00000000000E+00  0.14999999963E+04  0.15000000000E+04  0.10566000000E+00 0.  1.
        994   -1    0    0    0    0 -0.00000000000E+00 -0.00000000000E+00  0.11368683772E-12  0.17120000000E+03  0.17120000000E+03 0.  0.
         13    1    1    2    0    0 -0.16802544112E+03  0.18678663984E+03  0.11546866556E+04  0.11817034659E+04  0.10566000000E+00 0.  1.
        994    1    1    2    0    0  0.17755573090E+03 -0.19744778360E+03  0.27849703176E+03  0.42116707079E+03  0.17120000000E+03 0.  0.
        998    1    1    2    0    0 -0.95302897789E+01  0.10661143753E+02  0.66816308965E+02  0.68329463287E+02  0.10000000000E+00 0. -1.
</event>
<event>
 5    1  0.2022058E-009  0.3877682E+03  0.7957747E-01  0.3418016E+00
         13   -1    0    0    0    0  0.00000000000E+00  0.00000000000E+00  0.14999999963E+04  0.15000000000E+04  0.10566000000E+00 0.  1.
        994   -1    0    0    0    0 -0.00000000000E+00 -0.00000000000E+00  0.11368683772E-12  0.17120000000E+03  0.17120000000E+03 0.  0.
         13    1    1    2    0    0  0.14445392924E+03  0.62721841247E+02  0.88318757550E+03  0.89711831534E+03  0.10566000000E+00 0.  1.
        994    1    1    2    0    0 -0.21441799142E+03 -0.73503288596E+02  0.19070477189E+03  0.34213383127E+03  0.17120000000E+03 0.  0.
        998    1    1    2    0    0  0.69964062183E+02  0.10781447349E+02  0.42610764889E+03  0.43194785338E+03  0.10000000000E+00 0.  1.
</event>
<event>
 5    1  0.2022058E-009  0.3882971E+03  0.7957747E-01  0.3415808E+00
         13   -1    0    0    0    0  0.00000000000E+00  0.00000000000E+00  0.14999999963E+04  0.15000000000E+04  0.10566000000E+00 0. -1.
        994   -1    0    0    0    0 -0.00000000000E+00 -0.00000000000E+00  0.11368683772E-12  0.17120000000E+03  0.17120000000E+03 0.  0.
         13    1    1    2    0    0 -0.19130250195E+03  0.12789802938E+03  0.12937450227E+04  0.13140512730E+04  0.10566000000E+00 0. -1.
        994    1    1    2    0    0  0.19221557356E+03 -0.12865365528E+03  0.19917510272E+03  0.34996964337E+03  0.17120000000E+03 0.  0.
        998    1    1    2    0    0 -0.91307160703E+00  0.75562590597E+00  0.70798708834E+01  0.71790836459E+01  0.10000000000E+00 0.  1.
</event>
<event>
 5    1  0.2022058E-009  0.3882986E+03  0.7957747E-01  0.3415802E+00
         13   -1    0    0    0    0  0.00000000000E+00  0.00000000000E+00  0.14999999963E+04  0.15000000000E+04  0.10566000000E+00 0.  1.
        994   -1    0    0    0    0 -0.00000000000E+00 -0.00000000000E+00  0.11368683772E-12  0.17120000000E+03  0.17120000000E+03 0.  0.
         13    1    1    2    0    0 -0.83219858562E+01 -0.20469427809E+03  0.11417623475E+04  0.11599958070E+04  0.10566000000E+00 0.  1.
        994    1    1    2    0    0  0.10142307452E+02  0.23258634909E+03  0.20222902387E+03  0.35271134697E+03  0.17120000000E+03 0.  0.
        998    1    1    2    0    0 -0.18203215959E+01 -0.27892071000E+02  0.15600862488E+03  0.15849284599E+03  0.10000000000E+00 0.  1.
</event>
<event>
 5    1  0.2022058E-009  0.3882974E+03  0.7957747E-01  0.3415807E+00
         13   -1    0    0    0    0  0.00000000000E+00  0.00000000000E+00  0.14999999963E+04  0.15000000000E+04  0.10566000000E+00 0. -1.
        994   -1    0    0    0    0 -0.00000000000E+00 -0.00000000000E+00  0.11368683772E-12  0.17120000000E+03  0.17120000000E+03 0.  0.
         13    1    1    2    0    0  0.21949566115E+03  0.71498371210E+02  0.12826721446E+04  0.13032797873E+04  0.10566000000E+00 0. -1.
        994    1    1    2    0    0 -0.22201966703E+03 -0.72123375653E+02  0.20352297859E+03  0.35387223214E+03  0.17120000000E+03 0.  0.
        998    1    1    2    0    0  0.25240058825E+01  0.62500444307E+00  0.13804873106E+02  0.14047980557E+02  0.10000000000E+00 0.  0.
</event>
<event>
 5    1  0.2022058E-009  0.3882967E+03  0.7957747E-01  0.3415810E+00
         13   -1    0    0    0    0  0.00000000000E+00  0.00000000000E+00  0.14999999963E+04  0.15000000000E+04  0.10566000000E+00 0. -1.
        994   -1    0    0    0    0 -0.00000000000E+00 -0.00000000000E+00  0.11368683772E-12  0.17120000000E+03  0.17120000000E+03 0.  0.
         13    1    1    2    0    0 -0.22035783328E+02 -0.15671000445E+03  0.79002955866E+03  0.80572347363E+03  0.10566000000E+00 0. -1.
        994    1    1    2    0    0  0.33670016923E+02  0.24837091938E+03  0.24122672226E+03  0.38771323832E+03  0.17120000000E+03 0.  0.
        998    1    1    2    0    0 -0.11634233595E+02 -0.91660914929E+02  0.46874371536E+03  0.47776328805E+03  0.10000000000E+00 0.  1.
</event>
<event>
 5    1  0.2022058E-009  0.3883003E+03  0.7957747E-01  0.3415795E+00
         13   -1    0    0    0    0  0.00000000000E+00  0.00000000000E+00  0.14999999963E+04  0.15000000000E+04  0.10566000000E+00 0.  1.
        994   -1    0    0    0    0 -0.00000000000E+00 -0.00000000000E+00  0.11368683772E-12  0.17120000000E+03  0.17120000000E+03 0.  0.
         13    1    1    2    0    0 -0.12305458682E+03  0.65067777126E+02  0.50266773388E+03  0.52158518845E+03  0.10566000000E+00 0.  1.
        994    1    1    2    0    0  0.26919423364E+03 -0.14127715444E+03  0.40395651929E+03  0.53377437112E+03  0.17120000000E+03 0.  0.
        998    1    1    2    0    0 -0.14613964682E+03  0.76209377312E+02  0.59337574311E+03  0.61584044043E+03  0.10000000000E+00 0. -1.
</event>
<event>
 5    1  0.2022058E-009  0.3877386E+03  0.7957747E-01  0.3418140E+00
         13   -1    0    0    0    0  0.00000000000E+00  0.00000000000E+00  0.14999999963E+04  0.15000000000E+04  0.10566000000E+00 0.  1.
        994   -1    0    0    0    0 -0.00000000000E+00 -0.00000000000E+00  0.11368683772E-12  0.17120000000E+03  0.17120000000E+03 0.  0.
         13    1    1    2    0    0 -0.19907501946E+03  0.10849824286E+03  0.12439947292E+04  0.12644863105E+04  0.10566000000E+00 0.  1.
        994    1    1    2    0    0  0.20529311704E+03 -0.10778642927E+03  0.20108238316E+03  0.35143526155E+03  0.17120000000E+03 0.  0.
        998    1    1    2    0    0 -0.62180975778E+01 -0.71181358612E+00  0.54922883922E+02  0.55278427929E+02  0.10000000000E+00 0. -1.
</event>
<event>
 5    1  0.2022058E-009  0.3883004E+03  0.7957747E-01  0.3415794E+00
         13   -1    0    0    0    0  0.00000000000E+00  0.00000000000E+00  0.14999999963E+04  0.15000000000E+04  0.10566000000E+00 0. -1.
        994   -1    0    0    0    0 -0.00000000000E+00 -0.00000000000E+00  0.11368683772E-12  0.17120000000E+03  0.17120000000E+03 0.  0.
         13    1    1    2    0    0 -0.76769121461E+02 -0.20550144075E+03  0.12932118937E+04  0.13116864539E+04  0.10566000000E+00 0. -1.
        994    1    1    2    0    0  0.78117773336E+02  0.20925113941E+03  0.18367012079E+03  0.33605442882E+03  0.17120000000E+03 0.  0.
        998    1    1    2    0    0 -0.13486518752E+01 -0.37496986575E+01  0.23117981830E+02  0.23459117327E+02  0.10000000000E+00 0.  0.
</event>
<event>
 5    1  0.2022058E-009  0.3882868E+03  0.7957747E-01  0.3415851E+00
         13   -1    0    0    0    0  0.00000000000E+00  0.00000000000E+00  0.14999999963E+04  0.15000000000E+04  0.10566000000E+00 0. -1.
        994   -1    0    0    0    0 -0.00000000000E+00 -0.00000000000E+00  0.11368683772E-12  0.17120000000E+03  0.17120000000E+03 0.  0.
         13    1    1    2    0    0  0.63202391902E+02 -0.22226798059E+03  0.12239866711E+04  0.12456086784E+04  0.10566000000E+00 0. -1.
        994    1    1    2    0    0 -0.66482488247E+02  0.23162407018E+03  0.21942023357E+03  0.36813626557E+03  0.17120000000E+03 0.  0.
        998    1    1    2    0    0  0.32800963456E+01 -0.93560895849E+01  0.56593091594E+02  0.57455056005E+02  0.10000000000E+00 0. -1.
</event>
<event>
 5    1  0.2022058E-009  0.3883005E+03  0.7957747E-01  0.3415794E+00
         13   -1    0    0    0    0  0.00000000000E+00  0.00000000000E+00  0.14999999963E+04  0.15000000000E+04  0.10566000000E+00 0.  1.
        994   -1    0    0    0    0 -0.00000000000E+00 -0.00000000000E+00  0.11368683772E-12  0.17120000000E+03  0.17120000000E+03 0.  0.
         13    1    1    2    0    0 -0.57894294780E+02  0.23316826436E+03  0.11334805637E+04  0.11586618956E+04  0.10566000000E+00 0.  1.
        994    1    1    2    0    0  0.62968154192E+02 -0.25371946123E+03  0.26769302421E+03  0.41146998513E+03  0.17120000000E+03 0.  0.
        998    1    1    2    0    0 -0.50738594124E+01  0.20551196864E+02  0.98826408410E+02  0.10106811931E+03  0.10000000000E+00 0.  1.
</event>
<event>
 5    1  0.2022058E-009  0.3879995E+03  0.7957747E-01  0.3417050E+00
         13   -1    0    0    0    0  0.00000000000E+00  0.00000000000E+00  0.14999999963E+04  0.15000000000E+04  0.10566000000E+00 0. -1.
        994   -1    0    0    0    0 -0.00000000000E+00 -0.00000000000E+00  0.11368683772E-12  0.17120000000E+03  0.17120000000E+03 0.  0.
         13    1    1    2    0    0 -0.21476440110E+03  0.12286091340E+03  0.12440145796E+04  0.12683811877E+04  0.10566000000E+00 0. -1.
        994    1    1    2    0    0  0.21536483037E+03 -0.12502930564E+03  0.23792738873E+03  0.38462087793E+03  0.17120000000E+03 0.  0.
        998    1    1    2    0    0 -0.60042926895E+00  0.21683922422E+01  0.18058027960E+02  0.18197934334E+02  0.10000000000E+00 0.  1.
</event>
<event>
 5    1  0.2022058E-009  0.3883008E+03  0.7957747E-01  0.3415793E+00
         13   -1    0    0    0    0  0.00000000000E+00  0.00000000000E+00  0.14999999963E+04  0.15000000000E+04  0.10566000000E+00 0.  1.
        994   -1    0    0    0    0 -0.00000000000E+00 -0.00000000000E+00  0.11368683772E-12  0.17120000000E+03  0.17120000000E+03 0.  0.
         13    1    1    2    0    0  0.46227894250E+02 -0.14474378778E+03  0.80299149049E+03  0.81724116836E+03  0.10566000000E+00 0.  1.
        994    1    1    2    0    0 -0.73834967578E+02  0.23017657241E+03  0.22103810126E+03  0.36959456047E+03  0.17120000000E+03 0.  0.
        998    1    1    2    0    0  0.27607073328E+02 -0.85432784627E+02  0.47597040453E+03  0.48436427116E+03  0.10000000000E+00 0.  1.
</event>
<event>
 5    1  0.2022058E-009  0.3882599E+03  0.7957747E-01  0.3415963E+00
         13   -1    0    0    0    0  0.00000000000E+00  0.00000000000E+00  0.14999999963E+04  0.15000000000E+04  0.10566000000E+00 0. -1.
        994   -1    0    0    0    0 -0.00000000000E+00 -0.00000000000E+00  0.11368683772E-12  0.17120000000E+03  0.17120000000E+03 0.  0.
         13    1    1    2    0    0  0.13930393733E+03 -0.25350990786E+03  0.11199688448E+04  0.11567208327E+04  0.10566000000E+00 0. -1.
        994    1    1    2    0    0 -0.14174180205E+03  0.25742181415E+03  0.36559837439E+03  0.49932788848E+03  0.17120000000E+03 0.  0.
        998    1    1    2    0    0  0.24378647231E+01 -0.39119062946E+01  0.14432777051E+02  0.15151278780E+02  0.10000000000E+00 0. -1.
</event>
<event>
 5    1  0.2022058E-009  0.3882955E+03  0.7957747E-01  0.3415815E+00
         13   -1    0    0    0    0  0.00000000000E+00  0.00000000000E+00  0.14999999963E+04  0.15000000000E+04  0.10566000000E+00 0.  1.
        994   -1    0    0    0    0 -0.00000000000E+00 -0.00000000000E+00  0.11368683772E-12  0.17120000000E+03  0.17120000000E+03 0.  0.
         13    1    1    2    0    0 -0.21424750925E+03  0.49536186542E+02  0.89539972191E+03  0.92200677989E+03  0.10566000000E+00 0.  1.
        994    1    1    2    0    0  0.27886259124E+03 -0.63008765664E+02  0.33839201293E+03  0.47492425054E+03  0.17120000000E+03 0.  0.
        998    1    1    2    0    0 -0.64615081992E+02  0.13472579122E+02  0.26620826144E+03  0.27426896957E+03  0.10000000000E+00 0.  1.
</event>
<event>
 5    1  0.2022058E-009  0.3876011E+03  0.7957747E-01  0.3418715E+00
         13   -1    0    0    0    0  0.00000000000E+00  0.00000000000E+00  0.14999999963E+04  0.15000000000E+04  0.10566000000E+00 0. -1.
        994   -1    0    0    0    0 -0.00000000000E+00 -0.00000000000E+00  0.11368683772E-12  0.17120000000E+03  0.17120000000E+03 0.  0.
         13    1    1    2    0    0 -0.40348026066E+02 -0.21035760000E+03  0.12543330974E+04  0.12724896123E+04  0.10566000000E+00 0. -1.
        994    1    1    2    0    0  0.35708303149E+02  0.22236327256E+03  0.18810163751E+03  0.33972367290E+03  0.17120000000E+03 0.  0.
        998    1    1    2    0    0  0.46397229168E+01 -0.12005672557E+02  0.57565261400E+02  0.58986714795E+02  0.10000000000E+00 0.  1.
</event>
<event>
 5    1  0.2022058E-009  0.3879366E+03  0.7957747E-01  0.3417312E+00
         13   -1    0    0    0    0  0.00000000000E+00  0.00000000000E+00  0.14999999963E+04  0.15000000000E+04  0.10566000000E+00 0.  1.
        994   -1    0    0    0    0 -0.00000000000E+00 -0.00000000000E+00  0.11368683772E-12  0.17120000000E+03  0.17120000000E+03 0.  0.
         13    1    1    2    0    0 -0.22550066614E+03  0.44789307894E+02  0.12916351520E+04  0.13119367399E+04  0.10566000000E+00 0.  1.
        994    1    1    2    0    0  0.22709380870E+03 -0.43165857028E+02  0.19938217745E+03  0.34999654548E+03  0.17120000000E+03 0.  0.
        998    1    1    2    0    0 -0.15931425626E+01 -0.16234508661E+01  0.89826668142E+01  0.92667145761E+01  0.10000000000E+00 0. -1.
</event>
<event>
 5    1  0.2022058E-009  0.3882966E+03  0.7957747E-01  0.3415810E+00
         13   -1    0    0    0    0  0.00000000000E+00  0.00000000000E+00  0.14999999963E+04  0.15000000000E+04  0.10566000000E+00 0.  1.
        994   -1    0    0    0    0 -0.00000000000E+00 -0.00000000000E+00  0.11368683772E-12  0.17120000000E+03  0.17120000000E+03 0.  0.
         13    1    1    2    0    0  0.10455718994E+03 -0.32939244659E+03  0.72529999447E+03  0.80342497035E+03  0.10566000000E+00 0.  1.
        994    1    1    2    0    0 -0.10539492344E+03  0.33205641218E+03  0.76834299188E+03  0.86083096130E+03  0.17120000000E+03 0.  0.
        998    1    1    2    0    0  0.83773350604E+00 -0.26639655886E+01  0.63570099243E+01  0.69440683509E+01  0.10000000000E+00 0.  1.
</event>
<event>
 5    1  0.2650116E-009  0.3882676E+03  0.7957747E-01  0.3415931E+00
         13   -1    0    0    0    0  0.00000000000E+00  0.00000000000E+00  0.14999999963E+04  0.15000000000E+04  0.10566000000E+00 0.  1.
        994   -1    0    0    0    0 -0.00000000000E+00 -0.00000000000E+00  0.11368683772E-12  0.17120000000E+03  0.17120000000E+03 0.  0.
         13    1    1    2    0    0  0.18782361158E+03 -0.19410883029E+03  0.12050340809E+04  0.12349344494E+04  0.10566000000E+00 0.  1.
        994    1    1    2    0    0 -0.18808295876E+03  0.19432994484E+03  0.29193692318E+03  0.43321580529E+03  0.17120000000E+03 0.  0.
        998    1    1    2    0    0  0.25934718544E+00 -0.22111454668E+00  0.30289921743E+01  0.30497452676E+01  0.10000000000E+00 0.  1.
</event>
<event>
 5    1  0.2022058E-009  0.3882939E+03  0.7957747E-01  0.3415821E+00
         13   -1    0    0    0    0  0.00000000000E+00  0.00000000000E+00  0.14999999963E+04  0.15000000000E+04  0.10566000000E+00 0. -1.
        994   -1    0    0    0    0 -0.00000000000E+00 -0.00000000000E+00  0.11368683772E-12  0.17120000000E+03  0.17120000000E+03 0.  0.
         13    1    1    2    0    0 -0.18718316378E+03 -0.62936158343E+02  0.11761664448E+04  0.11926298729E+04  0.10566000000E+00 0. -1.
        994    1    1    2    0    0  0.21055153458E+03  0.69640708972E+02  0.18069013113E+03  0.33337687464E+03  0.17120000000E+03 0.  0.
        998    1    1    2    0    0 -0.23368370799E+02 -0.67045506286E+01  0.14314342037E+03  0.14519325242E+03  0.10000000000E+00 0. -1.
</event>
<event>
 5    1  0.2022058E-009  0.3883002E+03  0.7957747E-01  0.3415795E+00
         13   -1    0    0    0    0  0.00000000000E+00  0.00000000000E+00  0.14999999963E+04  0.15000000000E+04  0.10566000000E+00 0. -1.
        994   -1    0    0    0    0 -0.00000000000E+00 -0.00000000000E+00  0.11368683772E-12  0.17120000000E+03  0.17120000000E+03 0.  0.
         13    1    1    2    0    0  0.16076133109E+03  0.12645735529E+03  0.95514245403E+03  0.97679720871E+03  0.10566000000E+00 0. -1.
        994    1    1    2    0    0 -0.20711713238E+03 -0.16222084873E+03  0.27201432061E+03  0.41534845721E+03  0.17120000000E+03 0.  0.
        998    1    1    2    0    0  0.46355801291E+02  0.35763493438E+02  0.27284322164E+03  0.27905433408E+03  0.10000000000E+00 0. -1.
</event>
<event>
 5    1  0.2022058E-009  0.3882978E+03  0.7957747E-01  0.3415805E+00
         13   -1    0    0    0    0  0.00000000000E+00  0.00000000000E+00  0.14999999963E+04  0.15000000000E+04  0.10566000000E+00 0. -1.
        994   -1    0    0    0    0 -0.00000000000E+00 -0.00000000000E+00  0.11368683772E-12  0.17120000000E+03  0.17120000000E+03 0.  0.
         13    1    1    2    0    0  0.24857135755E+03 -0.75865836402E+01  0.12586972281E+04  0.12830292278E+04  0.10566000000E+00 0. -1.
        994    1    1    2    0    0 -0.24917604959E+03  0.76390929094E+01  0.23807432807E+03  0.38488424898E+03  0.17120000000E+03 0.  0.
        998    1    1    2    0    0  0.60469203967E+00 -0.52509269258E-01  0.32284400631E+01  0.32865232279E+01  0.10000000000E+00 0.  0.
</event>
<event>
 5    1  0.2022058E-009  0.3866780E+03  0.7957747E-01  0.3422587E+00
         13   -1    0    0    0    0  0.00000000000E+00  0.00000000000E+00  0.14999999963E+04  0.15000000000E+04  0.10566000000E+00 0.  1.
        994   -1    0    0    0    0 -0.00000000000E+00 -0.00000000000E+00  0.11368683772E-12  0.17120000000E+03  0.17120000000E+03 0.  0.
         13    1    1    2    0    0 -0.22123809971E+02 -0.17898689904E+02  0.15799516951E+03  0.16053756825E+03  0.10566000000E+00 0.  1.
        994    1    1    2    0    0  0.13256834566E+03  0.40337030282E+02  0.66335643781E+02  0.23002456373E+03  0.17120000000E+03 0.  0.
        998    1    1    2    0    0 -0.11044453569E+03 -0.22438340378E+02  0.12756691830E+04  0.12806378680E+04  0.10000000000E+00 0.  1.
</event>
<event>
 5    1  0.2022058E-009  0.3882560E+03  0.7957747E-01  0.3415980E+00
         13   -1    0    0    0    0  0.00000000000E+00  0.00000000000E+00  0.14999999963E+04  0.15000000000E+04  0.10566000000E+00 0.  1.
        994   -1    0    0    0    0 -0.00000000000E+00 -0.00000000000E+00  0.11368683772E-12  0.17120000000E+03  0.17120000000E+03 0.  0.
         13    1    1    2    0    0 -0.94294030694E+02  0.91278969255E+02  0.71695280179E+03  0.72886524517E+03  0.10566000000E+00 0.  1.
        994    1    1    2    0    0  0.17603567092E+03 -0.16198305607E+03  0.21568189291E+03  0.36476730503E+03  0.17120000000E+03 0.  0.
        998    1    1    2    0    0 -0.81741640225E+02  0.70704086814E+02  0.56736530157E+03  0.57756744980E+03  0.10000000000E+00 0.  1.
</event>
<event>
 5    1  0.2022058E-009  0.3883009E+03  0.7957747E-01  0.3415792E+00
         13   -1    0    0    0    0  0.00000000000E+00  0.00000000000E+00  0.14999999963E+04  0.15000000000E+04  0.10566000000E+00 0.  1.
        994   -1    0    0    0    0 -0.00000000000E+00 -0.00000000000E+00  0.11368683772E-12  0.17120000000E+03  0.17120000000E+03 0.  0.
         13    1    1    2    0    0 -0.21374099786E+03 -0.67178677537E+02  0.11399281722E+04  0.11617376803E+04  0.10566000000E+00 0.  1.
        994    1    1    2    0    0  0.23705053776E+03  0.74471807599E+02  0.23617269650E+03  0.38317879658E+03  0.17120000000E+03 0.  0.
        998    1    1    2    0    0 -0.23309539901E+02 -0.72931300619E+01  0.12389912754E+03  0.12628352309E+03  0.10000000000E+00 0.  0.
</event>
<event>
 5    1  0.2022058E-009  0.3882024E+03  0.7957747E-01  0.3416203E+00
         13   -1    0    0    0    0  0.00000000000E+00  0.00000000000E+00  0.14999999963E+04  0.15000000000E+04  0.10566000000E+00 0.  1.
        994   -1    0    0    0    0 -0.00000000000E+00 -0.00000000000E+00  0.11368683772E-12  0.17120000000E+03  0.17120000000E+03 0.  0.
         13    1    1    2    0    0  0.21281265202E+03 -0.16069150172E+03  0.97250440464E+03  0.10084026040E+04  0.10566000000E+00 0.  1.
        994    1    1    2    0    0 -0.23861068965E+03  0.18216562820E+03  0.38919630263E+03  0.52048302498E+03  0.17120000000E+03 0.  0.
        998    1    1    2    0    0  0.25798037627E+02 -0.21474126477E+02  0.13829928902E+03  0.14231437101E+03  0.10000000000E+00 0.  1.
</event>
<event>
 5    1  0.2022058E-009  0.3882839E+03  0.7957747E-01  0.3415863E+00
         13   -1    0    0    0    0  0.00000000000E+00  0.00000000000E+00  0.14999999963E+04  0.15000000000E+04  0.10566000000E+00 0.  1.
        994   -1    0    0    0    0 -0.00000000000E+00 -0.00000000000E+00  0.11368683772E-12  0.17120000000E+03  0.17120000000E+03 0.  0.
         13    1    1    2    0    0  0.75311218119E+02  0.16690020496E+03  0.68480787591E+03  0.70886479393E+03  0.10566000000E+00 0.  1.
        994    1    1    2    0    0 -0.12602759231E+03 -0.27230496447E+03  0.38840315974E+03  0.51980708171E+03  0.17120000000E+03 0.  0.
        998    1    1    2    0    0  0.50716374193E+02  0.10540475951E+03  0.42678896063E+03  0.44252812436E+03  0.10000000000E+00 0. -1.
</event>
<event>
 5    1  0.2022058E-009  0.3851102E+03  0.7957747E-01  0.3429205E+00
         13   -1    0    0    0    0  0.00000000000E+00  0.00000000000E+00  0.14999999963E+04  0.15000000000E+04  0.10566000000E+00 0.  1.
        994   -1    0    0    0    0 -0.00000000000E+00 -0.00000000000E+00  0.11368683772E-12  0.17120000000E+03  0.17120000000E+03 0.  0.
         13    1    1    2    0    0  0.20174576032E+03  0.21506292107E+03  0.10057479700E+04  0.10480851121E+04  0.10566000000E+00 0.  1.
        994    1    1    2    0    0 -0.20747979905E+03 -0.23576247557E+03  0.46029146638E+03  0.58293180212E+03  0.17120000000E+03 0.  0.
        998    1    1    2    0    0  0.57340387370E+01  0.20699554497E+02  0.33960559920E+02  0.40183085828E+02  0.10000000000E+00 0.  1.
</event>
<event>
 5    1  0.2022058E-009  0.3882900E+03  0.7957747E-01  0.3415838E+00
         13   -1    0    0    0    0  0.00000000000E+00  0.00000000000E+00  0.14999999963E+04  0.15000000000E+04  0.10566000000E+00 0. -1.
        994   -1    0    0    0    0 -0.00000000000E+00 -0.00000000000E+00  0.11368683772E-12  0.17120000000E+03  0.17120000000E+03 0.  0.
         13    1    1    2    0    0 -0.18209678057E+03 -0.11863737453E+03  0.12389573682E+04  0.12578749682E+04  0.10566000000E+00 0. -1.
        994    1    1    2    0    0  0.19112347533E+03  0.12494198382E+03  0.19329823934E+03  0.34469164695E+03  0.17120000000E+03 0.  0.
        998    1    1    2    0    0 -0.90266947593E+01 -0.63046092861E+01  0.67744388745E+02  0.68633384901E+02  0.10000000000E+00 0.  1.
</event>
<event>
 5    1  0.2022058E-009  0.3834162E+03  0.7957747E-01  0.3436417E+00
         13   -1    0    0    0    0  0.00000000000E+00  0.00000000000E+00  0.14999999963E+04  0.15000000000E+04  0.10566000000E+00 0.  1.
        994   -1    0    0    0    0 -0.00000000000E+00 -0.00000000000E+00  0.11368683772E-12  0.17120000000E+03  0.17120000000E+03 0.  0.
         13    1    1    2    0    0 -0.28016681608E+02  0.38382892316E+02  0.19226938792E+03  0.19805481454E+03  0.10566000000E+00 0.  1.
        994    1    1    2    0    0  0.72354023988E+02 -0.11583997484E+03  0.66739488479E+02  0.22894891107E+03  0.17120000000E+03 0.  0.
        998    1    1    2    0    0 -0.44337342380E+02  0.77457082523E+02  0.12409911199E+04  0.12441962744E+04  0.10000000000E+00 0.  1.
</event>
<event>
 5    1  0.2022058E-009  0.3882130E+03  0.7957747E-01  0.3416159E+00
         13   -1    0    0    0    0  0.00000000000E+00  0.00000000000E+00  0.14999999963E+04  0.15000000000E+04  0.10566000000E+00 0. -1.
        994   -1    0    0    0    0 -0.00000000000E+00 -0.00000000000E+00  0.11368683772E-12  0.17120000000E+03  0.17120000000E+03 0.  0.
         13    1    1    2    0    0 -0.18948535839E+03 -0.53508912181E+02  0.11824902579E+04  0.11987706728E+04  0.10566000000E+00 0. -1.
        994    1    1    2    0    0  0.21218070282E+03  0.63546942701E+02  0.18027202728E+03  0.33296592678E+03  0.17120000000E+03 0.  0.
        998    1    1    2    0    0 -0.22695344424E+02 -0.10038030521E+02  0.13723771107E+03  0.13946340041E+03  0.10000000000E+00 0. -1.
</event>
<event>
 5    1  0.2022058E-009  0.3882975E+03  0.7957747E-01  0.3415806E+00
         13   -1    0    0    0    0  0.00000000000E+00  0.00000000000E+00  0.14999999963E+04  0.15000000000E+04  0.10566000000E+00 0. -1.
        994   -1    0    0    0    0 -0.00000000000E+00 -0.00000000000E+00  0.11368683772E-12  0.17120000000E+03  0.17120000000E+03 0.  0.
         13    1    1    2    0    0  0.93122543315E+02 -0.62542120117E+02  0.62477766402E+03  0.63476804069E+03  0.10566000000E+00 0. -1.
        994    1    1    2    0    0 -0.19497890904E+03  0.13057349602E+03  0.20603345074E+03  0.35612558972E+03  0.17120000000E+03 0.  0.
        998    1    1    2    0    0  0.10185636572E+03 -0.68031375907E+02  0.66918888152E+03  0.68030636958E+03  0.10000000000E+00 0. -1.
</event>
<event>
 5    1  0.2022058E-009  0.3883009E+03  0.7957747E-01  0.3415792E+00
         13   -1    0    0    0    0  0.00000000000E+00  0.00000000000E+00  0.14999999963E+04  0.15000000000E+04  0.10566000000E+00 0. -1.
        994   -1    0    0    0    0 -0.00000000000E+00 -0.00000000000E+00  0.11368683772E-12  0.17120000000E+03  0.17120000000E+03 0.  0.
         13    1    1    2    0    0  0.13202323396E+03 -0.13406070024E+03  0.94937776044E+03  0.96784324600E+03  0.10566000000E+00 0. -1.
        994    1    1    2    0    0 -0.17532533118E+03  0.17788939350E+03  0.23917187062E+03  0.38587074490E+03  0.17120000000E+03 0.  0.
        998    1    1    2    0    0  0.43302097219E+02 -0.43828693261E+02  0.31145036522E+03  0.31748600909E+03  0.10000000000E+00 0. -1.
</event>
<event>
 5    1  0.2022058E-009  0.3814767E+03  0.7957747E-01  0.3444754E+00
         13   -1    0    0    0    0  0.00000000000E+00  0.00000000000E+00  0.14999999963E+04  0.15000000000E+04  0.10566000000E+00 0.  1.
        994   -1    0    0    0    0 -0.00000000000E+00 -0.00000000000E+00  0.11368683772E-12  0.17120000000E+03  0.17120000000E+03 0.  0.
         13    1    1    2    0    0  0.62509167352E+01 -0.51057133767E+02  0.26139826596E+03  0.26641127881E+03  0.10566000000E+00 0.  1.
        994    1    1    2    0    0  0.54042615984E+02  0.88601962370E+02  0.40091431433E+02  0.20417559833E+03  0.17120000000E+03 0.  0.
        998    1    1    2    0    0 -0.60293532720E+02 -0.37544828603E+02  0.11985102989E+04  0.12006131229E+04  0.10000000000E+00 0.  1.
</event>
<event>
 5    1  0.2022058E-009  0.3883009E+03  0.7957747E-01  0.3415792E+00
         13   -1    0    0    0    0  0.00000000000E+00  0.00000000000E+00  0.14999999963E+04  0.15000000000E+04  0.10566000000E+00 0.  1.
        994   -1    0    0    0    0 -0.00000000000E+00 -0.00000000000E+00  0.11368683772E-12  0.17120000000E+03  0.17120000000E+03 0.  0.
         13    1    1    2    0    0  0.46293717291E+02 -0.15957366621E+03  0.81540706791E+03  0.83216318158E+03  0.10566000000E+00 0.  1.
        994    1    1    2    0    0 -0.70804114209E+02  0.24443649909E+03  0.25038422352E+03  0.39593449466E+03  0.17120000000E+03 0.  0.
        998    1    1    2    0    0  0.24510396918E+02 -0.84862832874E+02  0.43420870484E+03  0.44310232376E+03  0.10000000000E+00 0.  1.
</event>
<event>
 5    1  0.2022058E-009  0.3857241E+03  0.7957747E-01  0.3426607E+00
         13   -1    0    0    0    0  0.00000000000E+00  0.00000000000E+00  0.14999999963E+04  0.15000000000E+04  0.10566000000E+00 0.  1.
        994   -1    0    0    0    0 -0.00000000000E+00 -0.00000000000E+00  0.11368683772E-12  0.17120000000E+03  0.17120000000E+03 0.  0.
         13    1    1    2    0    0 -0.20917844553E+03  0.58827134978E+02  0.94890676306E+03  0.97346818645E+03  0.10566000000E+00 0.  1.
        994    1    1    2    0    0  0.24306819493E+03 -0.64966229706E+02  0.24769167787E+03  0.39238165818E+03  0.17120000000E+03 0.  0.
        998    1    1    2    0    0 -0.33889749400E+02  0.61390947277E+01  0.30340155534E+03  0.30535015537E+03  0.10000000000E+00 0.  1.
</event>
<event>
 5    1  0.2022058E-009  0.3882379E+03  0.7957747E-01  0.3416055E+00
         13   -1    0    0    0    0  0.00000000000E+00  0.00000000000E+00  0.14999999963E+04  0.15000000000E+04  0.10566000000E+00 0.  1.
        994   -1    0    0    0    0 -0.00000000000E+00 -0.00000000000E+00  0.11368683772E-12  0.17120000000E+03  0.17120000000E+03 0.  0.
         13    1    1    2    0    0  0.48620006178E+02 -0.30281986788E+03  0.10701724293E+04  0.11132532582E+04  0.10566000000E+00 0.  1.
        994    1    1    2    0    0 -0.48184447796E+02  0.30481239737E+03  0.42332679668E+03  0.55113279288E+03  0.17120000000E+03 0.  0.
        998    1    1    2    0    0 -0.43555838270E+00 -0.19925294892E+01  0.65007703253E+01  0.68139489059E+01  0.10000000000E+00 0. -1.
</event>
<event>
 5    1  0.2022058E-009  0.3882778E+03  0.7957747E-01  0.3415889E+00
         13   -1    0    0    0    0  0.00000000000E+00  0.00000000000E+00  0.14999999963E+04  0.15000000000E+04  0.10566000000E+00 0.  1.
        994   -1    0    0    0    0 -0.00000000000E+00 -0.00000000000E+00  0.11368683772E-12  0.17120000000E+03  0.17120000000E+03 0.  0.
         13    1    1    2    0    0 -0.25874580749E+03 -0.34784964086E+02  0.12307554441E+04  0.12581408351E+04  0.10566000000E+00 0.  1.
        994    1    1    2    0    0  0.25917993376E+03  0.34820092112E+02  0.26797047460E+03  0.41170898962E+03  0.17120000000E+03 0.  0.
        998    1    1    2    0    0 -0.43412626350E+00 -0.35128026172E-01  0.12740775975E+01  0.13501752906E+01  0.10000000000E+00 0.  0.
</event>
<event>
 5    1  0.2022058E-009  0.3882706E+03  0.7957747E-01  0.3415919E+00
         13   -1    0    0    0    0  0.00000000000E+00  0.00000000000E+00  0.14999999963E+04  0.15000000000E+04  0.10566000000E+00 0. -1.
        994   -1    0    0    0    0 -0.00000000000E+00 -0.00000000000E+00  0.11368683772E-12  0.17120000000E+03  0.17120000000E+03 0.  0.
         13    1    1    2    0    0 -0.13563083895E+03  0.85342744840E+02  0.96319502787E+03  0.97643421768E+03  0.10566000000E+00 0. -1.
        994    1    1    2    0    0  0.18571815024E+03 -0.11357157776E+03  0.17320532998E+03  0.32664852814E+03  0.17120000000E+03 0.  0.
        998    1    1    2    0    0 -0.50087311294E+02  0.28228832920E+02  0.36359963842E+03  0.36811725418E+03  0.10000000000E+00 0.  1.
</event>
<event>
 5    1  0.2022058E-009  0.3882644E+03  0.7957747E-01  0.3415944E+00
         13   -1    0    0    0    0  0.00000000000E+00  0.00000000000E+00  0.14999999963E+04  0.15000000000E+04  0.10566000000E+00 0. -1.
        994   -1    0    0    0    0 -0.00000000000E+00 -0.00000000000E+00  0.11368683772E-12  0.17120000000E+03  0.17120000000E+03 0.  0.
         13    1    1    2    0    0  0.15800473449E+03 -0.14273596935E+03  0.12741401835E+04  0.12918096885E+04  0.10566000000E+00 0. -1.
        994    1    1    2    0    0 -0.16282931629E+03  0.14748574183E+03  0.17687300781E+03  0.32993776864E+03  0.17120000000E+03 0.  0.
        998    1    1    2    0    0  0.48245818051E+01 -0.47497724775E+01  0.48986804995E+02  0.49452542825E+02  0.10000000000E+00 0. -1.
</event>
<event>
 5    1  0.2022058E-009  0.3883003E+03  0.7957747E-01  0.3415795E+00
         13   -1    0    0    0    0  0.00000000000E+00  0.00000000000E+00  0.14999999963E+04  0.15000000000E+04  0.10566000000E+00 0. -1.
        994   -1    0    0    0    0 -0.00000000000E+00 -0.00000000000E+00  0.11368683772E-12  0.17120000000E+03  0.17120000000E+03 0.  0.
         13    1    1    2    0    0  0.90054574632E+02  0.21824774203E+03  0.12214077657E+04  0.12440172204E+04  0.10566000000E+00 0. -1.
        994    1    1    2    0    0 -0.93682319734E+02 -0.22687512211E+03  0.22930080174E+03  0.37701060429E+03  0.17120000000E+03 0.  0.
        998    1    1    2    0    0  0.36277451027E+01  0.86273800861E+01  0.49291428808E+02  0.50172175313E+02  0.10000000000E+00 0. -1.
</event>
<event>
 5    1  0.2022058E-009  0.3883006E+03  0.7957747E-01  0.3415793E+00
         13   -1    0    0    0    0  0.00000000000E+00  0.00000000000E+00  0.14999999963E+04  0.15000000000E+04  0.10566000000E+00 0. -1.
        994   -1    0    0    0    0 -0.00000000000E+00 -0.00000000000E+00  0.11368683772E-12  0.17120000000E+03  0.17120000000E+03 0.  0.
         13    1    1    2    0    0 -0.13214442710E+03  0.84199813210E+01  0.62733614714E+03  0.64115809156E+03  0.10566000000E+00 0. -1.
        994    1    1    2    0    0  0.26037684473E+03 -0.17023852153E+02  0.26645134200E+03  0.41035554153E+03  0.17120000000E+03 0.  0.
        998    1    1    2    0    0 -0.12823241763E+03  0.86038708316E+01  0.60621250713E+03  0.61968636691E+03  0.10000000000E+00 0. -1.
</event>
<event>
 5    1  0.2022058E-009  0.3882982E+03  0.7957747E-01  0.3415803E+00
         13   -1    0    0    0    0  0.00000000000E+00  0.00000000000E+00  0.14999999963E+04  0.15000000000E+04  0.10566000000E+00 0. -1.
        994   -1    0    0    0    0 -0.00000000000E+00 -0.00000000000E+00  0.11368683772E-12  0.17120000000E+03  0.17120000000E+03 0.  0.
         13    1    1    2    0    0  0.18817832204E+03  0.21758055339E+03  0.26507416062E+03  0.39117349079E+03  0.10566000000E+00 0. -1.
        994    1    1    2    0    0 -0.18866420256E+03 -0.21815052350E+03  0.12342594697E+04  0.12790190424E+04  0.17120000000E+03 0.  0.
        998    1    1    2    0    0  0.48588051898E+00  0.56997010505E+00  0.66636591264E+00  0.10074667880E+01  0.10000000000E+00 0.  0.
</event>
<event>
 5    1  0.2022058E-009  0.3882945E+03  0.7957747E-01  0.3415819E+00
         13   -1    0    0    0    0  0.00000000000E+00  0.00000000000E+00  0.14999999963E+04  0.15000000000E+04  0.10566000000E+00 0.  1.
        994   -1    0    0    0    0 -0.00000000000E+00 -0.00000000000E+00  0.11368683772E-12  0.17120000000E+03  0.17120000000E+03 0.  0.
         13    1    1    2    0    0 -0.31833173382E+03 -0.11821843089E+02  0.95865504594E+03  0.10101952074E+04  0.10566000000E+00 0.  1.
        994    1    1    2    0    0  0.32681267229E+03  0.12222810508E+02  0.51729070261E+03  0.63549589367E+03  0.17120000000E+03 0.  0.
        998    1    1    2    0    0 -0.84809384669E+01 -0.40096741899E+00  0.24054247725E+02  0.25508898952E+02  0.10000000000E+00 0.  1.
</event>
<event>
 5    1  0.2022058E-009  0.3883009E+03  0.7957747E-01  0.3415792E+00
         13   -1    0    0    0    0  0.00000000000E+00  0.00000000000E+00  0.14999999963E+04  0.15000000000E+04  0.10566000000E+00 0.  1.
        994   -1    0    0    0    0 -0.00000000000E+00 -0.00000000000E+00  0.11368683772E-12  0.17120000000E+03  0.17120000000E+03 0.  0.
         13    1    1    2    0    0  0.10985136147E+03  0.38208594012E+02  0.32724380753E+03  0.34729776706E+03  0.10566000000E+00 0.  1.
        994    1    1    2    0    0 -0.31512015338E+03 -0.10982471988E+03  0.56247960936E+03  0.67605837848E+03  0.17120000000E+03 0.  0.
        998    1    1    2    0    0  0.20526879191E+03  0.71616125870E+02  0.61027657939E+03  0.64784385446E+03  0.10000000000E+00 0.  1.
</event>
<event>
 5    1  0.2022058E-009  0.3882587E+03  0.7957747E-01  0.3415968E+00
         13   -1    0    0    0    0  0.00000000000E+00  0.00000000000E+00  0.14999999963E+04  0.15000000000E+04  0.10566000000E+00 0. -1.
        994   -1    0    0    0    0 -0.00000000000E+00 -0.00000000000E+00  0.11368683772E-12  0.17120000000E+03  0.17120000000E+03 0.  0.
         13    1    1    2    0    0 -0.12698953379E+03  0.13295744902E+03  0.98873660181E+03  0.10056858873E+04  0.10566000000E+00 0. -1.
        994    1    1    2    0    0  0.16842523241E+03 -0.17016377989E+03  0.21610645702E+03  0.36514957437E+03  0.17120000000E+03 0.  0.
        998    1    1    2    0    0 -0.41435698616E+02  0.37206330873E+02  0.29515693745E+03  0.30036453836E+03  0.10000000000E+00 0.  1.
</event>
<event>
 5    1  0.2022058E-009  0.3882969E+03  0.7957747E-01  0.3415809E+00
         13   -1    0    0    0    0  0.00000000000E+00  0.00000000000E+00  0.14999999963E+04  0.15000000000E+04  0.10566000000E+00 0.  1.
        994   -1    0    0    0    0 -0.00000000000E+00 -0.00000000000E+00  0.11368683772E-12  0.17120000000E+03  0.17120000000E+03 0.  0.
         13    1    1    2    0    0  0.49344707167E+02 -0.46235089770E+02  0.24293514455E+03  0.25217073437E+03  0.10566000000E+00 0.  1.
        994    1    1    2    0    0 -0.21900950252E+03  0.21143442148E+03  0.40560036175E+03  0.53524832576E+03  0.17120000000E+03 0.  0.
        998    1    1    2    0    0  0.16966479535E+03 -0.16519933171E+03  0.85146448997E+03  0.88378093986E+03  0.10000000000E+00 0.  1.
</event>
<event>
 5    1  0.2022058E-009  0.3882726E+03  0.7957747E-01  0.3415910E+00
         13   -1    0    0    0    0  0.00000000000E+00  0.00000000000E+00  0.14999999963E+04  0.15000000000E+04  0.10566000000E+00 0. -1.
        994   -1    0    0    0    0 -0.00000000000E+00 -0.00000000000E+00  0.11368683772E-12  0.17120000000E+03  0.17120000000E+03 0.  0.
         13    1    1    2    0    0  0.17191354396E+03 -0.41011979392E+02  0.10367655953E+04  0.10517219974E+04  0.10566000000E+00 0. -1.
        994    1    1    2    0    0 -0.21826465979E+03  0.48696877156E+02  0.18422418637E+03  0.33653950496E+03  0.17120000000E+03 0.  0.
        998    1    1    2    0    0  0.46351115823E+02 -0.76848977642E+01  0.27901021461E+03  0.28293849765E+03  0.10000000000E+00 0. -1.
</event>
<event>
 5    1  0.2022058E-009  0.3882914E+03  0.7957747E-01  0.3415832E+00
         13   -1    0    0    0    0  0.00000000000E+00  0.00000000000E+00  0.14999999963E+04  0.15000000000E+04  0.10566000000E+00 0.  1.
        994   -1    0    0    0    0 -0.00000000000E+00 -0.00000000000E+00  0.11368683772E-12  0.17120000000E+03  0.17120000000E+03 0.  0.
         13    1    1    2    0    0 -0.10590516920E+03  0.26152082605E+03  0.11593166351E+04  0.11931572063E+04  0.10566000000E+00 0.  1.
        994    1    1    2    0    0  0.10671343888E+03 -0.26313512004E+03  0.33214869788E+03  0.46931870508E+03  0.17120000000E+03 0.  0.
        998    1    1    2    0    0 -0.80826967063E+00  0.16142939911E+01  0.85346632900E+01  0.87240886299E+01  0.10000000000E+00 0.  1.
</event>
<event>
 5    1  0.2022058E-009  0.3882999E+03  0.7957747E-01  0.3415797E+00
         13   -1    0    0    0    0  0.00000000000E+00  0.00000000000E+00  0.14999999963E+04  0.15000000000E+04  0.10566000000E+00 0.  1.
        994   -1    0    0    0    0 -0.00000000000E+00 -0.00000000000E+00  0.11368683772E-12  0.17120000000E+03  0.17120000000E+03 0.  0.
         13    1    1    2    0    0  0.70464855716E+02 -0.17186240846E+03  0.10898021800E+04  0.11055183336E+04  0.10566000000E+00 0.  1.
        994    1    1    2    0    0 -0.84547813116E+02  0.20766792442E+03  0.18530858131E+03  0.33752482849E+03  0.17120000000E+03 0.  0.
        998    1    1    2    0    0  0.14082957401E+02 -0.35805515956E+02  0.22488923498E+03  0.22815683789E+03  0.10000000000E+00 0.  1.
</event>
<event>
 5    1  0.2022058E-009  0.3883009E+03  0.7957747E-01  0.3415792E+00
         13   -1    0    0    0    0  0.00000000000E+00  0.00000000000E+00  0.14999999963E+04  0.15000000000E+04  0.10566000000E+00 0. -1.
        994   -1    0    0    0    0 -0.00000000000E+00 -0.00000000000E+00  0.11368683772E-12  0.17120000000E+03  0.17120000000E+03 0.  0.
         13    1    1    2    0    0  0.60673010368E+02 -0.96042642002E+02  0.50326911372E+03  0.51593140558E+03  0.10566000000E+00 0. -1.
        994    1    1    2    0    0 -0.14532608223E+03  0.22971630212E+03  0.29575495284E+03  0.43665739633E+03  0.17120000000E+03 0.  0.
        998    1    1    2    0    0  0.84653071865E+02 -0.13367366012E+03  0.70097592971E+03  0.71861119809E+03  0.10000000000E+00 0.  0.
</event>
<event>
 5    1  0.2022058E-009  0.3882994E+03  0.7957747E-01  0.3415798E+00
         13   -1    0    0    0    0  0.00000000000E+00  0.00000000000E+00  0.14999999963E+04  0.15000000000E+04  0.10566000000E+00 0.  1.
        994   -1    0    0    0    0 -0.00000000000E+00 -0.00000000000E+00  0.11368683772E-12  0.17120000000E+03  0.17120000000E+03 0.  0.
         13    1    1    2    0    0 -0.78487532946E+01  0.42182405358E+02  0.22294404459E+03  0.22703527575E+03  0.10566000000E+00 0.  1.
        994    1    1    2    0    0  0.47061928418E+02 -0.23880979116E+03  0.22472015755E+03  0.37289882095E+03  0.17120000000E+03 0.  0.
        998    1    1    2    0    0 -0.39213175124E+02  0.19662738580E+03  0.10523357941E+04  0.10712659033E+04  0.10000000000E+00 0.  1.
</event>
<event>
 5    1  0.2022058E-009  0.3874452E+03  0.7957747E-01  0.3419367E+00
         13   -1    0    0    0    0  0.00000000000E+00  0.00000000000E+00  0.14999999963E+04  0.15000000000E+04  0.10566000000E+00 0. -1.
        994   -1    0    0    0    0 -0.00000000000E+00 -0.00000000000E+00  0.11368683772E-12  0.17120000000E+03  0.17120000000E+03 0.  0.
         13    1    1    2    0    0 -0.90673650743E+02  0.18834130394E+03  0.74755727990E+03  0.77623195992E+03  0.10566000000E+00 0. -1.
        994    1    1    2    0    0  0.11670758545E+03 -0.28806573967E+03  0.43589826399E+03  0.56206695991E+03  0.17120000000E+03 0.  0.
        998    1    1    2    0    0 -0.26033934707E+02  0.99724435732E+02  0.31654445239E+03  0.33290108017E+03  0.10000000000E+00 0.  1.
</event>
<event>
 5    1  0.2022058E-009  0.3882981E+03  0.7957747E-01  0.3415804E+00
         13   -1    0    0    0    0  0.00000000000E+00  0.00000000000E+00  0.14999999963E+04  0.15000000000E+04  0.10566000000E+00 0.  1.
        994   -1    0    0    0    0 -0.00000000000E+00 -0.00000000000E+00  0.11368683772E-12  0.17120000000E+03  0.17120000000E+03 0.  0.
         13    1    1    2    0    0  0.53207173597E+02  0.23235824764E+03  0.12731646675E+04  0.12952874740E+04  0.10566000000E+00 0.  1.
        994    1    1    2    0    0 -0.53507326399E+02 -0.23397903889E+03  0.21733375869E+03  0.36626851800E+03  0.17120000000E+03 0.  0.
        998    1    1    2    0    0  0.30015280258E+00  0.16207912445E+01  0.95015701056E+01  0.96440080068E+01  0.10000000000E+00 0.  1.
</event>
<event>
 5    1  0.2022058E-009  0.3835826E+03  0.7957747E-01  0.3435706E+00
         13   -1    0    0    0    0  0.00000000000E+00  0.00000000000E+00  0.14999999963E+04  0.15000000000E+04  0.10566000000E+00 0. -1.
        994   -1    0    0    0    0 -0.00000000000E+00 -0.00000000000E+00  0.11368683772E-12  0.17120000000E+03  0.17120000000E+03 0.  0.
         13    1    1    2    0    0 -0.70635261792E+01 -0.13437056837E+02  0.68282461899E+02  0.69949650932E+02  0.10566000000E+00 0. -1.
        994    1    1    2    0    0  0.24864097691E+02 -0.66936587376E+02  0.19366947211E+02  0.18650267754E+03  0.17120000000E+03 0.  0.
        998    1    1    2    0    0 -0.17800571512E+02  0.80373644214E+02  0.14123505872E+04  0.14147476715E+04  0.10000000000E+00 0. -1.
</event>
<event>
 5    1  0.3699207E-009  0.3882858E+03  0.7957747E-01  0.3415855E+00
         13   -1    0    0    0    0  0.00000000000E+00  0.00000000000E+00  0.14999999963E+04  0.15000000000E+04  0.10566000000E+00 0.  1.
        994   -1    0    0    0    0 -0.00000000000E+00 -0.00000000000E+00  0.11368683772E-12  0.17120000000E+03  0.17120000000E+03 0.  0.
         13    1    1    2    0    0 -0.19146139385E+03  0.12686549455E+03  0.13003118474E+04  0.13204405441E+04  0.10566000000E+00 0.  1.
        994    1    1    2    0    0  0.19175539894E+03 -0.12702895129E+03  0.19662005954E+03  0.34767136106E+03  0.17120000000E+03 0.  0.
        998    1    1    2    0    0 -0.29400509234E+00  0.16345673844E+00  0.30680893782E+01  0.30880948063E+01  0.10000000000E+00 0.  0.
</event>
<event>
 5    1  0.2022058E-009  0.2837895E+03  0.7957747E-01  0.4019006E+00
         13   -1    0    0    0    0  0.00000000000E+00  0.00000000000E+00  0.14999999963E+04  0.15000000000E+04  0.10566000000E+00 0. -1.
        994   -1    0    0    0    0 -0.00000000000E+00 -0.00000000000E+00  0.11368683772E-12  0.17120000000E+03  0.17120000000E+03 0.  0.
         13    1    1    2    0    0  0.12056034247E+03  0.85455814321E+02  0.77700851128E+03  0.79093598359E+03  0.10566000000E+00 0. -1.
        994    1    1    2    0    0 -0.22033145302E+03  0.77960974462E+02  0.30585459291E+03  0.42128414963E+03  0.17120000000E+03 0.  0.
        998    1    1    2    0    0  0.99771110555E+02 -0.16341678878E+03  0.41713689209E+03  0.45897986677E+03  0.10000000000E+00 0. -1.
</event>
<event>
 5    1  0.2022058E-009  0.3881739E+03  0.7957747E-01  0.3416322E+00
         13   -1    0    0    0    0  0.00000000000E+00  0.00000000000E+00  0.14999999963E+04  0.15000000000E+04  0.10566000000E+00 0.  1.
        994   -1    0    0    0    0 -0.00000000000E+00 -0.00000000000E+00  0.11368683772E-12  0.17120000000E+03  0.17120000000E+03 0.  0.
         13    1    1    2    0    0  0.15855581498E+02 -0.21545243587E+03  0.10987004424E+04  0.11197382841E+04  0.10566000000E+00 0.  1.
        994    1    1    2    0    0 -0.23140216002E+02  0.24890087916E+03  0.23985714166E+03  0.38642981983E+03  0.17120000000E+03 0.  0.
        998    1    1    2    0    0  0.72846345033E+01 -0.33448443298E+02  0.16144241223E+03  0.16503189608E+03  0.10000000000E+00 0. -1.
</event>
<event>
 5    1  0.2022058E-009  0.3857845E+03  0.7957747E-01  0.3426352E+00
         13   -1    0    0    0    0  0.00000000000E+00  0.00000000000E+00  0.14999999963E+04  0.15000000000E+04  0.10566000000E+00 0. -1.
        994   -1    0    0    0    0 -0.00000000000E+00 -0.00000000000E+00  0.11368683772E-12  0.17120000000E+03  0.17120000000E+03 0.  0.
         13    1    1    2    0    0 -0.14148915386E+02  0.25667663311E+02  0.15851753577E+03  0.16120434565E+03  0.10566000000E+00 0. -1.
        994    1    1    2    0    0  0.39628732151E+02 -0.87058278578E+02  0.31852045394E+02  0.19867957388E+03  0.17120000000E+03 0.  0.
        998    1    1    2    0    0 -0.25479816765E+02  0.61390615266E+02  0.13096304151E+04  0.13113160805E+04  0.10000000000E+00 0. -1.
</event>
<event>
 5    1  0.2022058E-009  0.3883009E+03  0.7957747E-01  0.3415792E+00
         13   -1    0    0    0    0  0.00000000000E+00  0.00000000000E+00  0.14999999963E+04  0.15000000000E+04  0.10566000000E+00 0. -1.
        994   -1    0    0    0    0 -0.00000000000E+00 -0.00000000000E+00  0.11368683772E-12  0.17120000000E+03  0.17120000000E+03 0.  0.
         13    1    1    2    0    0 -0.47071556160E+02 -0.14983902514E+03  0.69664558068E+03  0.71413061907E+03  0.10566000000E+00 0. -1.
        994    1    1    2    0    0  0.81630205316E+02  0.25901796264E+03  0.29505130900E+03  0.43602581384E+03  0.17120000000E+03 0.  0.
        998    1    1    2    0    0 -0.34558649156E+02 -0.10917893750E+03  0.50830310659E+03  0.52104356708E+03  0.10000000000E+00 0.  0.
</event>
<event>
 5    1  0.2022058E-009  0.3882548E+03  0.7957747E-01  0.3415984E+00
         13   -1    0    0    0    0  0.00000000000E+00  0.00000000000E+00  0.14999999963E+04  0.15000000000E+04  0.10566000000E+00 0.  1.
        994   -1    0    0    0    0 -0.00000000000E+00 -0.00000000000E+00  0.11368683772E-12  0.17120000000E+03  0.17120000000E+03 0.  0.
         13    1    1    2    0    0  0.13486460058E+03 -0.18328752982E+03  0.13054207100E+04  0.13251060411E+04  0.10566000000E+00 0.  1.
        994    1    1    2    0    0 -0.13477252949E+03  0.18360710468E+03  0.19221027178E+03  0.34369962493E+03  0.17120000000E+03 0.  0.
        998    1    1    2    0    0 -0.92071092501E-01 -0.31957486161E+00  0.23690145428E+01  0.23943339538E+01  0.10000000000E+00 0. -1.
</event>
<event>
 5    1  0.2022058E-009  0.3882404E+03  0.7957747E-01  0.3416044E+00
         13   -1    0    0    0    0  0.00000000000E+00  0.00000000000E+00  0.14999999963E+04  0.15000000000E+04  0.10566000000E+00 0. -1.
        994   -1    0    0    0    0 -0.00000000000E+00 -0.00000000000E+00  0.11368683772E-12  0.17120000000E+03  0.17120000000E+03 0.  0.
         13    1    1    2    0    0  0.57345065033E+02 -0.22514114190E+03  0.12925819695E+04  0.13132955300E+04  0.10566000000E+00 0. -1.
        994    1    1    2    0    0 -0.57062157891E+02  0.22573325435E+03  0.20236201604E+03  0.35280507014E+03  0.17120000000E+03 0.  0.
        998    1    1    2    0    0 -0.28290714225E+00 -0.59211244901E+00  0.50560107666E+01  0.50993998152E+01  0.10000000000E+00 0.  1.
</event>
<event>
 5    1  0.2022058E-009  0.3883007E+03  0.7957747E-01  0.3415793E+00
         13   -1    0    0    0    0  0.00000000000E+00  0.00000000000E+00  0.14999999963E+04  0.15000000000E+04  0.10566000000E+00 0.  1.
        994   -1    0    0    0    0 -0.00000000000E+00 -0.00000000000E+00  0.11368683772E-12  0.17120000000E+03  0.17120000000E+03 0.  0.
         13    1    1    2    0    0  0.12853975468E+03  0.57427541843E+02  0.83238162636E+03  0.84420351466E+03  0.10566000000E+00 0.  1.
        994    1    1    2    0    0 -0.20315910571E+03 -0.91256381552E+02  0.18245405081E+03  0.33496308762E+03  0.17120000000E+03 0.  0.
        998    1    1    2    0    0  0.74619351026E+02  0.33828839710E+02  0.48516431911E+03  0.49203339772E+03  0.10000000000E+00 0.  1.
</event>
<event>
 5    1  0.2022058E-009  0.3882987E+03  0.7957747E-01  0.3415801E+00
         13   -1    0    0    0    0  0.00000000000E+00  0.00000000000E+00  0.14999999963E+04  0.15000000000E+04  0.10566000000E+00 0.  1.
        994   -1    0    0    0    0 -0.00000000000E+00 -0.00000000000E+00  0.11368683772E-12  0.17120000000E+03  0.17120000000E+03 0.  0.
         13    1    1    2    0    0  0.23486756652E+03  0.16694705654E+03  0.10968877686E+04  0.11341062039E+04  0.10566000000E+00 0.  1.
        994    1    1    2    0    0 -0.24144080741E+03 -0.17127071898E+03  0.37325597707E+03  0.50621812204E+03  0.17120000000E+03 0.  0.
        998    1    1    2    0    0  0.65732408938E+01  0.43236624455E+01  0.29856250562E+02  0.30875674089E+02  0.10000000000E+00 0. -1.
</event>
<event>
 5    1  0.2022058E-009  0.3862942E+03  0.7957747E-01  0.3424202E+00
         13   -1    0    0    0    0  0.00000000000E+00  0.00000000000E+00  0.14999999963E+04  0.15000000000E+04  0.10566000000E+00 0. -1.
        994   -1    0    0    0    0 -0.00000000000E+00 -0.00000000000E+00  0.11368683772E-12  0.17120000000E+03  0.17120000000E+03 0.  0.
         13    1    1    2    0    0 -0.76207754816E+02 -0.39233131536E+02  0.51651290736E+03  0.52357659911E+03  0.10566000000E+00 0. -1.
        994    1    1    2    0    0  0.13487311047E+03  0.10315144854E+03  0.10188919989E+03  0.26176674028E+03  0.17120000000E+03 0.  0.
        998    1    1    2    0    0 -0.58665355649E+02 -0.63918317003E+02  0.88159788903E+03  0.88585666061E+03  0.10000000000E+00 0. -1.
</event>
<event>
 5    1  0.2022058E-009  0.3726990E+03  0.7957747E-01  0.3483578E+00
         13   -1    0    0    0    0  0.00000000000E+00  0.00000000000E+00  0.14999999963E+04  0.15000000000E+04  0.10566000000E+00 0.  1.
        994   -1    0    0    0    0 -0.00000000000E+00 -0.00000000000E+00  0.11368683772E-12  0.17120000000E+03  0.17120000000E+03 0.  0.
         13    1    1    2    0    0  0.74914712744E+02 -0.60900870991E+02  0.43806321125E+03  0.44857610111E+03  0.10566000000E+00 0.  1.
        994    1    1    2    0    0 -0.11841384648E+02  0.19624607887E+03  0.15461529233E+03  0.30309746037E+03  0.17120000000E+03 0.  0.
        998    1    1    2    0    0 -0.63073328096E+02 -0.13534520788E+03  0.90732149270E+03  0.91952643852E+03  0.10000000000E+00 0.  1.
</event>
<event>
 5    1  0.2022058E-009  0.3867148E+03  0.7957747E-01  0.3422432E+00
         13   -1    0    0    0    0  0.00000000000E+00  0.00000000000E+00  0.14999999963E+04  0.15000000000E+04  0.10566000000E+00 0.  1.
        994   -1    0    0    0    0 -0.00000000000E+00 -0.00000000000E+00  0.11368683772E-12  0.17120000000E+03  0.17120000000E+03 0.  0.
         13    1    1    2    0    0  0.18620140818E+03 -0.16549256611E+03  0.85007228492E+03  0.88582258641E+03  0.10566000000E+00 0.  1.
        994    1    1    2    0    0 -0.22282746396E+03  0.19862824768E+03  0.38705797471E+03  0.51790788299E+03  0.17120000000E+03 0.  0.
        998    1    1    2    0    0  0.36626055775E+02 -0.33135681569E+02  0.26286973665E+03  0.26746953060E+03  0.10000000000E+00 0.  1.
</event>
<event>
 5    1  0.2022058E-009  0.3882813E+03  0.7957747E-01  0.3415874E+00
         13   -1    0    0    0    0  0.00000000000E+00  0.00000000000E+00  0.14999999963E+04  0.15000000000E+04  0.10566000000E+00 0.  1.
        994   -1    0    0    0    0 -0.00000000000E+00 -0.00000000000E+00  0.11368683772E-12  0.17120000000E+03  0.17120000000E+03 0.  0.
         13    1    1    2    0    0 -0.21063052006E+03  0.11013634958E+03  0.95248479504E+03  0.98169370347E+03  0.10566000000E+00 0.  1.
        994    1    1    2    0    0  0.25694700857E+03 -0.13232408762E+03  0.34876960706E+03  0.48423249394E+03  0.17120000000E+03 0.  0.
        998    1    1    2    0    0 -0.46316488505E+02  0.22187738043E+02  0.19874559418E+03  0.20527380260E+03  0.10000000000E+00 0.  1.
</event>
<event>
 5    1  0.2022058E-009  0.3883009E+03  0.7957747E-01  0.3415792E+00
         13   -1    0    0    0    0  0.00000000000E+00  0.00000000000E+00  0.14999999963E+04  0.15000000000E+04  0.10566000000E+00 0. -1.
        994   -1    0    0    0    0 -0.00000000000E+00 -0.00000000000E+00  0.11368683772E-12  0.17120000000E+03  0.17120000000E+03 0.  0.
         13    1    1    2    0    0  0.58685307265E+02 -0.16883580976E+03  0.92970876092E+03  0.94673538396E+03  0.10566000000E+00 0. -1.
        994    1    1    2    0    0 -0.80475670551E+02  0.23107960500E+03  0.22758559550E+03  0.37547138463E+03  0.17120000000E+03 0.  0.
        998    1    1    2    0    0  0.21790363285E+02 -0.62243795234E+02  0.34270563986E+03  0.34899323141E+03  0.10000000000E+00 0.  1.
</event>
<event>
 5    1  0.2022058E-009  0.3784846E+03  0.7957747E-01  0.3457784E+00
         13   -1    0    0    0    0  0.00000000000E+00  0.00000000000E+00  0.14999999963E+04  0.15000000000E+04  0.10566000000E+00 0.  1.
        994   -1    0    0    0    0 -0.00000000000E+00 -0.00000000000E+00  0.11368683772E-12  0.17120000000E+03  0.17120000000E+03 0.  0.
         13    1    1    2    0    0  0.21679946180E+02  0.92848375719E+02  0.26242371710E+03  0.27920791429E+03  0.10566000000E+00 0.  1.
        994    1    1    2    0    0 -0.65996952872E+02 -0.21668043306E+03  0.20286458685E+03  0.34895485160E+03  0.17120000000E+03 0.  0.
        998    1    1    2    0    0  0.44317006691E+02  0.12383205734E+03  0.10347116923E+04  0.10430372341E+04  0.10000000000E+00 0.  1.
</event>
<event>
 5    1  0.2022058E-009  0.3883006E+03  0.7957747E-01  0.3415794E+00
         13   -1    0    0    0    0  0.00000000000E+00  0.00000000000E+00  0.14999999963E+04  0.15000000000E+04  0.10566000000E+00 0.  1.
        994   -1    0    0    0    0 -0.00000000000E+00 -0.00000000000E+00  0.11368683772E-12  0.17120000000E+03  0.17120000000E+03 0.  0.
         13    1    1    2    0    0 -0.19003886291E+03  0.38282597366E+02  0.10581821732E+04  0.10757926610E+04  0.10566000000E+00 0.  1.
        994    1    1    2    0    0  0.23148141211E+03 -0.46806318640E+02  0.20915466903E+03  0.35892839285E+03  0.17120000000E+03 0.  0.
        998    1    1    2    0    0 -0.41442549204E+02  0.85237212741E+01  0.23266315409E+03  0.23647894616E+03  0.10000000000E+00 0. -1.
</event>
<event>
 5    1  0.2022058E-009  0.3883004E+03  0.7957747E-01  0.3415794E+00
         13   -1    0    0    0    0  0.00000000000E+00  0.00000000000E+00  0.14999999963E+04  0.15000000000E+04  0.10566000000E+00 0. -1.
        994   -1    0    0    0    0 -0.00000000000E+00 -0.00000000000E+00  0.11368683772E-12  0.17120000000E+03  0.17120000000E+03 0.  0.
         13    1    1    2    0    0  0.21951286012E+03 -0.83252067924E+02  0.12000725581E+04  0.12228209021E+04  0.10566000000E+00 0. -1.
        994    1    1    2    0    0 -0.23166074666E+03  0.87727491893E+02  0.23443046250E+03  0.38161485312E+03  0.17120000000E+03 0.  0.
        998    1    1    2    0    0  0.12147886534E+02 -0.44754239690E+01  0.65496975651E+02  0.66764244820E+02  0.10000000000E+00 0. -1.
</event>
<event>
 5    1  0.2022058E-009  0.3883008E+03  0.7957747E-01  0.3415793E+00
         13   -1    0    0    0    0  0.00000000000E+00  0.00000000000E+00  0.14999999963E+04  0.15000000000E+04  0.10566000000E+00 0. -1.
        994   -1    0    0    0    0 -0.00000000000E+00 -0.00000000000E+00  0.11368683772E-12  0.17120000000E+03  0.17120000000E+03 0.  0.
         13    1    1    2    0    0 -0.14380565546E+03 -0.43210688300E+01  0.65013250971E+03  0.66586111879E+03  0.10566000000E+00 0. -1.
        994    1    1    2    0    0  0.26818148931E+03  0.83679947852E+01  0.28598428989E+03  0.42788758875E+03  0.17120000000E+03 0.  0.
        998    1    1    2    0    0 -0.12437583385E+03 -0.40469259552E+01  0.56388319668E+03  0.57745129245E+03  0.10000000000E+00 0. -1.
</event>
<event>
 5    1  0.2022058E-009  0.3883005E+03  0.7957747E-01  0.3415794E+00
         13   -1    0    0    0    0  0.00000000000E+00  0.00000000000E+00  0.14999999963E+04  0.15000000000E+04  0.10566000000E+00 0. -1.
        994   -1    0    0    0    0 -0.00000000000E+00 -0.00000000000E+00  0.11368683772E-12  0.17120000000E+03  0.17120000000E+03 0.  0.
         13    1    1    2    0    0  0.12400455527E+03  0.85181052398E+02  0.87777440838E+03  0.89057333476E+03  0.10566000000E+00 0. -1.
        994    1    1    2    0    0 -0.18509030581E+03 -0.12729468563E+03  0.18610756960E+03  0.33824225897E+03  0.17120000000E+03 0.  0.
        998    1    1    2    0    0  0.61085750534E+02  0.42113633230E+02  0.43611801830E+03  0.44238440627E+03  0.10000000000E+00 0.  1.
</event>
<event>
 5    1  0.2022058E-009  0.3882760E+03  0.7957747E-01  0.3415896E+00
         13   -1    0    0    0    0  0.00000000000E+00  0.00000000000E+00  0.14999999963E+04  0.15000000000E+04  0.10566000000E+00 0. -1.
        994   -1    0    0    0    0 -0.00000000000E+00 -0.00000000000E+00  0.11368683772E-12  0.17120000000E+03  0.17120000000E+03 0.  0.
         13    1    1    2    0    0 -0.26401346048E+03  0.56670931478E+01  0.87341587609E+03  0.91246398671E+03  0.10566000000E+00 0. -1.
        994    1    1    2    0    0  0.31574737009E+03 -0.94256468173E+01  0.45660527548E+03  0.58101898604E+03  0.17120000000E+03 0.  0.
        998    1    1    2    0    0 -0.51733909615E+02  0.37585536695E+01  0.16997884470E+03  0.17771702725E+03  0.10000000000E+00 0.  1.
</event>
<event>
 5    1  0.2022058E-009  0.3882997E+03  0.7957747E-01  0.3415797E+00
         13   -1    0    0    0    0  0.00000000000E+00  0.00000000000E+00  0.14999999963E+04  0.15000000000E+04  0.10566000000E+00 0.  1.
        994   -1    0    0    0    0 -0.00000000000E+00 -0.00000000000E+00  0.11368683772E-12  0.17120000000E+03  0.17120000000E+03 0.  0.
         13    1    1    2    0    0 -0.17507620430E+03  0.22608477085E+01  0.10382684726E+04  0.10529284027E+04  0.10566000000E+00 0.  1.
        994    1    1    2    0    0  0.22179175827E+03 -0.31384141692E+01  0.18076587954E+03  0.33344741248E+03  0.17120000000E+03 0.  0.
        998    1    1    2    0    0 -0.46715553968E+02  0.87756646073E+00  0.28096564411E+03  0.28482418485E+03  0.10000000000E+00 0.  1.
</event>
<event>
 5    1  0.2022058E-009  0.3882890E+03  0.7957747E-01  0.3415842E+00
         13   -1    0    0    0    0  0.00000000000E+00  0.00000000000E+00  0.14999999963E+04  0.15000000000E+04  0.10566000000E+00 0. -1.
        994   -1    0    0    0    0 -0.00000000000E+00 -0.00000000000E+00  0.11368683772E-12  0.17120000000E+03  0.17120000000E+03 0.  0.
         13    1    1    2    0    0 -0.22655767424E+03  0.33394088464E+02  0.12685096524E+04  0.12890152420E+04  0.10566000000E+00 0. -1.
        994    1    1    2    0    0  0.23127752731E+03 -0.33533794120E+02  0.20405744374E+03  0.35434826136E+03  0.17120000000E+03 0.  0.
        998    1    1    2    0    0 -0.47198530672E+01  0.13970565571E+00  0.27432900169E+02  0.27836496588E+02  0.10000000000E+00 0. -1.
</event>
<event>
 5    1  0.2022058E-009  0.3882371E+03  0.7957747E-01  0.3416058E+00
         13   -1    0    0    0    0  0.00000000000E+00  0.00000000000E+00  0.14999999963E+04  0.15000000000E+04  0.10566000000E+00 0.  1.
        994   -1    0    0    0    0 -0.00000000000E+00 -0.00000000000E+00  0.11368683772E-12  0.17120000000E+03  0.17120000000E+03 0.  0.
         13    1    1    2    0    0 -0.10134145661E+03  0.15751157379E+03  0.10679272168E+04  0.10842271618E+04  0.10566000000E+00 0.  1.
        994    1    1    2    0    0  0.12076914205E+03 -0.19062730448E+03  0.18815650749E+03  0.34005332845E+03  0.17120000000E+03 0.  0.
        998    1    1    2    0    0 -0.19427685443E+02  0.33115730686E+02  0.24391627197E+03  0.24691950978E+03  0.10000000000E+00 0. -1.
</event>
<event>
 5    1  0.2022058E-009  0.3882742E+03  0.7957747E-01  0.3415904E+00
         13   -1    0    0    0    0  0.00000000000E+00  0.00000000000E+00  0.14999999963E+04  0.15000000000E+04  0.10566000000E+00 0. -1.
        994   -1    0    0    0    0 -0.00000000000E+00 -0.00000000000E+00  0.11368683772E-12  0.17120000000E+03  0.17120000000E+03 0.  0.
         13    1    1    2    0    0 -0.67387098691E+02 -0.31021728870E+03  0.10239220149E+04  0.10720037738E+04  0.10566000000E+00 0. -1.
        994    1    1    2    0    0  0.67924989845E+02  0.31140809053E+03  0.47081106721E+03  0.59376872947E+03  0.17120000000E+03 0.  0.
        998    1    1    2    0    0 -0.53789115313E+00 -0.11908018269E+01  0.52669141488E+01  0.54274967097E+01  0.10000000000E+00 0.  1.
</event>
<event>
 5    1  0.2022058E-009  0.3857462E+03  0.7957747E-01  0.3426514E+00
         13   -1    0    0    0    0  0.00000000000E+00  0.00000000000E+00  0.14999999963E+04  0.15000000000E+04  0.10566000000E+00 0.  1.
        994   -1    0    0    0    0 -0.00000000000E+00 -0.00000000000E+00  0.11368683772E-12  0.17120000000E+03  0.17120000000E+03 0.  0.
         13    1    1    2    0    0  0.15196896478E+02 -0.82377730758E+01  0.79334938481E+02  0.81196368119E+02  0.10566000000E+00 0.  1.
        994    1    1    2    0    0 -0.81420982250E+02 -0.10119304194E+02  0.23665235280E+02  0.19131455781E+03  0.17120000000E+03 0.  0.
        998    1    1    2    0    0  0.66224085772E+02  0.18357077270E+02  0.13969998225E+04  0.13986890741E+04  0.10000000000E+00 0.  1.
</event>
<event>
 5    1  0.2022058E-009  0.3881620E+03  0.7957747E-01  0.3416372E+00
         13   -1    0    0    0    0  0.00000000000E+00  0.00000000000E+00  0.14999999963E+04  0.15000000000E+04  0.10566000000E+00 0. -1.
        994   -1    0    0    0    0 -0.00000000000E+00 -0.00000000000E+00  0.11368683772E-12  0.17120000000E+03  0.17120000000E+03 0.  0.
         13    1    1    2    0    0  0.24824052772E+03 -0.20671128106E+03  0.98536639289E+03  0.10369666594E+04  0.10566000000E+00 0. -1.
        994    1    1    2    0    0 -0.25053213178E+03  0.20716335739E+03  0.50621838461E+03  0.62549939937E+03  0.17120000000E+03 0.  0.
        998    1    1    2    0    0  0.22916040565E+01 -0.45207633627E+00  0.84152187803E+01  0.87339412229E+01  0.10000000000E+00 0. -1.
</event>
<event>
 5    1  0.2022058E-009  0.3883005E+03  0.7957747E-01  0.3415794E+00
         13   -1    0    0    0    0  0.00000000000E+00  0.00000000000E+00  0.14999999963E+04  0.15000000000E+04  0.10566000000E+00 0. -1.
        994   -1    0    0    0    0 -0.00000000000E+00 -0.00000000000E+00  0.11368683772E-12  0.17120000000E+03  0.17120000000E+03 0.  0.
         13    1    1    2    0    0 -0.20540957675E+03 -0.53608638960E+02  0.12756813576E+04  0.12932246199E+04  0.10566000000E+00 0. -1.
        994    1    1    2    0    0  0.21294655698E+03  0.55456318786E+02  0.17748406367E+03  0.33050215170E+03  0.17120000000E+03 0.  0.
        998    1    1    2    0    0 -0.75369802309E+01 -0.18476798253E+01  0.46834575051E+02  0.47473228371E+02  0.10000000000E+00 0.  0.
</event>
<event>
 5    1  0.2022058E-009  0.3882957E+03  0.7957747E-01  0.3415814E+00
         13   -1    0    0    0    0  0.00000000000E+00  0.00000000000E+00  0.14999999963E+04  0.15000000000E+04  0.10566000000E+00 0.  1.
        994   -1    0    0    0    0 -0.00000000000E+00 -0.00000000000E+00  0.11368683772E-12  0.17120000000E+03  0.17120000000E+03 0.  0.
         13    1    1    2    0    0 -0.42776962057E+02  0.21328142990E+03  0.13104120393E+04  0.13283442930E+04  0.10566000000E+00 0.  1.
        994    1    1    2    0    0  0.42985834050E+02 -0.21549810013E+03  0.17692619665E+03  0.32999929113E+03  0.17120000000E+03 0.  0.
        998    1    1    2    0    0 -0.20887199315E+00  0.22166702289E+01  0.12661760334E+02  0.12856415875E+02  0.10000000000E+00 0.  1.
</event>
<event>
 5    1  0.2022058E-009  0.3880404E+03  0.7957747E-01  0.3416879E+00
         13   -1    0    0    0    0  0.00000000000E+00  0.00000000000E+00  0.14999999963E+04  0.15000000000E+04  0.10566000000E+00 0. -1.
        994   -1    0    0    0    0 -0.00000000000E+00 -0.00000000000E+00  0.11368683772E-12  0.17120000000E+03  0.17120000000E+03 0.  0.
         13    1    1    2    0    0  0.20012769747E+03 -0.13926790593E+03  0.12402967213E+04  0.12640342610E+04  0.10566000000E+00 0. -1.
        994    1    1    2    0    0 -0.20163056416E+03  0.14202013467E+03  0.23234743998E+03  0.37963057823E+03  0.17120000000E+03 0.  0.
        998    1    1    2    0    0  0.15028666865E+01 -0.27522287442E+01  0.27355835025E+02  0.27535160818E+02  0.10000000000E+00 0. -1.
</event>
<event>
 5    1  0.2022058E-009  0.3882937E+03  0.7957747E-01  0.3415822E+00
         13   -1    0    0    0    0  0.00000000000E+00  0.00000000000E+00  0.14999999963E+04  0.15000000000E+04  0.10566000000E+00 0. -1.
        994   -1    0    0    0    0 -0.00000000000E+00 -0.00000000000E+00  0.11368683772E-12  0.17120000000E+03  0.17120000000E+03 0.  0.
         13    1    1    2    0    0 -0.13942790898E+03  0.18331741382E+03  0.11141294306E+04  0.11376861673E+04  0.10566000000E+00 0. -1.
        994    1    1    2    0    0  0.15550839706E+03 -0.20544322223E+03  0.25820313055E+03  0.40294922229E+03  0.17120000000E+03 0.  0.
        998    1    1    2    0    0 -0.16080488083E+02  0.22125808406E+02  0.12766743515E+03  0.13056461042E+03  0.10000000000E+00 0.  1.
</event>
<event>
 5    1  0.2022058E-009  0.3882880E+03  0.7957747E-01  0.3415846E+00
         13   -1    0    0    0    0  0.00000000000E+00  0.00000000000E+00  0.14999999963E+04  0.15000000000E+04  0.10566000000E+00 0.  1.
        994   -1    0    0    0    0 -0.00000000000E+00 -0.00000000000E+00  0.11368683772E-12  0.17120000000E+03  0.17120000000E+03 0.  0.
         13    1    1    2    0    0  0.90146196385E+01 -0.20673509407E+03  0.10722486986E+04  0.10920338572E+04  0.10566000000E+00 0.  1.
        994    1    1    2    0    0 -0.88974022802E+01  0.24467442240E+03  0.22792798323E+03  0.37577299302E+03  0.17120000000E+03 0.  0.
        998    1    1    2    0    0 -0.11721735830E+00 -0.37939328336E+02  0.19982331449E+03  0.20339314981E+03  0.10000000000E+00 0. -1.
</event>
<event>
 5    1  0.2022058E-009  0.3733740E+03  0.7957747E-01  0.3480527E+00
         13   -1    0    0    0    0  0.00000000000E+00  0.00000000000E+00  0.14999999963E+04  0.15000000000E+04  0.10566000000E+00 0. -1.
        994   -1    0    0    0    0 -0.00000000000E+00 -0.00000000000E+00  0.11368683772E-12  0.17120000000E+03  0.17120000000E+03 0.  0.
         13    1    1    2    0    0 -0.82353117267E+02 -0.92193776282E+02  0.74387869587E+03  0.75408040264E+03  0.10566000000E+00 0. -1.
        994    1    1    2    0    0  0.37495372863E+02  0.22969067215E+03  0.22367956602E+03  0.36538431290E+03  0.17120000000E+03 0.  0.
        998    1    1    2    0    0  0.44857744404E+02 -0.13749689586E+03  0.53244173439E+03  0.55173528446E+03  0.10000000000E+00 0. -1.
</event>
<event>
 5    1  0.2022058E-009  0.3878659E+03  0.7957747E-01  0.3417608E+00
         13   -1    0    0    0    0  0.00000000000E+00  0.00000000000E+00  0.14999999963E+04  0.15000000000E+04  0.10566000000E+00 0.  1.
        994   -1    0    0    0    0 -0.00000000000E+00 -0.00000000000E+00  0.11368683772E-12  0.17120000000E+03  0.17120000000E+03 0.  0.
         13    1    1    2    0    0 -0.15569022324E+03  0.18124662846E+03  0.10731438732E+04  0.10994214704E+04  0.10566000000E+00 0.  1.
        994    1    1    2    0    0  0.16765906688E+03 -0.20587290361E+03  0.27921626384E+03  0.42162112986E+03  0.17120000000E+03 0.  0.
        998    1    1    2    0    0 -0.11968843646E+02  0.24626275149E+02  0.14763985929E+03  0.15015739974E+03  0.10000000000E+00 0.  1.
</event>
<event>
 5    1  0.2022058E-009  0.3882878E+03  0.7957747E-01  0.3415847E+00
         13   -1    0    0    0    0  0.00000000000E+00  0.00000000000E+00  0.14999999963E+04  0.15000000000E+04  0.10566000000E+00 0. -1.
        994   -1    0    0    0    0 -0.00000000000E+00 -0.00000000000E+00  0.11368683772E-12  0.17120000000E+03  0.17120000000E+03 0.  0.
         13    1    1    2    0    0 -0.21521316313E+03  0.16455695707E+03  0.10987432793E+04  0.11316503447E+04  0.10566000000E+00 0. -1.
        994    1    1    2    0    0  0.22750814749E+03 -0.17295985361E+03  0.33807251522E+03  0.47463410505E+03  0.17120000000E+03 0.  0.
        998    1    1    2    0    0 -0.12294984359E+02  0.84028965376E+01  0.63184201758E+02  0.64915550235E+02  0.10000000000E+00 0. -1.
</event>
<event>
 5    1  0.3051432E-009  0.3882611E+03  0.7957747E-01  0.3415958E+00
         13   -1    0    0    0    0  0.00000000000E+00  0.00000000000E+00  0.14999999963E+04  0.15000000000E+04  0.10566000000E+00 0.  1.
        994   -1    0    0    0    0 -0.00000000000E+00 -0.00000000000E+00  0.11368683772E-12  0.17120000000E+03  0.17120000000E+03 0.  0.
         13    1    1    2    0    0 -0.18479893294E+03 -0.27742261319E+03  0.92906830720E+03  0.98705718301E+03  0.10566000000E+00 0.  1.
        994    1    1    2    0    0  0.18525255497E+03  0.27822982705E+03  0.56694532550E+03  0.68004910696E+03  0.17120000000E+03 0.  0.
        998    1    1    2    0    0 -0.45362202851E+00 -0.80721385980E+00  0.39863635862E+01  0.40937100290E+01  0.10000000000E+00 0. -1.
</event>
<event>
 5    1  0.2022058E-009  0.3882988E+03  0.7957747E-01  0.3415801E+00
         13   -1    0    0    0    0  0.00000000000E+00  0.00000000000E+00  0.14999999963E+04  0.15000000000E+04  0.10566000000E+00 0. -1.
        994   -1    0    0    0    0 -0.00000000000E+00 -0.00000000000E+00  0.11368683772E-12  0.17120000000E+03  0.17120000000E+03 0.  0.
         13    1    1    2    0    0  0.21565249592E+03 -0.69713190137E+02  0.13021333617E+04  0.13217099647E+04  0.10566000000E+00 0. -1.
        994    1    1    2    0    0 -0.21668155251E+03  0.70014264248E+02  0.19205705248E+03  0.34358149514E+03  0.17120000000E+03 0.  0.
        998    1    1    2    0    0  0.10290565899E+01 -0.30107411093E+00  0.58095821067E+01  0.59085402038E+01  0.10000000000E+00 0.  1.
</event>
<event>
 5    1  0.2022058E-009  0.3882974E+03  0.7957747E-01  0.3415807E+00
         13   -1    0    0    0    0  0.00000000000E+00  0.00000000000E+00  0.14999999963E+04  0.15000000000E+04  0.10566000000E+00 0. -1.
        994   -1    0    0    0    0 -0.00000000000E+00 -0.00000000000E+00  0.11368683772E-12  0.17120000000E+03  0.17120000000E+03 0.  0.
         13    1    1    2    0    0 -0.18630590052E+03  0.11438758806E+03  0.13185652887E+04  0.13365660630E+04  0.10566000000E+00 0. -1.
        994    1    1    2    0    0  0.18705633787E+03 -0.11473190245E+03  0.17636371398E+03  0.32949519356E+03  0.17120000000E+03 0.  0.
        998    1    1    2    0    0 -0.75043734826E+00  0.34431438751E+00  0.50709935576E+01  0.51387434526E+01  0.10000000000E+00 0.  1.
</event>
<event>
 5    1  0.2022058E-009  0.3882894E+03  0.7957747E-01  0.3415840E+00
         13   -1    0    0    0    0  0.00000000000E+00  0.00000000000E+00  0.14999999963E+04  0.15000000000E+04  0.10566000000E+00 0. -1.
        994   -1    0    0    0    0 -0.00000000000E+00 -0.00000000000E+00  0.11368683772E-12  0.17120000000E+03  0.17120000000E+03 0.  0.
         13    1    1    2    0    0  0.16930744986E+03 -0.11837964701E+03  0.12307002096E+04  0.12479189760E+04  0.10566000000E+00 0. -1.
        994    1    1    2    0    0 -0.18240355477E+03  0.12628981364E+03  0.18085770306E+03  0.33352529526E+03  0.17120000000E+03 0.  0.
        998    1    1    2    0    0  0.13096104915E+02 -0.79101666302E+01  0.88442083585E+02  0.89755728780E+02  0.10000000000E+00 0. -1.
</event>
<event>
 5    1  0.2022058E-009  0.3872720E+03  0.7957747E-01  0.3420093E+00
         13   -1    0    0    0    0  0.00000000000E+00  0.00000000000E+00  0.14999999963E+04  0.15000000000E+04  0.10566000000E+00 0.  1.
        994   -1    0    0    0    0 -0.00000000000E+00 -0.00000000000E+00  0.11368683772E-12  0.17120000000E+03  0.17120000000E+03 0.  0.
         13    1    1    2    0    0  0.13247990192E+03  0.17316115754E+03  0.11608447682E+04  0.11811419466E+04  0.10566000000E+00 0.  1.
        994    1    1    2    0    0 -0.13747471063E+03 -0.18574304188E+03  0.20012458484E+03  0.35036989472E+03  0.17120000000E+03 0.  0.
        998    1    1    2    0    0  0.49948087115E+01  0.12581884343E+02  0.13903064321E+03  0.13968815869E+03  0.10000000000E+00 0.  1.
</event>
<event>
 5    1  0.2022058E-009  0.3882982E+03  0.7957747E-01  0.3415803E+00
         13   -1    0    0    0    0  0.00000000000E+00  0.00000000000E+00  0.14999999963E+04  0.15000000000E+04  0.10566000000E+00 0.  1.
        994   -1    0    0    0    0 -0.00000000000E+00 -0.00000000000E+00  0.11368683772E-12  0.17120000000E+03  0.17120000000E+03 0.  0.
         13    1    1    2    0    0  0.54204056280E+01 -0.55420076505E+02  0.24029950888E+03  0.24666704443E+03  0.10566000000E+00 0.  1.
        994    1    1    2    0    0 -0.23018489493E+02  0.27562957880E+03  0.30953383330E+03  0.44902355120E+03  0.17120000000E+03 0.  0.
        998    1    1    2    0    0  0.17598083865E+02 -0.22020950230E+03  0.95016665410E+03  0.97550940437E+03  0.10000000000E+00 0.  1.
</event>
<event>
 5    1  0.2022058E-009  0.3788714E+03  0.7957747E-01  0.3456088E+00
         13   -1    0    0    0    0  0.00000000000E+00  0.00000000000E+00  0.14999999963E+04  0.15000000000E+04  0.10566000000E+00 0. -1.
        994   -1    0    0    0    0 -0.00000000000E+00 -0.00000000000E+00  0.11368683772E-12  0.17120000000E+03  0.17120000000E+03 0.  0.
         13    1    1    2    0    0 -0.29874798484E+02 -0.57378086707E+01  0.12579875233E+03  0.12942473984E+03  0.10566000000E+00 0. -1.
        994    1    1    2    0    0 -0.37519844181E+02  0.10007459057E+03  0.44040139562E+02  0.20657114096E+03  0.17120000000E+03 0.  0.
        998    1    1    2    0    0  0.67394642664E+02 -0.94336781903E+02  0.13301611044E+04  0.13352041192E+04  0.10000000000E+00 0. -1.
</event>
<event>
 5    1  0.2022058E-009  0.3855226E+03  0.7957747E-01  0.3427459E+00
         13   -1    0    0    0    0  0.00000000000E+00  0.00000000000E+00  0.14999999963E+04  0.15000000000E+04  0.10566000000E+00 0.  1.
        994   -1    0    0    0    0 -0.00000000000E+00 -0.00000000000E+00  0.11368683772E-12  0.17120000000E+03  0.17120000000E+03 0.  0.
         13    1    1    2    0    0 -0.66242469011E+01 -0.10254748196E+02  0.28548426965E+02  0.31049385723E+02  0.10566000000E+00 0.  1.
        994    1    1    2    0    0  0.90607917740E+02  0.11643561480E+03  0.76429274901E+02  0.23857477070E+03  0.17120000000E+03 0.  0.
        998    1    1    2    0    0 -0.83983670839E+02 -0.10618086660E+03  0.13950222944E+04  0.14015758436E+04  0.10000000000E+00 0.  1.
</event>
<event>
 5    1  0.2022058E-009  0.3865632E+03  0.7957747E-01  0.3423069E+00
         13   -1    0    0    0    0  0.00000000000E+00  0.00000000000E+00  0.14999999963E+04  0.15000000000E+04  0.10566000000E+00 0. -1.
        994   -1    0    0    0    0 -0.00000000000E+00 -0.00000000000E+00  0.11368683772E-12  0.17120000000E+03  0.17120000000E+03 0.  0.
         13    1    1    2    0    0  0.13364920188E+03  0.10777484181E+03  0.97599939604E+03  0.99098554880E+03  0.10566000000E+00 0. -1.
        994    1    1    2    0    0 -0.15289710587E+03 -0.14250460362E+03  0.15988264698E+03  0.31393787258E+03  0.17120000000E+03 0.  0.
        998    1    1    2    0    0  0.19247903980E+02  0.34729761804E+02  0.36411795326E+03  0.36627657862E+03  0.10000000000E+00 0. -1.
</event>
<event>
 5    1  0.2022058E-009  0.3840765E+03  0.7957747E-01  0.3433598E+00
         13   -1    0    0    0    0  0.00000000000E+00  0.00000000000E+00  0.14999999963E+04  0.15000000000E+04  0.10566000000E+00 0. -1.
        994   -1    0    0    0    0 -0.00000000000E+00 -0.00000000000E+00  0.11368683772E-12  0.17120000000E+03  0.17120000000E+03 0.  0.
         13    1    1    2    0    0  0.87889238183E+01 -0.26185096126E+02  0.78360227098E+02  0.83085743638E+02  0.10566000000E+00 0. -1.
        994    1    1    2    0    0 -0.79870727161E+02  0.14518942854E+03  0.98641113840E+02  0.25787363680E+03  0.17120000000E+03 0.  0.
        998    1    1    2    0    0  0.71081803343E+02 -0.11900433241E+03  0.13229986553E+04  0.13302406196E+04  0.10000000000E+00 0. -1.
</event>
<event>
 5    1  0.2022058E-009  0.3882791E+03  0.7957747E-01  0.3415883E+00
         13   -1    0    0    0    0  0.00000000000E+00  0.00000000000E+00  0.14999999963E+04  0.15000000000E+04  0.10566000000E+00 0. -1.
        994   -1    0    0    0    0 -0.00000000000E+00 -0.00000000000E+00  0.11368683772E-12  0.17120000000E+03  0.17120000000E+03 0.  0.
         13    1    1    2    0    0 -0.36384965217E+02 -0.22121024604E+03  0.13088555122E+04  0.13279158865E+04  0.10566000000E+00 0. -1.
        994    1    1    2    0    0  0.36788473970E+02  0.22203340431E+03  0.18694346989E+03  0.33898307536E+03  0.17120000000E+03 0.  0.
        998    1    1    2    0    0 -0.40350875238E+00 -0.82315826587E+00  0.42010141949E+01  0.43010381433E+01  0.10000000000E+00 0.  1.
</event>
<event>
 5    1  0.2022058E-009  0.3882997E+03  0.7957747E-01  0.3415797E+00
         13   -1    0    0    0    0  0.00000000000E+00  0.00000000000E+00  0.14999999963E+04  0.15000000000E+04  0.10566000000E+00 0.  1.
        994   -1    0    0    0    0 -0.00000000000E+00 -0.00000000000E+00  0.11368683772E-12  0.17120000000E+03  0.17120000000E+03 0.  0.
         13    1    1    2    0    0  0.32473052531E+01  0.99138158324E+02  0.52278000969E+03  0.53210700909E+03  0.10566000000E+00 0.  1.
        994    1    1    2    0    0 -0.84313917756E+01 -0.24111340015E+03  0.22001935881E+03  0.36867969614E+03  0.17120000000E+03 0.  0.
        998    1    1    2    0    0  0.51840865225E+01  0.14197524182E+03  0.75720062778E+03  0.77041329477E+03  0.10000000000E+00 0.  1.
</event>
<event>
 5    1  0.2022058E-009  0.3851652E+03  0.7957747E-01  0.3428972E+00
         13   -1    0    0    0    0  0.00000000000E+00  0.00000000000E+00  0.14999999963E+04  0.15000000000E+04  0.10566000000E+00 0.  1.
        994   -1    0    0    0    0 -0.00000000000E+00 -0.00000000000E+00  0.11368683772E-12  0.17120000000E+03  0.17120000000E+03 0.  0.
         13    1    1    2    0    0  0.20673093689E+03 -0.72829336278E+02  0.70296412260E+03  0.73634255704E+03  0.10566000000E+00 0.  1.
        994    1    1    2    0    0 -0.30548085229E+03  0.61182248923E+02  0.44783581187E+03  0.57177633135E+03  0.17120000000E+03 0.  0.
        998    1    1    2    0    0  0.98749915398E+02  0.11647087355E+02  0.34920006181E+03  0.36308111160E+03  0.10000000000E+00 0. -1.
</event>
<event>
 5    1  0.2022058E-009  0.3881287E+03  0.7957747E-01  0.3416510E+00
         13   -1    0    0    0    0  0.00000000000E+00  0.00000000000E+00  0.14999999963E+04  0.15000000000E+04  0.10566000000E+00 0.  1.
        994   -1    0    0    0    0 -0.00000000000E+00 -0.00000000000E+00  0.11368683772E-12  0.17120000000E+03  0.17120000000E+03 0.  0.
         13    1    1    2    0    0 -0.19799905370E+03 -0.23562611141E+03  0.10246868445E+04  0.10699095430E+04  0.10566000000E+00 0.  1.
        994    1    1    2    0    0  0.20263581881E+03  0.23955259199E+03  0.44700280597E+03  0.57233527581E+03  0.17120000000E+03 0.  0.
        998    1    1    2    0    0 -0.46367651091E+01 -0.39264805852E+01  0.28310345795E+02  0.28955181221E+02  0.10000000000E+00 0. -1.
</event>
<event>
 5    1  0.2022058E-009  0.3881775E+03  0.7957747E-01  0.3416307E+00
         13   -1    0    0    0    0  0.00000000000E+00  0.00000000000E+00  0.14999999963E+04  0.15000000000E+04  0.10566000000E+00 0. -1.
        994   -1    0    0    0    0 -0.00000000000E+00 -0.00000000000E+00  0.11368683772E-12  0.17120000000E+03  0.17120000000E+03 0.  0.
         13    1    1    2    0    0 -0.63819463856E+02  0.14433394652E+03  0.77033503342E+03  0.78633408101E+03  0.10566000000E+00 0. -1.
        994    1    1    2    0    0  0.11275402190E+03 -0.23398293199E+03  0.26361141821E+03  0.40775225533E+03  0.17120000000E+03 0.  0.
        998    1    1    2    0    0 -0.48934558045E+02  0.89648985472E+02  0.46605354465E+03  0.47711366366E+03  0.10000000000E+00 0. -1.
</event>
<event>
 5    1  0.2022058E-009  0.3882973E+03  0.7957747E-01  0.3415807E+00
         13   -1    0    0    0    0  0.00000000000E+00  0.00000000000E+00  0.14999999963E+04  0.15000000000E+04  0.10566000000E+00 0.  1.
        994   -1    0    0    0    0 -0.00000000000E+00 -0.00000000000E+00  0.11368683772E-12  0.17120000000E+03  0.17120000000E+03 0.  0.
         13    1    1    2    0    0  0.14669682881E+03 -0.20728027384E+03  0.12415172228E+04  0.12672214081E+04  0.10566000000E+00 0.  1.
        994    1    1    2    0    0 -0.14755039153E+03  0.20833065267E+03  0.25234809379E+03  0.39769558625E+03  0.17120000000E+03 0.  0.
        998    1    1    2    0    0  0.85356271938E+00 -0.10503788296E+01  0.61346797394E+01  0.62830056905E+01  0.10000000000E+00 0.  0.
</event>
<event>
 5    1  0.2022058E-009  0.3879473E+03  0.7957747E-01  0.3417268E+00
         13   -1    0    0    0    0  0.00000000000E+00  0.00000000000E+00  0.14999999963E+04  0.15000000000E+04  0.10566000000E+00 0. -1.
        994   -1    0    0    0    0 -0.00000000000E+00 -0.00000000000E+00  0.11368683772E-12  0.17120000000E+03  0.17120000000E+03 0.  0.
         13    1    1    2    0    0 -0.14908916348E+03  0.10932690402E+03  0.10736426505E+04  0.10894441256E+04  0.10566000000E+00 0. -1.
        994    1    1    2    0    0  0.17434616494E+03 -0.14091986529E+03  0.18567298144E+03  0.33769644609E+03  0.17120000000E+03 0.  0.
        998    1    1    2    0    0 -0.25257001455E+02  0.31592961269E+02  0.24068436433E+03  0.24405942833E+03  0.10000000000E+00 0.  1.
</event>
<event>
 5    1  0.2022058E-009  0.3882973E+03  0.7957747E-01  0.3415807E+00
         13   -1    0    0    0    0  0.00000000000E+00  0.00000000000E+00  0.14999999963E+04  0.15000000000E+04  0.10566000000E+00 0.  1.
        994   -1    0    0    0    0 -0.00000000000E+00 -0.00000000000E+00  0.11368683772E-12  0.17120000000E+03  0.17120000000E+03 0.  0.
         13    1    1    2    0    0  0.52338990210E+02 -0.27229958703E+03  0.11181295310E+04  0.11519983048E+04  0.10566000000E+00 0.  1.
        994    1    1    2    0    0 -0.53773974003E+02  0.28202578736E+03  0.34236358410E+03  0.47848975823E+03  0.17120000000E+03 0.  0.
        998    1    1    2    0    0  0.14349837925E+01 -0.97262003271E+01  0.39506881152E+02  0.40711936943E+02  0.10000000000E+00 0. -1.
</event>
<event>
 5    1  0.2022058E-009  0.3874434E+03  0.7957747E-01  0.3419375E+00
         13   -1    0    0    0    0  0.00000000000E+00  0.00000000000E+00  0.14999999963E+04  0.15000000000E+04  0.10566000000E+00 0.  1.
        994   -1    0    0    0    0 -0.00000000000E+00 -0.00000000000E+00  0.11368683772E-12  0.17120000000E+03  0.17120000000E+03 0.  0.
         13    1    1    2    0    0  0.16535791842E+03  0.25274310465E+03  0.10683422520E+04  0.11102150678E+04  0.10566000000E+00 0.  1.
        994    1    1    2    0    0 -0.16779403289E+03 -0.25815390238E+03  0.42298835856E+03  0.55047876096E+03  0.17120000000E+03 0.  0.
        998    1    1    2    0    0  0.24361144751E+01  0.54107977342E+01  0.86693856718E+01  0.10506171224E+02  0.10000000000E+00 0. -1.
</event>
<event>
 5    1  0.2022058E-009  0.3883007E+03  0.7957747E-01  0.3415793E+00
         13   -1    0    0    0    0  0.00000000000E+00  0.00000000000E+00  0.14999999963E+04  0.15000000000E+04  0.10566000000E+00 0. -1.
        994   -1    0    0    0    0 -0.00000000000E+00 -0.00000000000E+00  0.11368683772E-12  0.17120000000E+03  0.17120000000E+03 0.  0.
         13    1    1    2    0    0  0.19800724877E+03  0.15093769201E+02  0.10397713742E+04  0.10585646953E+04  0.10566000000E+00 0. -1.
        994    1    1    2    0    0 -0.24259251827E+03 -0.18489919358E+02  0.22448220323E+03  0.37268580145E+03  0.17120000000E+03 0.  0.
        998    1    1    2    0    0  0.44585269504E+02  0.33961501574E+01  0.23574641889E+03  0.23994950326E+03  0.10000000000E+00 0. -1.
</event>
<event>
 5    1  0.2022058E-009  0.3871950E+03  0.7957747E-01  0.3420416E+00
         13   -1    0    0    0    0  0.00000000000E+00  0.00000000000E+00  0.14999999963E+04  0.15000000000E+04  0.10566000000E+00 0.  1.
        994   -1    0    0    0    0 -0.00000000000E+00 -0.00000000000E+00  0.11368683772E-12  0.17120000000E+03  0.17120000000E+03 0.  0.
         13    1    1    2    0    0 -0.12213609482E+03  0.18211865205E+03  0.12189930397E+04  0.12385590301E+04  0.10566000000E+00 0.  1.
        994    1    1    2    0    0  0.12237530522E+03 -0.20008698581E+03  0.20731736520E+03  0.35679188210E+03  0.17120000000E+03 0.  0.
        998    1    1    2    0    0 -0.23921039702E+00  0.17968333764E+02  0.73689591408E+02  0.75849087811E+02  0.10000000000E+00 0.  1.
</event>
<event>
 5    1  0.2022058E-009  0.3883008E+03  0.7957747E-01  0.3415793E+00
         13   -1    0    0    0    0  0.00000000000E+00  0.00000000000E+00  0.14999999963E+04  0.15000000000E+04  0.10566000000E+00 0. -1.
        994   -1    0    0    0    0 -0.00000000000E+00 -0.00000000000E+00  0.11368683772E-12  0.17120000000E+03  0.17120000000E+03 0.  0.
         13    1    1    2    0    0 -0.20972094254E+03  0.91481513060E+02  0.11789817804E+04  0.12009786804E+04  0.10566000000E+00 0. -1.
        994    1    1    2    0    0  0.22573438324E+03 -0.98522975889E+02  0.23120113399E+03  0.37871650731E+03  0.17120000000E+03 0.  0.
        998    1    1    2    0    0 -0.16013440695E+02  0.70414628284E+01  0.89817081878E+02  0.91504812326E+02  0.10000000000E+00 0.  0.
</event>
<event>
 5    1  0.2022058E-009  0.3882913E+03  0.7957747E-01  0.3415832E+00
         13   -1    0    0    0    0  0.00000000000E+00  0.00000000000E+00  0.14999999963E+04  0.15000000000E+04  0.10566000000E+00 0. -1.
        994   -1    0    0    0    0 -0.00000000000E+00 -0.00000000000E+00  0.11368683772E-12  0.17120000000E+03  0.17120000000E+03 0.  0.
         13    1    1    2    0    0 -0.96967758842E+02  0.18351561876E+03  0.12361557413E+04  0.12534599142E+04  0.10566000000E+00 0. -1.
        994    1    1    2    0    0  0.10347889997E+03 -0.19512318142E+03  0.17900495202E+03  0.33186315179E+03  0.17120000000E+03 0.  0.
        998    1    1    2    0    0 -0.65111411285E+01  0.11607562658E+02  0.84839302965E+02  0.85876934023E+02  0.10000000000E+00 0. -1.
</event>
<event>
 5    1  0.2022058E-009  0.3883003E+03  0.7957747E-01  0.3415795E+00
         13   -1    0    0    0    0  0.00000000000E+00  0.00000000000E+00  0.14999999963E+04  0.15000000000E+04  0.10566000000E+00 0. -1.
        994   -1    0    0    0    0 -0.00000000000E+00 -0.00000000000E+00  0.11368683772E-12  0.17120000000E+03  0.17120000000E+03 0.  0.
         13    1    1    2    0    0 -0.22129074483E+03 -0.13615916009E+03  0.11735776353E+04  0.12019955856E+04  0.10566000000E+00 0. -1.
        994    1    1    2    0    0  0.22872760445E+03  0.14089840296E+03  0.28689022306E+03  0.42870049811E+03  0.17120000000E+03 0.  0.
        998    1    1    2    0    0 -0.74368596230E+01 -0.47392428707E+01  0.39532137925E+02  0.40503916267E+02  0.10000000000E+00 0. -1.
</event>
<event>
 5    1  0.2022058E-009  0.3882803E+03  0.7957747E-01  0.3415878E+00
         13   -1    0    0    0    0  0.00000000000E+00  0.00000000000E+00  0.14999999963E+04  0.15000000000E+04  0.10566000000E+00 0.  1.
        994   -1    0    0    0    0 -0.00000000000E+00 -0.00000000000E+00  0.11368683772E-12  0.17120000000E+03  0.17120000000E+03 0.  0.
         13    1    1    2    0    0  0.21320364767E+03 -0.16143717955E+03  0.12008647763E+04  0.12302820735E+04  0.10566000000E+00 0.  1.
        994    1    1    2    0    0 -0.21528463376E+03  0.16251415370E+03  0.28995000704E+03  0.43143802599E+03  0.17120000000E+03 0.  0.
        998    1    1    2    0    0  0.20809860902E+01 -0.10769741472E+01  0.91852129386E+01  0.94799004820E+01  0.10000000000E+00 0.  1.
</event>
<event>
 5    1  0.2030592E-009  0.3882908E+03  0.7957747E-01  0.3415834E+00
         13   -1    0    0    0    0  0.00000000000E+00  0.00000000000E+00  0.14999999963E+04  0.15000000000E+04  0.10566000000E+00 0.  1.
        994   -1    0    0    0    0 -0.00000000000E+00 -0.00000000000E+00  0.11368683772E-12  0.17120000000E+03  0.17120000000E+03 0.  0.
         13    1    1    2    0    0 -0.23797141721E+03 -0.10514089824E+03  0.12335136412E+04  0.12606509898E+04  0.10566000000E+00 0.  1.
        994    1    1    2    0    0  0.23823945738E+03  0.10517701925E+03  0.26516626046E+03  0.40919778851E+03  0.17120000000E+03 0.  0.
        998    1    1    2    0    0 -0.26804017219E+00 -0.36121009213E-01  0.13200945706E+01  0.13512216460E+01  0.10000000000E+00 0.  0.
</event>
<event>
 5    1  0.2022058E-009  0.2852539E+03  0.7957747E-01  0.4007262E+00
         13   -1    0    0    0    0  0.00000000000E+00  0.00000000000E+00  0.14999999963E+04  0.15000000000E+04  0.10566000000E+00 0.  1.
        994   -1    0    0    0    0 -0.00000000000E+00 -0.00000000000E+00  0.11368683772E-12  0.17120000000E+03  0.17120000000E+03 0.  0.
         13    1    1    2    0    0  0.85776405236E+02 -0.10408977145E+03  0.71882008300E+03  0.73136488506E+03  0.10566000000E+00 0.  1.
        994    1    1    2    0    0 -0.11867784389E+03 -0.17654729835E+02  0.74416622561E+02  0.22190852582E+03  0.17120000000E+03 0.  0.
        998    1    1    2    0    0  0.32901438658E+02  0.12174450129E+03  0.70676329072E+03  0.71792658912E+03  0.10000000000E+00 0.  1.
</event>
<event>
 5    1  0.2022058E-009  0.3698235E+03  0.7957747E-01  0.3496702E+00
         13   -1    0    0    0    0  0.00000000000E+00  0.00000000000E+00  0.14999999963E+04  0.15000000000E+04  0.10566000000E+00 0. -1.
        994   -1    0    0    0    0 -0.00000000000E+00 -0.00000000000E+00  0.11368683772E-12  0.17120000000E+03  0.17120000000E+03 0.  0.
         13    1    1    2    0    0 -0.14188731440E+02  0.51704497501E+02  0.21123792323E+03  0.21793610654E+03  0.10566000000E+00 0. -1.
        994    1    1    2    0    0  0.14488071860E+03  0.45968424295E+02  0.94118621996E+02  0.24753034897E+03  0.17120000000E+03 0.  0.
        998    1    1    2    0    0 -0.13069198716E+03 -0.97672921796E+02  0.11946434511E+04  0.12057335445E+04  0.10000000000E+00 0. -1.
</event>
<event>
 5    1  0.2022058E-009  0.3882943E+03  0.7957747E-01  0.3415820E+00
         13   -1    0    0    0    0  0.00000000000E+00  0.00000000000E+00  0.14999999963E+04  0.15000000000E+04  0.10566000000E+00 0.  1.
        994   -1    0    0    0    0 -0.00000000000E+00 -0.00000000000E+00  0.11368683772E-12  0.17120000000E+03  0.17120000000E+03 0.  0.
         13    1    1    2    0    0 -0.18280496213E+02 -0.23022887208E+03  0.11753903094E+04  0.11978655603E+04  0.10566000000E+00 0.  1.
        994    1    1    2    0    0  0.18836454200E+02  0.24778325913E+03  0.23624029223E+03  0.38323657339E+03  0.17120000000E+03 0.  0.
        998    1    1    2    0    0 -0.55595798635E+00 -0.17554387049E+02  0.88369394655E+02  0.90097866266E+02  0.10000000000E+00 0. -1.
</event>
<event>
 5    1  0.2022058E-009  0.3871634E+03  0.7957747E-01  0.3420549E+00
         13   -1    0    0    0    0  0.00000000000E+00  0.00000000000E+00  0.14999999963E+04  0.15000000000E+04  0.10566000000E+00 0. -1.
        994   -1    0    0    0    0 -0.00000000000E+00 -0.00000000000E+00  0.11368683772E-12  0.17120000000E+03  0.17120000000E+03 0.  0.
         13    1    1    2    0    0 -0.10183869584E+02 -0.13275580882E+03  0.69393184189E+03  0.70658985863E+03  0.10566000000E+00 0. -1.
        994    1    1    2    0    0  0.36798209108E+02  0.21741838746E+03  0.17973895344E+03  0.33202469002E+03  0.17120000000E+03 0.  0.
        998    1    1    2    0    0 -0.26614339524E+02 -0.84662578643E+02  0.62632920095E+03  0.63258545135E+03  0.10000000000E+00 0. -1.
</event>
<event>
 5    1  0.2022058E-009  0.3882971E+03  0.7957747E-01  0.3415808E+00
         13   -1    0    0    0    0  0.00000000000E+00  0.00000000000E+00  0.14999999963E+04  0.15000000000E+04  0.10566000000E+00 0. -1.
        994   -1    0    0    0    0 -0.00000000000E+00 -0.00000000000E+00  0.11368683772E-12  0.17120000000E+03  0.17120000000E+03 0.  0.
         13    1    1    2    0    0  0.85972168123E+01  0.22707526463E+03  0.13034669485E+04  0.13231262921E+04  0.10566000000E+00 0. -1.
        994    1    1    2    0    0 -0.86458833325E+01 -0.22771093414E+03  0.19237790740E+03  0.34386875416E+03  0.17120000000E+03 0.  0.
        998    1    1    2    0    0  0.48666520190E-01  0.63566951661E+00  0.41551403634E+01  0.42049536982E+01  0.10000000000E+00 0. -1.
</event>
<event>
 5    1  0.2022058E-009  0.3881698E+03  0.7957747E-01  0.3416339E+00
         13   -1    0    0    0    0  0.00000000000E+00  0.00000000000E+00  0.14999999963E+04  0.15000000000E+04  0.10566000000E+00 0. -1.
        994   -1    0    0    0    0 -0.00000000000E+00 -0.00000000000E+00  0.11368683772E-12  0.17120000000E+03  0.17120000000E+03 0.  0.
         13    1    1    2    0    0 -0.23119420995E+03 -0.19932481678E+03  0.10842860599E+04  0.11264357132E+04  0.10566000000E+00 0. -1.
        994    1    1    2    0    0  0.23203170455E+03  0.19921481193E+03  0.41177278318E+03  0.54073239053E+03  0.17120000000E+03 0.  0.
        998    1    1    2    0    0 -0.83749460078E+00  0.11000485259E+00  0.39411532392E+01  0.40318962200E+01  0.10000000000E+00 0.  1.
</event>
<event>
 5    1  0.2022058E-009  0.3882242E+03  0.7957747E-01  0.3416112E+00
         13   -1    0    0    0    0  0.00000000000E+00  0.00000000000E+00  0.14999999963E+04  0.15000000000E+04  0.10566000000E+00 0. -1.
        994   -1    0    0    0    0 -0.00000000000E+00 -0.00000000000E+00  0.11368683772E-12  0.17120000000E+03  0.17120000000E+03 0.  0.
         13    1    1    2    0    0 -0.14076622752E+03  0.41186546800E+02  0.83335979878E+03  0.84616784850E+03  0.10566000000E+00 0. -1.
        994    1    1    2    0    0  0.21518162191E+03 -0.60862804130E+02  0.18427063653E+03  0.33655982949E+03  0.17120000000E+03 0.  0.
        998    1    1    2    0    0 -0.74415394399E+02  0.19676257330E+02  0.48236956097E+03  0.48847232202E+03  0.10000000000E+00 0. -1.
</event>
<event>
 5    1  0.2022058E-009  0.3880080E+03  0.7957747E-01  0.3417014E+00
         13   -1    0    0    0    0  0.00000000000E+00  0.00000000000E+00  0.14999999963E+04  0.15000000000E+04  0.10566000000E+00 0.  1.
        994   -1    0    0    0    0 -0.00000000000E+00 -0.00000000000E+00  0.11368683772E-12  0.17120000000E+03  0.17120000000E+03 0.  0.
         13    1    1    2    0    0  0.20747389610E+03  0.80113212127E+02  0.12379700818E+04  0.12577891234E+04  0.10566000000E+00 0.  1.
        994    1    1    2    0    0 -0.21878204717E+03 -0.79611794416E+02  0.20264362674E+03  0.35295538165E+03  0.17120000000E+03 0.  0.
        998    1    1    2    0    0  0.11308151068E+02 -0.50141771028E+00  0.59386287694E+02  0.60455494923E+02  0.10000000000E+00 0. -1.
</event>
<event>
 5    1  0.2861673E-009  0.3882696E+03  0.7957747E-01  0.3415923E+00
         13   -1    0    0    0    0  0.00000000000E+00  0.00000000000E+00  0.14999999963E+04  0.15000000000E+04  0.10566000000E+00 0.  1.
        994   -1    0    0    0    0 -0.00000000000E+00 -0.00000000000E+00  0.11368683772E-12  0.17120000000E+03  0.17120000000E+03 0.  0.
         13    1    1    2    0    0  0.27019649840E+03  0.54649674767E+02  0.11893505360E+04  0.12208797825E+04  0.10566000000E+00 0.  1.
        994    1    1    2    0    0 -0.27051627613E+03 -0.54736620869E+02  0.30785171924E+03  0.44750114453E+03  0.17120000000E+03 0.  0.
        998    1    1    2    0    0  0.31977773564E+00  0.86946102117E-01  0.27977410202E+01  0.28190729400E+01  0.10000000000E+00 0.  1.
</event>
<event>
 5    1  0.2022058E-009  0.3869203E+03  0.7957747E-01  0.3421568E+00
         13   -1    0    0    0    0  0.00000000000E+00  0.00000000000E+00  0.14999999963E+04  0.15000000000E+04  0.10566000000E+00 0. -1.
        994   -1    0    0    0    0 -0.00000000000E+00 -0.00000000000E+00  0.11368683772E-12  0.17120000000E+03  0.17120000000E+03 0.  0.
         13    1    1    2    0    0 -0.11641989761E+03  0.24481489180E+03  0.11595779987E+04  0.11908438479E+04  0.10566000000E+00 0. -1.
        994    1    1    2    0    0  0.11275399038E+03 -0.25307910420E+03  0.31389050079E+03  0.45232641070E+03  0.17120000000E+03 0.  0.
        998    1    1    2    0    0  0.36659072220E+01  0.82642123945E+01  0.26531496792E+02  0.28029741424E+02  0.10000000000E+00 0. -1.
</event>
<event>
 5    1  0.2022058E-009  0.3882570E+03  0.7957747E-01  0.3415975E+00
         13   -1    0    0    0    0  0.00000000000E+00  0.00000000000E+00  0.14999999963E+04  0.15000000000E+04  0.10566000000E+00 0. -1.
        994   -1    0    0    0    0 -0.00000000000E+00 -0.00000000000E+00  0.11368683772E-12  0.17120000000E+03  0.17120000000E+03 0.  0.
         13    1    1    2    0    0  0.90329060366E+02 -0.20497889884E+03  0.13083433398E+04  0.13273801242E+04  0.10566000000E+00 0. -1.
        994    1    1    2    0    0 -0.90998234461E+02  0.20541465692E+03  0.18622025426E+03  0.33832422770E+03  0.17120000000E+03 0.  0.
        998    1    1    2    0    0  0.66917409529E+00 -0.43575808459E+00  0.54364021797E+01  0.54956480726E+01  0.10000000000E+00 0.  0.
</event>
<event>
 5    1  0.2022058E-009  0.3847934E+03  0.7957747E-01  0.3430549E+00
         13   -1    0    0    0    0  0.00000000000E+00  0.00000000000E+00  0.14999999963E+04  0.15000000000E+04  0.10566000000E+00 0. -1.
        994   -1    0    0    0    0 -0.00000000000E+00 -0.00000000000E+00  0.11368683772E-12  0.17120000000E+03  0.17120000000E+03 0.  0.
         13    1    1    2    0    0  0.10293278475E+03  0.14861897576E+03  0.97519513181E+03  0.99181062426E+03  0.10566000000E+00 0. -1.
        994    1    1    2    0    0 -0.97921340498E+02 -0.21114182974E+03  0.20693083540E+03  0.35538608840E+03  0.17120000000E+03 0.  0.
        998    1    1    2    0    0 -0.50114442539E+01  0.62522853985E+02  0.31787402907E+03  0.32400328733E+03  0.10000000000E+00 0. -1.
</event>
<event>
 5    1  0.2022058E-009  0.3882998E+03  0.7957747E-01  0.3415797E+00
         13   -1    0    0    0    0  0.00000000000E+00  0.00000000000E+00  0.14999999963E+04  0.15000000000E+04  0.10566000000E+00 0.  1.
        994   -1    0    0    0    0 -0.00000000000E+00 -0.00000000000E+00  0.11368683772E-12  0.17120000000E+03  0.17120000000E+03 0.  0.
         13    1    1    2    0    0  0.20654626692E+03 -0.16727357190E+03  0.11955141475E+04  0.12247023705E+04  0.10566000000E+00 0.  1.
        994    1    1    2    0    0 -0.20926520552E+03  0.16940107253E+03  0.28852804907E+03  0.43017034384E+03  0.17120000000E+03 0.  0.
        998    1    1    2    0    0  0.27189386063E+01 -0.21275006317E+01  0.15957799685E+02  0.16327285655E+02  0.10000000000E+00 0.  0.
</event>
<event>
 5    1  0.2581118E-009  0.3882367E+03  0.7957747E-01  0.3416060E+00
         13   -1    0    0    0    0  0.00000000000E+00  0.00000000000E+00  0.14999999963E+04  0.15000000000E+04  0.10566000000E+00 0. -1.
        994   -1    0    0    0    0 -0.00000000000E+00 -0.00000000000E+00  0.11368683772E-12  0.17120000000E+03  0.17120000000E+03 0.  0.
         13    1    1    2    0    0  0.30912196429E+03 -0.84565052507E+02  0.10175810976E+04  0.10668546940E+04  0.10566000000E+00 0. -1.
        994    1    1    2    0    0 -0.30925047431E+03  0.84879206136E+02  0.48121253945E+03  0.60308812259E+03  0.17120000000E+03 0.  0.
        998    1    1    2    0    0  0.12851001879E+00 -0.31415362871E+00  0.12063592644E+01  0.12571833606E+01  0.10000000000E+00 0. -1.
</event>
<event>
 5    1  0.2022058E-009  0.3757192E+03  0.7957747E-01  0.3470012E+00
         13   -1    0    0    0    0  0.00000000000E+00  0.00000000000E+00  0.14999999963E+04  0.15000000000E+04  0.10566000000E+00 0.  1.
        994   -1    0    0    0    0 -0.00000000000E+00 -0.00000000000E+00  0.11368683772E-12  0.17120000000E+03  0.17120000000E+03 0.  0.
         13    1    1    2    0    0 -0.52938463429E+02 -0.20240686071E+03  0.97921794414E+03  0.10013185365E+04  0.10566000000E+00 0.  1.
        994    1    1    2    0    0  0.55586286120E+01  0.22495217617E+03  0.20367886877E+03  0.34846649983E+03  0.17120000000E+03 0.  0.
        998    1    1    2    0    0  0.47379834817E+02 -0.22545315458E+02  0.31710318337E+03  0.32141496371E+03  0.10000000000E+00 0.  1.
</event>
<event>
 5    1  0.2022058E-009  0.3882920E+03  0.7957747E-01  0.3415829E+00
         13   -1    0    0    0    0  0.00000000000E+00  0.00000000000E+00  0.14999999963E+04  0.15000000000E+04  0.10566000000E+00 0.  1.
        994   -1    0    0    0    0 -0.00000000000E+00 -0.00000000000E+00  0.11368683772E-12  0.17120000000E+03  0.17120000000E+03 0.  0.
         13    1    1    2    0    0 -0.28693188914E+03 -0.14413492751E+03  0.91753037728E+03  0.97209402360E+03  0.10566000000E+00 0.  1.
        994    1    1    2    0    0  0.29643502808E+03  0.14957591624E+03  0.55028068551E+03  0.66510521982E+03  0.17120000000E+03 0.  0.
        998    1    1    2    0    0 -0.95031389429E+01 -0.54409887389E+01  0.32188933495E+02  0.34000756576E+02  0.10000000000E+00 0. -1.
</event>
<event>
 5    1  0.2022058E-009  0.3882837E+03  0.7957747E-01  0.3415864E+00
         13   -1    0    0    0    0  0.00000000000E+00  0.00000000000E+00  0.14999999963E+04  0.15000000000E+04  0.10566000000E+00 0. -1.
        994   -1    0    0    0    0 -0.00000000000E+00 -0.00000000000E+00  0.11368683772E-12  0.17120000000E+03  0.17120000000E+03 0.  0.
         13    1    1    2    0    0  0.63437925239E+01  0.31966519194E+03  0.10145707337E+04  0.10637574270E+04  0.10566000000E+00 0. -1.
        994    1    1    2    0    0 -0.62444888476E+01 -0.32067986607E+03  0.48128931104E+03  0.60317776075E+03  0.17120000000E+03 0.  0.
        998    1    1    2    0    0 -0.99303676351E-01  0.10146741283E+01  0.41399515421E+01  0.42648122558E+01  0.10000000000E+00 0.  0.
</event>
<event>
 5    1  0.2022058E-009  0.3882904E+03  0.7957747E-01  0.3415836E+00
         13   -1    0    0    0    0  0.00000000000E+00  0.00000000000E+00  0.14999999963E+04  0.15000000000E+04  0.10566000000E+00 0. -1.
        994   -1    0    0    0    0 -0.00000000000E+00 -0.00000000000E+00  0.11368683772E-12  0.17120000000E+03  0.17120000000E+03 0.  0.
         13    1    1    2    0    0 -0.31996364754E+03 -0.74845425115E+02  0.96357495023E+03  0.10180644721E+04  0.10566000000E+00 0. -1.
        994    1    1    2    0    0  0.32085834281E+03  0.75242641353E+02  0.53337483103E+03  0.64993052060E+03  0.17120000000E+03 0.  0.
        998    1    1    2    0    0 -0.89469527019E+00 -0.39721623806E+00  0.30502150166E+01  0.32050073345E+01  0.10000000000E+00 0. -1.
</event>
<event>
 5    1  0.2022058E-009  0.3882198E+03  0.7957747E-01  0.3416131E+00
         13   -1    0    0    0    0  0.00000000000E+00  0.00000000000E+00  0.14999999963E+04  0.15000000000E+04  0.10566000000E+00 0.  1.
        994   -1    0    0    0    0 -0.00000000000E+00 -0.00000000000E+00  0.11368683772E-12  0.17120000000E+03  0.17120000000E+03 0.  0.
         13    1    1    2    0    0  0.16499526665E+03  0.11425776819E+03  0.11703593706E+04  0.11874423536E+04  0.10566000000E+00 0.  1.
        994    1    1    2    0    0 -0.18284940939E+03 -0.12619625187E+03  0.18153211810E+03  0.33409991081E+03  0.17120000000E+03 0.  0.
        998    1    1    2    0    0  0.17854142742E+02  0.11938483682E+02  0.14810850763E+03  0.14965773564E+03  0.10000000000E+00 0.  1.
</event>
<event>
 5    1  0.2022058E-009  0.3882980E+03  0.7957747E-01  0.3415804E+00
         13   -1    0    0    0    0  0.00000000000E+00  0.00000000000E+00  0.14999999963E+04  0.15000000000E+04  0.10566000000E+00 0.  1.
        994   -1    0    0    0    0 -0.00000000000E+00 -0.00000000000E+00  0.11368683772E-12  0.17120000000E+03  0.17120000000E+03 0.  0.
         13    1    1    2    0    0  0.22399857369E+02 -0.25776501876E+03  0.11805522629E+04  0.12085728009E+04  0.10566000000E+00 0.  1.
        994    1    1    2    0    0 -0.22751952095E+02  0.26595515766E+03  0.28222303718E+03  0.42451040026E+03  0.17120000000E+03 0.  0.
        998    1    1    2    0    0  0.35209472594E+00 -0.81901389019E+01  0.37224696229E+02  0.38116798859E+02  0.10000000000E+00 0. -1.
</event>
<event>
 5    1  0.2022058E-009  0.3875729E+03  0.7957747E-01  0.3418833E+00
         13   -1    0    0    0    0  0.00000000000E+00  0.00000000000E+00  0.14999999963E+04  0.15000000000E+04  0.10566000000E+00 0.  1.
        994   -1    0    0    0    0 -0.00000000000E+00 -0.00000000000E+00  0.11368683772E-12  0.17120000000E+03  0.17120000000E+03 0.  0.
         13    1    1    2    0    0  0.89060993176E+02 -0.18769045254E+03  0.10722795628E+04  0.10922193180E+04  0.10566000000E+00 0.  1.
        994    1    1    2    0    0 -0.11156438605E+03  0.21102122742E+03  0.21554336353E+03  0.36434180685E+03  0.17120000000E+03 0.  0.
        998    1    1    2    0    0  0.22503392871E+02 -0.23330774882E+02  0.21217706991E+03  0.21463887519E+03  0.10000000000E+00 0. -1.
</event>
<event>
 5    1  0.2022058E-009  0.3882567E+03  0.7957747E-01  0.3415976E+00
         13   -1    0    0    0    0  0.00000000000E+00  0.00000000000E+00  0.14999999963E+04  0.15000000000E+04  0.10566000000E+00 0.  1.
        994   -1    0    0    0    0 -0.00000000000E+00 -0.00000000000E+00  0.11368683772E-12  0.17120000000E+03  0.17120000000E+03 0.  0.
         13    1    1    2    0    0  0.11910515908E+03  0.19401776439E+03  0.88416479313E+03  0.91300401116E+03  0.10566000000E+00 0.  1.
        994    1    1    2    0    0 -0.15245208979E+03 -0.24735674731E+03  0.35407866969E+03  0.48898685509E+03  0.17120000000E+03 0.  0.
        998    1    1    2    0    0  0.33346930715E+02  0.53338982923E+02  0.26175653346E+03  0.26920913375E+03  0.10000000000E+00 0.  1.
</event>
<event>
 5    1  0.2022058E-009  0.3883009E+03  0.7957747E-01  0.3415792E+00
         13   -1    0    0    0    0  0.00000000000E+00  0.00000000000E+00  0.14999999963E+04  0.15000000000E+04  0.10566000000E+00 0.  1.
        994   -1    0    0    0    0 -0.00000000000E+00 -0.00000000000E+00  0.11368683772E-12  0.17120000000E+03  0.17120000000E+03 0.  0.
         13    1    1    2    0    0 -0.18361944832E+03  0.15612499832E+02  0.92125622135E+03  0.93950672615E+03  0.10566000000E+00 0.  1.
        994    1    1    2    0    0  0.25056506879E+03 -0.21293195397E+02  0.24316427492E+03  0.38945418018E+03  0.17120000000E+03 0.  0.
        998    1    1    2    0    0 -0.66945620467E+02  0.56806955651E+01  0.33557950002E+03  0.34223909367E+03  0.10000000000E+00 0.  0.
</event>
<event>
 5    1  0.2022058E-009  0.3882702E+03  0.7957747E-01  0.3415920E+00
         13   -1    0    0    0    0  0.00000000000E+00  0.00000000000E+00  0.14999999963E+04  0.15000000000E+04  0.10566000000E+00 0. -1.
        994   -1    0    0    0    0 -0.00000000000E+00 -0.00000000000E+00  0.11368683772E-12  0.17120000000E+03  0.17120000000E+03 0.  0.
         13    1    1    2    0    0 -0.90120705721E+02 -0.19898153446E+03  0.12920531305E+04  0.13103879944E+04  0.10566000000E+00 0. -1.
        994    1    1    2    0    0  0.91271720768E+02  0.20353059580E+03  0.18314353219E+03  0.33556850838E+03  0.17120000000E+03 0.  0.
        998    1    1    2    0    0 -0.11510150469E+01 -0.45490613412E+01  0.24803333625E+02  0.25243497255E+02  0.10000000000E+00 0.  1.
</event>
<event>
 5    1  0.2022058E-009  0.3863694E+03  0.7957747E-01  0.3423885E+00
         13   -1    0    0    0    0  0.00000000000E+00  0.00000000000E+00  0.14999999963E+04  0.15000000000E+04  0.10566000000E+00 0.  1.
        994   -1    0    0    0    0 -0.00000000000E+00 -0.00000000000E+00  0.11368683772E-12  0.17120000000E+03  0.17120000000E+03 0.  0.
         13    1    1    2    0    0  0.91546238759E+02 -0.14550224136E+03  0.10180885632E+04  0.10324998546E+04  0.10566000000E+00 0.  1.
        994    1    1    2    0    0 -0.91848254953E+02  0.18388193667E+03  0.15423254341E+03  0.30878112963E+03  0.17120000000E+03 0.  0.
        998    1    1    2    0    0  0.30201619365E+00 -0.38379695313E+02  0.32767888971E+03  0.32991901581E+03  0.10000000000E+00 0.  1.
</event>
<event>
 5    1  0.2022058E-009  0.3882732E+03  0.7957747E-01  0.3415907E+00
         13   -1    0    0    0    0  0.00000000000E+00  0.00000000000E+00  0.14999999963E+04  0.15000000000E+04  0.10566000000E+00 0. -1.
        994   -1    0    0    0    0 -0.00000000000E+00 -0.00000000000E+00  0.11368683772E-12  0.17120000000E+03  0.17120000000E+03 0.  0.
         13    1    1    2    0    0 -0.88202530125E+02 -0.20660785796E+03  0.13105810404E+04  0.13296951410E+04  0.10566000000E+00 0. -1.
        994    1    1    2    0    0  0.88169799434E+02  0.20714293251E+03  0.18707829491E+03  0.33910151349E+03  0.17120000000E+03 0.  0.
        998    1    1    2    0    0  0.32730690277E-01 -0.53507454702E+00  0.23406609272E+01  0.24033455109E+01  0.10000000000E+00 0. -1.
</event>
<event>
 5    1  0.2022058E-009  0.3882998E+03  0.7957747E-01  0.3415797E+00
         13   -1    0    0    0    0  0.00000000000E+00  0.00000000000E+00  0.14999999963E+04  0.15000000000E+04  0.10566000000E+00 0. -1.
        994   -1    0    0    0    0 -0.00000000000E+00 -0.00000000000E+00  0.11368683772E-12  0.17120000000E+03  0.17120000000E+03 0.  0.
         13    1    1    2    0    0  0.15548031646E+03  0.54839957656E+02  0.89560816491E+03  0.91065665648E+03  0.10566000000E+00 0. -1.
        994    1    1    2    0    0 -0.22438026099E+03 -0.78724139109E+02  0.21257061187E+03  0.36199405607E+03  0.17120000000E+03 0.  0.
        998    1    1    2    0    0  0.68899944531E+02  0.23884181453E+02  0.39182121949E+03  0.39854928745E+03  0.10000000000E+00 0.  1.
</event>
<event>
 5    1  0.2022058E-009  0.3883004E+03  0.7957747E-01  0.3415794E+00
         13   -1    0    0    0    0  0.00000000000E+00  0.00000000000E+00  0.14999999963E+04  0.15000000000E+04  0.10566000000E+00 0.  1.
        994   -1    0    0    0    0 -0.00000000000E+00 -0.00000000000E+00  0.11368683772E-12  0.17120000000E+03  0.17120000000E+03 0.  0.
         13    1    1    2    0    0 -0.27828891750E+02  0.14043151431E+03  0.85328151810E+03  0.86520796212E+03  0.10566000000E+00 0.  1.
        994    1    1    2    0    0  0.43157279179E+02 -0.21671864231E+03  0.17919804411E+03  0.33204050910E+03  0.17120000000E+03 0.  0.
        998    1    1    2    0    0 -0.15328387429E+02  0.76287127997E+02  0.46752043407E+03  0.47395152878E+03  0.10000000000E+00 0. -1.
</event>
<event>
 5    1  0.2022058E-009  0.3883007E+03  0.7957747E-01  0.3415793E+00
         13   -1    0    0    0    0  0.00000000000E+00  0.00000000000E+00  0.14999999963E+04  0.15000000000E+04  0.10566000000E+00 0. -1.
        994   -1    0    0    0    0 -0.00000000000E+00 -0.00000000000E+00  0.11368683772E-12  0.17120000000E+03  0.17120000000E+03 0.  0.
         13    1    1    2    0    0 -0.20447974240E+03  0.15507558041E+03  0.11573685695E+04  0.11854798259E+04  0.10566000000E+00 0. -1.
        994    1    1    2    0    0  0.21429206021E+03 -0.16238401316E+03  0.28750779418E+03  0.42925496679E+03  0.17120000000E+03 0.  0.
        998    1    1    2    0    0 -0.98123178136E+01  0.73084327528E+01  0.55123632601E+02  0.56465207352E+02  0.10000000000E+00 0. -1.
</event>
<event>
 5    1  0.2022058E-009  0.3882915E+03  0.7957747E-01  0.3415831E+00
         13   -1    0    0    0    0  0.00000000000E+00  0.00000000000E+00  0.14999999963E+04  0.15000000000E+04  0.10566000000E+00 0.  1.
        994   -1    0    0    0    0 -0.00000000000E+00 -0.00000000000E+00  0.11368683772E-12  0.17120000000E+03  0.17120000000E+03 0.  0.
         13    1    1    2    0    0  0.21295693278E+03 -0.45126423791E+02  0.84602429925E+03  0.87358123573E+03  0.10566000000E+00 0.  1.
        994    1    1    2    0    0 -0.28690564506E+03  0.62466091639E+02  0.36466853851E+03  0.49850721635E+03  0.17120000000E+03 0.  0.
        998    1    1    2    0    0  0.73948712272E+02 -0.17339667848E+02  0.28930715852E+03  0.29911154792E+03  0.10000000000E+00 0.  1.
</event>
<event>
 5    1  0.2022058E-009  0.3881802E+03  0.7957747E-01  0.3416296E+00
         13   -1    0    0    0    0  0.00000000000E+00  0.00000000000E+00  0.14999999963E+04  0.15000000000E+04  0.10566000000E+00 0. -1.
        994   -1    0    0    0    0 -0.00000000000E+00 -0.00000000000E+00  0.11368683772E-12  0.17120000000E+03  0.17120000000E+03 0.  0.
         13    1    1    2    0    0  0.26081574318E+03  0.14986422646E+03  0.10465689213E+04  0.10889401528E+04  0.10566000000E+00 0. -1.
        994    1    1    2    0    0 -0.26851071343E+03 -0.15192908982E+03  0.42315948153E+03  0.55095720194E+03  0.17120000000E+03 0.  0.
        998    1    1    2    0    0  0.76949702528E+01  0.20648633625E+01  0.30271593441E+02  0.31302645214E+02  0.10000000000E+00 0. -1.
</event>
<event>
 5    1  0.2022058E-009  0.3882976E+03  0.7957747E-01  0.3415806E+00
         13   -1    0    0    0    0  0.00000000000E+00  0.00000000000E+00  0.14999999963E+04  0.15000000000E+04  0.10566000000E+00 0.  1.
        994   -1    0    0    0    0 -0.00000000000E+00 -0.00000000000E+00  0.11368683772E-12  0.17120000000E+03  0.17120000000E+03 0.  0.
         13    1    1    2    0    0 -0.16611764346E+03 -0.13864367235E+03  0.12670831936E+04  0.12854248208E+04  0.10566000000E+00 0.  1.
        994    1    1    2    0    0  0.17200237962E+03  0.14409026086E+03  0.18561972539E+03  0.33780311473E+03  0.17120000000E+03 0.  0.
        998    1    1    2    0    0 -0.58847361599E+01 -0.54465885103E+01  0.47297077329E+02  0.47972064474E+02  0.10000000000E+00 0. -1.
</event>
<event>
 5    1  0.2022058E-009  0.3881491E+03  0.7957747E-01  0.3416425E+00
         13   -1    0    0    0    0  0.00000000000E+00  0.00000000000E+00  0.14999999963E+04  0.15000000000E+04  0.10566000000E+00 0.  1.
        994   -1    0    0    0    0 -0.00000000000E+00 -0.00000000000E+00  0.11368683772E-12  0.17120000000E+03  0.17120000000E+03 0.  0.
         13    1    1    2    0    0 -0.56134729499E+02  0.28696028772E+03  0.11138129594E+04  0.11515540084E+04  0.10566000000E+00 0.  1.
        994    1    1    2    0    0  0.55717682399E+02 -0.29106242203E+03  0.37487089831E+03  0.50760163913E+03  0.17120000000E+03 0.  0.
        998    1    1    2    0    0  0.41704710042E+00  0.41021343033E+01  0.11316138544E+02  0.12044352439E+02  0.10000000000E+00 0. -1.
</event>
<event>
 5    1  0.2022058E-009  0.3882972E+03  0.7957747E-01  0.3415808E+00
         13   -1    0    0    0    0  0.00000000000E+00  0.00000000000E+00  0.14999999963E+04  0.15000000000E+04  0.10566000000E+00 0.  1.
        994   -1    0    0    0    0 -0.00000000000E+00 -0.00000000000E+00  0.11368683772E-12  0.17120000000E+03  0.17120000000E+03 0.  0.
         13    1    1    2    0    0 -0.18992360513E+03 -0.21643388938E+03  0.11438062242E+04  0.11794945078E+04  0.10566000000E+00 0.  1.
        994    1    1    2    0    0  0.19099174474E+03  0.21759861710E+03  0.35045456395E+03  0.48575183594E+03  0.17120000000E+03 0.  0.
        998    1    1    2    0    0 -0.10681396096E+01 -0.11647277172E+01  0.57392081259E+01  0.59536562542E+01  0.10000000000E+00 0.  0.
</event>
<event>
 5    1  0.2022058E-009  0.3882867E+03  0.7957747E-01  0.3415851E+00
         13   -1    0    0    0    0  0.00000000000E+00  0.00000000000E+00  0.14999999963E+04  0.15000000000E+04  0.10566000000E+00 0. -1.
        994   -1    0    0    0    0 -0.00000000000E+00 -0.00000000000E+00  0.11368683772E-12  0.17120000000E+03  0.17120000000E+03 0.  0.
         13    1    1    2    0    0  0.12044787876E+03  0.19779436255E+03  0.12784763134E+04  0.12992813385E+04  0.10566000000E+00 0. -1.
        994    1    1    2    0    0 -0.12164332401E+03 -0.20062073490E+03  0.20595851672E+03  0.35605354676E+03  0.17120000000E+03 0.  0.
        998    1    1    2    0    0  0.11954452489E+01  0.28263723530E+01  0.15565166142E+02  0.15865114783E+02  0.10000000000E+00 0.  1.
</event>
<event>
 5    1  0.2022058E-009  0.3883005E+03  0.7957747E-01  0.3415794E+00
         13   -1    0    0    0    0  0.00000000000E+00  0.00000000000E+00  0.14999999963E+04  0.15000000000E+04  0.10566000000E+00 0.  1.
        994   -1    0    0    0    0 -0.00000000000E+00 -0.00000000000E+00  0.11368683772E-12  0.17120000000E+03  0.17120000000E+03 0.  0.
         13    1    1    2    0    0  0.44590217492E+02 -0.15503755091E+02  0.21652380686E+03  0.22161052326E+03  0.10566000000E+00 0.  1.
        994    1    1    2    0    0 -0.25026793540E+03  0.86830153519E+02  0.27680048864E+03  0.41964445136E+03  0.17120000000E+03 0.  0.
        998    1    1    2    0    0  0.20567771791E+03 -0.71326398428E+02  0.10066757008E+04  0.10299450254E+04  0.10000000000E+00 0.  1.
</event>
<event>
 5    1  0.2022058E-009  0.3872510E+03  0.7957747E-01  0.3420181E+00
         13   -1    0    0    0    0  0.00000000000E+00  0.00000000000E+00  0.14999999963E+04  0.15000000000E+04  0.10566000000E+00 0.  1.
        994   -1    0    0    0    0 -0.00000000000E+00 -0.00000000000E+00  0.11368683772E-12  0.17120000000E+03  0.17120000000E+03 0.  0.
         13    1    1    2    0    0  0.80615513765E+02 -0.70086037231E+02  0.62786971719E+03  0.63689191124E+03  0.10566000000E+00 0.  1.
        994    1    1    2    0    0 -0.14859191123E+03  0.11951550873E+03  0.12985492065E+03  0.28728949394E+03  0.17120000000E+03 0.  0.
        998    1    1    2    0    0  0.67976397468E+02 -0.49429471500E+02  0.74227535843E+03  0.74701859482E+03  0.10000000000E+00 0.  1.
</event>
<event>
 5    1  0.2022058E-009  0.3812426E+03  0.7957747E-01  0.3445766E+00
         13   -1    0    0    0    0  0.00000000000E+00  0.00000000000E+00  0.14999999963E+04  0.15000000000E+04  0.10566000000E+00 0.  1.
        994   -1    0    0    0    0 -0.00000000000E+00 -0.00000000000E+00  0.11368683772E-12  0.17120000000E+03  0.17120000000E+03 0.  0.
         13    1    1    2    0    0  0.42305554045E+02 -0.19538256581E+03  0.99451929549E+03  0.10144125133E+04  0.10566000000E+00 0.  1.
        994    1    1    2    0    0 -0.12428322897E+01  0.23937344192E+03  0.22643469288E+03  0.37132640557E+03  0.17120000000E+03 0.  0.
        998    1    1    2    0    0 -0.41062721756E+02 -0.43990876114E+02  0.27904600791E+03  0.28546108111E+03  0.10000000000E+00 0.  1.
</event>
<event>
 5    1  0.2022058E-009  0.3882434E+03  0.7957747E-01  0.3416032E+00
         13   -1    0    0    0    0  0.00000000000E+00  0.00000000000E+00  0.14999999963E+04  0.15000000000E+04  0.10566000000E+00 0. -1.
        994   -1    0    0    0    0 -0.00000000000E+00 -0.00000000000E+00  0.11368683772E-12  0.17120000000E+03  0.17120000000E+03 0.  0.
         13    1    1    2    0    0 -0.11422396650E+03 -0.19089011374E+03  0.13066086041E+04  0.13254102028E+04  0.10566000000E+00 0. -1.
        994    1    1    2    0    0  0.11426265106E+03  0.19218988199E+03  0.18418478770E+03  0.33649127803E+03  0.17120000000E+03 0.  0.
        998    1    1    2    0    0 -0.38684560539E-01 -0.12997682517E+01  0.92066044392E+01  0.92985191995E+01  0.10000000000E+00 0.  1.
</event>
<event>
 5    1  0.2022058E-009  0.3880869E+03  0.7957747E-01  0.3416685E+00
         13   -1    0    0    0    0  0.00000000000E+00  0.00000000000E+00  0.14999999963E+04  0.15000000000E+04  0.10566000000E+00 0. -1.
        994   -1    0    0    0    0 -0.00000000000E+00 -0.00000000000E+00  0.11368683772E-12  0.17120000000E+03  0.17120000000E+03 0.  0.
         13    1    1    2    0    0 -0.41463436692E+02  0.20447444553E+03  0.12311940712E+04  0.12487465185E+04  0.10566000000E+00 0. -1.
        994    1    1    2    0    0  0.46840270380E+02 -0.21527170789E+03  0.17822574978E+03  0.33107367312E+03  0.17120000000E+03 0.  0.
        998    1    1    2    0    0 -0.53768336873E+01  0.10797262354E+02  0.90580175343E+02  0.91379808383E+02  0.10000000000E+00 0.  1.
</event>
<event>
 5    1  0.2022058E-009  0.3883008E+03  0.7957747E-01  0.3415793E+00
         13   -1    0    0    0    0  0.00000000000E+00  0.00000000000E+00  0.14999999963E+04  0.15000000000E+04  0.10566000000E+00 0.  1.
        994   -1    0    0    0    0 -0.00000000000E+00 -0.00000000000E+00  0.11368683772E-12  0.17120000000E+03  0.17120000000E+03 0.  0.
         13    1    1    2    0    0  0.21965729626E+03  0.27530092669E+02  0.12542589121E+04  0.12736454230E+04  0.10566000000E+00 0.  1.
        994    1    1    2    0    0 -0.22824121208E+03 -0.28560656309E+02  0.19661444875E+03  0.34767289719E+03  0.17120000000E+03 0.  0.
        998    1    1    2    0    0  0.85839158208E+01  0.10305636405E+01  0.49126635419E+02  0.49881679801E+02  0.10000000000E+00 0.  0.
</event>
<event>
 5    1  0.2022058E-009  0.3875601E+03  0.7957747E-01  0.3418886E+00
         13   -1    0    0    0    0  0.00000000000E+00  0.00000000000E+00  0.14999999963E+04  0.15000000000E+04  0.10566000000E+00 0.  1.
        994   -1    0    0    0    0 -0.00000000000E+00 -0.00000000000E+00  0.11368683772E-12  0.17120000000E+03  0.17120000000E+03 0.  0.
         13    1    1    2    0    0 -0.42079864649E+02 -0.19337328826E+03  0.11652069552E+04  0.11818930591E+04  0.10566000000E+00 0.  1.
        994    1    1    2    0    0  0.52675503857E+02  0.20909142167E+03  0.17032454378E+03  0.32374962785E+03  0.17120000000E+03 0.  0.
        998    1    1    2    0    0 -0.10595639208E+02 -0.15718133408E+02  0.16446849734E+03  0.16555731305E+03  0.10000000000E+00 0. -1.
</event>
<event>
 5    1  0.2022058E-009  0.3882994E+03  0.7957747E-01  0.3415798E+00
         13   -1    0    0    0    0  0.00000000000E+00  0.00000000000E+00  0.14999999963E+04  0.15000000000E+04  0.10566000000E+00 0.  1.
        994   -1    0    0    0    0 -0.00000000000E+00 -0.00000000000E+00  0.11368683772E-12  0.17120000000E+03  0.17120000000E+03 0.  0.
         13    1    1    2    0    0 -0.98106986857E+02 -0.17590930032E+03  0.11941598857E+04  0.12110272113E+04  0.10566000000E+00 0.  1.
        994    1    1    2    0    0  0.10840719130E+03  0.19454090580E+03  0.18244268249E+03  0.33495231832E+03  0.17120000000E+03 0.  0.
        998    1    1    2    0    0 -0.10300204441E+02 -0.18631605483E+02  0.12339742811E+03  0.12522047036E+03  0.10000000000E+00 0. -1.
</event>
<event>
 5    1  0.2022058E-009  0.3882987E+03  0.7957747E-01  0.3415801E+00
         13   -1    0    0    0    0  0.00000000000E+00  0.00000000000E+00  0.14999999963E+04  0.15000000000E+04  0.10566000000E+00 0.  1.
        994   -1    0    0    0    0 -0.00000000000E+00 -0.00000000000E+00  0.11368683772E-12  0.17120000000E+03  0.17120000000E+03 0.  0.
         13    1    1    2    0    0 -0.13314922979E+03  0.11843396961E+03  0.96824652333E+03  0.98450833601E+03  0.10566000000E+00 0.  1.
        994    1    1    2    0    0  0.17697646602E+03 -0.15855566538E+03  0.21220088900E+03  0.36166175612E+03  0.17120000000E+03 0.  0.
        998    1    1    2    0    0 -0.43827236227E+02  0.40121695766E+02  0.31955258394E+03  0.32502990787E+03  0.10000000000E+00 0. -1.
</event>
<event>
 5    1  0.2022058E-009  0.3882824E+03  0.7957747E-01  0.3415869E+00
         13   -1    0    0    0    0  0.00000000000E+00  0.00000000000E+00  0.14999999963E+04  0.15000000000E+04  0.10566000000E+00 0. -1.
        994   -1    0    0    0    0 -0.00000000000E+00 -0.00000000000E+00  0.11368683772E-12  0.17120000000E+03  0.17120000000E+03 0.  0.
         13    1    1    2    0    0  0.21117186411E+03  0.59534144792E+02  0.13168355336E+04  0.13349882787E+04  0.10566000000E+00 0. -1.
        994    1    1    2    0    0 -0.21220251701E+03 -0.59551802770E+02  0.17815565945E+03  0.33109697134E+03  0.17120000000E+03 0.  0.
        998    1    1    2    0    0  0.10306528938E+01  0.17657978004E-01  0.50088032390E+01  0.51147499527E+01  0.10000000000E+00 0. -1.
</event>
<event>
 5    1  0.2022058E-009  0.3883008E+03  0.7957747E-01  0.3415793E+00
         13   -1    0    0    0    0  0.00000000000E+00  0.00000000000E+00  0.14999999963E+04  0.15000000000E+04  0.10566000000E+00 0. -1.
        994   -1    0    0    0    0 -0.00000000000E+00 -0.00000000000E+00  0.11368683772E-12  0.17120000000E+03  0.17120000000E+03 0.  0.
         13    1    1    2    0    0 -0.97267372111E+02  0.20707949770E+03  0.11977381880E+04  0.12193931434E+04  0.10566000000E+00 0. -1.
        994    1    1    2    0    0  0.10344630641E+03 -0.22047503010E+03  0.22501569459E+03  0.37316468217E+03  0.17120000000E+03 0.  0.
        998    1    1    2    0    0 -0.61789343001E+01  0.13395532397E+02  0.77246113729E+02  0.78642174458E+02  0.10000000000E+00 0.  1.
</event>
<event>
 5    1  0.2022058E-009  0.3882852E+03  0.7957747E-01  0.3415858E+00
         13   -1    0    0    0    0  0.00000000000E+00  0.00000000000E+00  0.14999999963E+04  0.15000000000E+04  0.10566000000E+00 0.  1.
        994   -1    0    0    0    0 -0.00000000000E+00 -0.00000000000E+00  0.11368683772E-12  0.17120000000E+03  0.17120000000E+03 0.  0.
         13    1    1    2    0    0 -0.20734978481E+03 -0.10535257173E+03  0.11845670587E+04  0.12071835922E+04  0.10566000000E+00 0.  1.
        994    1    1    2    0    0  0.22102055228E+03  0.11362229205E+03  0.23629519574E+03  0.38328184057E+03  0.17120000000E+03 0.  0.
        998    1    1    2    0    0 -0.13670767474E+02 -0.82697203135E+01  0.79137741885E+02  0.80734567244E+02  0.10000000000E+00 0.  1.
</event>
<event>
 5    1  0.2022058E-009  0.3776571E+03  0.7957747E-01  0.3461424E+00
         13   -1    0    0    0    0  0.00000000000E+00  0.00000000000E+00  0.14999999963E+04  0.15000000000E+04  0.10566000000E+00 0. -1.
        994   -1    0    0    0    0 -0.00000000000E+00 -0.00000000000E+00  0.11368683772E-12  0.17120000000E+03  0.17120000000E+03 0.  0.
         13    1    1    2    0    0 -0.75546799547E+01 -0.99436692989E+01  0.15459440702E+02  0.19873480299E+02  0.10566000000E+00 0. -1.
        994    1    1    2    0    0 -0.13404624366E+03 -0.28734624340E+02  0.71504793922E+02  0.23068690823E+03  0.17120000000E+03 0.  0.
        998    1    1    2    0    0  0.14160092361E+03  0.38678293639E+02  0.14130357617E+04  0.14206396115E+04  0.10000000000E+00 0. -1.
</event>
<event>
 5    1  0.2022058E-009  0.3883009E+03  0.7957747E-01  0.3415792E+00
         13   -1    0    0    0    0  0.00000000000E+00  0.00000000000E+00  0.14999999963E+04  0.15000000000E+04  0.10566000000E+00 0. -1.
        994   -1    0    0    0    0 -0.00000000000E+00 -0.00000000000E+00  0.11368683772E-12  0.17120000000E+03  0.17120000000E+03 0.  0.
         13    1    1    2    0    0 -0.43576188995E+02  0.18914481539E+03  0.97213213436E+03  0.99132010131E+03  0.10566000000E+00 0. -1.
        994    1    1    2    0    0  0.56358746097E+02 -0.24461806452E+03  0.24212226842E+03  0.38851890381E+03  0.17120000000E+03 0.  0.
        998    1    1    2    0    0 -0.12782557102E+02  0.55473249127E+02  0.28574559350E+03  0.29136099488E+03  0.10000000000E+00 0.  0.
</event>
<event>
 5    1  0.2022058E-009  0.3878361E+03  0.7957747E-01  0.3417732E+00
         13   -1    0    0    0    0  0.00000000000E+00  0.00000000000E+00  0.14999999963E+04  0.15000000000E+04  0.10566000000E+00 0.  1.
        994   -1    0    0    0    0 -0.00000000000E+00 -0.00000000000E+00  0.11368683772E-12  0.17120000000E+03  0.17120000000E+03 0.  0.
         13    1    1    2    0    0  0.23863701523E+03 -0.20014056509E+03  0.98730953263E+03  0.10352700108E+04  0.10566000000E+00 0.  1.
        994    1    1    2    0    0 -0.24286776187E+03  0.20676149004E+03  0.47385677021E+03  0.59630926723E+03  0.17120000000E+03 0.  0.
        998    1    1    2    0    0  0.42307466461E+01 -0.66209249496E+01  0.38833693442E+02  0.39620721986E+02  0.10000000000E+00 0. -1.
</event>
<event>
 5    1  0.2022058E-009  0.3747239E+03  0.7957747E-01  0.3474459E+00
         13   -1    0    0    0    0  0.00000000000E+00  0.00000000000E+00  0.14999999963E+04  0.15000000000E+04  0.10566000000E+00 0. -1.
        994   -1    0    0    0    0 -0.00000000000E+00 -0.00000000000E+00  0.11368683772E-12  0.17120000000E+03  0.17120000000E+03 0.  0.
         13    1    1    2    0    0  0.12774356201E+03  0.21427345141E+03  0.52469125669E+03  0.58097543462E+03  0.10566000000E+00 0. -1.
        994    1    1    2    0    0 -0.16940422657E+03 -0.27080760119E+03  0.54679493289E+03  0.65599442641E+03  0.17120000000E+03 0.  0.
        998    1    1    2    0    0  0.41660664558E+02  0.56534149780E+02  0.42851380670E+03  0.43423013897E+03  0.10000000000E+00 0. -1.
</event>
<event>
 5    1  0.2022058E-009  0.3862315E+03  0.7957747E-01  0.3424466E+00
         13   -1    0    0    0    0  0.00000000000E+00  0.00000000000E+00  0.14999999963E+04  0.15000000000E+04  0.10566000000E+00 0. -1.
        994   -1    0    0    0    0 -0.00000000000E+00 -0.00000000000E+00  0.11368683772E-12  0.17120000000E+03  0.17120000000E+03 0.  0.
         13    1    1    2    0    0 -0.13280369415E+03  0.59543210829E+02  0.61649375854E+03  0.63344043179E+03  0.10566000000E+00 0. -1.
        994    1    1    2    0    0  0.27894220150E+03 -0.12484498343E+03  0.41726127175E+03  0.54480402951E+03  0.17120000000E+03 0.  0.
        998    1    1    2    0    0 -0.14613850734E+03  0.65301772600E+02  0.46624496599E+03  0.49295553871E+03  0.10000000000E+00 0.  1.
</event>
<event>
 5    1  0.2022058E-009  0.3867673E+03  0.7957747E-01  0.3422211E+00
         13   -1    0    0    0    0  0.00000000000E+00  0.00000000000E+00  0.14999999963E+04  0.15000000000E+04  0.10566000000E+00 0. -1.
        994   -1    0    0    0    0 -0.00000000000E+00 -0.00000000000E+00  0.11368683772E-12  0.17120000000E+03  0.17120000000E+03 0.  0.
         13    1    1    2    0    0 -0.11878829263E+02 -0.15813030608E+03  0.81902010416E+03  0.83423032939E+03  0.10566000000E+00 0. -1.
        994    1    1    2    0    0  0.34280820131E+02  0.21993651551E+03  0.18415027973E+03  0.33580948618E+03  0.17120000000E+03 0.  0.
        998    1    1    2    0    0 -0.22401990868E+02 -0.61806209428E+02  0.49682961239E+03  0.50116018443E+03  0.10000000000E+00 0.  1.
</event>
<event>
 5    1  0.2022058E-009  0.3883007E+03  0.7957747E-01  0.3415793E+00
         13   -1    0    0    0    0  0.00000000000E+00  0.00000000000E+00  0.14999999963E+04  0.15000000000E+04  0.10566000000E+00 0. -1.
        994   -1    0    0    0    0 -0.00000000000E+00 -0.00000000000E+00  0.11368683772E-12  0.17120000000E+03  0.17120000000E+03 0.  0.
         13    1    1    2    0    0 -0.15987861015E+03  0.14856548829E+03  0.12241070140E+04  0.12434109808E+04  0.10566000000E+00 0. -1.
        994    1    1    2    0    0  0.16966570786E+03 -0.15779830809E+03  0.19998943089E+03  0.35070211138E+03  0.17120000000E+03 0.  0.
        998    1    1    2    0    0 -0.97870977089E+01  0.92328197988E+01  0.75903551433E+02  0.77086907859E+02  0.10000000000E+00 0.  0.
</event>
<event>
 5    1  0.2022058E-009  0.3856381E+03  0.7957747E-01  0.3426970E+00
         13   -1    0    0    0    0  0.00000000000E+00  0.00000000000E+00  0.14999999963E+04  0.15000000000E+04  0.10566000000E+00 0. -1.
        994   -1    0    0    0    0 -0.00000000000E+00 -0.00000000000E+00  0.11368683772E-12  0.17120000000E+03  0.17120000000E+03 0.  0.
         13    1    1    2    0    0  0.42225697274E+02  0.20474208580E+02  0.23308974090E+03  0.23776677902E+03  0.10566000000E+00 0. -1.
        994    1    1    2    0    0 -0.16606053018E+03 -0.12492633795E+02  0.98331286629E+02  0.25828404425E+03  0.17120000000E+03 0.  0.
        998    1    1    2    0    0  0.12383483291E+03 -0.79815747857E+01  0.11685789688E+04  0.11751491767E+04  0.10000000000E+00 0. -1.
</event>
<event>
 5    1  0.2022058E-009  0.3882968E+03  0.7957747E-01  0.3415809E+00
         13   -1    0    0    0    0  0.00000000000E+00  0.00000000000E+00  0.14999999963E+04  0.15000000000E+04  0.10566000000E+00 0. -1.
        994   -1    0    0    0    0 -0.00000000000E+00 -0.00000000000E+00  0.11368683772E-12  0.17120000000E+03  0.17120000000E+03 0.  0.
         13    1    1    2    0    0 -0.38074352463E+02  0.19589127932E+02  0.25657506309E+03  0.26012336383E+03  0.10566000000E+00 0. -1.
        994    1    1    2    0    0  0.19721081922E+03 -0.96108767429E+02  0.17626185673E+03  0.32940352842E+03  0.17120000000E+03 0.  0.
        998    1    1    2    0    0 -0.15913646676E+03  0.76519639497E+02  0.10671630765E+04  0.10816731078E+04  0.10000000000E+00 0. -1.
</event>
<event>
 5    1  0.2022058E-009  0.3862562E+03  0.7957747E-01  0.3424362E+00
         13   -1    0    0    0    0  0.00000000000E+00  0.00000000000E+00  0.14999999963E+04  0.15000000000E+04  0.10566000000E+00 0.  1.
        994   -1    0    0    0    0 -0.00000000000E+00 -0.00000000000E+00  0.11368683772E-12  0.17120000000E+03  0.17120000000E+03 0.  0.
         13    1    1    2    0    0 -0.15769081938E+02  0.81055650275E+00  0.80407232015E+02  0.81942998916E+02  0.10566000000E+00 0.  1.
        994    1    1    2    0    0  0.64541554527E+02  0.30288302755E+02  0.17836460772E+02  0.18630773703E+03  0.17120000000E+03 0.  0.
        998    1    1    2    0    0 -0.48772472589E+02 -0.31098859258E+02  0.14017563035E+04  0.14029492641E+04  0.10000000000E+00 0.  1.
</event>
<event>
 5    1  0.2022058E-009  0.3883009E+03  0.7957747E-01  0.3415792E+00
         13   -1    0    0    0    0  0.00000000000E+00  0.00000000000E+00  0.14999999963E+04  0.15000000000E+04  0.10566000000E+00 0. -1.
        994   -1    0    0    0    0 -0.00000000000E+00 -0.00000000000E+00  0.11368683772E-12  0.17120000000E+03  0.17120000000E+03 0.  0.
         13    1    1    2    0    0  0.40101874653E+02 -0.98599866655E+02  0.59821272035E+03  0.60760889066E+03  0.10566000000E+00 0. -1.
        994    1    1    2    0    0 -0.87307844162E+02  0.21455526008E+03  0.19985786244E+03  0.35058411895E+03  0.17120000000E+03 0.  0.
        998    1    1    2    0    0  0.47205969509E+02 -0.11595539343E+03  0.70192941349E+03  0.71300699039E+03  0.10000000000E+00 0.  1.
</event>
<event>
 5    1  0.2022058E-009  0.3882629E+03  0.7957747E-01  0.3415950E+00
         13   -1    0    0    0    0  0.00000000000E+00  0.00000000000E+00  0.14999999963E+04  0.15000000000E+04  0.10566000000E+00 0. -1.
        994   -1    0    0    0    0 -0.00000000000E+00 -0.00000000000E+00  0.11368683772E-12  0.17120000000E+03  0.17120000000E+03 0.  0.
         13    1    1    2    0    0 -0.18992905893E+03 -0.14300457758E+03  0.12794341604E+04  0.13013359053E+04  0.10566000000E+00 0. -1.
        994    1    1    2    0    0  0.19035488945E+03  0.14373163057E+03  0.21418215436E+03  0.36342427108E+03  0.17120000000E+03 0.  0.
        998    1    1    2    0    0 -0.42583051314E+00 -0.72705298642E+00  0.63836815431E+01  0.64398235779E+01  0.10000000000E+00 0.  1.
</event>
<event>
 5    1  0.2022058E-009  0.3882564E+03  0.7957747E-01  0.3415978E+00
         13   -1    0    0    0    0  0.00000000000E+00  0.00000000000E+00  0.14999999963E+04  0.15000000000E+04  0.10566000000E+00 0.  1.
        994   -1    0    0    0    0 -0.00000000000E+00 -0.00000000000E+00  0.11368683772E-12  0.17120000000E+03  0.17120000000E+03 0.  0.
         13    1    1    2    0    0 -0.11843195720E+03 -0.21182854678E+03  0.12576159758E+04  0.12808182601E+04  0.10566000000E+00 0.  1.
        994    1    1    2    0    0  0.11976484332E+03  0.21342002920E+03  0.22773338761E+03  0.37558442778E+03  0.17120000000E+03 0.  0.
        998    1    1    2    0    0 -0.13328861167E+01 -0.15914824197E+01  0.14650632906E+02  0.14797312129E+02  0.10000000000E+00 0.  1.
</event>
<event>
 5    1  0.2022058E-009  0.3882692E+03  0.7957747E-01  0.3415924E+00
         13   -1    0    0    0    0  0.00000000000E+00  0.00000000000E+00  0.14999999963E+04  0.15000000000E+04  0.10566000000E+00 0.  1.
        994   -1    0    0    0    0 -0.00000000000E+00 -0.00000000000E+00  0.11368683772E-12  0.17120000000E+03  0.17120000000E+03 0.  0.
         13    1    1    2    0    0 -0.17877597343E+03 -0.11699247828E+03  0.12377790615E+04  0.12560832396E+04  0.10566000000E+00 0.  1.
        994    1    1    2    0    0  0.18798297969E+03  0.12374522700E+03  0.18694866597E+03  0.33898337064E+03  0.17120000000E+03 0.  0.
        998    1    1    2    0    0 -0.92070062616E+01 -0.67527487219E+01  0.75272268819E+02  0.76133389737E+02  0.10000000000E+00 0. -1.
</event>
<event>
 5    1  0.2022058E-009  0.3883005E+03  0.7957747E-01  0.3415794E+00
         13   -1    0    0    0    0  0.00000000000E+00  0.00000000000E+00  0.14999999963E+04  0.15000000000E+04  0.10566000000E+00 0.  1.
        994   -1    0    0    0    0 -0.00000000000E+00 -0.00000000000E+00  0.11368683772E-12  0.17120000000E+03  0.17120000000E+03 0.  0.
         13    1    1    2    0    0 -0.36766074261E+02  0.22511251797E+03  0.59800049019E+03  0.64002498967E+03  0.10566000000E+00 0.  1.
        994    1    1    2    0    0  0.54867063594E+02 -0.33501621154E+03  0.61158673588E+03  0.72013473196E+03  0.17120000000E+03 0.  0.
        998    1    1    2    0    0 -0.18100989333E+02  0.10990369357E+03  0.29041277020E+03  0.31104027838E+03  0.10000000000E+00 0.  1.
</event>
<event>
 5    1  0.2022058E-009  0.3883007E+03  0.7957747E-01  0.3415793E+00
         13   -1    0    0    0    0  0.00000000000E+00  0.00000000000E+00  0.14999999963E+04  0.15000000000E+04  0.10566000000E+00 0.  1.
        994   -1    0    0    0    0 -0.00000000000E+00 -0.00000000000E+00  0.11368683772E-12  0.17120000000E+03  0.17120000000E+03 0.  0.
         13    1    1    2    0    0  0.19168040870E+03 -0.82772059132E+01  0.10525292763E+04  0.10698727868E+04  0.10566000000E+00 0.  1.
        994    1    1    2    0    0 -0.23512359698E+03  0.10117044550E+02  0.20743573964E+03  0.35738562719E+03  0.17120000000E+03 0.  0.
        998    1    1    2    0    0  0.43443188279E+02 -0.18398386369E+01  0.24003498031E+03  0.24394158602E+03  0.10000000000E+00 0.  1.
</event>
<event>
 5    1  0.2022058E-009  0.3821422E+03  0.7957747E-01  0.3441884E+00
         13   -1    0    0    0    0  0.00000000000E+00  0.00000000000E+00  0.14999999963E+04  0.15000000000E+04  0.10566000000E+00 0. -1.
        994   -1    0    0    0    0 -0.00000000000E+00 -0.00000000000E+00  0.11368683772E-12  0.17120000000E+03  0.17120000000E+03 0.  0.
         13    1    1    2    0    0  0.17263326162E+02  0.91217185670E+00  0.65317823465E+02  0.67566883263E+02  0.10566000000E+00 0. -1.
        994    1    1    2    0    0 -0.35856163858E+02  0.26332840437E+03  0.29098966028E+03  0.42966491063E+03  0.17120000000E+03 0.  0.
        998    1    1    2    0    0  0.18592837696E+02 -0.26424057622E+03  0.11436925125E+04  0.11739682061E+04  0.10000000000E+00 0.  1.
</event>
<event>
 5    1  0.2022058E-009  0.3862682E+03  0.7957747E-01  0.3424311E+00
         13   -1    0    0    0    0  0.00000000000E+00  0.00000000000E+00  0.14999999963E+04  0.15000000000E+04  0.10566000000E+00 0. -1.
        994   -1    0    0    0    0 -0.00000000000E+00 -0.00000000000E+00  0.11368683772E-12  0.17120000000E+03  0.17120000000E+03 0.  0.
         13    1    1    2    0    0 -0.13822318521E+02 -0.64379560759E+01  0.88088882017E+02  0.89398915356E+02  0.10566000000E+00 0. -1.
        994    1    1    2    0    0  0.59418203398E+02 -0.24658545993E+02  0.14675425102E+02  0.18347581554E+03  0.17120000000E+03 0.  0.
        998    1    1    2    0    0 -0.45595884877E+02  0.31096502069E+02  0.13972356892E+04  0.13983252691E+04  0.10000000000E+00 0. -1.
</event>
<event>
 5    1  0.2022058E-009  0.3881503E+03  0.7957747E-01  0.3416420E+00
         13   -1    0    0    0    0  0.00000000000E+00  0.00000000000E+00  0.14999999963E+04  0.15000000000E+04  0.10566000000E+00 0. -1.
        994   -1    0    0    0    0 -0.00000000000E+00 -0.00000000000E+00  0.11368683772E-12  0.17120000000E+03  0.17120000000E+03 0.  0.
         13    1    1    2    0    0 -0.20213385392E+03  0.18210677853E+03  0.11835069312E+04  0.12143762354E+04  0.10566000000E+00 0. -1.
        994    1    1    2    0    0  0.20293542323E+03 -0.18408611097E+03  0.30224448017E+03  0.44241569598E+03  0.17120000000E+03 0.  0.
        998    1    1    2    0    0 -0.80156930885E+00  0.19793324376E+01  0.14248584876E+02  0.14408068615E+02  0.10000000000E+00 0.  1.
</event>
<event>
 5    1  0.2022058E-009  0.3883009E+03  0.7957747E-01  0.3415792E+00
         13   -1    0    0    0    0  0.00000000000E+00  0.00000000000E+00  0.14999999963E+04  0.15000000000E+04  0.10566000000E+00 0.  1.
        994   -1    0    0    0    0 -0.00000000000E+00 -0.00000000000E+00  0.11368683772E-12  0.17120000000E+03  0.17120000000E+03 0.  0.
         13    1    1    2    0    0  0.12140315410E+03 -0.11314237787E+03  0.87077874077E+03  0.88645109850E+03  0.10566000000E+00 0.  1.
        994    1    1    2    0    0 -0.17775457588E+03  0.16590890884E+03  0.22416131629E+03  0.37239789339E+03  0.17120000000E+03 0.  0.
        998    1    1    2    0    0  0.56351421781E+02 -0.52766530973E+02  0.40505993922E+03  0.41235100811E+03  0.10000000000E+00 0.  1.
</event>
<event>
 5    1  0.2022058E-009  0.3882962E+03  0.7957747E-01  0.3415812E+00
         13   -1    0    0    0    0  0.00000000000E+00  0.00000000000E+00  0.14999999963E+04  0.15000000000E+04  0.10566000000E+00 0. -1.
        994   -1    0    0    0    0 -0.00000000000E+00 -0.00000000000E+00  0.11368683772E-12  0.17120000000E+03  0.17120000000E+03 0.  0.
         13    1    1    2    0    0 -0.25841862076E+03  0.99837732298E+01  0.12335273095E+04  0.12603449900E+04  0.10566000000E+00 0. -1.
        994    1    1    2    0    0  0.25928642886E+03 -0.99518225826E+01  0.26275449687E+03  0.40703544881E+03  0.17120000000E+03 0.  0.
        998    1    1    2    0    0 -0.86780810005E+00 -0.31950647199E-01  0.37181898685E+01  0.38195611843E+01  0.10000000000E+00 0. -1.
</event>
<event>
 5    1  0.2022058E-009  0.3882995E+03  0.7957747E-01  0.3415798E+00
         13   -1    0    0    0    0  0.00000000000E+00  0.00000000000E+00  0.14999999963E+04  0.15000000000E+04  0.10566000000E+00 0.  1.
        994   -1    0    0    0    0 -0.00000000000E+00 -0.00000000000E+00  0.11368683772E-12  0.17120000000E+03  0.17120000000E+03 0.  0.
         13    1    1    2    0    0 -0.16183862957E+03  0.60995656654E+02  0.10242963802E+04  0.10387951183E+04  0.10566000000E+00 0.  1.
        994    1    1    2    0    0  0.20765218916E+03 -0.78274571077E+02  0.18095564532E+03  0.33361763400E+03  0.17120000000E+03 0.  0.
        998    1    1    2    0    0 -0.45813559586E+02  0.17278914422E+02  0.29474797074E+03  0.29878724769E+03  0.10000000000E+00 0.  1.
</event>
<event>
 5    1  0.2022058E-009  0.3883008E+03  0.7957747E-01  0.3415793E+00
         13   -1    0    0    0    0  0.00000000000E+00  0.00000000000E+00  0.14999999963E+04  0.15000000000E+04  0.10566000000E+00 0.  1.
        994   -1    0    0    0    0 -0.00000000000E+00 -0.00000000000E+00  0.11368683772E-12  0.17120000000E+03  0.17120000000E+03 0.  0.
         13    1    1    2    0    0  0.10922064926E+02  0.17090546232E+03  0.85014841079E+03  0.86722563389E+03  0.10566000000E+00 0.  1.
        994    1    1    2    0    0 -0.16144110848E+02 -0.25233528314E+03  0.24645218339E+03  0.39240520655E+03  0.17120000000E+03 0.  0.
        998    1    1    2    0    0  0.52220459212E+01  0.81429820819E+02  0.40339940210E+03  0.41156915956E+03  0.10000000000E+00 0.  1.
</event>
<event>
 5    1  0.2022058E-009  0.3882971E+03  0.7957747E-01  0.3415808E+00
         13   -1    0    0    0    0  0.00000000000E+00  0.00000000000E+00  0.14999999963E+04  0.15000000000E+04  0.10566000000E+00 0.  1.
        994   -1    0    0    0    0 -0.00000000000E+00 -0.00000000000E+00  0.11368683772E-12  0.17120000000E+03  0.17120000000E+03 0.  0.
         13    1    1    2    0    0 -0.26215268018E+02 -0.23070989545E+02  0.19443046470E+03  0.19754171105E+03  0.10566000000E+00 0.  1.
        994    1    1    2    0    0  0.17473482185E+03  0.15883213559E+03  0.20909504695E+03  0.35887335360E+03  0.17120000000E+03 0.  0.
        998    1    1    2    0    0 -0.14851955384E+03 -0.13576114605E+03  0.10964744846E+04  0.11147849354E+04  0.10000000000E+00 0.  1.
</event>
<event>
 5    1  0.2022058E-009  0.3877656E+03  0.7957747E-01  0.3418027E+00
         13   -1    0    0    0    0  0.00000000000E+00  0.00000000000E+00  0.14999999963E+04  0.15000000000E+04  0.10566000000E+00 0.  1.
        994   -1    0    0    0    0 -0.00000000000E+00 -0.00000000000E+00  0.11368683772E-12  0.17120000000E+03  0.17120000000E+03 0.  0.
         13    1    1    2    0    0 -0.12317638136E+03  0.16109428162E+03  0.12084507875E+04  0.12253477488E+04  0.10566000000E+00 0.  1.
        994    1    1    2    0    0  0.13375974594E+03 -0.16859288769E+03  0.16933911690E+03  0.32295573679E+03  0.17120000000E+03 0.  0.
        998    1    1    2    0    0 -0.10583364582E+02  0.74986060703E+01  0.12221009187E+03  0.12289651440E+03  0.10000000000E+00 0. -1.
</event>
<event>
 5    1  0.2022058E-009  0.3882974E+03  0.7957747E-01  0.3415807E+00
         13   -1    0    0    0    0  0.00000000000E+00  0.00000000000E+00  0.14999999963E+04  0.15000000000E+04  0.10566000000E+00 0.  1.
        994   -1    0    0    0    0 -0.00000000000E+00 -0.00000000000E+00  0.11368683772E-12  0.17120000000E+03  0.17120000000E+03 0.  0.
         13    1    1    2    0    0 -0.81595445504E+02 -0.22120768154E+03  0.12650616666E+04  0.12868456343E+04  0.10566000000E+00 0.  1.
        994    1    1    2    0    0  0.82987416290E+02  0.22436170260E+03  0.21561344434E+03  0.36472411798E+03  0.17120000000E+03 0.  0.
        998    1    1    2    0    0 -0.13919707857E+01 -0.31540210590E+01  0.19324885353E+02  0.19630247716E+02  0.10000000000E+00 0.  1.
</event>
<event>
 5    1  0.2022058E-009  0.3882082E+03  0.7957747E-01  0.3416179E+00
         13   -1    0    0    0    0  0.00000000000E+00  0.00000000000E+00  0.14999999963E+04  0.15000000000E+04  0.10566000000E+00 0.  1.
        994   -1    0    0    0    0 -0.00000000000E+00 -0.00000000000E+00  0.11368683772E-12  0.17120000000E+03  0.17120000000E+03 0.  0.
         13    1    1    2    0    0 -0.18019080495E+03 -0.22265665991E+03  0.11480850792E+04  0.11832768377E+04  0.10566000000E+00 0.  1.
        994    1    1    2    0    0  0.18177053197E+03  0.22387107483E+03  0.34678510024E+03  0.48241904004E+03  0.17120000000E+03 0.  0.
        998    1    1    2    0    0 -0.15797270274E+01 -0.12144149225E+01  0.51298168126E+01  0.55041222384E+01  0.10000000000E+00 0. -1.
</event>
<event>
 5    1  0.2022058E-009  0.3882956E+03  0.7957747E-01  0.3415814E+00
         13   -1    0    0    0    0  0.00000000000E+00  0.00000000000E+00  0.14999999963E+04  0.15000000000E+04  0.10566000000E+00 0.  1.
        994   -1    0    0    0    0 -0.00000000000E+00 -0.00000000000E+00  0.11368683772E-12  0.17120000000E+03  0.17120000000E+03 0.  0.
         13    1    1    2    0    0 -0.23269377478E+03  0.16885948592E+03  0.11216299574E+04  0.11578919170E+04  0.10566000000E+00 0.  1.
        994    1    1    2    0    0  0.23678107908E+03 -0.17142555033E+03  0.36006222396E+03  0.49437459870E+03  0.17120000000E+03 0.  0.
        998    1    1    2    0    0 -0.40873042943E+01  0.25660644098E+01  0.18307814904E+02  0.18933484347E+02  0.10000000000E+00 0.  1.
</event>
<event>
 5    1  0.2022058E-009  0.3881047E+03  0.7957747E-01  0.3416611E+00
         13   -1    0    0    0    0  0.00000000000E+00  0.00000000000E+00  0.14999999963E+04  0.15000000000E+04  0.10566000000E+00 0. -1.
        994   -1    0    0    0    0 -0.00000000000E+00 -0.00000000000E+00  0.11368683772E-12  0.17120000000E+03  0.17120000000E+03 0.  0.
         13    1    1    2    0    0  0.78934996431E+01 -0.65679300179E+02  0.38597101748E+03  0.39159892148E+03  0.10566000000E+00 0. -1.
        994    1    1    2    0    0 -0.12026227124E+01  0.21932107308E+03  0.17638755783E+03  0.32943161651E+03  0.17120000000E+03 0.  0.
        998    1    1    2    0    0 -0.66908769307E+01 -0.15364177290E+03  0.93764142097E+03  0.95016946200E+03  0.10000000000E+00 0. -1.
</event>
<event>
 5    1  0.2022058E-009  0.3882968E+03  0.7957747E-01  0.3415809E+00
         13   -1    0    0    0    0  0.00000000000E+00  0.00000000000E+00  0.14999999963E+04  0.15000000000E+04  0.10566000000E+00 0.  1.
        994   -1    0    0    0    0 -0.00000000000E+00 -0.00000000000E+00  0.11368683772E-12  0.17120000000E+03  0.17120000000E+03 0.  0.
         13    1    1    2    0    0  0.19920331630E+03 -0.11763269840E+02  0.89933044681E+03  0.92120334317E+03  0.10566000000E+00 0.  1.
        994    1    1    2    0    0 -0.26757459821E+03  0.15907798400E+02  0.28526784523E+03  0.42724279652E+03  0.17120000000E+03 0.  0.
        998    1    1    2    0    0  0.68371281910E+02 -0.41445285602E+01  0.31540170424E+03  0.32275386031E+03  0.10000000000E+00 0.  1.
</event>
<event>
 5    1  0.2022058E-009  0.3882691E+03  0.7957747E-01  0.3415925E+00
         13   -1    0    0    0    0  0.00000000000E+00  0.00000000000E+00  0.14999999963E+04  0.15000000000E+04  0.10566000000E+00 0. -1.
        994   -1    0    0    0    0 -0.00000000000E+00 -0.00000000000E+00  0.11368683772E-12  0.17120000000E+03  0.17120000000E+03 0.  0.
         13    1    1    2    0    0 -0.16632592481E+03  0.19138401207E+03  0.10417935015E+04  0.10722060736E+04  0.10566000000E+00 0. -1.
        994    1    1    2    0    0  0.18695655998E+03 -0.21569191362E+03  0.33698493469E+03  0.47364970509E+03  0.17120000000E+03 0.  0.
        998    1    1    2    0    0 -0.20630635170E+02  0.24307901552E+02  0.12122156009E+03  0.12534422131E+03  0.10000000000E+00 0. -1.
</event>
<event>
 5    1  0.2022058E-009  0.3934564E+03  0.7957747E-01  0.3394581E+00
         13   -1    0    0    0    0  0.00000000000E+00  0.00000000000E+00  0.14999999963E+04  0.15000000000E+04  0.10566000000E+00 0. -1.
        994   -1    0    0    0    0 -0.00000000000E+00 -0.00000000000E+00  0.11368683772E-12  0.17120000000E+03  0.17120000000E+03 0.  0.
         13    1    1    2    0    0  0.19161738373E+02  0.22333722456E+01 -0.10981918093E+02  0.22198510267E+02  0.10566000000E+00 0. -1.
        994    1    1    2    0    0 -0.26302122439E+03 -0.25698615564E+02  0.38843117009E+03  0.50002879639E+03  0.17120000000E+03 0.  0.
        998    1    1    2    0    0  0.24385948602E+03  0.23465243318E+02  0.11225507443E+04  0.11489726933E+04  0.10000000000E+00 0. -1.
</event>
<event>
 5    1  0.2022058E-009  0.3882119E+03  0.7957747E-01  0.3416163E+00
         13   -1    0    0    0    0  0.00000000000E+00  0.00000000000E+00  0.14999999963E+04  0.15000000000E+04  0.10566000000E+00 0. -1.
        994   -1    0    0    0    0 -0.00000000000E+00 -0.00000000000E+00  0.11368683772E-12  0.17120000000E+03  0.17120000000E+03 0.  0.
         13    1    1    2    0    0  0.11549504757E+03  0.15304365261E+03  0.11204236428E+04  0.11367104364E+04  0.10566000000E+00 0. -1.
        994    1    1    2    0    0 -0.13178964810E+03 -0.17791338515E+03  0.18011664503E+03  0.33282597521E+03  0.17120000000E+03 0.  0.
        998    1    1    2    0    0  0.16294600529E+02  0.24869732533E+02  0.19945970845E+03  0.20166358843E+03  0.10000000000E+00 0. -1.
</event>
<event>
 5    1  0.2022058E-009  0.3882969E+03  0.7957747E-01  0.3415809E+00
         13   -1    0    0    0    0  0.00000000000E+00  0.00000000000E+00  0.14999999963E+04  0.15000000000E+04  0.10566000000E+00 0.  1.
        994   -1    0    0    0    0 -0.00000000000E+00 -0.00000000000E+00  0.11368683772E-12  0.17120000000E+03  0.17120000000E+03 0.  0.
         13    1    1    2    0    0  0.12445816668E+03  0.24495789050E+02  0.56317601605E+03  0.57728425854E+03  0.10566000000E+00 0.  1.
        994    1    1    2    0    0 -0.26802579556E+03 -0.51838825845E+02  0.29908006548E+03  0.43964009885E+03  0.17120000000E+03 0.  0.
        998    1    1    2    0    0  0.14356762887E+03  0.27343036795E+02  0.63774391474E+03  0.65427564261E+03  0.10000000000E+00 0.  1.
</event>
<event>
 5    1  0.2022058E-009  0.3882922E+03  0.7957747E-01  0.3415828E+00
         13   -1    0    0    0    0  0.00000000000E+00  0.00000000000E+00  0.14999999963E+04  0.15000000000E+04  0.10566000000E+00 0.  1.
        994   -1    0    0    0    0 -0.00000000000E+00 -0.00000000000E+00  0.11368683772E-12  0.17120000000E+03  0.17120000000E+03 0.  0.
         13    1    1    2    0    0  0.27520934327E+03 -0.27570363822E+02  0.11834286542E+04  0.12153204097E+04  0.10566000000E+00 0.  1.
        994    1    1    2    0    0 -0.27617326188E+03  0.27479350816E+02  0.31236417629E+03  0.45156129587E+03  0.17120000000E+03 0.  0.
        998    1    1    2    0    0  0.96391860990E+00  0.91013006014E-01  0.42071657821E+01  0.43182943822E+01  0.10000000000E+00 0.  1.
</event>
<event>
 5    1  0.2022058E-009  0.3882914E+03  0.7957747E-01  0.3415832E+00
         13   -1    0    0    0    0  0.00000000000E+00  0.00000000000E+00  0.14999999963E+04  0.15000000000E+04  0.10566000000E+00 0.  1.
        994   -1    0    0    0    0 -0.00000000000E+00 -0.00000000000E+00  0.11368683772E-12  0.17120000000E+03  0.17120000000E+03 0.  0.
         13    1    1    2    0    0  0.10244430689E+03 -0.17458861900E+03  0.11056832433E+04  0.11240602598E+04  0.10566000000E+00 0.  1.
        994    1    1    2    0    0 -0.11840539445E+03  0.20474490685E+03  0.20990173544E+03  0.35959490105E+03  0.17120000000E+03 0.  0.
        998    1    1    2    0    0  0.15961087564E+02 -0.30156287856E+02  0.18441501752E+03  0.18754483917E+03  0.10000000000E+00 0. -1.
</event>
<event>
 5    1  0.2022058E-009  0.3883009E+03  0.7957747E-01  0.3415792E+00
         13   -1    0    0    0    0  0.00000000000E+00  0.00000000000E+00  0.14999999963E+04  0.15000000000E+04  0.10566000000E+00 0. -1.
        994   -1    0    0    0    0 -0.00000000000E+00 -0.00000000000E+00  0.11368683772E-12  0.17120000000E+03  0.17120000000E+03 0.  0.
         13    1    1    2    0    0  0.18431263199E+03 -0.58517984982E+02  0.11205548559E+04  0.11371185941E+04  0.10566000000E+00 0. -1.
        994    1    1    2    0    0 -0.21550608378E+03  0.68471433456E+02  0.18896043111E+03  0.34080301329E+03  0.17120000000E+03 0.  0.
        998    1    1    2    0    0  0.31193451783E+02 -0.99534484745E+01  0.19048470931E+03  0.19327839262E+03  0.10000000000E+00 0.  0.
</event>
<event>
 5    1  0.2022058E-009  0.3882995E+03  0.7957747E-01  0.3415798E+00
         13   -1    0    0    0    0  0.00000000000E+00  0.00000000000E+00  0.14999999963E+04  0.15000000000E+04  0.10566000000E+00 0. -1.
        994   -1    0    0    0    0 -0.00000000000E+00 -0.00000000000E+00  0.11368683772E-12  0.17120000000E+03  0.17120000000E+03 0.  0.
         13    1    1    2    0    0  0.79781037315E+02 -0.46539527862E+02  0.50168659097E+03  0.51011801408E+03  0.10566000000E+00 0. -1.
        994    1    1    2    0    0 -0.20629466706E+03  0.11847348611E+03  0.21279121628E+03  0.36219193571E+03  0.17120000000E+03 0.  0.
        998    1    1    2    0    0  0.12651362974E+03 -0.71933958252E+02  0.78552218903E+03  0.79889005021E+03  0.10000000000E+00 0. -1.
</event>
<event>
 5    1  0.2022058E-009  0.3882853E+03  0.7957747E-01  0.3415857E+00
         13   -1    0    0    0    0  0.00000000000E+00  0.00000000000E+00  0.14999999963E+04  0.15000000000E+04  0.10566000000E+00 0. -1.
        994   -1    0    0    0    0 -0.00000000000E+00 -0.00000000000E+00  0.11368683772E-12  0.17120000000E+03  0.17120000000E+03 0.  0.
         13    1    1    2    0    0 -0.57125862917E+01  0.20908959890E+03  0.89282396381E+03  0.91699822002E+03  0.10566000000E+00 0. -1.
        994    1    1    2    0    0  0.77782699519E+01 -0.27616304111E+03  0.30862613236E+03  0.44820314182E+03  0.17120000000E+03 0.  0.
        998    1    1    2    0    0 -0.20656836602E+01  0.67073442217E+02  0.29854990011E+03  0.30599863816E+03  0.10000000000E+00 0. -1.
</event>
<event>
 5    1  0.2022058E-009  0.3809013E+03  0.7957747E-01  0.3447244E+00
         13   -1    0    0    0    0  0.00000000000E+00  0.00000000000E+00  0.14999999963E+04  0.15000000000E+04  0.10566000000E+00 0.  1.
        994   -1    0    0    0    0 -0.00000000000E+00 -0.00000000000E+00  0.11368683772E-12  0.17120000000E+03  0.17120000000E+03 0.  0.
         13    1    1    2    0    0  0.12555694235E+03  0.13173478996E+03  0.10416410216E+04  0.10574188525E+04  0.10566000000E+00 0.  1.
        994    1    1    2    0    0 -0.10659681777E+03 -0.17979166869E+03  0.16645315406E+03  0.31733896418E+03  0.17120000000E+03 0.  0.
        998    1    1    2    0    0 -0.18960124579E+02  0.48056878737E+02  0.29190582066E+03  0.29644218333E+03  0.10000000000E+00 0.  1.
</event>
<event>
 5    1  0.2022058E-009  0.3883008E+03  0.7957747E-01  0.3415793E+00
         13   -1    0    0    0    0  0.00000000000E+00  0.00000000000E+00  0.14999999963E+04  0.15000000000E+04  0.10566000000E+00 0.  1.
        994   -1    0    0    0    0 -0.00000000000E+00 -0.00000000000E+00  0.11368683772E-12  0.17120000000E+03  0.17120000000E+03 0.  0.
         13    1    1    2    0    0  0.77686409255E+02  0.23520240406E+03  0.11971701210E+04  0.12225267518E+04  0.10566000000E+00 0.  1.
        994    1    1    2    0    0 -0.80654733315E+02 -0.24421760909E+03  0.25702107455E+03  0.40189140244E+03  0.17120000000E+03 0.  0.
        998    1    1    2    0    0  0.29683240601E+01  0.90152050224E+01  0.45808800740E+02  0.46781845780E+02  0.10000000000E+00 0.  0.
</event>
<event>
 5    1  0.2022058E-009  0.3882282E+03  0.7957747E-01  0.3416096E+00
         13   -1    0    0    0    0  0.00000000000E+00  0.00000000000E+00  0.14999999963E+04  0.15000000000E+04  0.10566000000E+00 0.  1.
        994   -1    0    0    0    0 -0.00000000000E+00 -0.00000000000E+00  0.11368683772E-12  0.17120000000E+03  0.17120000000E+03 0.  0.
         13    1    1    2    0    0  0.14794782569E+03  0.20442505169E+03  0.12328915264E+04  0.12584513054E+04  0.10566000000E+00 0.  1.
        994    1    1    2    0    0 -0.14867089174E+03 -0.20726804077E+03  0.25193966351E+03  0.39729851349E+03  0.17120000000E+03 0.  0.
        998    1    1    2    0    0  0.72306604885E+00  0.28429890726E+01  0.15168806351E+02  0.15450181148E+02  0.10000000000E+00 0.  1.
</event>
<event>
 5    1  0.2022058E-009  0.3882978E+03  0.7957747E-01  0.3415805E+00
         13   -1    0    0    0    0  0.00000000000E+00  0.00000000000E+00  0.14999999963E+04  0.15000000000E+04  0.10566000000E+00 0. -1.
        994   -1    0    0    0    0 -0.00000000000E+00 -0.00000000000E+00  0.11368683772E-12  0.17120000000E+03  0.17120000000E+03 0.  0.
         13    1    1    2    0    0  0.29556244349E+01  0.13955383003E+03  0.72305382256E+03  0.73640399827E+03  0.10566000000E+00 0. -1.
        994    1    1    2    0    0 -0.57984702989E+01 -0.24654652303E+03  0.23192378742E+03  0.37936380092E+03  0.17120000000E+03 0.  0.
        998    1    1    2    0    0  0.28428458640E+01  0.10699269300E+03  0.54502238630E+03  0.55543220081E+03  0.10000000000E+00 0. -1.
</event>
<event>
 5    1  0.2022058E-009  0.3882972E+03  0.7957747E-01  0.3415808E+00
         13   -1    0    0    0    0  0.00000000000E+00  0.00000000000E+00  0.14999999963E+04  0.15000000000E+04  0.10566000000E+00 0. -1.
        994   -1    0    0    0    0 -0.00000000000E+00 -0.00000000000E+00  0.11368683772E-12  0.17120000000E+03  0.17120000000E+03 0.  0.
         13    1    1    2    0    0 -0.16595195187E+03 -0.22915494970E+03  0.80244966221E+03  0.85086868132E+03  0.10566000000E+00 0. -1.
        994    1    1    2    0    0  0.19525678469E+03  0.26989797753E+03  0.55812313464E+03  0.67214656412E+03  0.17120000000E+03 0.  0.
        998    1    1    2    0    0 -0.29304832826E+02 -0.40743027832E+02  0.13942719943E+03  0.14818475456E+03  0.10000000000E+00 0. -1.
</event>
<event>
 5    1  0.2022058E-009  0.3882931E+03  0.7957747E-01  0.3415825E+00
         13   -1    0    0    0    0  0.00000000000E+00  0.00000000000E+00  0.14999999963E+04  0.15000000000E+04  0.10566000000E+00 0. -1.
        994   -1    0    0    0    0 -0.00000000000E+00 -0.00000000000E+00  0.11368683772E-12  0.17120000000E+03  0.17120000000E+03 0.  0.
         13    1    1    2    0    0  0.22561996703E+03 -0.83441988561E+02  0.12795201740E+04  0.13019365660E+04  0.10566000000E+00 0. -1.
        994    1    1    2    0    0 -0.22587583574E+03  0.83577359630E+02  0.21912027293E+03  0.36786981695E+03  0.17120000000E+03 0.  0.
        998    1    1    2    0    0  0.25586870833E+00 -0.13537106955E+00  0.13595493401E+01  0.13936170674E+01  0.10000000000E+00 0.  0.
</event>
<event>
 5    1  0.2022058E-009  0.3877404E+03  0.7957747E-01  0.3418133E+00
         13   -1    0    0    0    0  0.00000000000E+00  0.00000000000E+00  0.14999999963E+04  0.15000000000E+04  0.10566000000E+00 0.  1.
        994   -1    0    0    0    0 -0.00000000000E+00 -0.00000000000E+00  0.11368683772E-12  0.17120000000E+03  0.17120000000E+03 0.  0.
         13    1    1    2    0    0  0.80381469570E+01  0.22238970000E+03  0.11306886968E+04  0.11523795949E+04  0.10566000000E+00 0.  1.
        994    1    1    2    0    0 -0.41353267272E+01 -0.25404199980E+03  0.25032534535E+03  0.39563449940E+03  0.17120000000E+03 0.  0.
        998    1    1    2    0    0 -0.39028202298E+01  0.31652299795E+02  0.11898595409E+03  0.12318590568E+03  0.10000000000E+00 0.  1.
</event>
<event>
 5    1  0.2806020E-009  0.3882917E+03  0.7957747E-01  0.3415831E+00
         13   -1    0    0    0    0  0.00000000000E+00  0.00000000000E+00  0.14999999963E+04  0.15000000000E+04  0.10566000000E+00 0. -1.
        994   -1    0    0    0    0 -0.00000000000E+00 -0.00000000000E+00  0.11368683772E-12  0.17120000000E+03  0.17120000000E+03 0.  0.
         13    1    1    2    0    0  0.69740015113E+02  0.32687538787E+03  0.92596971697E+03  0.98444457275E+03  0.10566000000E+00 0. -1.
        994    1    1    2    0    0 -0.69800372449E+02 -0.32755529022E+03  0.57178348710E+03  0.68440511123E+03  0.17120000000E+03 0.  0.
        998    1    1    2    0    0  0.60357335678E-01  0.67990235099E+00  0.22467922064E+01  0.23503160284E+01  0.10000000000E+00 0.  1.
</event>
<event>
 5    1  0.3420792E-009  0.3882844E+03  0.7957747E-01  0.3415861E+00
         13   -1    0    0    0    0  0.00000000000E+00  0.00000000000E+00  0.14999999963E+04  0.15000000000E+04  0.10566000000E+00 0. -1.
        994   -1    0    0    0    0 -0.00000000000E+00 -0.00000000000E+00  0.11368683772E-12  0.17120000000E+03  0.17120000000E+03 0.  0.
         13    1    1    2    0    0  0.77112216764E+02 -0.22305637754E+03  0.12890430624E+04  0.13104703238E+04  0.10566000000E+00 0. -1.
        994    1    1    2    0    0 -0.77286784776E+02  0.22321836920E+03  0.20928884427E+03  0.35904170758E+03  0.17120000000E+03 0.  0.
        998    1    1    2    0    0  0.17456801216E+00 -0.16199165469E+00  0.16680896009E+01  0.16879686619E+01  0.10000000000E+00 0. -1.
</event>
<event>
 5    1  0.2022058E-009  0.3877435E+03  0.7957747E-01  0.3418119E+00
         13   -1    0    0    0    0  0.00000000000E+00  0.00000000000E+00  0.14999999963E+04  0.15000000000E+04  0.10566000000E+00 0. -1.
        994   -1    0    0    0    0 -0.00000000000E+00 -0.00000000000E+00  0.11368683772E-12  0.17120000000E+03  0.17120000000E+03 0.  0.
         13    1    1    2    0    0 -0.98995429236E+02 -0.29816263915E+03  0.89591079528E+03  0.94939834561E+03  0.10566000000E+00 0. -1.
        994    1    1    2    0    0  0.11005203716E+03  0.31195314688E+03  0.54497266987E+03  0.66009913470E+03  0.17120000000E+03 0.  0.
        998    1    1    2    0    0 -0.11056607924E+02 -0.13790507732E+02  0.59116531132E+02  0.61702519684E+02  0.10000000000E+00 0. -1.
</event>
<event>
 5    1  0.2022058E-009  0.3882950E+03  0.7957747E-01  0.3415817E+00
         13   -1    0    0    0    0  0.00000000000E+00  0.00000000000E+00  0.14999999963E+04  0.15000000000E+04  0.10566000000E+00 0. -1.
        994   -1    0    0    0    0 -0.00000000000E+00 -0.00000000000E+00  0.11368683772E-12  0.17120000000E+03  0.17120000000E+03 0.  0.
         13    1    1    2    0    0 -0.26096380615E+03 -0.19703034963E+03  0.92661810714E+03  0.98262108385E+03  0.10566000000E+00 0. -1.
        994    1    1    2    0    0  0.26557257268E+03  0.20056067175E+03  0.55574998976E+03  0.67001557111E+03  0.17120000000E+03 0.  0.
        998    1    1    2    0    0 -0.46087665313E+01 -0.35303221182E+01  0.17631899375E+02  0.18563345032E+02  0.10000000000E+00 0. -1.
</event>
<event>
 5    1  0.2022058E-009  0.3880382E+03  0.7957747E-01  0.3416888E+00
         13   -1    0    0    0    0  0.00000000000E+00  0.00000000000E+00  0.14999999963E+04  0.15000000000E+04  0.10566000000E+00 0.  1.
        994   -1    0    0    0    0 -0.00000000000E+00 -0.00000000000E+00  0.11368683772E-12  0.17120000000E+03  0.17120000000E+03 0.  0.
         13    1    1    2    0    0 -0.21043938034E+03  0.45661045481E+02  0.12997391413E+04  0.13174564549E+04  0.10566000000E+00 0.  1.
        994    1    1    2    0    0  0.21228983150E+03 -0.47940963630E+02  0.17338258360E+03  0.32670517113E+03  0.17120000000E+03 0.  0.
        998    1    1    2    0    0 -0.18504511597E+01  0.22799181486E+01  0.26878271377E+02  0.27038373999E+02  0.10000000000E+00 0. -1.
</event>
<event>
 5    1  0.2022058E-009  0.3882559E+03  0.7957747E-01  0.3415980E+00
         13   -1    0    0    0    0  0.00000000000E+00  0.00000000000E+00  0.14999999963E+04  0.15000000000E+04  0.10566000000E+00 0. -1.
        994   -1    0    0    0    0 -0.00000000000E+00 -0.00000000000E+00  0.11368683772E-12  0.17120000000E+03  0.17120000000E+03 0.  0.
         13    1    1    2    0    0  0.32001594717E+02  0.14906040593E+03  0.63687474907E+03  0.65486835612E+03  0.10566000000E+00 0. -1.
        994    1    1    2    0    0 -0.55552580283E+02 -0.27950801084E+03  0.33551569865E+03  0.47232514367E+03  0.17120000000E+03 0.  0.
        998    1    1    2    0    0  0.23550985566E+02  0.13044760491E+03  0.52760954856E+03  0.54400650022E+03  0.10000000000E+00 0. -1.
</event>
<event>
 5    1  0.2022058E-009  0.3882785E+03  0.7957747E-01  0.3415885E+00
         13   -1    0    0    0    0  0.00000000000E+00  0.00000000000E+00  0.14999999963E+04  0.15000000000E+04  0.10566000000E+00 0.  1.
        994   -1    0    0    0    0 -0.00000000000E+00 -0.00000000000E+00  0.11368683772E-12  0.17120000000E+03  0.17120000000E+03 0.  0.
         13    1    1    2    0    0 -0.12103364523E+03  0.61482303149E+02  0.66834868179E+03  0.68199647249E+03  0.10566000000E+00 0.  1.
        994    1    1    2    0    0  0.22287164345E+03 -0.11867940025E+03  0.24565154032E+03  0.39167676566E+03  0.17120000000E+03 0.  0.
        998    1    1    2    0    0 -0.10183799822E+03  0.57197097103E+02  0.58599977417E+03  0.59752676185E+03  0.10000000000E+00 0.  1.
</event>
<event>
 5    1  0.2022058E-009  0.3883009E+03  0.7957747E-01  0.3415792E+00
         13   -1    0    0    0    0  0.00000000000E+00  0.00000000000E+00  0.14999999963E+04  0.15000000000E+04  0.10566000000E+00 0. -1.
        994   -1    0    0    0    0 -0.00000000000E+00 -0.00000000000E+00  0.11368683772E-12  0.17120000000E+03  0.17120000000E+03 0.  0.
         13    1    1    2    0    0  0.19365145970E+03  0.14983285613E+03  0.76158363313E+03  0.79997525840E+03  0.10566000000E+00 0. -1.
        994    1    1    2    0    0 -0.25564621774E+03 -0.19773720865E+03  0.49464882961E+03  0.61517631373E+03  0.17120000000E+03 0.  0.
        998    1    1    2    0    0  0.61994758043E+02  0.47904352520E+02  0.24376753353E+03  0.25604842788E+03  0.10000000000E+00 0.  0.
</event>
<event>
 5    1  0.2022058E-009  0.3882940E+03  0.7957747E-01  0.3415821E+00
         13   -1    0    0    0    0  0.00000000000E+00  0.00000000000E+00  0.14999999963E+04  0.15000000000E+04  0.10566000000E+00 0.  1.
        994   -1    0    0    0    0 -0.00000000000E+00 -0.00000000000E+00  0.11368683772E-12  0.17120000000E+03  0.17120000000E+03 0.  0.
         13    1    1    2    0    0  0.21933656817E+03 -0.10099974615E+03  0.12527109431E+04  0.12757720004E+04  0.10566000000E+00 0.  1.
        994    1    1    2    0    0 -0.22233580926E+03  0.10253929762E+03  0.22793154203E+03  0.37577885450E+03  0.17120000000E+03 0.  0.
        998    1    1    2    0    0  0.29992410879E+01 -0.15395514733E+01  0.19357511153E+02  0.19649145118E+02  0.10000000000E+00 0.  0.
</event>
<event>
 5    1  0.2022058E-009  0.3882230E+03  0.7957747E-01  0.3416117E+00
         13   -1    0    0    0    0  0.00000000000E+00  0.00000000000E+00  0.14999999963E+04  0.15000000000E+04  0.10566000000E+00 0.  1.
        994   -1    0    0    0    0 -0.00000000000E+00 -0.00000000000E+00  0.11368683772E-12  0.17120000000E+03  0.17120000000E+03 0.  0.
         13    1    1    2    0    0  0.54429057012E+02 -0.22875703673E+03  0.12900760708E+04  0.13113308445E+04  0.10566000000E+00 0.  1.
        994    1    1    2    0    0 -0.54092858464E+02  0.22907941166E+03  0.20762307707E+03  0.35751950480E+03  0.17120000000E+03 0.  0.
        998    1    1    2    0    0 -0.33619854845E+00 -0.32237492829E+00  0.23008483967E+01  0.23496506981E+01  0.10000000000E+00 0. -1.
</event>
<event>
 5    1  0.2022058E-009  0.3882929E+03  0.7957747E-01  0.3415826E+00
         13   -1    0    0    0    0  0.00000000000E+00  0.00000000000E+00  0.14999999963E+04  0.15000000000E+04  0.10566000000E+00 0. -1.
        994   -1    0    0    0    0 -0.00000000000E+00 -0.00000000000E+00  0.11368683772E-12  0.17120000000E+03  0.17120000000E+03 0.  0.
         13    1    1    2    0    0 -0.16374574961E+03  0.56876710391E+02  0.83670804578E+03  0.85447527509E+03  0.10566000000E+00 0. -1.
        994    1    1    2    0    0  0.24427275039E+03 -0.85786338864E+02  0.26129997262E+03  0.40572846611E+03  0.17120000000E+03 0.  0.
        998    1    1    2    0    0 -0.80527000780E+02  0.28909628473E+02  0.40199197788E+03  0.41099625881E+03  0.10000000000E+00 0. -1.
</event>
<event>
 5    1  0.2022058E-009  0.3882874E+03  0.7957747E-01  0.3415849E+00
         13   -1    0    0    0    0  0.00000000000E+00  0.00000000000E+00  0.14999999963E+04  0.15000000000E+04  0.10566000000E+00 0. -1.
        994   -1    0    0    0    0 -0.00000000000E+00 -0.00000000000E+00  0.11368683772E-12  0.17120000000E+03  0.17120000000E+03 0.  0.
         13    1    1    2    0    0 -0.53087774991E+02  0.22435499222E+03  0.12537920390E+04  0.12748129128E+04  0.10566000000E+00 0. -1.
        994    1    1    2    0    0  0.53907866437E+02 -0.23094990439E+03  0.21125413529E+03  0.36080696512E+03  0.17120000000E+03 0.  0.
        998    1    1    2    0    0 -0.82009144522E+00  0.65949121736E+01  0.34953821986E+02  0.35580122091E+02  0.10000000000E+00 0.  1.
</event>
<event>
 5    1  0.2022058E-009  0.3882980E+03  0.7957747E-01  0.3415804E+00
         13   -1    0    0    0    0  0.00000000000E+00  0.00000000000E+00  0.14999999963E+04  0.15000000000E+04  0.10566000000E+00 0.  1.
        994   -1    0    0    0    0 -0.00000000000E+00 -0.00000000000E+00  0.11368683772E-12  0.17120000000E+03  0.17120000000E+03 0.  0.
         13    1    1    2    0    0 -0.19446590407E+03  0.26276046445E+03  0.44434926428E+03  0.55163967348E+03  0.10566000000E+00 0.  1.
        994    1    1    2    0    0  0.19549686500E+03 -0.26421361485E+03  0.10534089555E+04  0.11166950013E+04  0.17120000000E+03 0.  0.
        998    1    1    2    0    0 -0.10309609385E+01  0.14531503988E+01  0.22417765288E+01  0.28653252072E+01  0.10000000000E+00 0.  0.
</event>
<event>
 5    1  0.2022058E-009  0.3882828E+03  0.7957747E-01  0.3415868E+00
         13   -1    0    0    0    0  0.00000000000E+00  0.00000000000E+00  0.14999999963E+04  0.15000000000E+04  0.10566000000E+00 0. -1.
        994   -1    0    0    0    0 -0.00000000000E+00 -0.00000000000E+00  0.11368683772E-12  0.17120000000E+03  0.17120000000E+03 0.  0.
         13    1    1    2    0    0  0.11822121656E+03  0.22811029627E+03  0.12202013212E+04  0.12469570317E+04  0.10566000000E+00 0. -1.
        994    1    1    2    0    0 -0.11991037362E+03 -0.23053634007E+03  0.26373915419E+03  0.40791332811E+03  0.17120000000E+03 0.  0.
        998    1    1    2    0    0  0.16891570629E+01  0.24260437987E+01  0.16059520859E+02  0.16329640238E+02  0.10000000000E+00 0. -1.
</event>
<event>
 5    1  0.2022058E-009  0.3882418E+03  0.7957747E-01  0.3416039E+00
         13   -1    0    0    0    0  0.00000000000E+00  0.00000000000E+00  0.14999999963E+04  0.15000000000E+04  0.10566000000E+00 0. -1.
        994   -1    0    0    0    0 -0.00000000000E+00 -0.00000000000E+00  0.11368683772E-12  0.17120000000E+03  0.17120000000E+03 0.  0.
         13    1    1    2    0    0  0.11159711425E+03  0.23422764938E+03  0.11571122230E+04  0.11858436725E+04  0.10566000000E+00 0. -1.
        994    1    1    2    0    0 -0.11821231518E+03 -0.24361261976E+03  0.29292770441E+03  0.43409369954E+03  0.17120000000E+03 0.  0.
        998    1    1    2    0    0  0.66152009271E+01  0.93849703783E+01  0.49960068827E+02  0.51262628000E+02  0.10000000000E+00 0.  1.
</event>
<event>
 5    1  0.2022058E-009  0.3867033E+03  0.7957747E-01  0.3422480E+00
         13   -1    0    0    0    0  0.00000000000E+00  0.00000000000E+00  0.14999999963E+04  0.15000000000E+04  0.10566000000E+00 0.  1.
        994   -1    0    0    0    0 -0.00000000000E+00 -0.00000000000E+00  0.11368683772E-12  0.17120000000E+03  0.17120000000E+03 0.  0.
         13    1    1    2    0    0 -0.88694344244E+02 -0.18306205428E+03  0.10010367329E+04  0.10214954499E+04  0.10566000000E+00 0.  1.
        994    1    1    2    0    0  0.94459176926E+02  0.21775180985E+03  0.21393072898E+03  0.36251094273E+03  0.17120000000E+03 0.  0.
        998    1    1    2    0    0 -0.57648326818E+01 -0.34689755574E+02  0.28503253441E+03  0.28719360736E+03  0.10000000000E+00 0. -1.
</event>
<event>
 5    1  0.2022058E-009  0.3882968E+03  0.7957747E-01  0.3415809E+00
         13   -1    0    0    0    0  0.00000000000E+00  0.00000000000E+00  0.14999999963E+04  0.15000000000E+04  0.10566000000E+00 0. -1.
        994   -1    0    0    0    0 -0.00000000000E+00 -0.00000000000E+00  0.11368683772E-12  0.17120000000E+03  0.17120000000E+03 0.  0.
         13    1    1    2    0    0  0.13777668239E+03 -0.18574955081E+03  0.11383442663E+04  0.11615993241E+04  0.10566000000E+00 0. -1.
        994    1    1    2    0    0 -0.15174657639E+03  0.20345511350E+03  0.24876750917E+03  0.39448158420E+03  0.17120000000E+03 0.  0.
        998    1    1    2    0    0  0.13969894000E+02 -0.17705562697E+02  0.11288822077E+03  0.11511909171E+03  0.10000000000E+00 0. -1.
</event>
<event>
 5    1  0.2022058E-009  0.3882428E+03  0.7957747E-01  0.3416034E+00
         13   -1    0    0    0    0  0.00000000000E+00  0.00000000000E+00  0.14999999963E+04  0.15000000000E+04  0.10566000000E+00 0. -1.
        994   -1    0    0    0    0 -0.00000000000E+00 -0.00000000000E+00  0.11368683772E-12  0.17120000000E+03  0.17120000000E+03 0.  0.
         13    1    1    2    0    0 -0.26361074413E+03 -0.88965631644E+02  0.11833050774E+04  0.12155724681E+04  0.10566000000E+00 0. -1.
        994    1    1    2    0    0  0.26394895619E+03  0.89254191923E+02  0.31575683671E+03  0.45458462598E+03  0.17120000000E+03 0.  0.
        998    1    1    2    0    0 -0.33821205978E+00 -0.28856027931E+00  0.93808221877E+00  0.10429058833E+01  0.10000000000E+00 0.  1.
</event>
<event>
 5    1  0.2022058E-009  0.3860768E+03  0.7957747E-01  0.3425118E+00
         13   -1    0    0    0    0  0.00000000000E+00  0.00000000000E+00  0.14999999963E+04  0.15000000000E+04  0.10566000000E+00 0.  1.
        994   -1    0    0    0    0 -0.00000000000E+00 -0.00000000000E+00  0.11368683772E-12  0.17120000000E+03  0.17120000000E+03 0.  0.
         13    1    1    2    0    0 -0.72037630429E+01  0.71180328703E+01  0.38115681015E+02  0.39438266915E+02  0.10566000000E+00 0.  1.
        994    1    1    2    0    0  0.62049319776E+02  0.35982539012E+01  0.13860339850E+02  0.18265983285E+03  0.17120000000E+03 0.  0.
        998    1    1    2    0    0 -0.54845556733E+02 -0.10716286772E+02  0.14480239754E+04  0.14491019002E+04  0.10000000000E+00 0.  1.
</event>
<event>
 5    1  0.2022058E-009  0.3879002E+03  0.7957747E-01  0.3417464E+00
         13   -1    0    0    0    0  0.00000000000E+00  0.00000000000E+00  0.14999999963E+04  0.15000000000E+04  0.10566000000E+00 0. -1.
        994   -1    0    0    0    0 -0.00000000000E+00 -0.00000000000E+00  0.11368683772E-12  0.17120000000E+03  0.17120000000E+03 0.  0.
         13    1    1    2    0    0 -0.22298346520E+03  0.90177093897E+02  0.12127851942E+04  0.12364066776E+04  0.10566000000E+00 0. -1.
        994    1    1    2    0    0  0.23156054245E+03 -0.89059520341E+02  0.23593211317E+03  0.38278621319E+03  0.17120000000E+03 0.  0.
        998    1    1    2    0    0 -0.85770772519E+01 -0.11175735562E+01  0.51282688879E+02  0.52007109163E+02  0.10000000000E+00 0.  1.
</event>
<event>
 5    1  0.2022058E-009  0.3882785E+03  0.7957747E-01  0.3415885E+00
         13   -1    0    0    0    0  0.00000000000E+00  0.00000000000E+00  0.14999999963E+04  0.15000000000E+04  0.10566000000E+00 0. -1.
        994   -1    0    0    0    0 -0.00000000000E+00 -0.00000000000E+00  0.11368683772E-12  0.17120000000E+03  0.17120000000E+03 0.  0.
         13    1    1    2    0    0 -0.10467016505E+03  0.27982509741E+03  0.10446674089E+04  0.10865486344E+04  0.10566000000E+00 0. -1.
        994    1    1    2    0    0  0.10772389621E+03 -0.28931667738E+03  0.42372267217E+03  0.55150604760E+03  0.17120000000E+03 0.  0.
        998    1    1    2    0    0 -0.30537311559E+01  0.94915799676E+01  0.31609915217E+02  0.33145317984E+02  0.10000000000E+00 0.  1.
</event>
<event>
 5    1  0.2022058E-009  0.3883006E+03  0.7957747E-01  0.3415793E+00
         13   -1    0    0    0    0  0.00000000000E+00  0.00000000000E+00  0.14999999963E+04  0.15000000000E+04  0.10566000000E+00 0. -1.
        994   -1    0    0    0    0 -0.00000000000E+00 -0.00000000000E+00  0.11368683772E-12  0.17120000000E+03  0.17120000000E+03 0.  0.
         13    1    1    2    0    0  0.55262300790E+02  0.27873873157E+03  0.11093124278E+04  0.11451302441E+04  0.10566000000E+00 0. -1.
        994    1    1    2    0    0 -0.56875430671E+02 -0.28656461516E+03  0.35946450029E+03  0.49384031857E+03  0.17120000000E+03 0.  0.
        998    1    1    2    0    0  0.16131298818E+01  0.78258835901E+01  0.31223068225E+02  0.32229437342E+02  0.10000000000E+00 0.  0.
</event>
<event>
 5    1  0.2022058E-009  0.3883008E+03  0.7957747E-01  0.3415792E+00
         13   -1    0    0    0    0  0.00000000000E+00  0.00000000000E+00  0.14999999963E+04  0.15000000000E+04  0.10566000000E+00 0.  1.
        994   -1    0    0    0    0 -0.00000000000E+00 -0.00000000000E+00  0.11368683772E-12  0.17120000000E+03  0.17120000000E+03 0.  0.
         13    1    1    2    0    0 -0.82748840117E+02  0.23353345548E+03  0.10269972334E+04  0.10564603986E+04  0.10566000000E+00 0.  1.
        994    1    1    2    0    0  0.94460044857E+02 -0.26653492649E+03  0.32841407374E+03  0.46597082628E+03  0.17120000000E+03 0.  0.
        998    1    1    2    0    0 -0.11711204740E+02  0.33001471010E+02  0.14458868919E+03  0.14876877511E+03  0.10000000000E+00 0.  1.
</event>
<event>
 5    1  0.2022058E-009  0.3883007E+03  0.7957747E-01  0.3415793E+00
         13   -1    0    0    0    0  0.00000000000E+00  0.00000000000E+00  0.14999999963E+04  0.15000000000E+04  0.10566000000E+00 0. -1.
        994   -1    0    0    0    0 -0.00000000000E+00 -0.00000000000E+00  0.11368683772E-12  0.17120000000E+03  0.17120000000E+03 0.  0.
         13    1    1    2    0    0  0.97052538726E+02  0.20417810603E+03  0.12036790692E+04  0.12247249516E+04  0.10566000000E+00 0. -1.
        994    1    1    2    0    0 -0.10341966514E+03 -0.21731669920E+03  0.21873608221E+03  0.36752835068E+03  0.17120000000E+03 0.  0.
        998    1    1    2    0    0  0.63671264176E+01  0.13138593172E+02  0.77584844870E+02  0.78946697733E+02  0.10000000000E+00 0. -1.
</event>
<event>
 5    1  0.2022058E-009  0.3854058E+03  0.7957747E-01  0.3427953E+00
         13   -1    0    0    0    0  0.00000000000E+00  0.00000000000E+00  0.14999999963E+04  0.15000000000E+04  0.10566000000E+00 0.  1.
        994   -1    0    0    0    0 -0.00000000000E+00 -0.00000000000E+00  0.11368683772E-12  0.17120000000E+03  0.17120000000E+03 0.  0.
         13    1    1    2    0    0 -0.16319503337E+02 -0.24758793534E+02  0.17284672744E+03  0.17537196582E+03  0.10566000000E+00 0.  1.
        994    1    1    2    0    0  0.94191404171E+02  0.35959687818E+02  0.35557950774E+02  0.20183886551E+03  0.17120000000E+03 0.  0.
        998    1    1    2    0    0 -0.77871900834E+02 -0.11200894284E+02  0.12915953181E+04  0.12939891687E+04  0.10000000000E+00 0.  1.
</event>
<event>
 5    1  0.2022058E-009  0.3863443E+03  0.7957747E-01  0.3423991E+00
         13   -1    0    0    0    0  0.00000000000E+00  0.00000000000E+00  0.14999999963E+04  0.15000000000E+04  0.10566000000E+00 0.  1.
        994   -1    0    0    0    0 -0.00000000000E+00 -0.00000000000E+00  0.11368683772E-12  0.17120000000E+03  0.17120000000E+03 0.  0.
         13    1    1    2    0    0  0.61740781628E+01 -0.79787407937E+01  0.37355588963E+02  0.38694065909E+02  0.10566000000E+00 0.  1.
        994    1    1    2    0    0 -0.12575469532E+03 -0.42169839639E+01  0.54638098869E+02  0.21937818533E+03  0.17120000000E+03 0.  0.
        998    1    1    2    0    0  0.11958061716E+03  0.12195724758E+02  0.14080063084E+04  0.14131277488E+04  0.10000000000E+00 0.  1.
</event>
<event>
 5    1  0.2022058E-009  0.3882933E+03  0.7957747E-01  0.3415824E+00
         13   -1    0    0    0    0  0.00000000000E+00  0.00000000000E+00  0.14999999963E+04  0.15000000000E+04  0.10566000000E+00 0.  1.
        994   -1    0    0    0    0 -0.00000000000E+00 -0.00000000000E+00  0.11368683772E-12  0.17120000000E+03  0.17120000000E+03 0.  0.
         13    1    1    2    0    0 -0.21214424833E+03  0.28522533025E+02  0.12227052275E+04  0.12413004477E+04  0.10566000000E+00 0.  1.
        994    1    1    2    0    0  0.22661989572E+03 -0.31333782477E+02  0.19415467570E+03  0.34546180854E+03  0.17120000000E+03 0.  0.
        998    1    1    2    0    0 -0.14475647398E+02  0.28112494521E+01  0.83140093125E+02  0.84437743788E+02  0.10000000000E+00 0.  1.
</event>
<event>
 5    1  0.2022058E-009  0.3881464E+03  0.7957747E-01  0.3416437E+00
         13   -1    0    0    0    0  0.00000000000E+00  0.00000000000E+00  0.14999999963E+04  0.15000000000E+04  0.10566000000E+00 0.  1.
        994   -1    0    0    0    0 -0.00000000000E+00 -0.00000000000E+00  0.11368683772E-12  0.17120000000E+03  0.17120000000E+03 0.  0.
         13    1    1    2    0    0 -0.13742206185E+03  0.23442766376E+03  0.11715963004E+04  0.12026965764E+04  0.10566000000E+00 0.  1.
        994    1    1    2    0    0  0.13862782328E+03 -0.23752717423E+03  0.30524723454E+03  0.44510913952E+03  0.17120000000E+03 0.  0.
        998    1    1    2    0    0 -0.12057614383E+01  0.30995104728E+01  0.23156461371E+02  0.23394284111E+02  0.10000000000E+00 0. -1.
</event>
<event>
 5    1  0.2022058E-009  0.3882967E+03  0.7957747E-01  0.3415810E+00
         13   -1    0    0    0    0  0.00000000000E+00  0.00000000000E+00  0.14999999963E+04  0.15000000000E+04  0.10566000000E+00 0. -1.
        994   -1    0    0    0    0 -0.00000000000E+00 -0.00000000000E+00  0.11368683772E-12  0.17120000000E+03  0.17120000000E+03 0.  0.
         13    1    1    2    0    0  0.74954334833E+02  0.21055494805E+02  0.45733582896E+03  0.46391546405E+03  0.10566000000E+00 0. -1.
        994    1    1    2    0    0 -0.21810171177E+03 -0.61209150403E+02  0.18975186508E+03  0.34151153285E+03  0.17120000000E+03 0.  0.
        998    1    1    2    0    0  0.14314737693E+03  0.40153655598E+02  0.85291230224E+03  0.86577300310E+03  0.10000000000E+00 0. -1.
</event>
<event>
 5    1  0.2022058E-009  0.3863679E+03  0.7957747E-01  0.3423891E+00
         13   -1    0    0    0    0  0.00000000000E+00  0.00000000000E+00  0.14999999963E+04  0.15000000000E+04  0.10566000000E+00 0. -1.
        994   -1    0    0    0    0 -0.00000000000E+00 -0.00000000000E+00  0.11368683772E-12  0.17120000000E+03  0.17120000000E+03 0.  0.
         13    1    1    2    0    0  0.15294840684E+03 -0.24951872845E+03  0.11197987385E+04  0.11574117836E+04  0.10566000000E+00 0. -1.
        994    1    1    2    0    0 -0.15632325265E+03  0.25116531939E+03  0.37549450461E+03  0.50776622571E+03  0.17120000000E+03 0.  0.
        998    1    1    2    0    0  0.33748458034E+01 -0.16465909374E+01  0.47067531673E+01  0.60219906418E+01  0.10000000000E+00 0.  1.
</event>
<event>
 5    1  0.2022058E-009  0.3883009E+03  0.7957747E-01  0.3415792E+00
         13   -1    0    0    0    0  0.00000000000E+00  0.00000000000E+00  0.14999999963E+04  0.15000000000E+04  0.10566000000E+00 0. -1.
        994   -1    0    0    0    0 -0.00000000000E+00 -0.00000000000E+00  0.11368683772E-12  0.17120000000E+03  0.17120000000E+03 0.  0.
         13    1    1    2    0    0 -0.13228719113E+03  0.93231382154E+01  0.73055030074E+03  0.74248944432E+03  0.10566000000E+00 0. -1.
        994    1    1    2    0    0  0.23429187626E+03 -0.16382418903E+02  0.20644635362E+03  0.35649769123E+03  0.17120000000E+03 0.  0.
        998    1    1    2    0    0 -0.10200468513E+03  0.70592806874E+01  0.56300334192E+03  0.57221286445E+03  0.10000000000E+00 0.  0.
</event>
<event>
 5    1  0.2022058E-009  0.3841184E+03  0.7957747E-01  0.3433420E+00
         13   -1    0    0    0    0  0.00000000000E+00  0.00000000000E+00  0.14999999963E+04  0.15000000000E+04  0.10566000000E+00 0. -1.
        994   -1    0    0    0    0 -0.00000000000E+00 -0.00000000000E+00  0.11368683772E-12  0.17120000000E+03  0.17120000000E+03 0.  0.
         13    1    1    2    0    0 -0.72527272491E+02  0.30748717347E+02  0.36292708086E+03  0.37137819815E+03  0.10566000000E+00 0. -1.
        994    1    1    2    0    0  0.15817894339E+03 -0.60597378351E+02  0.10326332360E+03  0.26204078766E+03  0.17120000000E+03 0.  0.
        998    1    1    2    0    0 -0.85651670900E+02  0.29848661004E+02  0.10338095918E+04  0.10377810142E+04  0.10000000000E+00 0. -1.
</event>
<event>
 5    1  0.2022058E-009  0.3808951E+03  0.7957747E-01  0.3447270E+00
         13   -1    0    0    0    0  0.00000000000E+00  0.00000000000E+00  0.14999999963E+04  0.15000000000E+04  0.10566000000E+00 0. -1.
        994   -1    0    0    0    0 -0.00000000000E+00 -0.00000000000E+00  0.11368683772E-12  0.17120000000E+03  0.17120000000E+03 0.  0.
         13    1    1    2    0    0  0.13026373485E+03  0.11070366652E+03  0.87329624068E+03  0.88987093308E+03  0.10566000000E+00 0. -1.
        994    1    1    2    0    0 -0.13008950167E+03 -0.19927474552E+03  0.22384633218E+03  0.36885000078E+03  0.17120000000E+03 0.  0.
        998    1    1    2    0    0 -0.17423318203E+00  0.88571079001E+02  0.40285742343E+03  0.41247906614E+03  0.10000000000E+00 0. -1.
</event>
<event>
 5    1  0.2022058E-009  0.3882986E+03  0.7957747E-01  0.3415802E+00
         13   -1    0    0    0    0  0.00000000000E+00  0.00000000000E+00  0.14999999963E+04  0.15000000000E+04  0.10566000000E+00 0.  1.
        994   -1    0    0    0    0 -0.00000000000E+00 -0.00000000000E+00  0.11368683772E-12  0.17120000000E+03  0.17120000000E+03 0.  0.
         13    1    1    2    0    0  0.16801719073E+03 -0.21063189839E+03  0.11976117943E+04  0.12275461677E+04  0.10566000000E+00 0.  1.
        994    1    1    2    0    0 -0.16911976603E+03  0.21216204293E+03  0.29433176507E+03  0.43537897934E+03  0.17120000000E+03 0.  0.
        998    1    1    2    0    0  0.11025753029E+01 -0.15301445404E+01  0.80564369457E+01  0.82748529215E+01  0.10000000000E+00 0.  0.
</event>
<event>
 5    1  0.2022058E-009  0.3797366E+03  0.7957747E-01  0.3452306E+00
         13   -1    0    0    0    0  0.00000000000E+00  0.00000000000E+00  0.14999999963E+04  0.15000000000E+04  0.10566000000E+00 0.  1.
        994   -1    0    0    0    0 -0.00000000000E+00 -0.00000000000E+00  0.11368683772E-12  0.17120000000E+03  0.17120000000E+03 0.  0.
         13    1    1    2    0    0  0.54773745166E+02 -0.21860092294E+02  0.20760885926E+03  0.21582278935E+03  0.10566000000E+00 0.  1.
        994    1    1    2    0    0 -0.14390955589E+03  0.58770289804E+00  0.76997976323E+02  0.23653421323E+03  0.17120000000E+03 0.  0.
        998    1    1    2    0    0  0.89135810720E+02  0.21272389396E+02  0.12153931607E+04  0.12188429974E+04  0.10000000000E+00 0.  1.
</event>
<event>
 5    1  0.2022058E-009  0.3863924E+03  0.7957747E-01  0.3423788E+00
         13   -1    0    0    0    0  0.00000000000E+00  0.00000000000E+00  0.14999999963E+04  0.15000000000E+04  0.10566000000E+00 0. -1.
        994   -1    0    0    0    0 -0.00000000000E+00 -0.00000000000E+00  0.11368683772E-12  0.17120000000E+03  0.17120000000E+03 0.  0.
         13    1    1    2    0    0 -0.26747606725E+02 -0.50945676632E+00  0.13361955111E+03  0.13627138223E+03  0.10566000000E+00 0. -1.
        994    1    1    2    0    0  0.12377058348E+03 -0.20597093495E+02  0.54294007665E+02  0.21909056772E+03  0.17120000000E+03 0.  0.
        998    1    1    2    0    0 -0.97022976755E+02  0.21106550261E+02  0.13120864375E+04  0.13158380500E+04  0.10000000000E+00 0. -1.
</event>
<event>
 5    1  0.2022058E-009  0.3876943E+03  0.7957747E-01  0.3418325E+00
         13   -1    0    0    0    0  0.00000000000E+00  0.00000000000E+00  0.14999999963E+04  0.15000000000E+04  0.10566000000E+00 0.  1.
        994   -1    0    0    0    0 -0.00000000000E+00 -0.00000000000E+00  0.11368683772E-12  0.17120000000E+03  0.17120000000E+03 0.  0.
         13    1    1    2    0    0  0.95422247663E+01 -0.19201556115E+03  0.11090495031E+04  0.11255895527E+04  0.10566000000E+00 0.  1.
        994    1    1    2    0    0 -0.44013723708E+01  0.21813723705E+03  0.17479151382E+03  0.32781815016E+03  0.17120000000E+03 0.  0.
        998    1    1    2    0    0 -0.51408523955E+01 -0.26121675904E+02  0.21615897936E+03  0.21779229709E+03  0.10000000000E+00 0. -1.
</event>
<event>
 5    1  0.2022058E-009  0.3880146E+03  0.7957747E-01  0.3416987E+00
         13   -1    0    0    0    0  0.00000000000E+00  0.00000000000E+00  0.14999999963E+04  0.15000000000E+04  0.10566000000E+00 0.  1.
        994   -1    0    0    0    0 -0.00000000000E+00 -0.00000000000E+00  0.11368683772E-12  0.17120000000E+03  0.17120000000E+03 0.  0.
         13    1    1    2    0    0  0.22175548888E+03  0.61685947882E+02  0.11175943800E+04  0.11410512093E+04  0.10566000000E+00 0.  1.
        994    1    1    2    0    0 -0.24186451489E+03 -0.69702793529E+02  0.24419550556E+03  0.39025351751E+03  0.17120000000E+03 0.  0.
        998    1    1    2    0    0  0.20109026005E+02  0.80168456469E+01  0.13821011075E+03  0.13989527317E+03  0.10000000000E+00 0.  1.
</event>
<event>
 5    1  0.2022058E-009  0.3879858E+03  0.7957747E-01  0.3417107E+00
         13   -1    0    0    0    0  0.00000000000E+00  0.00000000000E+00  0.14999999963E+04  0.15000000000E+04  0.10566000000E+00 0. -1.
        994   -1    0    0    0    0 -0.00000000000E+00 -0.00000000000E+00  0.11368683772E-12  0.17120000000E+03  0.17120000000E+03 0.  0.
         13    1    1    2    0    0  0.22901312639E+03  0.42180033384E+02  0.12409819962E+04  0.12626410786E+04  0.10566000000E+00 0. -1.
        994    1    1    2    0    0 -0.23770882605E+03 -0.39976447036E+02  0.22001414208E+03  0.36853665356E+03  0.17120000000E+03 0.  0.
        998    1    1    2    0    0  0.86956996605E+01 -0.22035863489E+01  0.39003857994E+02  0.40022267849E+02  0.10000000000E+00 0. -1.
</event>
<event>
 5    1  0.2022058E-009  0.3881520E+03  0.7957747E-01  0.3416413E+00
         13   -1    0    0    0    0  0.00000000000E+00  0.00000000000E+00  0.14999999963E+04  0.15000000000E+04  0.10566000000E+00 0.  1.
        994   -1    0    0    0    0 -0.00000000000E+00 -0.00000000000E+00  0.11368683772E-12  0.17120000000E+03  0.17120000000E+03 0.  0.
         13    1    1    2    0    0 -0.13978055035E+02  0.16691524948E+03  0.97245071825E+03  0.98677074192E+03  0.10566000000E+00 0.  1.
        994    1    1    2    0    0  0.10106735134E+02 -0.22540606854E+03  0.18820608865E+03  0.34006030882E+03  0.17120000000E+03 0.  0.
        998    1    1    2    0    0  0.38713199006E+01  0.58490819065E+02  0.33934318938E+03  0.34436894925E+03  0.10000000000E+00 0.  1.
</event>
<event>
 5    1  0.2022058E-009  0.3882348E+03  0.7957747E-01  0.3416068E+00
         13   -1    0    0    0    0  0.00000000000E+00  0.00000000000E+00  0.14999999963E+04  0.15000000000E+04  0.10566000000E+00 0. -1.
        994   -1    0    0    0    0 -0.00000000000E+00 -0.00000000000E+00  0.11368683772E-12  0.17120000000E+03  0.17120000000E+03 0.  0.
         13    1    1    2    0    0 -0.22183651063E+03  0.89029871687E+02  0.12780682727E+04  0.13002293168E+04  0.10566000000E+00 0. -1.
        994    1    1    2    0    0  0.22248046416E+03 -0.89917751076E+02  0.21730669450E+03  0.36621632728E+03  0.17120000000E+03 0.  0.
        998    1    1    2    0    0 -0.64395352703E+00  0.88787938874E+00  0.46250290701E+01  0.47543558820E+01  0.10000000000E+00 0. -1.
</event>
<event>
 5    1  0.2022058E-009  0.3883009E+03  0.7957747E-01  0.3415792E+00
         13   -1    0    0    0    0  0.00000000000E+00  0.00000000000E+00  0.14999999963E+04  0.15000000000E+04  0.10566000000E+00 0.  1.
        994   -1    0    0    0    0 -0.00000000000E+00 -0.00000000000E+00  0.11368683772E-12  0.17120000000E+03  0.17120000000E+03 0.  0.
         13    1    1    2    0    0  0.10999204319E+03 -0.91915632639E+02  0.52281379969E+03  0.54210793519E+03  0.10566000000E+00 0.  1.
        994    1    1    2    0    0 -0.23207547280E+03  0.19369334166E+03  0.39703841123E+03  0.52756523357E+03  0.17120000000E+03 0.  0.
        998    1    1    2    0    0  0.12208342961E+03 -0.10177770903E+03  0.58014778536E+03  0.60152683124E+03  0.10000000000E+00 0.  1.
</event>
<event>
 5    1  0.2022058E-009  0.3883009E+03  0.7957747E-01  0.3415792E+00
         13   -1    0    0    0    0  0.00000000000E+00  0.00000000000E+00  0.14999999963E+04  0.15000000000E+04  0.10566000000E+00 0.  1.
        994   -1    0    0    0    0 -0.00000000000E+00 -0.00000000000E+00  0.11368683772E-12  0.17120000000E+03  0.17120000000E+03 0.  0.
         13    1    1    2    0    0  0.99841848695E+01 -0.17252882619E+03  0.85429167090E+03  0.87159632282E+03  0.10566000000E+00 0.  1.
        994    1    1    2    0    0 -0.14522732262E+02  0.25307800177E+03  0.24799394706E+03  0.39378905839E+03  0.17120000000E+03 0.  0.
        998    1    1    2    0    0  0.45385473930E+01 -0.80549175585E+02  0.39771437832E+03  0.40581461879E+03  0.10000000000E+00 0.  1.
</event>
<event>
 5    1  0.2022058E-009  0.3867834E+03  0.7957747E-01  0.3422144E+00
         13   -1    0    0    0    0  0.00000000000E+00  0.00000000000E+00  0.14999999963E+04  0.15000000000E+04  0.10566000000E+00 0. -1.
        994   -1    0    0    0    0 -0.00000000000E+00 -0.00000000000E+00  0.11368683772E-12  0.17120000000E+03  0.17120000000E+03 0.  0.
         13    1    1    2    0    0  0.17812406783E+03  0.11699132736E+03  0.83433787007E+03  0.86112417619E+03  0.10566000000E+00 0. -1.
        994    1    1    2    0    0 -0.22692389176E+03 -0.15317459672E+03  0.30447271745E+03  0.44381300725E+03  0.17120000000E+03 0.  0.
        998    1    1    2    0    0  0.48799823935E+02  0.36183269358E+02  0.36118940876E+03  0.36626281656E+03  0.10000000000E+00 0. -1.
</event>
<event>
 5    1  0.2022058E-009  0.3883000E+03  0.7957747E-01  0.3415796E+00
         13   -1    0    0    0    0  0.00000000000E+00  0.00000000000E+00  0.14999999963E+04  0.15000000000E+04  0.10566000000E+00 0. -1.
        994   -1    0    0    0    0 -0.00000000000E+00 -0.00000000000E+00  0.11368683772E-12  0.17120000000E+03  0.17120000000E+03 0.  0.
         13    1    1    2    0    0 -0.30103522069E+03 -0.16492740750E+03  0.73534791560E+03  0.81151698810E+03  0.10566000000E+00 0. -1.
        994    1    1    2    0    0  0.30532548088E+03  0.16730348099E+03  0.75438866669E+03  0.84830761193E+03  0.17120000000E+03 0.  0.
        998    1    1    2    0    0 -0.42902601896E+01 -0.23760734983E+01  0.10263413992E+02  0.11375399972E+02  0.10000000000E+00 0.  0.
</event>
<event>
 5    1  0.2022058E-009  0.3882974E+03  0.7957747E-01  0.3415807E+00
         13   -1    0    0    0    0  0.00000000000E+00  0.00000000000E+00  0.14999999963E+04  0.15000000000E+04  0.10566000000E+00 0.  1.
        994   -1    0    0    0    0 -0.00000000000E+00 -0.00000000000E+00  0.11368683772E-12  0.17120000000E+03  0.17120000000E+03 0.  0.
         13    1    1    2    0    0  0.16862429433E+03  0.14027681853E+03  0.11953398099E+04  0.12152979103E+04  0.10566000000E+00 0.  1.
        994    1    1    2    0    0 -0.18162521591E+03 -0.15101534310E+03  0.20924260137E+03  0.35900593189E+03  0.17120000000E+03 0.  0.
        998    1    1    2    0    0  0.13000921577E+02  0.10738524565E+02  0.95417584981E+02  0.96896157794E+02  0.10000000000E+00 0. -1.
</event>
<event>
 5    1  0.2022058E-009  0.3843456E+03  0.7957747E-01  0.3432452E+00
         13   -1    0    0    0    0  0.00000000000E+00  0.00000000000E+00  0.14999999963E+04  0.15000000000E+04  0.10566000000E+00 0.  1.
        994   -1    0    0    0    0 -0.00000000000E+00 -0.00000000000E+00  0.11368683772E-12  0.17120000000E+03  0.17120000000E+03 0.  0.
         13    1    1    2    0    0 -0.40152797751E+02  0.10795317478E+03  0.68674624281E+03  0.69633795552E+03  0.10566000000E+00 0.  1.
        994    1    1    2    0    0  0.10165585302E+03 -0.14358171093E+03  0.11166409893E+03  0.26968116574E+03  0.17120000000E+03 0.  0.
        998    1    1    2    0    0 -0.61503055267E+02  0.35628536150E+02  0.70158965453E+03  0.70518087874E+03  0.10000000000E+00 0.  1.
</event>
<event>
 5    1  0.2022058E-009  0.3882154E+03  0.7957747E-01  0.3416149E+00
         13   -1    0    0    0    0  0.00000000000E+00  0.00000000000E+00  0.14999999963E+04  0.15000000000E+04  0.10566000000E+00 0.  1.
        994   -1    0    0    0    0 -0.00000000000E+00 -0.00000000000E+00  0.11368683772E-12  0.17120000000E+03  0.17120000000E+03 0.  0.
         13    1    1    2    0    0 -0.24597140188E+03 -0.97514386703E+01  0.12621883327E+04  0.12859690586E+04  0.10566000000E+00 0.  1.
        994    1    1    2    0    0  0.24658382775E+03  0.10377067672E+02  0.23247699636E+03  0.37982398750E+03  0.17120000000E+03 0.  0.
        998    1    1    2    0    0 -0.61242586708E+00 -0.62562900201E+00  0.53346671747E+01  0.54069539443E+01  0.10000000000E+00 0.  1.
</event>
<event>
 5    1  0.2022058E-009  0.3882998E+03  0.7957747E-01  0.3415797E+00
         13   -1    0    0    0    0  0.00000000000E+00  0.00000000000E+00  0.14999999963E+04  0.15000000000E+04  0.10566000000E+00 0.  1.
        994   -1    0    0    0    0 -0.00000000000E+00 -0.00000000000E+00  0.11368683772E-12  0.17120000000E+03  0.17120000000E+03 0.  0.
         13    1    1    2    0    0  0.19306328246E+02  0.20270002808E+03  0.99497799615E+03  0.10155989660E+04  0.10566000000E+00 0.  1.
        994    1    1    2    0    0 -0.24727710876E+02 -0.25441092250E+03  0.25312643706E+03  0.39839529404E+03  0.17120000000E+03 0.  0.
        998    1    1    2    0    0  0.54213826296E+01  0.51710894420E+02  0.25189556307E+03  0.25720573999E+03  0.10000000000E+00 0.  1.
</event>
<event>
 5    1  0.2022058E-009  0.3883002E+03  0.7957747E-01  0.3415795E+00
         13   -1    0    0    0    0  0.00000000000E+00  0.00000000000E+00  0.14999999963E+04  0.15000000000E+04  0.10566000000E+00 0. -1.
        994   -1    0    0    0    0 -0.00000000000E+00 -0.00000000000E+00  0.11368683772E-12  0.17120000000E+03  0.17120000000E+03 0.  0.
         13    1    1    2    0    0  0.56244361707E+02 -0.24390820916E+03  0.11923977820E+04  0.12183870996E+04  0.10566000000E+00 0. -1.
        994    1    1    2    0    0 -0.58507268885E+02  0.25292487129E+03  0.26306735231E+03  0.40731801198E+03  0.17120000000E+03 0.  0.
        998    1    1    2    0    0  0.22629071771E+01 -0.90166621320E+01  0.44534861956E+02  0.45494888442E+02  0.10000000000E+00 0. -1.
</event>
<event>
 5    1  0.2022058E-009  0.3880032E+03  0.7957747E-01  0.3417034E+00
         13   -1    0    0    0    0  0.00000000000E+00  0.00000000000E+00  0.14999999963E+04  0.15000000000E+04  0.10566000000E+00 0.  1.
        994   -1    0    0    0    0 -0.00000000000E+00 -0.00000000000E+00  0.11368683772E-12  0.17120000000E+03  0.17120000000E+03 0.  0.
         13    1    1    2    0    0 -0.10177946602E+03  0.24112629913E+03  0.92176704556E+03  0.95820428369E+03  0.10566000000E+00 0.  1.
        994    1    1    2    0    0  0.11650660471E+03 -0.27956122059E+03  0.40026404403E+03  0.53032915245E+03  0.17120000000E+03 0.  0.
        998    1    1    2    0    0 -0.14727138698E+02  0.38434921461E+02  0.17796890670E+03  0.18266656386E+03  0.10000000000E+00 0. -1.
</event>
<event>
 5    1  0.2022058E-009  0.3882997E+03  0.7957747E-01  0.3415797E+00
         13   -1    0    0    0    0  0.00000000000E+00  0.00000000000E+00  0.14999999963E+04  0.15000000000E+04  0.10566000000E+00 0. -1.
        994   -1    0    0    0    0 -0.00000000000E+00 -0.00000000000E+00  0.11368683772E-12  0.17120000000E+03  0.17120000000E+03 0.  0.
         13    1    1    2    0    0 -0.23366225980E+03 -0.15829593040E+03  0.90326640329E+03  0.94633284827E+03  0.10566000000E+00 0. -1.
        994    1    1    2    0    0  0.26455929805E+03  0.17979900361E+03  0.47663430905E+03  0.59900668481E+03  0.17120000000E+03 0.  0.
        998    1    1    2    0    0 -0.30897038249E+02 -0.21503073209E+02  0.12009928394E+03  0.12586046692E+03  0.10000000000E+00 0.  1.
</event>
<event>
 5    1  0.2022058E-009  0.3878554E+03  0.7957747E-01  0.3417652E+00
         13   -1    0    0    0    0  0.00000000000E+00  0.00000000000E+00  0.14999999963E+04  0.15000000000E+04  0.10566000000E+00 0. -1.
        994   -1    0    0    0    0 -0.00000000000E+00 -0.00000000000E+00  0.11368683772E-12  0.17120000000E+03  0.17120000000E+03 0.  0.
         13    1    1    2    0    0 -0.17470176035E+03  0.11806338151E+03  0.12591076831E+04  0.12766408406E+04  0.10566000000E+00 0. -1.
        994    1    1    2    0    0  0.17822157738E+03 -0.12584318976E+03  0.17458085297E+03  0.32770009655E+03  0.17120000000E+03 0.  0.
        998    1    1    2    0    0 -0.35198170347E+01  0.77798082525E+01  0.66311460222E+02  0.66859062850E+02  0.10000000000E+00 0. -1.
</event>
<event>
 5    1  0.2022058E-009  0.3882970E+03  0.7957747E-01  0.3415809E+00
         13   -1    0    0    0    0  0.00000000000E+00  0.00000000000E+00  0.14999999963E+04  0.15000000000E+04  0.10566000000E+00 0. -1.
        994   -1    0    0    0    0 -0.00000000000E+00 -0.00000000000E+00  0.11368683772E-12  0.17120000000E+03  0.17120000000E+03 0.  0.
         13    1    1    2    0    0  0.22266044288E+03  0.34148508711E+02  0.13000235765E+04  0.13193957344E+04  0.10566000000E+00 0. -1.
        994    1    1    2    0    0 -0.22422491234E+03 -0.34567337869E+02  0.19042322728E+03  0.34211424648E+03  0.17120000000E+03 0.  0.
        998    1    1    2    0    0  0.15644694576E+01  0.41882915750E+00  0.95531925176E+01  0.96900190828E+01  0.10000000000E+00 0.  1.
</event>
<event>
 5    1  0.2022058E-009  0.3882700E+03  0.7957747E-01  0.3415921E+00
         13   -1    0    0    0    0  0.00000000000E+00  0.00000000000E+00  0.14999999963E+04  0.15000000000E+04  0.10566000000E+00 0.  1.
        994   -1    0    0    0    0 -0.00000000000E+00 -0.00000000000E+00  0.11368683772E-12  0.17120000000E+03  0.17120000000E+03 0.  0.
         13    1    1    2    0    0 -0.19643283679E+03  0.92595889498E+01  0.11431035334E+04  0.11598953826E+04  0.10566000000E+00 0.  1.
        994    1    1    2    0    0  0.22669030078E+03 -0.86106019135E+01  0.19041916407E+03  0.34209871818E+03  0.17120000000E+03 0.  0.
        998    1    1    2    0    0 -0.30257463989E+02 -0.64898703635E+00  0.16647729877E+03  0.16920589918E+03  0.10000000000E+00 0.  1.
</event>
<event>
 5    1  0.2022058E-009  0.3789232E+03  0.7957747E-01  0.3455861E+00
         13   -1    0    0    0    0  0.00000000000E+00  0.00000000000E+00  0.14999999963E+04  0.15000000000E+04  0.10566000000E+00 0. -1.
        994   -1    0    0    0    0 -0.00000000000E+00 -0.00000000000E+00  0.11368683772E-12  0.17120000000E+03  0.17120000000E+03 0.  0.
         13    1    1    2    0    0 -0.37608708668E+02 -0.75986614162E+02  0.37122522918E+03  0.38078414153E+03  0.10566000000E+00 0. -1.
        994    1    1    2    0    0  0.10753285023E+03  0.95231818741E+02  0.77337487537E+02  0.23648031664E+03  0.17120000000E+03 0.  0.
        998    1    1    2    0    0 -0.69924141564E+02 -0.19245204579E+02  0.10514372796E+04  0.10539355418E+04  0.10000000000E+00 0. -1.
</event>
<event>
 5    1  0.2022058E-009  0.3881779E+03  0.7957747E-01  0.3416305E+00
         13   -1    0    0    0    0  0.00000000000E+00  0.00000000000E+00  0.14999999963E+04  0.15000000000E+04  0.10566000000E+00 0.  1.
        994   -1    0    0    0    0 -0.00000000000E+00 -0.00000000000E+00  0.11368683772E-12  0.17120000000E+03  0.17120000000E+03 0.  0.
         13    1    1    2    0    0  0.23022004155E+03  0.37784213520E+02  0.12588228575E+04  0.12802593144E+04  0.10566000000E+00 0.  1.
        994    1    1    2    0    0 -0.23507763902E+03 -0.40555110473E+02  0.21435938945E+03  0.36354587221E+03  0.17120000000E+03 0.  0.
        998    1    1    2    0    0  0.48575974718E+01  0.27708969523E+01  0.26817749352E+02  0.27394813440E+02  0.10000000000E+00 0.  1.
</event>
<event>
 5    1  0.2022058E-009  0.3821999E+03  0.7957747E-01  0.3441635E+00
         13   -1    0    0    0    0  0.00000000000E+00  0.00000000000E+00  0.14999999963E+04  0.15000000000E+04  0.10566000000E+00 0.  1.
        994   -1    0    0    0    0 -0.00000000000E+00 -0.00000000000E+00  0.11368683772E-12  0.17120000000E+03  0.17120000000E+03 0.  0.
         13    1    1    2    0    0  0.63001517910E+01  0.15624181662E+03  0.59177497420E+03  0.61208563815E+03  0.10566000000E+00 0.  1.
        994    1    1    2    0    0  0.46637707190E+02 -0.24786891211E+03  0.25515577542E+03  0.39752733623E+03  0.17120000000E+03 0.  0.
        998    1    1    2    0    0 -0.52937858981E+02  0.91627095488E+02  0.65306924666E+03  0.66158702562E+03  0.10000000000E+00 0.  1.
</event>
<event>
 5    1  0.2022058E-009  0.3880728E+03  0.7957747E-01  0.3416744E+00
         13   -1    0    0    0    0  0.00000000000E+00  0.00000000000E+00  0.14999999963E+04  0.15000000000E+04  0.10566000000E+00 0. -1.
        994   -1    0    0    0    0 -0.00000000000E+00 -0.00000000000E+00  0.11368683772E-12  0.17120000000E+03  0.17120000000E+03 0.  0.
         13    1    1    2    0    0 -0.11404645706E+03 -0.18418819690E+03  0.12263802375E+04  0.12453675700E+04  0.10566000000E+00 0. -1.
        994    1    1    2    0    0  0.12254395162E+03  0.19177166306E+03  0.19209551573E+03  0.34351640135E+03  0.17120000000E+03 0.  0.
        998    1    1    2    0    0 -0.84974945673E+01 -0.75834661622E+01  0.81524243039E+02  0.82316028670E+02  0.10000000000E+00 0.  1.
</event>
<event>
 5    1  0.2022058E-009  0.3883007E+03  0.7957747E-01  0.3415793E+00
         13   -1    0    0    0    0  0.00000000000E+00  0.00000000000E+00  0.14999999963E+04  0.15000000000E+04  0.10566000000E+00 0.  1.
        994   -1    0    0    0    0 -0.00000000000E+00 -0.00000000000E+00  0.11368683772E-12  0.17120000000E+03  0.17120000000E+03 0.  0.
         13    1    1    2    0    0 -0.32416991780E+02 -0.89868489349E+02  0.53602923716E+03  0.54447640995E+03  0.10566000000E+00 0.  1.
        994    1    1    2    0    0  0.79205161121E+02  0.21746981654E+03  0.19946620637E+03  0.35023247442E+03  0.17120000000E+03 0.  0.
        998    1    1    2    0    0 -0.46788169341E+02 -0.12760132719E+03  0.76450455275E+03  0.77649111564E+03  0.10000000000E+00 0.  1.
</event>
<event>
 5    1  0.2022058E-009  0.3807550E+03  0.7957747E-01  0.3447878E+00
         13   -1    0    0    0    0  0.00000000000E+00  0.00000000000E+00  0.14999999963E+04  0.15000000000E+04  0.10566000000E+00 0.  1.
        994   -1    0    0    0    0 -0.00000000000E+00 -0.00000000000E+00  0.11368683772E-12  0.17120000000E+03  0.17120000000E+03 0.  0.
         13    1    1    2    0    0  0.15110251029E+03  0.10513789815E+03  0.95358224279E+03  0.97118744389E+03  0.10566000000E+00 0.  1.
        994    1    1    2    0    0 -0.23348454838E+03 -0.90948026019E+02  0.25356834406E+03  0.39546545093E+03  0.17120000000E+03 0.  0.
        998    1    1    2    0    0  0.82382038089E+02 -0.14189872134E+02  0.29284940943E+03  0.30454710518E+03  0.10000000000E+00 0.  1.
</event>
<event>
 5    1  0.2022058E-009  0.3882965E+03  0.7957747E-01  0.3415810E+00
         13   -1    0    0    0    0  0.00000000000E+00  0.00000000000E+00  0.14999999963E+04  0.15000000000E+04  0.10566000000E+00 0. -1.
        994   -1    0    0    0    0 -0.00000000000E+00 -0.00000000000E+00  0.11368683772E-12  0.17120000000E+03  0.17120000000E+03 0.  0.
         13    1    1    2    0    0  0.27590103224E+03 -0.59352125414E+02  0.11659284411E+04  0.11995970971E+04  0.10566000000E+00 0. -1.
        994    1    1    2    0    0 -0.27696126996E+03  0.59499881516E+02  0.33000877338E+03  0.46740026900E+03  0.17120000000E+03 0.  0.
        998    1    1    2    0    0  0.10602377247E+01 -0.14775610187E+00  0.40627818187E+01  0.42026339365E+01  0.10000000000E+00 0.  1.
</event>
<event>
 5    1  0.2022058E-009  0.3882661E+03  0.7957747E-01  0.3415937E+00
         13   -1    0    0    0    0  0.00000000000E+00  0.00000000000E+00  0.14999999963E+04  0.15000000000E+04  0.10566000000E+00 0. -1.
        994   -1    0    0    0    0 -0.00000000000E+00 -0.00000000000E+00  0.11368683772E-12  0.17120000000E+03  0.17120000000E+03 0.  0.
         13    1    1    2    0    0  0.26645873350E+02  0.25130435529E+03  0.12479555620E+04  0.12732858978E+04  0.10566000000E+00 0. -1.
        994    1    1    2    0    0 -0.27006152347E+02 -0.25187383860E+03  0.24762630194E+03  0.39344375488E+03  0.17120000000E+03 0.  0.
        998    1    1    2    0    0  0.36027899710E+00  0.56948331173E+00  0.44181322891E+01  0.44703473156E+01  0.10000000000E+00 0. -1.
</event>
<event>
 5    1  0.2022058E-009  0.3883008E+03  0.7957747E-01  0.3415793E+00
         13   -1    0    0    0    0  0.00000000000E+00  0.00000000000E+00  0.14999999963E+04  0.15000000000E+04  0.10566000000E+00 0.  1.
        994   -1    0    0    0    0 -0.00000000000E+00 -0.00000000000E+00  0.11368683772E-12  0.17120000000E+03  0.17120000000E+03 0.  0.
         13    1    1    2    0    0 -0.86395481711E+02  0.20435106107E+03  0.10416582096E+04  0.10650236487E+04  0.10566000000E+00 0.  1.
        994    1    1    2    0    0  0.10187628524E+03 -0.24140979421E+03  0.26926398497E+03  0.41288012769E+03  0.17120000000E+03 0.  0.
        998    1    1    2    0    0 -0.15480803532E+02  0.37058733136E+02  0.18907780167E+03  0.19329622362E+03  0.10000000000E+00 0. -1.
</event>
<event>
 5    1  0.2022058E-009  0.3882993E+03  0.7957747E-01  0.3415799E+00
         13   -1    0    0    0    0  0.00000000000E+00  0.00000000000E+00  0.14999999963E+04  0.15000000000E+04  0.10566000000E+00 0.  1.
        994   -1    0    0    0    0 -0.00000000000E+00 -0.00000000000E+00  0.11368683772E-12  0.17120000000E+03  0.17120000000E+03 0.  0.
         13    1    1    2    0    0  0.16587741190E+03 -0.19306995147E+03  0.12237538335E+04  0.12499459101E+04  0.10566000000E+00 0.  1.
        994    1    1    2    0    0 -0.16811649778E+03  0.19567018572E+03  0.25896817596E+03  0.40363837103E+03  0.17120000000E+03 0.  0.
        998    1    1    2    0    0  0.22390858861E+01 -0.26002342463E+01  0.17277986822E+02  0.17615718900E+02  0.10000000000E+00 0.  1.
</event>
<event>
 5    1  0.2022058E-009  0.3882776E+03  0.7957747E-01  0.3415890E+00
         13   -1    0    0    0    0  0.00000000000E+00  0.00000000000E+00  0.14999999963E+04  0.15000000000E+04  0.10566000000E+00 0.  1.
        994   -1    0    0    0    0 -0.00000000000E+00 -0.00000000000E+00  0.11368683772E-12  0.17120000000E+03  0.17120000000E+03 0.  0.
         13    1    1    2    0    0  0.54435419922E+02 -0.22247100950E+03  0.12984438721E+04  0.13184889325E+04  0.10566000000E+00 0.  1.
        994    1    1    2    0    0 -0.54437328163E+02  0.22313473942E+03  0.19596456465E+03  0.34707936446E+03  0.17120000000E+03 0.  0.
        998    1    1    2    0    0  0.19082407268E-02 -0.66372992144E+00  0.55915595163E+01  0.56317030173E+01  0.10000000000E+00 0.  1.
</event>
<event>
 5    1  0.2022058E-009  0.3848207E+03  0.7957747E-01  0.3430433E+00
         13   -1    0    0    0    0  0.00000000000E+00  0.00000000000E+00  0.14999999963E+04  0.15000000000E+04  0.10566000000E+00 0. -1.
        994   -1    0    0    0    0 -0.00000000000E+00 -0.00000000000E+00  0.11368683772E-12  0.17120000000E+03  0.17120000000E+03 0.  0.
         13    1    1    2    0    0  0.11143053929E+03  0.20209825876E+03  0.11326000204E+04  0.11558733878E+04  0.10566000000E+00 0. -1.
        994    1    1    2    0    0 -0.12883495633E+03 -0.20246912651E+03  0.22237134756E+03  0.36925688805E+03  0.17120000000E+03 0.  0.
        998    1    1    2    0    0  0.17404417035E+02  0.37086774599E+00  0.14502862829E+03  0.14606972410E+03  0.10000000000E+00 0. -1.
</event>
<event>
 5    1  0.2022058E-009  0.3882730E+03  0.7957747E-01  0.3415908E+00
         13   -1    0    0    0    0  0.00000000000E+00  0.00000000000E+00  0.14999999963E+04  0.15000000000E+04  0.10566000000E+00 0. -1.
        994   -1    0    0    0    0 -0.00000000000E+00 -0.00000000000E+00  0.11368683772E-12  0.17120000000E+03  0.17120000000E+03 0.  0.
         13    1    1    2    0    0 -0.11341758968E+03 -0.25290150884E+03  0.10661028048E+04  0.11015434283E+04  0.10566000000E+00 0. -1.
        994    1    1    2    0    0  0.12081792134E+03  0.26940462307E+03  0.37055154803E+03  0.50377942673E+03  0.17120000000E+03 0.  0.
        998    1    1    2    0    0 -0.74003316667E+01 -0.16503114231E+02  0.63345643472E+02  0.65877145012E+02  0.10000000000E+00 0.  1.
</event>
<event>
 5    1  0.2022058E-009  0.3882675E+03  0.7957747E-01  0.3415931E+00
         13   -1    0    0    0    0  0.00000000000E+00  0.00000000000E+00  0.14999999963E+04  0.15000000000E+04  0.10566000000E+00 0.  1.
        994   -1    0    0    0    0 -0.00000000000E+00 -0.00000000000E+00  0.11368683772E-12  0.17120000000E+03  0.17120000000E+03 0.  0.
         13    1    1    2    0    0  0.21019708386E+02 -0.15829972382E+03  0.82423279661E+03  0.83955961365E+03  0.10566000000E+00 0.  1.
        994    1    1    2    0    0 -0.27571863916E+02  0.24277691029E+03  0.22684468333E+03  0.37479165706E+03  0.17120000000E+03 0.  0.
        998    1    1    2    0    0  0.65521555309E+01 -0.84477186467E+02  0.44892251633E+03  0.45684872928E+03  0.10000000000E+00 0. -1.
</event>
<event>
 5    1  0.2022058E-009  0.3878121E+03  0.7957747E-01  0.3417833E+00
         13   -1    0    0    0    0  0.00000000000E+00  0.00000000000E+00  0.14999999963E+04  0.15000000000E+04  0.10566000000E+00 0.  1.
        994   -1    0    0    0    0 -0.00000000000E+00 -0.00000000000E+00  0.11368683772E-12  0.17120000000E+03  0.17120000000E+03 0.  0.
         13    1    1    2    0    0  0.22851008332E+03  0.88347705112E+02  0.10505582602E+04  0.10787468862E+04  0.10566000000E+00 0.  1.
        994    1    1    2    0    0 -0.25285668666E+03 -0.96901369798E+02  0.29380683219E+03  0.43469331039E+03  0.17120000000E+03 0.  0.
        998    1    1    2    0    0  0.24346603341E+02  0.85536646861E+01  0.15563490384E+03  0.15775980340E+03  0.10000000000E+00 0. -1.
</event>
<event>
 5    1  0.2022058E-009  0.3854068E+03  0.7957747E-01  0.3427949E+00
         13   -1    0    0    0    0  0.00000000000E+00  0.00000000000E+00  0.14999999963E+04  0.15000000000E+04  0.10566000000E+00 0.  1.
        994   -1    0    0    0    0 -0.00000000000E+00 -0.00000000000E+00  0.11368683772E-12  0.17120000000E+03  0.17120000000E+03 0.  0.
         13    1    1    2    0    0 -0.14051778013E+03 -0.15311564184E+03  0.96975570495E+03  0.99177405932E+03  0.10566000000E+00 0.  1.
        994    1    1    2    0    0  0.16552637274E+03  0.17101689562E+03  0.21719196258E+03  0.36486647869E+03  0.17120000000E+03 0.  0.
        998    1    1    2    0    0 -0.25008592600E+02 -0.17901253781E+02  0.31305232875E+03  0.31455946199E+03  0.10000000000E+00 0. -1.
</event>
<event>
 5    1  0.2022058E-009  0.3882962E+03  0.7957747E-01  0.3415812E+00
         13   -1    0    0    0    0  0.00000000000E+00  0.00000000000E+00  0.14999999963E+04  0.15000000000E+04  0.10566000000E+00 0. -1.
        994   -1    0    0    0    0 -0.00000000000E+00 -0.00000000000E+00  0.11368683772E-12  0.17120000000E+03  0.17120000000E+03 0.  0.
         13    1    1    2    0    0  0.22820868432E+03  0.16692216795E+03  0.11585747844E+04  0.11925761007E+04  0.10566000000E+00 0. -1.
        994    1    1    2    0    0 -0.22952089197E+03 -0.16807017370E+03  0.33382188624E+03  0.47082259384E+03  0.17120000000E+03 0.  0.
        998    1    1    2    0    0  0.13122076515E+01  0.11480057501E+01  0.76033256557E+01  0.78013054773E+01  0.10000000000E+00 0.  0.
</event>
<event>
 5    1  0.2022058E-009  0.3846749E+03  0.7957747E-01  0.3431052E+00
         13   -1    0    0    0    0  0.00000000000E+00  0.00000000000E+00  0.14999999963E+04  0.15000000000E+04  0.10566000000E+00 0.  1.
        994   -1    0    0    0    0 -0.00000000000E+00 -0.00000000000E+00  0.11368683772E-12  0.17120000000E+03  0.17120000000E+03 0.  0.
         13    1    1    2    0    0  0.61653255470E+00 -0.23017057163E+02  0.12878438768E+03  0.13082658257E+03  0.10566000000E+00 0.  1.
        994    1    1    2    0    0 -0.10382770131E+03  0.45710612542E+02  0.45375377854E+02  0.21032835418E+03  0.17120000000E+03 0.  0.
        998    1    1    2    0    0  0.10321116875E+03 -0.22693555379E+02  0.13258402307E+04  0.13300450632E+04  0.10000000000E+00 0.  1.
</event>
<event>
 5    1  0.2022058E-009  0.3883007E+03  0.7957747E-01  0.3415793E+00
         13   -1    0    0    0    0  0.00000000000E+00  0.00000000000E+00  0.14999999963E+04  0.15000000000E+04  0.10566000000E+00 0. -1.
        994   -1    0    0    0    0 -0.00000000000E+00 -0.00000000000E+00  0.11368683772E-12  0.17120000000E+03  0.17120000000E+03 0.  0.
         13    1    1    2    0    0  0.41481719464E+02  0.61764885525E+02  0.29464047802E+03  0.30388921762E+03  0.10566000000E+00 0. -1.
        994    1    1    2    0    0 -0.16197969347E+03 -0.24109876863E+03  0.35360774600E+03  0.48858358074E+03  0.17120000000E+03 0.  0.
        998    1    1    2    0    0  0.12049797401E+03  0.17933388311E+03  0.85175177226E+03  0.87872720165E+03  0.10000000000E+00 0. -1.
</event>
<event>
 5    1  0.2022058E-009  0.3880090E+03  0.7957747E-01  0.3417010E+00
         13   -1    0    0    0    0  0.00000000000E+00  0.00000000000E+00  0.14999999963E+04  0.15000000000E+04  0.10566000000E+00 0. -1.
        994   -1    0    0    0    0 -0.00000000000E+00 -0.00000000000E+00  0.11368683772E-12  0.17120000000E+03  0.17120000000E+03 0.  0.
         13    1    1    2    0    0  0.12222388323E+02 -0.25182041113E+03  0.12061428306E+04  0.12322107958E+04  0.10566000000E+00 0. -1.
        994    1    1    2    0    0 -0.15260053171E+02  0.25964981472E+03  0.26483459505E+03  0.40877585330E+03  0.17120000000E+03 0.  0.
        998    1    1    2    0    0  0.30376648481E+01 -0.78294035928E+01  0.29022570631E+02  0.30213350929E+02  0.10000000000E+00 0. -1.
</event>
<event>
 5    1  0.2022058E-009  0.3882875E+03  0.7957747E-01  0.3415848E+00
         13   -1    0    0    0    0  0.00000000000E+00  0.00000000000E+00  0.14999999963E+04  0.15000000000E+04  0.10566000000E+00 0. -1.
        994   -1    0    0    0    0 -0.00000000000E+00 -0.00000000000E+00  0.11368683772E-12  0.17120000000E+03  0.17120000000E+03 0.  0.
         13    1    1    2    0    0 -0.64159826086E+02  0.61357160043E+02  0.45336624584E+03  0.46197635048E+03  0.10566000000E+00 0. -1.
        994    1    1    2    0    0  0.18392791279E+03 -0.16807201518E+03  0.23776763593E+03  0.38460443067E+03  0.17120000000E+03 0.  0.
        998    1    1    2    0    0 -0.11976808671E+03  0.10671485514E+03  0.80886611451E+03  0.82461921885E+03  0.10000000000E+00 0. -1.
</event>
<event>
 5    1  0.2022058E-009  0.3833600E+03  0.7957747E-01  0.3436657E+00
         13   -1    0    0    0    0  0.00000000000E+00  0.00000000000E+00  0.14999999963E+04  0.15000000000E+04  0.10566000000E+00 0.  1.
        994   -1    0    0    0    0 -0.00000000000E+00 -0.00000000000E+00  0.11368683772E-12  0.17120000000E+03  0.17120000000E+03 0.  0.
         13    1    1    2    0    0  0.18505749571E+03 -0.39968785730E+02  0.10431488431E+04  0.10601902191E+04  0.10566000000E+00 0.  1.
        994    1    1    2    0    0 -0.20781304138E+03  0.16658034711E+02  0.16263855181E+03  0.31499918861E+03  0.17120000000E+03 0.  0.
        998    1    1    2    0    0  0.22755545673E+02  0.23310751018E+02  0.29421260136E+03  0.29601059232E+03  0.10000000000E+00 0.  1.
</event>
<event>
 5    1  0.2022058E-009  0.3882946E+03  0.7957747E-01  0.3415818E+00
         13   -1    0    0    0    0  0.00000000000E+00  0.00000000000E+00  0.14999999963E+04  0.15000000000E+04  0.10566000000E+00 0. -1.
        994   -1    0    0    0    0 -0.00000000000E+00 -0.00000000000E+00  0.11368683772E-12  0.17120000000E+03  0.17120000000E+03 0.  0.
         13    1    1    2    0    0  0.14814742136E+03  0.30394295742E+03  0.70934253622E+03  0.78580902558E+03  0.10566000000E+00 0. -1.
        994    1    1    2    0    0 -0.15290364233E+03 -0.31305435577E+03  0.77009746681E+03  0.86240483642E+03  0.17120000000E+03 0.  0.
        998    1    1    2    0    0  0.47562209690E+01  0.91113983479E+01  0.20559993245E+02  0.22986137996E+02  0.10000000000E+00 0. -1.
</event>
<event>
 5    1  0.2022058E-009  0.3794390E+03  0.7957747E-01  0.3453605E+00
         13   -1    0    0    0    0  0.00000000000E+00  0.00000000000E+00  0.14999999963E+04  0.15000000000E+04  0.10566000000E+00 0. -1.
        994   -1    0    0    0    0 -0.00000000000E+00 -0.00000000000E+00  0.11368683772E-12  0.17120000000E+03  0.17120000000E+03 0.  0.
         13    1    1    2    0    0 -0.20617839731E+02  0.32103891405E+02  0.21703949302E+03  0.22036766517E+03  0.10566000000E+00 0. -1.
        994    1    1    2    0    0  0.22914705299E+03 -0.24679289139E+03  0.69227825873E+03  0.78865311173E+03  0.17120000000E+03 0.  0.
        998    1    1    2    0    0 -0.20852921326E+03  0.21468899999E+03  0.59068224453E+03  0.66217922310E+03  0.10000000000E+00 0. -1.
</event>
<event>
 5    1  0.2022058E-009  0.3882975E+03  0.7957747E-01  0.3415806E+00
         13   -1    0    0    0    0  0.00000000000E+00  0.00000000000E+00  0.14999999963E+04  0.15000000000E+04  0.10566000000E+00 0.  1.
        994   -1    0    0    0    0 -0.00000000000E+00 -0.00000000000E+00  0.11368683772E-12  0.17120000000E+03  0.17120000000E+03 0.  0.
         13    1    1    2    0    0  0.21345031503E+02 -0.22255034441E+03  0.12931566979E+04  0.13123408561E+04  0.10566000000E+00 0.  1.
        994    1    1    2    0    0 -0.21542078183E+02  0.22532254369E+03  0.18940578488E+03  0.34120126198E+03  0.17120000000E+03 0.  0.
        998    1    1    2    0    0  0.19704667966E+00 -0.27721992749E+01  0.17437513516E+02  0.17657881918E+02  0.10000000000E+00 0. -1.
</event>
<event>
 5    1  0.2022058E-009  0.3882965E+03  0.7957747E-01  0.3415811E+00
         13   -1    0    0    0    0  0.00000000000E+00  0.00000000000E+00  0.14999999963E+04  0.15000000000E+04  0.10566000000E+00 0.  1.
        994   -1    0    0    0    0 -0.00000000000E+00 -0.00000000000E+00  0.11368683772E-12  0.17120000000E+03  0.17120000000E+03 0.  0.
         13    1    1    2    0    0 -0.17496228053E+03  0.16739370004E+03  0.12347792380E+04  0.12582973529E+04  0.10566000000E+00 0.  1.
        994    1    1    2    0    0  0.17953317964E+03 -0.17146405365E+03  0.23568366135E+03  0.38273791623E+03  0.17120000000E+03 0.  0.
        998    1    1    2    0    0 -0.45708991164E+01  0.40703536128E+01  0.29537096883E+02  0.30164730888E+02  0.10000000000E+00 0.  1.
</event>
<event>
 5    1  0.2022058E-009  0.3864300E+03  0.7957747E-01  0.3423630E+00
         13   -1    0    0    0    0  0.00000000000E+00  0.00000000000E+00  0.14999999963E+04  0.15000000000E+04  0.10566000000E+00 0.  1.
        994   -1    0    0    0    0 -0.00000000000E+00 -0.00000000000E+00  0.11368683772E-12  0.17120000000E+03  0.17120000000E+03 0.  0.
         13    1    1    2    0    0 -0.22127441759E+01  0.11407528451E+02  0.42909527943E+02  0.44455221228E+02  0.10566000000E+00 0.  1.
        994    1    1    2    0    0 -0.25902399506E+02 -0.10037463664E+03  0.36923435774E+02  0.20351604873E+03  0.17120000000E+03 0.  0.
        998    1    1    2    0    0  0.28115143682E+02  0.88967108190E+02  0.14201670326E+04  0.14232287300E+04  0.10000000000E+00 0.  1.
</event>
<event>
 5    1  0.2022058E-009  0.3882886E+03  0.7957747E-01  0.3415844E+00
         13   -1    0    0    0    0  0.00000000000E+00  0.00000000000E+00  0.14999999963E+04  0.15000000000E+04  0.10566000000E+00 0. -1.
        994   -1    0    0    0    0 -0.00000000000E+00 -0.00000000000E+00  0.11368683772E-12  0.17120000000E+03  0.17120000000E+03 0.  0.
         13    1    1    2    0    0  0.14181136301E+03  0.17342815041E+03  0.12972841924E+04  0.13164855005E+04  0.10566000000E+00 0. -1.
        994    1    1    2    0    0 -0.14316331966E+03 -0.17557035927E+03  0.18978702662E+03  0.34153951839E+03  0.17120000000E+03 0.  0.
        998    1    1    2    0    0  0.13519566485E+01  0.21422088628E+01  0.12928777247E+02  0.13174981089E+02  0.10000000000E+00 0.  1.
</event>
<event>
 5    1  0.2022058E-009  0.3849763E+03  0.7957747E-01  0.3429773E+00
         13   -1    0    0    0    0  0.00000000000E+00  0.00000000000E+00  0.14999999963E+04  0.15000000000E+04  0.10566000000E+00 0.  1.
        994   -1    0    0    0    0 -0.00000000000E+00 -0.00000000000E+00  0.11368683772E-12  0.17120000000E+03  0.17120000000E+03 0.  0.
         13    1    1    2    0    0 -0.17710034422E+01  0.44353581032E+02  0.22242545720E+03  0.22681153361E+03  0.10566000000E+00 0.  1.
        994    1    1    2    0    0 -0.28658226076E+02 -0.12706704412E+03  0.59592512808E+02  0.22322194159E+03  0.17120000000E+03 0.  0.
        998    1    1    2    0    0  0.30429229518E+02  0.82713463086E+02  0.12179820263E+04  0.12211665248E+04  0.10000000000E+00 0.  1.
</event>
<event>
 5    1  0.2022058E-009  0.3878679E+03  0.7957747E-01  0.3417599E+00
         13   -1    0    0    0    0  0.00000000000E+00  0.00000000000E+00  0.14999999963E+04  0.15000000000E+04  0.10566000000E+00 0.  1.
        994   -1    0    0    0    0 -0.00000000000E+00 -0.00000000000E+00  0.11368683772E-12  0.17120000000E+03  0.17120000000E+03 0.  0.
         13    1    1    2    0    0  0.20397264478E+01 -0.10735013870E+02  0.41313310098E+02  0.42734081973E+02  0.10566000000E+00 0.  1.
        994    1    1    2    0    0 -0.80745261002E+02  0.20196738945E+03  0.17335907508E+03  0.32660899021E+03  0.17120000000E+03 0.  0.
        998    1    1    2    0    0  0.78705534554E+02 -0.19123237558E+03  0.12853276111E+04  0.13018569278E+04  0.10000000000E+00 0.  1.
</event>
<event>
 5    1  0.2022058E-009  0.3883009E+03  0.7957747E-01  0.3415792E+00
         13   -1    0    0    0    0  0.00000000000E+00  0.00000000000E+00  0.14999999963E+04  0.15000000000E+04  0.10566000000E+00 0. -1.
        994   -1    0    0    0    0 -0.00000000000E+00 -0.00000000000E+00  0.11368683772E-12  0.17120000000E+03  0.17120000000E+03 0.  0.
         13    1    1    2    0    0  0.14071727326E+03 -0.11306792095E+03  0.10327125758E+04  0.10483706315E+04  0.10566000000E+00 0. -1.
        994    1    1    2    0    0 -0.17803844459E+03  0.14322463491E+03  0.19359546953E+03  0.34496322937E+03  0.17120000000E+03 0.  0.
        998    1    1    2    0    0  0.37321171322E+02 -0.30156713965E+02  0.27369195100E+03  0.27786613911E+03  0.10000000000E+00 0.  0.
</event>
<event>
 5    1  0.2022058E-009  0.3882993E+03  0.7957747E-01  0.3415799E+00
         13   -1    0    0    0    0  0.00000000000E+00  0.00000000000E+00  0.14999999963E+04  0.15000000000E+04  0.10566000000E+00 0.  1.
        994   -1    0    0    0    0 -0.00000000000E+00 -0.00000000000E+00  0.11368683772E-12  0.17120000000E+03  0.17120000000E+03 0.  0.
         13    1    1    2    0    0 -0.16554631259E+03 -0.19178990457E+03  0.12448487259E+04  0.12703689663E+04  0.10566000000E+00 0.  1.
        994    1    1    2    0    0  0.16620717623E+03  0.19257137069E+03  0.25013048394E+03  0.39570602375E+03  0.17120000000E+03 0.  0.
        998    1    1    2    0    0 -0.66086364355E+00 -0.78146612027E+00  0.50207864562E+01  0.51250099210E+01  0.10000000000E+00 0.  0.
</event>
<event>
 5    1  0.2022058E-009  0.3882976E+03  0.7957747E-01  0.3415806E+00
         13   -1    0    0    0    0  0.00000000000E+00  0.00000000000E+00  0.14999999963E+04  0.15000000000E+04  0.10566000000E+00 0. -1.
        994   -1    0    0    0    0 -0.00000000000E+00 -0.00000000000E+00  0.11368683772E-12  0.17120000000E+03  0.17120000000E+03 0.  0.
         13    1    1    2    0    0 -0.44315061998E+02  0.21812691722E+03  0.12213406945E+04  0.12414573211E+04  0.10566000000E+00 0. -1.
        994    1    1    2    0    0  0.46957114583E+02 -0.23039049700E+03  0.20699593641E+03  0.35698950882E+03  0.17120000000E+03 0.  0.
        998    1    1    2    0    0 -0.26420525854E+01  0.12263579780E+02  0.71663365345E+02  0.72753170127E+02  0.10000000000E+00 0. -1.
</event>
<event>
 5    1  0.2022058E-009  0.3882690E+03  0.7957747E-01  0.3415925E+00
         13   -1    0    0    0    0  0.00000000000E+00  0.00000000000E+00  0.14999999963E+04  0.15000000000E+04  0.10566000000E+00 0. -1.
        994   -1    0    0    0    0 -0.00000000000E+00 -0.00000000000E+00  0.11368683772E-12  0.17120000000E+03  0.17120000000E+03 0.  0.
         13    1    1    2    0    0  0.26347191203E+03  0.49727346798E+02  0.11837574447E+04  0.12137429532E+04  0.10566000000E+00 0. -1.
        994    1    1    2    0    0 -0.26797199709E+03 -0.49752097262E+02  0.29787749377E+03  0.43854840519E+03  0.17120000000E+03 0.  0.
        998    1    1    2    0    0  0.45000850602E+01  0.24750464587E-01  0.18365057829E+02  0.18908641601E+02  0.10000000000E+00 0. -1.
</event>
<event>
 5    1  0.2022058E-009  0.3882268E+03  0.7957747E-01  0.3416101E+00
         13   -1    0    0    0    0  0.00000000000E+00  0.00000000000E+00  0.14999999963E+04  0.15000000000E+04  0.10566000000E+00 0.  1.
        994   -1    0    0    0    0 -0.00000000000E+00 -0.00000000000E+00  0.11368683772E-12  0.17120000000E+03  0.17120000000E+03 0.  0.
         13    1    1    2    0    0 -0.16857007364E+02 -0.25641933273E+03  0.11313884090E+04  0.11602046268E+04  0.10566000000E+00 0.  1.
        994    1    1    2    0    0  0.15893093578E+02  0.27124743784E+03  0.29558371612E+03  0.43647100270E+03  0.17120000000E+03 0.  0.
        998    1    1    2    0    0  0.96391378650E+00 -0.14828105111E+02  0.73027871148E+02  0.74524370480E+02  0.10000000000E+00 0.  1.
</event>
<event>
 5    1  0.2022058E-009  0.3882963E+03  0.7957747E-01  0.3415812E+00
         13   -1    0    0    0    0  0.00000000000E+00  0.00000000000E+00  0.14999999963E+04  0.15000000000E+04  0.10566000000E+00 0.  1.
        994   -1    0    0    0    0 -0.00000000000E+00 -0.00000000000E+00  0.11368683772E-12  0.17120000000E+03  0.17120000000E+03 0.  0.
         13    1    1    2    0    0  0.24889149644E+03  0.15008035328E+02  0.11688374727E+04  0.11951373422E+04  0.10566000000E+00 0.  1.
        994    1    1    2    0    0 -0.26183598891E+03 -0.16383510287E+02  0.27010698940E+03  0.41363477879E+03  0.17120000000E+03 0.  0.
        998    1    1    2    0    0  0.12944492467E+02  0.13754749593E+01  0.61055534192E+02  0.62427878965E+02  0.10000000000E+00 0. -1.
</event>
<event>
 5    1  0.2022058E-009  0.3882240E+03  0.7957747E-01  0.3416113E+00
         13   -1    0    0    0    0  0.00000000000E+00  0.00000000000E+00  0.14999999963E+04  0.15000000000E+04  0.10566000000E+00 0. -1.
        994   -1    0    0    0    0 -0.00000000000E+00 -0.00000000000E+00  0.11368683772E-12  0.17120000000E+03  0.17120000000E+03 0.  0.
         13    1    1    2    0    0 -0.14009961338E+03 -0.54209749641E+02  0.81327459565E+03  0.82703215035E+03  0.10566000000E+00 0. -1.
        994    1    1    2    0    0  0.21809651264E+03  0.80368928496E+02  0.20156973773E+03  0.35208671185E+03  0.17120000000E+03 0.  0.
        998    1    1    2    0    0 -0.77996899258E+02 -0.26159178856E+02  0.48515566290E+03  0.49208113780E+03  0.10000000000E+00 0. -1.
</event>
<event>
 5    1  0.2022058E-009  0.3873794E+03  0.7957747E-01  0.3419643E+00
         13   -1    0    0    0    0  0.00000000000E+00  0.00000000000E+00  0.14999999963E+04  0.15000000000E+04  0.10566000000E+00 0.  1.
        994   -1    0    0    0    0 -0.00000000000E+00 -0.00000000000E+00  0.11368683772E-12  0.17120000000E+03  0.17120000000E+03 0.  0.
         13    1    1    2    0    0 -0.29649882684E+03 -0.15537615355E+03  0.68203974244E+03  0.75975754346E+03  0.10566000000E+00 0.  1.
        994    1    1    2    0    0  0.30890348235E+03  0.15901753890E+03  0.80390428494E+03  0.89234493243E+03  0.17120000000E+03 0.  0.
        998    1    1    2    0    0 -0.12404655510E+02 -0.36413853463E+01  0.14055968898E+02  0.19097524113E+02  0.10000000000E+00 0. -1.
</event>
<event>
 5    1  0.2022058E-009  0.3704238E+03  0.7957747E-01  0.3493946E+00
         13   -1    0    0    0    0  0.00000000000E+00  0.00000000000E+00  0.14999999963E+04  0.15000000000E+04  0.10566000000E+00 0. -1.
        994   -1    0    0    0    0 -0.00000000000E+00 -0.00000000000E+00  0.11368683772E-12  0.17120000000E+03  0.17120000000E+03 0.  0.
         13    1    1    2    0    0  0.60639727516E+02 -0.22030747759E+02  0.35827809955E+03  0.36404084686E+03  0.10566000000E+00 0. -1.
        994    1    1    2    0    0  0.37407615475E+02  0.79311000168E+02  0.36085455135E+02  0.19570683308E+03  0.17120000000E+03 0.  0.
        998    1    1    2    0    0 -0.98047342991E+02 -0.57280252409E+02  0.11056364416E+04  0.11114523201E+04  0.10000000000E+00 0.  1.
</event>
<event>
 5    1  0.2022058E-009  0.3882858E+03  0.7957747E-01  0.3415855E+00
         13   -1    0    0    0    0  0.00000000000E+00  0.00000000000E+00  0.14999999963E+04  0.15000000000E+04  0.10566000000E+00 0. -1.
        994   -1    0    0    0    0 -0.00000000000E+00 -0.00000000000E+00  0.11368683772E-12  0.17120000000E+03  0.17120000000E+03 0.  0.
         13    1    1    2    0    0  0.23510385131E+03  0.53051466683E+02  0.12722084865E+04  0.12948369486E+04  0.10566000000E+00 0. -1.
        994    1    1    2    0    0 -0.23626203357E+03 -0.53555281017E+02  0.22221346389E+03  0.37064292812E+03  0.17120000000E+03 0.  0.
        998    1    1    2    0    0  0.11581822632E+01  0.50381433365E+00  0.55780458798E+01  0.57201233269E+01  0.10000000000E+00 0. -1.
</event>
<event>
 5    1  0.2022058E-009  0.3880456E+03  0.7957747E-01  0.3416857E+00
         13   -1    0    0    0    0  0.00000000000E+00  0.00000000000E+00  0.14999999963E+04  0.15000000000E+04  0.10566000000E+00 0.  1.
        994   -1    0    0    0    0 -0.00000000000E+00 -0.00000000000E+00  0.11368683772E-12  0.17120000000E+03  0.17120000000E+03 0.  0.
         13    1    1    2    0    0 -0.16747384675E+03 -0.17476487735E+03  0.12261308633E+04  0.12497948458E+04  0.10566000000E+00 0.  1.
        994    1    1    2    0    0  0.16937670947E+03  0.18048697672E+03  0.23436997876E+03  0.38144822115E+03  0.17120000000E+03 0.  0.
        998    1    1    2    0    0 -0.19028627224E+01 -0.57220993726E+01  0.39499154257E+02  0.39956933000E+02  0.10000000000E+00 0. -1.
</event>
<event>
 5    1  0.2022058E-009  0.3874601E+03  0.7957747E-01  0.3419305E+00
         13   -1    0    0    0    0  0.00000000000E+00  0.00000000000E+00  0.14999999963E+04  0.15000000000E+04  0.10566000000E+00 0. -1.
        994   -1    0    0    0    0 -0.00000000000E+00 -0.00000000000E+00  0.11368683772E-12  0.17120000000E+03  0.17120000000E+03 0.  0.
         13    1    1    2    0    0 -0.96698112123E+01 -0.24360973308E+03  0.12285532194E+04  0.12525103718E+04  0.10566000000E+00 0. -1.
        994    1    1    2    0    0  0.48670535017E+01  0.25102103504E+03  0.24357743110E+03  0.38945430180E+03  0.17120000000E+03 0.  0.
        998    1    1    2    0    0  0.48027577106E+01 -0.74113019629E+01  0.27869345746E+02  0.29235326417E+02  0.10000000000E+00 0. -1.
</event>
<event>
 5    1  0.2022058E-009  0.3883007E+03  0.7957747E-01  0.3415793E+00
         13   -1    0    0    0    0  0.00000000000E+00  0.00000000000E+00  0.14999999963E+04  0.15000000000E+04  0.10566000000E+00 0.  1.
        994   -1    0    0    0    0 -0.00000000000E+00 -0.00000000000E+00  0.11368683772E-12  0.17120000000E+03  0.17120000000E+03 0.  0.
         13    1    1    2    0    0 -0.11625506307E+03 -0.33757561081E+02  0.47282966957E+03  0.48808064929E+03  0.10566000000E+00 0.  1.
        994    1    1    2    0    0  0.28067417501E+03  0.80682330482E+02  0.35906802141E+03  0.49348446275E+03  0.17120000000E+03 0.  0.
        998    1    1    2    0    0 -0.16441911194E+03 -0.46924769402E+02  0.66810230529E+03  0.68963488796E+03  0.10000000000E+00 0.  1.
</event>
<event>
 5    1  0.2022058E-009  0.3730524E+03  0.7957747E-01  0.3481979E+00
         13   -1    0    0    0    0  0.00000000000E+00  0.00000000000E+00  0.14999999963E+04  0.15000000000E+04  0.10566000000E+00 0. -1.
        994   -1    0    0    0    0 -0.00000000000E+00 -0.00000000000E+00  0.11368683772E-12  0.17120000000E+03  0.17120000000E+03 0.  0.
         13    1    1    2    0    0  0.73850142209E+02  0.39920327558E+02  0.39285602932E+03  0.40172546221E+03  0.10566000000E+00 0. -1.
        994    1    1    2    0    0 -0.25576613235E+02 -0.18861852130E+03  0.14400810615E+03  0.29373267500E+03  0.17120000000E+03 0.  0.
        998    1    1    2    0    0 -0.48273528974E+02  0.14869819374E+03  0.96313586081E+03  0.97574186279E+03  0.10000000000E+00 0. -1.
</event>
<event>
 5    1  0.2022058E-009  0.3883008E+03  0.7957747E-01  0.3415793E+00
         13   -1    0    0    0    0  0.00000000000E+00  0.00000000000E+00  0.14999999963E+04  0.15000000000E+04  0.10566000000E+00 0. -1.
        994   -1    0    0    0    0 -0.00000000000E+00 -0.00000000000E+00  0.11368683772E-12  0.17120000000E+03  0.17120000000E+03 0.  0.
         13    1    1    2    0    0 -0.70887627923E+02  0.15923969655E+03  0.75031402996E+03  0.77029441870E+03  0.10566000000E+00 0. -1.
        994    1    1    2    0    0  0.11242536952E+03 -0.25243855815E+03  0.30879721065E+03  0.44836352066E+03  0.17120000000E+03 0.  0.
        998    1    1    2    0    0 -0.41537741601E+02  0.93198861604E+02  0.44088875566E+03  0.45254206064E+03  0.10000000000E+00 0.  0.
</event>
<event>
 5    1  0.2022058E-009  0.3882889E+03  0.7957747E-01  0.3415842E+00
         13   -1    0    0    0    0  0.00000000000E+00  0.00000000000E+00  0.14999999963E+04  0.15000000000E+04  0.10566000000E+00 0. -1.
        994   -1    0    0    0    0 -0.00000000000E+00 -0.00000000000E+00  0.11368683772E-12  0.17120000000E+03  0.17120000000E+03 0.  0.
         13    1    1    2    0    0  0.31392010987E+02  0.17206130569E+03  0.10514292931E+04  0.10658771603E+04  0.10566000000E+00 0. -1.
        994    1    1    2    0    0 -0.38289281071E+02 -0.21512691170E+03  0.17466822489E+03  0.32796964184E+03  0.17120000000E+03 0.  0.
        998    1    1    2    0    0  0.68972700842E+01  0.43065606011E+02  0.27390247831E+03  0.27735319789E+03  0.10000000000E+00 0.  1.
</event>
<event>
 5    1  0.2022058E-009  0.3881452E+03  0.7957747E-01  0.3416442E+00
         13   -1    0    0    0    0  0.00000000000E+00  0.00000000000E+00  0.14999999963E+04  0.15000000000E+04  0.10566000000E+00 0. -1.
        994   -1    0    0    0    0 -0.00000000000E+00 -0.00000000000E+00  0.11368683772E-12  0.17120000000E+03  0.17120000000E+03 0.  0.
         13    1    1    2    0    0  0.43392971423E+02  0.20449991744E+03  0.10255801130E+04  0.10466698360E+04  0.10566000000E+00 0. -1.
        994    1    1    2    0    0 -0.58803637208E+02 -0.24573186410E+03  0.24627309437E+03  0.39217584550E+03  0.17120000000E+03 0.  0.
        998    1    1    2    0    0  0.15410665785E+02  0.41231946661E+02  0.22814678889E+03  0.23235431850E+03  0.10000000000E+00 0. -1.
</event>
<event>
 5    1  0.2022058E-009  0.3883005E+03  0.7957747E-01  0.3415794E+00
         13   -1    0    0    0    0  0.00000000000E+00  0.00000000000E+00  0.14999999963E+04  0.15000000000E+04  0.10566000000E+00 0. -1.
        994   -1    0    0    0    0 -0.00000000000E+00 -0.00000000000E+00  0.11368683772E-12  0.17120000000E+03  0.17120000000E+03 0.  0.
         13    1    1    2    0    0 -0.29384077986E+02  0.20054075008E+03  0.50105122298E+03  0.54049269717E+03  0.10566000000E+00 0. -1.
        994    1    1    2    0    0  0.49158291158E+02 -0.33962227040E+03  0.65237465919E+03  0.75674431620E+03  0.17120000000E+03 0.  0.
        998    1    1    2    0    0 -0.19774213171E+02  0.13908152032E+03  0.34657411411E+03  0.37396298663E+03  0.10000000000E+00 0. -1.
</event>
<event>
 5    1  0.2022058E-009  0.3882973E+03  0.7957747E-01  0.3415807E+00
         13   -1    0    0    0    0  0.00000000000E+00  0.00000000000E+00  0.14999999963E+04  0.15000000000E+04  0.10566000000E+00 0. -1.
        994   -1    0    0    0    0 -0.00000000000E+00 -0.00000000000E+00  0.11368683772E-12  0.17120000000E+03  0.17120000000E+03 0.  0.
         13    1    1    2    0    0  0.61356180804E+02 -0.16340807544E+03  0.93515391929E+03  0.95130418057E+03  0.10566000000E+00 0. -1.
        994    1    1    2    0    0 -0.84657731429E+02  0.22522372476E+03  0.21860832332E+03  0.36741216190E+03  0.17120000000E+03 0.  0.
        998    1    1    2    0    0  0.23301550625E+02 -0.61815649322E+02  0.34623775367E+03  0.35248365754E+03  0.10000000000E+00 0.  0.
</event>
<event>
 5    1  0.2022058E-009  0.3881955E+03  0.7957747E-01  0.3416232E+00
         13   -1    0    0    0    0  0.00000000000E+00  0.00000000000E+00  0.14999999963E+04  0.15000000000E+04  0.10566000000E+00 0. -1.
        994   -1    0    0    0    0 -0.00000000000E+00 -0.00000000000E+00  0.11368683772E-12  0.17120000000E+03  0.17120000000E+03 0.  0.
         13    1    1    2    0    0 -0.10700749426E+03  0.10376677408E+03  0.89789292851E+03  0.91018122891E+03  0.10566000000E+00 0. -1.
        994    1    1    2    0    0  0.15565084365E+03 -0.14608493515E+03  0.16574688778E+03  0.31992102809E+03  0.17120000000E+03 0.  0.
        998    1    1    2    0    0 -0.48643349384E+02  0.42318161076E+02  0.43636018000E+03  0.44109774300E+03  0.10000000000E+00 0. -1.
</event>
<event>
 5    1  0.2022058E-009  0.3787964E+03  0.7957747E-01  0.3456416E+00
         13   -1    0    0    0    0  0.00000000000E+00  0.00000000000E+00  0.14999999963E+04  0.15000000000E+04  0.10566000000E+00 0.  1.
        994   -1    0    0    0    0 -0.00000000000E+00 -0.00000000000E+00  0.11368683772E-12  0.17120000000E+03  0.17120000000E+03 0.  0.
         13    1    1    2    0    0  0.17454618770E+03  0.12359539261E+03  0.12676269198E+04  0.12855427693E+04  0.10566000000E+00 0.  1.
        994    1    1    2    0    0 -0.18565217423E+03 -0.13832659213E+03  0.20858373428E+03  0.35555251383E+03  0.17120000000E+03 0.  0.
        998    1    1    2    0    0  0.11105986526E+02  0.14731199520E+02  0.23789342217E+02  0.30104716892E+02  0.10000000000E+00 0.  1.
</event>
<event>
 5    1  0.2022058E-009  0.3883006E+03  0.7957747E-01  0.3415794E+00
         13   -1    0    0    0    0  0.00000000000E+00  0.00000000000E+00  0.14999999963E+04  0.15000000000E+04  0.10566000000E+00 0.  1.
        994   -1    0    0    0    0 -0.00000000000E+00 -0.00000000000E+00  0.11368683772E-12  0.17120000000E+03  0.17120000000E+03 0.  0.
         13    1    1    2    0    0 -0.28355805061E+03  0.17030203048E+03  0.65176733652E+03  0.73089576670E+03  0.10566000000E+00 0.  1.
        994    1    1    2    0    0  0.29869387502E+03 -0.17930167385E+03  0.81325692676E+03  0.90114559875E+03  0.17120000000E+03 0.  0.
        998    1    1    2    0    0 -0.15135824414E+02  0.89996433693E+01  0.34975732995E+02  0.39158634552E+02  0.10000000000E+00 0. -1.
</event>
<event>
 5    1  0.2022058E-009  0.3882798E+03  0.7957747E-01  0.3415880E+00
         13   -1    0    0    0    0  0.00000000000E+00  0.00000000000E+00  0.14999999963E+04  0.15000000000E+04  0.10566000000E+00 0. -1.
        994   -1    0    0    0    0 -0.00000000000E+00 -0.00000000000E+00  0.11368683772E-12  0.17120000000E+03  0.17120000000E+03 0.  0.
         13    1    1    2    0    0  0.11223155838E+03 -0.31201403803E+03  0.95054510231E+03  0.10067197650E+04  0.10566000000E+00 0. -1.
        994    1    1    2    0    0 -0.11231642555E+03  0.31225385302E+03  0.54897695045E+03  0.66392965011E+03  0.17120000000E+03 0.  0.
        998    1    1    2    0    0  0.84867175440E-01 -0.23981499143E+00  0.47794351543E+00  0.55058484498E+00  0.10000000000E+00 0. -1.
</event>
<event>
 5    1  0.2022058E-009  0.3882306E+03  0.7957747E-01  0.3416085E+00
         13   -1    0    0    0    0  0.00000000000E+00  0.00000000000E+00  0.14999999963E+04  0.15000000000E+04  0.10566000000E+00 0.  1.
        994   -1    0    0    0    0 -0.00000000000E+00 -0.00000000000E+00  0.11368683772E-12  0.17120000000E+03  0.17120000000E+03 0.  0.
         13    1    1    2    0    0  0.88199175096E+02 -0.23272420527E+03  0.10415279782E+04  0.10708502186E+04  0.10566000000E+00 0.  1.
        994    1    1    2    0    0 -0.97259543109E+02  0.26171356832E+03  0.31751034303E+03  0.45615311958E+03  0.17120000000E+03 0.  0.
        998    1    1    2    0    0  0.90603680129E+01 -0.28989363056E+02  0.14096167509E+03  0.14419666183E+03  0.10000000000E+00 0. -1.
</event>
<event>
 5    1  0.2022058E-009  0.3883006E+03  0.7957747E-01  0.3415793E+00
         13   -1    0    0    0    0  0.00000000000E+00  0.00000000000E+00  0.14999999963E+04  0.15000000000E+04  0.10566000000E+00 0.  1.
        994   -1    0    0    0    0 -0.00000000000E+00 -0.00000000000E+00  0.11368683772E-12  0.17120000000E+03  0.17120000000E+03 0.  0.
         13    1    1    2    0    0  0.19535889513E+03  0.10334748112E+03  0.12616378296E+04  0.12808496493E+04  0.10566000000E+00 0.  1.
        994    1    1    2    0    0 -0.20215836194E+03 -0.10704526584E+03  0.19409459746E+03  0.34541112461E+03  0.17120000000E+03 0.  0.
        998    1    1    2    0    0  0.67994668123E+01  0.36977847218E+01  0.44267569193E+02  0.44939226106E+02  0.10000000000E+00 0.  0.
</event>
<event>
 5    1  0.2022058E-009  0.3883007E+03  0.7957747E-01  0.3415793E+00
         13   -1    0    0    0    0  0.00000000000E+00  0.00000000000E+00  0.14999999963E+04  0.15000000000E+04  0.10566000000E+00 0. -1.
        994   -1    0    0    0    0 -0.00000000000E+00 -0.00000000000E+00  0.11368683772E-12  0.17120000000E+03  0.17120000000E+03 0.  0.
         13    1    1    2    0    0  0.17942643966E+03 -0.16744031291E+03  0.12000161979E+04  0.12248546820E+04  0.10566000000E+00 0. -1.
        994    1    1    2    0    0 -0.18651225669E+03  0.17413830559E+03  0.25204706195E+03  0.39742688990E+03  0.17120000000E+03 0.  0.
        998    1    1    2    0    0  0.70858170323E+01 -0.66979926814E+01  0.47936736399E+02  0.48918428077E+02  0.10000000000E+00 0.  1.
</event>
<event>
 5    1  0.2974303E-009  0.3882833E+03  0.7957747E-01  0.3415866E+00
         13   -1    0    0    0    0  0.00000000000E+00  0.00000000000E+00  0.14999999963E+04  0.15000000000E+04  0.10566000000E+00 0.  1.
        994   -1    0    0    0    0 -0.00000000000E+00 -0.00000000000E+00  0.11368683772E-12  0.17120000000E+03  0.17120000000E+03 0.  0.
         13    1    1    2    0    0  0.10257583472E+03 -0.19432561288E+03  0.13194994943E+04  0.13376708012E+04  0.10566000000E+00 0.  1.
        994    1    1    2    0    0 -0.10279223431E+03  0.19454743598E+03  0.17747705056E+03  0.33048826266E+03  0.17120000000E+03 0.  0.
        998    1    1    2    0    0  0.21639959297E+00 -0.22182309834E+00  0.30234514322E+01  0.30409361772E+01  0.10000000000E+00 0. -1.
</event>
<event>
 5    1  0.2022058E-009  0.3882935E+03  0.7957747E-01  0.3415823E+00
         13   -1    0    0    0    0  0.00000000000E+00  0.00000000000E+00  0.14999999963E+04  0.15000000000E+04  0.10566000000E+00 0. -1.
        994   -1    0    0    0    0 -0.00000000000E+00 -0.00000000000E+00  0.11368683772E-12  0.17120000000E+03  0.17120000000E+03 0.  0.
         13    1    1    2    0    0  0.22264903342E+03 -0.10453695955E+03  0.12662125347E+04  0.12898816853E+04  0.10566000000E+00 0. -1.
        994    1    1    2    0    0 -0.22312662506E+03  0.10471494409E+03  0.23161683957E+03  0.37908641587E+03  0.17120000000E+03 0.  0.
        998    1    1    2    0    0  0.47759163793E+00 -0.17798454571E+00  0.21706220292E+01  0.22318988025E+01  0.10000000000E+00 0.  0.
</event>
<event>
 5    1  0.2022058E-009  0.3882997E+03  0.7957747E-01  0.3415797E+00
         13   -1    0    0    0    0  0.00000000000E+00  0.00000000000E+00  0.14999999963E+04  0.15000000000E+04  0.10566000000E+00 0.  1.
        994   -1    0    0    0    0 -0.00000000000E+00 -0.00000000000E+00  0.11368683772E-12  0.17120000000E+03  0.17120000000E+03 0.  0.
         13    1    1    2    0    0 -0.17748365575E+03 -0.10091446893E+03  0.11647463674E+04  0.11825050907E+04  0.10566000000E+00 0.  1.
        994    1    1    2    0    0  0.19865121823E+03  0.11294796476E+03  0.19363390175E+03  0.34499721326E+03  0.17120000000E+03 0.  0.
        998    1    1    2    0    0 -0.21167562476E+02 -0.12033495837E+02  0.14161972715E+03  0.14369769602E+03  0.10000000000E+00 0.  0.
</event>
<event>
 5    1  0.2022058E-009  0.3882469E+03  0.7957747E-01  0.3416017E+00
         13   -1    0    0    0    0  0.00000000000E+00  0.00000000000E+00  0.14999999963E+04  0.15000000000E+04  0.10566000000E+00 0. -1.
        994   -1    0    0    0    0 -0.00000000000E+00 -0.00000000000E+00  0.11368683772E-12  0.17120000000E+03  0.17120000000E+03 0.  0.
         13    1    1    2    0    0  0.29448647482E+03 -0.11919182503E+02  0.10654151770E+04  0.11054292656E+04  0.10566000000E+00 0. -1.
        994    1    1    2    0    0 -0.30281163502E+03  0.13480099618E+02  0.40049051865E+03  0.53063989194E+03  0.17120000000E+03 0.  0.
        998    1    1    2    0    0  0.83251602008E+01 -0.15609171148E+01  0.34094300653E+02  0.35130842455E+02  0.10000000000E+00 0.  1.
</event>
<event>
 5    1  0.2086375E-009  0.3882893E+03  0.7957747E-01  0.3415841E+00
         13   -1    0    0    0    0  0.00000000000E+00  0.00000000000E+00  0.14999999963E+04  0.15000000000E+04  0.10566000000E+00 0.  1.
        994   -1    0    0    0    0 -0.00000000000E+00 -0.00000000000E+00  0.11368683772E-12  0.17120000000E+03  0.17120000000E+03 0.  0.
         13    1    1    2    0    0  0.23763567469E+03 -0.24510078029E+03  0.86354178755E+03  0.92857392619E+03  0.10566000000E+00 0.  1.
        994    1    1    2    0    0 -0.23793571789E+03  0.24533172268E+03  0.63566666803E+03  0.74174295604E+03  0.17120000000E+03 0.  0.
        998    1    1    2    0    0  0.30004320219E+00 -0.23094239370E+00  0.79154070368E+00  0.88311777129E+00  0.10000000000E+00 0.  0.
</event>
<event>
 5    1  0.2022058E-009  0.3883007E+03  0.7957747E-01  0.3415793E+00
         13   -1    0    0    0    0  0.00000000000E+00  0.00000000000E+00  0.14999999963E+04  0.15000000000E+04  0.10566000000E+00 0. -1.
        994   -1    0    0    0    0 -0.00000000000E+00 -0.00000000000E+00  0.11368683772E-12  0.17120000000E+03  0.17120000000E+03 0.  0.
         13    1    1    2    0    0  0.24819559899E+02 -0.37005078595E+02  0.18144631257E+03  0.18683726048E+03  0.10566000000E+00 0. -1.
        994    1    1    2    0    0 -0.15994290061E+03  0.23741643345E+03  0.33959787850E+03  0.47600887955E+03  0.17120000000E+03 0.  0.
        998    1    1    2    0    0  0.13512334071E+03 -0.20041135486E+03  0.97895580521E+03  0.10083538600E+04  0.10000000000E+00 0. -1.
</event>
<event>
 5    1  0.2022058E-009  0.3883008E+03  0.7957747E-01  0.3415793E+00
         13   -1    0    0    0    0  0.00000000000E+00  0.00000000000E+00  0.14999999963E+04  0.15000000000E+04  0.10566000000E+00 0.  1.
        994   -1    0    0    0    0 -0.00000000000E+00 -0.00000000000E+00  0.11368683772E-12  0.17120000000E+03  0.17120000000E+03 0.  0.
         13    1    1    2    0    0  0.62452252663E+02  0.22454320356E+03  0.11696007006E+04  0.11925962201E+04  0.10566000000E+00 0.  1.
        994    1    1    2    0    0 -0.67273719084E+02 -0.24162276711E+03  0.24162080428E+03  0.38806876701E+03  0.17120000000E+03 0.  0.
        998    1    1    2    0    0  0.48214664208E+01  0.17079563544E+02  0.88778491378E+02  0.90535012900E+02  0.10000000000E+00 0.  1.
</event>
<event>
 5    1  0.2022058E-009  0.3882413E+03  0.7957747E-01  0.3416041E+00
         13   -1    0    0    0    0  0.00000000000E+00  0.00000000000E+00  0.14999999963E+04  0.15000000000E+04  0.10566000000E+00 0. -1.
        994   -1    0    0    0    0 -0.00000000000E+00 -0.00000000000E+00  0.11368683772E-12  0.17120000000E+03  0.17120000000E+03 0.  0.
         13    1    1    2    0    0  0.91679911009E+02 -0.22120795789E+03  0.12619466483E+04  0.12844639042E+04  0.10566000000E+00 0. -1.
        994    1    1    2    0    0 -0.93638971264E+02  0.22332516930E+03  0.22207326936E+03  0.37049745633E+03  0.17120000000E+03 0.  0.
        998    1    1    2    0    0  0.19590602548E+01 -0.21172114108E+01  0.15980078592E+02  0.16238639507E+02  0.10000000000E+00 0.  1.
</event>
<event>
 5    1  0.2022058E-009  0.3882731E+03  0.7957747E-01  0.3415908E+00
         13   -1    0    0    0    0  0.00000000000E+00  0.00000000000E+00  0.14999999963E+04  0.15000000000E+04  0.10566000000E+00 0.  1.
        994   -1    0    0    0    0 -0.00000000000E+00 -0.00000000000E+00  0.11368683772E-12  0.17120000000E+03  0.17120000000E+03 0.  0.
         13    1    1    2    0    0 -0.20982253914E+03  0.13246381168E+03  0.12426884478E+04  0.12672200870E+04  0.10566000000E+00 0.  1.
        994    1    1    2    0    0  0.21191536985E+03 -0.13460359341E+03  0.24222305960E+03  0.38859709461E+03  0.17120000000E+03 0.  0.
        998    1    1    2    0    0 -0.20928307102E+01  0.21397817217E+01  0.15088488880E+02  0.15382818431E+02  0.10000000000E+00 0.  0.
</event>
<event>
 5    1  0.2022058E-009  0.3858721E+03  0.7957747E-01  0.3425982E+00
         13   -1    0    0    0    0  0.00000000000E+00  0.00000000000E+00  0.14999999963E+04  0.15000000000E+04  0.10566000000E+00 0. -1.
        994   -1    0    0    0    0 -0.00000000000E+00 -0.00000000000E+00  0.11368683772E-12  0.17120000000E+03  0.17120000000E+03 0.  0.
         13    1    1    2    0    0 -0.80225983627E+02  0.17800963794E+03  0.11790297386E+04  0.11950877689E+04  0.10566000000E+00 0. -1.
        994    1    1    2    0    0  0.69761555552E+02 -0.20538849021E+03  0.17468185728E+03  0.32691634681E+03  0.17120000000E+03 0.  0.
        998    1    1    2    0    0  0.10464428075E+02  0.27378852278E+02  0.14628840040E+03  0.14919588432E+03  0.10000000000E+00 0. -1.
</event>
<event>
 5    1  0.2022058E-009  0.3882301E+03  0.7957747E-01  0.3416087E+00
         13   -1    0    0    0    0  0.00000000000E+00  0.00000000000E+00  0.14999999963E+04  0.15000000000E+04  0.10566000000E+00 0.  1.
        994   -1    0    0    0    0 -0.00000000000E+00 -0.00000000000E+00  0.11368683772E-12  0.17120000000E+03  0.17120000000E+03 0.  0.
         13    1    1    2    0    0 -0.33732550247E+03  0.44973076369E+02  0.81884363044E+03  0.88674459372E+03  0.10566000000E+00 0.  1.
        994    1    1    2    0    0  0.34121779519E+03 -0.46553781281E+02  0.66997832437E+03  0.77251358139E+03  0.17120000000E+03 0.  0.
        998    1    1    2    0    0 -0.38922927176E+01  0.15807049115E+01  0.11178041476E+02  0.11941824896E+02  0.10000000000E+00 0. -1.
</event>
<event>
 5    1  0.2022058E-009  0.3882933E+03  0.7957747E-01  0.3415824E+00
         13   -1    0    0    0    0  0.00000000000E+00  0.00000000000E+00  0.14999999963E+04  0.15000000000E+04  0.10566000000E+00 0.  1.
        994   -1    0    0    0    0 -0.00000000000E+00 -0.00000000000E+00  0.11368683772E-12  0.17120000000E+03  0.17120000000E+03 0.  0.
         13    1    1    2    0    0 -0.18258304436E+03 -0.13058438404E+03  0.12987184969E+04  0.13179751875E+04  0.10566000000E+00 0.  1.
        994    1    1    2    0    0  0.18405545848E+03  0.13157939155E+03  0.18921966143E+03  0.34103235675E+03  0.17120000000E+03 0.  0.
        998    1    1    2    0    0 -0.14724141113E+01 -0.99500751129E+00  0.12061837954E+02  0.12192455786E+02  0.10000000000E+00 0. -1.
</event>
<event>
 5    1  0.2022058E-009  0.3874898E+03  0.7957747E-01  0.3419181E+00
         13   -1    0    0    0    0  0.00000000000E+00  0.00000000000E+00  0.14999999963E+04  0.15000000000E+04  0.10566000000E+00 0.  1.
        994   -1    0    0    0    0 -0.00000000000E+00 -0.00000000000E+00  0.11368683772E-12  0.17120000000E+03  0.17120000000E+03 0.  0.
         13    1    1    2    0    0  0.22523776939E+03 -0.11285225127E+03  0.11185325820E+04  0.11465525856E+04  0.10566000000E+00 0.  1.
        994    1    1    2    0    0 -0.23529521165E+03  0.12235222290E+03  0.27911774998E+03  0.42136689646E+03  0.17120000000E+03 0.  0.
        998    1    1    2    0    0  0.10057442267E+02 -0.94999716270E+01  0.10234966432E+03  0.10328051797E+03  0.10000000000E+00 0.  1.
</event>
<event>
 5    1  0.2022058E-009  0.3882170E+03  0.7957747E-01  0.3416142E+00
         13   -1    0    0    0    0  0.00000000000E+00  0.00000000000E+00  0.14999999963E+04  0.15000000000E+04  0.10566000000E+00 0. -1.
        994   -1    0    0    0    0 -0.00000000000E+00 -0.00000000000E+00  0.11368683772E-12  0.17120000000E+03  0.17120000000E+03 0.  0.
         13    1    1    2    0    0  0.23234879113E+03  0.90122022945E+02  0.12204396436E+04  0.12456246925E+04  0.10566000000E+00 0. -1.
        994    1    1    2    0    0 -0.23677333166E+03 -0.93588594903E+02  0.25080024949E+03  0.39627091847E+03  0.17120000000E+03 0.  0.
        998    1    1    2    0    0  0.44245405360E+01  0.34665719576E+01  0.28760103217E+02  0.29304389043E+02  0.10000000000E+00 0. -1.
</event>
<event>
 5    1  0.2022058E-009  0.3883008E+03  0.7957747E-01  0.3415793E+00
         13   -1    0    0    0    0  0.00000000000E+00  0.00000000000E+00  0.14999999963E+04  0.15000000000E+04  0.10566000000E+00 0.  1.
        994   -1    0    0    0    0 -0.00000000000E+00 -0.00000000000E+00  0.11368683772E-12  0.17120000000E+03  0.17120000000E+03 0.  0.
         13    1    1    2    0    0  0.31185089874E+02 -0.20641037752E+03  0.12317997808E+04  0.12493632238E+04  0.10566000000E+00 0.  1.
        994    1    1    2    0    0 -0.33328043798E+02  0.22056643003E+03  0.18312677399E+03  0.33556692911E+03  0.17120000000E+03 0.  0.
        998    1    1    2    0    0  0.21429539235E+01 -0.14156052513E+02  0.85073441480E+02  0.86269847105E+02  0.10000000000E+00 0.  0.
</event>
<event>
 5    1  0.2022058E-009  0.3882996E+03  0.7957747E-01  0.3415798E+00
         13   -1    0    0    0    0  0.00000000000E+00  0.00000000000E+00  0.14999999963E+04  0.15000000000E+04  0.10566000000E+00 0.  1.
        994   -1    0    0    0    0 -0.00000000000E+00 -0.00000000000E+00  0.11368683772E-12  0.17120000000E+03  0.17120000000E+03 0.  0.
         13    1    1    2    0    0  0.29623536375E+03 -0.38888331402E+02  0.10802357092E+04  0.11207929745E+04  0.10566000000E+00 0.  1.
        994    1    1    2    0    0 -0.30100125642E+03  0.39665333914E+02  0.40230082508E+03  0.53228797557E+03  0.17120000000E+03 0.  0.
        998    1    1    2    0    0  0.47658926723E+01 -0.77700251143E+00  0.17463461997E+02  0.18119049942E+02  0.10000000000E+00 0. -1.
</event>
<event>
 5    1  0.2022058E-009  0.3882963E+03  0.7957747E-01  0.3415812E+00
         13   -1    0    0    0    0  0.00000000000E+00  0.00000000000E+00  0.14999999963E+04  0.15000000000E+04  0.10566000000E+00 0.  1.
        994   -1    0    0    0    0 -0.00000000000E+00 -0.00000000000E+00  0.11368683772E-12  0.17120000000E+03  0.17120000000E+03 0.  0.
         13    1    1    2    0    0  0.34540317569E+01  0.21482152928E+03  0.12245586139E+04  0.12432634596E+04  0.10566000000E+00 0.  1.
        994    1    1    2    0    0 -0.31596211371E+01 -0.22868082614E+03  0.19400635533E+03  0.34533000066E+03  0.17120000000E+03 0.  0.
        998    1    1    2    0    0 -0.29441061975E+00  0.13859296864E+02  0.81435027018E+02  0.82606539769E+02  0.10000000000E+00 0. -1.
</event>
<event>
 5    1  0.2022058E-009  0.3881971E+03  0.7957747E-01  0.3416225E+00
         13   -1    0    0    0    0  0.00000000000E+00  0.00000000000E+00  0.14999999963E+04  0.15000000000E+04  0.10566000000E+00 0.  1.
        994   -1    0    0    0    0 -0.00000000000E+00 -0.00000000000E+00  0.11368683772E-12  0.17120000000E+03  0.17120000000E+03 0.  0.
         13    1    1    2    0    0  0.88779455681E+02  0.21625297349E+03  0.12637959725E+04  0.12852343800E+04  0.10566000000E+00 0.  1.
        994    1    1    2    0    0 -0.91271680605E+02 -0.21892556188E+03  0.21144838420E+03  0.36094151951E+03  0.17120000000E+03 0.  0.
        998    1    1    2    0    0  0.24922249241E+01  0.26725883901E+01  0.24755639592E+02  0.25024100491E+02  0.10000000000E+00 0. -1.
</event>
<event>
 5    1  0.2022058E-009  0.3877752E+03  0.7957747E-01  0.3417987E+00
         13   -1    0    0    0    0  0.00000000000E+00  0.00000000000E+00  0.14999999963E+04  0.15000000000E+04  0.10566000000E+00 0. -1.
        994   -1    0    0    0    0 -0.00000000000E+00 -0.00000000000E+00  0.11368683772E-12  0.17120000000E+03  0.17120000000E+03 0.  0.
         13    1    1    2    0    0  0.19609435633E+03  0.14816200857E+03  0.11001405115E+04  0.11272595680E+04  0.10566000000E+00 0. -1.
        994    1    1    2    0    0 -0.21312252601E+03 -0.15667877771E+03  0.27675169435E+03  0.41936903892E+03  0.17120000000E+03 0.  0.
        998    1    1    2    0    0  0.17028169672E+02  0.85167691363E+01  0.12310779041E+03  0.12457139309E+03  0.10000000000E+00 0.  1.
</event>
<event>
 5    1  0.2022058E-009  0.3882823E+03  0.7957747E-01  0.3415870E+00
         13   -1    0    0    0    0  0.00000000000E+00  0.00000000000E+00  0.14999999963E+04  0.15000000000E+04  0.10566000000E+00 0.  1.
        994   -1    0    0    0    0 -0.00000000000E+00 -0.00000000000E+00  0.11368683772E-12  0.17120000000E+03  0.17120000000E+03 0.  0.
         13    1    1    2    0    0 -0.29471189472E+03 -0.25611447198E+01  0.11186380166E+04  0.11568114296E+04  0.10566000000E+00 0.  1.
        994    1    1    2    0    0  0.29645953942E+03  0.21946431221E+01  0.37494297683E+03  0.50772507408E+03  0.17120000000E+03 0.  0.
        998    1    1    2    0    0 -0.17476447036E+01  0.36650159771E+00  0.64190028882E+01  0.66634963427E+01  0.10000000000E+00 0. -1.
</event>
<event>
 5    1  0.2022058E-009  0.3882334E+03  0.7957747E-01  0.3416074E+00
         13   -1    0    0    0    0  0.00000000000E+00  0.00000000000E+00  0.14999999963E+04  0.15000000000E+04  0.10566000000E+00 0.  1.
        994   -1    0    0    0    0 -0.00000000000E+00 -0.00000000000E+00  0.11368683772E-12  0.17120000000E+03  0.17120000000E+03 0.  0.
         13    1    1    2    0    0 -0.11020961580E+03 -0.21411909793E+03  0.12795280880E+04  0.13019928136E+04  0.10566000000E+00 0.  1.
        994    1    1    2    0    0  0.11030249766E+03  0.21443050541E+03  0.21984744733E+03  0.36849616380E+03  0.17120000000E+03 0.  0.
        998    1    1    2    0    0 -0.92881856058E-01 -0.31140748230E+00  0.62446098274E+00  0.71102262846E+00  0.10000000000E+00 0. -1.
</event>
<event>
 5    1  0.2022058E-009  0.3821736E+03  0.7957747E-01  0.3441749E+00
         13   -1    0    0    0    0  0.00000000000E+00  0.00000000000E+00  0.14999999963E+04  0.15000000000E+04  0.10566000000E+00 0. -1.
        994   -1    0    0    0    0 -0.00000000000E+00 -0.00000000000E+00  0.11368683772E-12  0.17120000000E+03  0.17120000000E+03 0.  0.
         13    1    1    2    0    0  0.11481310445E+02  0.16601979569E+02  0.37094997199E+02  0.42231459795E+02  0.10566000000E+00 0. -1.
        994    1    1    2    0    0  0.25066638889E+02 -0.20823241255E+03  0.16622107478E+03  0.31769161103E+03  0.17120000000E+03 0.  0.
        998    1    1    2    0    0 -0.36547949333E+02  0.19163043298E+03  0.12966839243E+04  0.13112769292E+04  0.10000000000E+00 0. -1.
</event>
<event>
 5    1  0.2022058E-009  0.3883007E+03  0.7957747E-01  0.3415793E+00
         13   -1    0    0    0    0  0.00000000000E+00  0.00000000000E+00  0.14999999963E+04  0.15000000000E+04  0.10566000000E+00 0.  1.
        994   -1    0    0    0    0 -0.00000000000E+00 -0.00000000000E+00  0.11368683772E-12  0.17120000000E+03  0.17120000000E+03 0.  0.
         13    1    1    2    0    0 -0.10779267695E+03 -0.17284987668E+03  0.11490069602E+04  0.11669247391E+04  0.10566000000E+00 0.  1.
        994    1    1    2    0    0  0.12210279652E+03  0.19569313295E+03  0.19789412687E+03  0.34882147390E+03  0.17120000000E+03 0.  0.
        998    1    1    2    0    0 -0.14310119566E+02 -0.22843256277E+02  0.15309890925E+03  0.15545378700E+03  0.10000000000E+00 0.  1.
</event>
<event>
 5    1  0.2022058E-009  0.3791603E+03  0.7957747E-01  0.3454823E+00
         13   -1    0    0    0    0  0.00000000000E+00  0.00000000000E+00  0.14999999963E+04  0.15000000000E+04  0.10566000000E+00 0. -1.
        994   -1    0    0    0    0 -0.00000000000E+00 -0.00000000000E+00  0.11368683772E-12  0.17120000000E+03  0.17120000000E+03 0.  0.
         13    1    1    2    0    0  0.19427900156E+01  0.51464344120E+02  0.19242697134E+03  0.19919965766E+03  0.10566000000E+00 0. -1.
        994    1    1    2    0    0 -0.11102204098E+03 -0.10005837451E+03  0.83496498645E+02  0.24211294302E+03  0.17120000000E+03 0.  0.
        998    1    1    2    0    0  0.10907925097E+03  0.48594030385E+02  0.12240765263E+04  0.12298873993E+04  0.10000000000E+00 0. -1.
</event>
<event>
 5    1  0.2022058E-009  0.3876006E+03  0.7957747E-01  0.3418717E+00
         13   -1    0    0    0    0  0.00000000000E+00  0.00000000000E+00  0.14999999963E+04  0.15000000000E+04  0.10566000000E+00 0. -1.
        994   -1    0    0    0    0 -0.00000000000E+00 -0.00000000000E+00  0.11368683772E-12  0.17120000000E+03  0.17120000000E+03 0.  0.
         13    1    1    2    0    0  0.27813123689E+03 -0.11775456670E+03  0.89027796596E+03  0.94011594537E+03  0.10566000000E+00 0. -1.
        994    1    1    2    0    0 -0.30430074850E+03  0.11948701301E+03  0.52023073280E+03  0.63782877574E+03  0.17120000000E+03 0.  0.
        998    1    1    2    0    0  0.26169511608E+02 -0.17324463121E+01  0.89491297518E+02  0.93255278882E+02  0.10000000000E+00 0. -1.
</event>
<event>
 5    1  0.2022058E-009  0.3882959E+03  0.7957747E-01  0.3415813E+00
         13   -1    0    0    0    0  0.00000000000E+00  0.00000000000E+00  0.14999999963E+04  0.15000000000E+04  0.10566000000E+00 0. -1.
        994   -1    0    0    0    0 -0.00000000000E+00 -0.00000000000E+00  0.11368683772E-12  0.17120000000E+03  0.17120000000E+03 0.  0.
         13    1    1    2    0    0 -0.18335685767E+03 -0.92595523416E+02  0.91334006483E+03  0.93615370180E+03  0.10566000000E+00 0. -1.
        994    1    1    2    0    0  0.24119983735E+03  0.12188986264E+03  0.29134063445E+03  0.43269308457E+03  0.17120000000E+03 0.  0.
        998    1    1    2    0    0 -0.57842979686E+02 -0.29294339226E+02  0.29531929700E+03  0.30235321363E+03  0.10000000000E+00 0.  0.
</event>
<event>
 5    1  0.2022058E-009  0.3882977E+03  0.7957747E-01  0.3415805E+00
         13   -1    0    0    0    0  0.00000000000E+00  0.00000000000E+00  0.14999999963E+04  0.15000000000E+04  0.10566000000E+00 0. -1.
        994   -1    0    0    0    0 -0.00000000000E+00 -0.00000000000E+00  0.11368683772E-12  0.17120000000E+03  0.17120000000E+03 0.  0.
         13    1    1    2    0    0  0.14358026159E+03 -0.16987078451E+03  0.13093293116E+04  0.13280868317E+04  0.10566000000E+00 0. -1.
        994    1    1    2    0    0 -0.14429781909E+03  0.17063182882E+03  0.18387971246E+03  0.33624138689E+03  0.17120000000E+03 0.  0.
        998    1    1    2    0    0  0.71755749424E+00 -0.76104431644E+00  0.67909721778E+01  0.68717814523E+01  0.10000000000E+00 0.  0.
</event>
<event>
 5    1  0.2022058E-009  0.3724154E+03  0.7957747E-01  0.3484863E+00
         13   -1    0    0    0    0  0.00000000000E+00  0.00000000000E+00  0.14999999963E+04  0.15000000000E+04  0.10566000000E+00 0. -1.
        994   -1    0    0    0    0 -0.00000000000E+00 -0.00000000000E+00  0.11368683772E-12  0.17120000000E+03  0.17120000000E+03 0.  0.
         13    1    1    2    0    0 -0.42364982605E+02  0.21289249751E+02  0.24148703502E+03  0.24609758867E+03  0.10566000000E+00 0. -1.
        994    1    1    2    0    0 -0.83545953702E+02 -0.71126095914E+02  0.50495335886E+02  0.20951865513E+03  0.17120000000E+03 0.  0.
        998    1    1    2    0    0  0.12591093631E+03  0.49836846163E+02  0.12080176254E+04  0.12155837562E+04  0.10000000000E+00 0.  1.
</event>
<event>
 5    1  0.2022058E-009  0.3878147E+03  0.7957747E-01  0.3417822E+00
         13   -1    0    0    0    0  0.00000000000E+00  0.00000000000E+00  0.14999999963E+04  0.15000000000E+04  0.10566000000E+00 0. -1.
        994   -1    0    0    0    0 -0.00000000000E+00 -0.00000000000E+00  0.11368683772E-12  0.17120000000E+03  0.17120000000E+03 0.  0.
         13    1    1    2    0    0 -0.14109945050E+03 -0.83632694575E+02  0.74000664270E+03  0.75796657244E+03  0.10566000000E+00 0. -1.
        994    1    1    2    0    0  0.23096370077E+03  0.11816836665E+03  0.26349854684E+03  0.40749100375E+03  0.17120000000E+03 0.  0.
        998    1    1    2    0    0 -0.89864250263E+02 -0.34535672080E+02  0.49649480674E+03  0.50574242381E+03  0.10000000000E+00 0.  1.
</event>
<event>
 5    1  0.2022058E-009  0.3882915E+03  0.7957747E-01  0.3415831E+00
         13   -1    0    0    0    0  0.00000000000E+00  0.00000000000E+00  0.14999999963E+04  0.15000000000E+04  0.10566000000E+00 0.  1.
        994   -1    0    0    0    0 -0.00000000000E+00 -0.00000000000E+00  0.11368683772E-12  0.17120000000E+03  0.17120000000E+03 0.  0.
         13    1    1    2    0    0  0.92949970572E+01  0.20940592241E+03  0.12536752128E+04  0.12710778055E+04  0.10566000000E+00 0.  1.
        994    1    1    2    0    0 -0.10643340378E+02 -0.22053435408E+03  0.17886893342E+03  0.33174119034E+03  0.17120000000E+03 0.  0.
        998    1    1    2    0    0  0.13483433208E+01  0.11128431678E+02  0.67455850088E+02  0.68381004178E+02  0.10000000000E+00 0. -1.
</event>
<event>
 5    1  0.2022058E-009  0.3805662E+03  0.7957747E-01  0.3448697E+00
         13   -1    0    0    0    0  0.00000000000E+00  0.00000000000E+00  0.14999999963E+04  0.15000000000E+04  0.10566000000E+00 0. -1.
        994   -1    0    0    0    0 -0.00000000000E+00 -0.00000000000E+00  0.11368683772E-12  0.17120000000E+03  0.17120000000E+03 0.  0.
         13    1    1    2    0    0  0.98041282050E+02 -0.90788277040E+02  0.68438046169E+03  0.69730282643E+03  0.10566000000E+00 0. -1.
        994    1    1    2    0    0 -0.10413886421E+03  0.22750158677E+03  0.25298188496E+03  0.39485585869E+03  0.17120000000E+03 0.  0.
        998    1    1    2    0    0  0.60975821628E+01 -0.13671330973E+03  0.56263764962E+03  0.57904131488E+03  0.10000000000E+00 0. -1.
</event>
<event>
 5    1  0.2022058E-009  0.3882261E+03  0.7957747E-01  0.3416104E+00
         13   -1    0    0    0    0  0.00000000000E+00  0.00000000000E+00  0.14999999963E+04  0.15000000000E+04  0.10566000000E+00 0.  1.
        994   -1    0    0    0    0 -0.00000000000E+00 -0.00000000000E+00  0.11368683772E-12  0.17120000000E+03  0.17120000000E+03 0.  0.
         13    1    1    2    0    0 -0.14092155895E+03 -0.15470972385E+03  0.99952069513E+03  0.10211932313E+04  0.10566000000E+00 0.  1.
        994    1    1    2    0    0  0.17585898274E+03  0.18727794614E+03  0.25643524738E+03  0.40133263886E+03  0.17120000000E+03 0.  0.
        998    1    1    2    0    0 -0.34937423783E+02 -0.32568222296E+02  0.24404405377E+03  0.24867412987E+03  0.10000000000E+00 0.  1.
</event>
<event>
 5    1  0.2022058E-009  0.3882786E+03  0.7957747E-01  0.3415885E+00
         13   -1    0    0    0    0  0.00000000000E+00  0.00000000000E+00  0.14999999963E+04  0.15000000000E+04  0.10566000000E+00 0. -1.
        994   -1    0    0    0    0 -0.00000000000E+00 -0.00000000000E+00  0.11368683772E-12  0.17120000000E+03  0.17120000000E+03 0.  0.
         13    1    1    2    0    0  0.30669309887E+02  0.22541589279E+03  0.12828271438E+04  0.13028424400E+04  0.10566000000E+00 0. -1.
        994    1    1    2    0    0 -0.31339381162E+02 -0.22821692467E+03  0.19731726770E+03  0.34829393570E+03  0.17120000000E+03 0.  0.
        998    1    1    2    0    0  0.67007127537E+00  0.28010318730E+01  0.19855584743E+02  0.20063624313E+02  0.10000000000E+00 0. -1.
</event>
<event>
 5    1  0.2022058E-009  0.3870373E+03  0.7957747E-01  0.3421077E+00
         13   -1    0    0    0    0  0.00000000000E+00  0.00000000000E+00  0.14999999963E+04  0.15000000000E+04  0.10566000000E+00 0. -1.
        994   -1    0    0    0    0 -0.00000000000E+00 -0.00000000000E+00  0.11368683772E-12  0.17120000000E+03  0.17120000000E+03 0.  0.
         13    1    1    2    0    0  0.55850109581E+02  0.20516881922E+03  0.11380599029E+04  0.11577537876E+04  0.10566000000E+00 0. -1.
        994    1    1    2    0    0 -0.76812368449E+02 -0.22445297961E+03  0.21318765912E+03  0.36199129548E+03  0.17120000000E+03 0.  0.
        998    1    1    2    0    0  0.20962258868E+02  0.19284160393E+02  0.14875243429E+03  0.15145491688E+03  0.10000000000E+00 0. -1.
</event>
<event>
 5    1  0.2022058E-009  0.3871485E+03  0.7957747E-01  0.3420611E+00
         13   -1    0    0    0    0  0.00000000000E+00  0.00000000000E+00  0.14999999963E+04  0.15000000000E+04  0.10566000000E+00 0. -1.
        994   -1    0    0    0    0 -0.00000000000E+00 -0.00000000000E+00  0.11368683772E-12  0.17120000000E+03  0.17120000000E+03 0.  0.
         13    1    1    2    0    0  0.93395477481E+02  0.13394591880E+03  0.92087854940E+03  0.93524410625E+03  0.10566000000E+00 0. -1.
        994    1    1    2    0    0 -0.11104295063E+03 -0.18076137698E+03  0.16464175807E+03  0.31846751921E+03  0.17120000000E+03 0.  0.
        998    1    1    2    0    0  0.17647473149E+02  0.46815458179E+02  0.41447968881E+03  0.41748837453E+03  0.10000000000E+00 0.  1.
</event>
<event>
 5    1  0.2022058E-009  0.3882847E+03  0.7957747E-01  0.3415860E+00
         13   -1    0    0    0    0  0.00000000000E+00  0.00000000000E+00  0.14999999963E+04  0.15000000000E+04  0.10566000000E+00 0. -1.
        994   -1    0    0    0    0 -0.00000000000E+00 -0.00000000000E+00  0.11368683772E-12  0.17120000000E+03  0.17120000000E+03 0.  0.
         13    1    1    2    0    0  0.25322031252E+03 -0.53776638233E+01  0.11685708958E+04  0.11957037240E+04  0.10566000000E+00 0. -1.
        994    1    1    2    0    0 -0.26520487957E+03  0.46368174640E+01  0.27774005863E+03  0.42048080621E+03  0.17120000000E+03 0.  0.
        998    1    1    2    0    0  0.11984567044E+02  0.74084635922E+00  0.53689041859E+02  0.55015469791E+02  0.10000000000E+00 0.  1.
</event>
<event>
 5    1  0.2022058E-009  0.3882926E+03  0.7957747E-01  0.3415827E+00
         13   -1    0    0    0    0  0.00000000000E+00  0.00000000000E+00  0.14999999963E+04  0.15000000000E+04  0.10566000000E+00 0.  1.
        994   -1    0    0    0    0 -0.00000000000E+00 -0.00000000000E+00  0.11368683772E-12  0.17120000000E+03  0.17120000000E+03 0.  0.
         13    1    1    2    0    0 -0.15181151926E+03  0.17528970991E+03  0.12483686935E+04  0.12697234446E+04  0.10566000000E+00 0.  1.
        994    1    1    2    0    0  0.15676833946E+03 -0.18010253885E+03  0.21467318827E+03  0.36387807645E+03  0.17120000000E+03 0.  0.
        998    1    1    2    0    0 -0.49568201992E+01  0.48128289332E+01  0.36958114542E+02  0.37598478949E+02  0.10000000000E+00 0.  1.
</event>
<event>
 5    1  0.2022058E-009  0.3882990E+03  0.7957747E-01  0.3415800E+00
         13   -1    0    0    0    0  0.00000000000E+00  0.00000000000E+00  0.14999999963E+04  0.15000000000E+04  0.10566000000E+00 0.  1.
        994   -1    0    0    0    0 -0.00000000000E+00 -0.00000000000E+00  0.11368683772E-12  0.17120000000E+03  0.17120000000E+03 0.  0.
         13    1    1    2    0    0  0.21463463581E+03 -0.99271641855E+02  0.11759416209E+04  0.11994838860E+04  0.10566000000E+00 0.  1.
        994    1    1    2    0    0 -0.22934880827E+03  0.10585517639E+03  0.24585255876E+03  0.39186619512E+03  0.17120000000E+03 0.  0.
        998    1    1    2    0    0  0.14714172464E+02 -0.65835345375E+01  0.78205816619E+02  0.79849918919E+02  0.10000000000E+00 0.  1.
</event>
<event>
 5    1  0.2022058E-009  0.3882887E+03  0.7957747E-01  0.3415843E+00
         13   -1    0    0    0    0  0.00000000000E+00  0.00000000000E+00  0.14999999963E+04  0.15000000000E+04  0.10566000000E+00 0. -1.
        994   -1    0    0    0    0 -0.00000000000E+00 -0.00000000000E+00  0.11368683772E-12  0.17120000000E+03  0.17120000000E+03 0.  0.
         13    1    1    2    0    0 -0.20829084602E+03 -0.88962807312E+00  0.11595720819E+04  0.11781312712E+04  0.10566000000E+00 0. -1.
        994    1    1    2    0    0  0.23374930427E+03  0.20760190134E+01  0.20418613146E+03  0.35446362773E+03  0.17120000000E+03 0.  0.
        998    1    1    2    0    0 -0.25458458253E+02 -0.11863909402E+01  0.13624178291E+03  0.13860510102E+03  0.10000000000E+00 0.  1.
</event>
<event>
 5    1  0.2022058E-009  0.3883009E+03  0.7957747E-01  0.3415792E+00
         13   -1    0    0    0    0  0.00000000000E+00  0.00000000000E+00  0.14999999963E+04  0.15000000000E+04  0.10566000000E+00 0. -1.
        994   -1    0    0    0    0 -0.00000000000E+00 -0.00000000000E+00  0.11368683772E-12  0.17120000000E+03  0.17120000000E+03 0.  0.
         13    1    1    2    0    0 -0.14582866277E+03 -0.70396787433E+02  0.93573309317E+03  0.94964105818E+03  0.10566000000E+00 0. -1.
        994    1    1    2    0    0  0.20418281706E+03  0.98390949275E+02  0.18998832104E+03  0.34172562651E+03  0.17120000000E+03 0.  0.
        998    1    1    2    0    0 -0.58354154296E+02 -0.27994161842E+02  0.37427858207E+03  0.37983331531E+03  0.10000000000E+00 0.  1.
</event>
<event>
 5    1  0.2022058E-009  0.3882990E+03  0.7957747E-01  0.3415800E+00
         13   -1    0    0    0    0  0.00000000000E+00  0.00000000000E+00  0.14999999963E+04  0.15000000000E+04  0.10566000000E+00 0. -1.
        994   -1    0    0    0    0 -0.00000000000E+00 -0.00000000000E+00  0.11368683772E-12  0.17120000000E+03  0.17120000000E+03 0.  0.
         13    1    1    2    0    0  0.24570918556E+02  0.26659661927E+03  0.11065143126E+04  0.11384425425E+04  0.10566000000E+00 0. -1.
        994    1    1    2    0    0 -0.26194826054E+02 -0.28176465615E+03  0.32905285025E+03  0.46654336200E+03  0.17120000000E+03 0.  0.
        998    1    1    2    0    0  0.16239074984E+01  0.15168036883E+02  0.64432833416E+02  0.66214095481E+02  0.10000000000E+00 0. -1.
</event>
<event>
 5    1  0.2022058E-009  0.3869171E+03  0.7957747E-01  0.3421582E+00
         13   -1    0    0    0    0  0.00000000000E+00  0.00000000000E+00  0.14999999963E+04  0.15000000000E+04  0.10566000000E+00 0.  1.
        994   -1    0    0    0    0 -0.00000000000E+00 -0.00000000000E+00  0.11368683772E-12  0.17120000000E+03  0.17120000000E+03 0.  0.
         13    1    1    2    0    0  0.20774045100E+03  0.22813208520E+02  0.12140539336E+04  0.12319105091E+04  0.10566000000E+00 0.  1.
        994    1    1    2    0    0 -0.22259807682E+03 -0.11907585944E+02  0.18457701042E+03  0.33625854217E+03  0.17120000000E+03 0.  0.
        998    1    1    2    0    0  0.14857625828E+02 -0.10905622576E+02  0.10136905226E+03  0.10303094877E+03  0.10000000000E+00 0.  1.
</event>
<event>
 5    1  0.2022058E-009  0.3883007E+03  0.7957747E-01  0.3415793E+00
         13   -1    0    0    0    0  0.00000000000E+00  0.00000000000E+00  0.14999999963E+04  0.15000000000E+04  0.10566000000E+00 0.  1.
        994   -1    0    0    0    0 -0.00000000000E+00 -0.00000000000E+00  0.11368683772E-12  0.17120000000E+03  0.17120000000E+03 0.  0.
         13    1    1    2    0    0 -0.13929195452E+03  0.13403388026E+03  0.84024004427E+03  0.86218946456E+03  0.10566000000E+00 0.  1.
        994    1    1    2    0    0  0.19844880064E+03 -0.19052465545E+03  0.30516329609E+03  0.44510184014E+03  0.17120000000E+03 0.  0.
        998    1    1    2    0    0 -0.59156846123E+02  0.56490775190E+02  0.35459665592E+03  0.36390869530E+03  0.10000000000E+00 0. -1.
</event>
<event>
 5    1  0.2022058E-009  0.3867023E+03  0.7957747E-01  0.3422484E+00
         13   -1    0    0    0    0  0.00000000000E+00  0.00000000000E+00  0.14999999963E+04  0.15000000000E+04  0.10566000000E+00 0.  1.
        994   -1    0    0    0    0 -0.00000000000E+00 -0.00000000000E+00  0.11368683772E-12  0.17120000000E+03  0.17120000000E+03 0.  0.
         13    1    1    2    0    0  0.21025884279E+02 -0.16141399364E+03  0.85191996184E+03  0.86733165381E+03  0.10566000000E+00 0.  1.
        994    1    1    2    0    0 -0.34517106559E+02  0.21460047511E+03  0.17448974228E+03  0.32710992758E+03  0.17120000000E+03 0.  0.
        998    1    1    2    0    0  0.13491222279E+02 -0.53186481463E+02  0.47359029215E+03  0.47675841861E+03  0.10000000000E+00 0. -1.
</event>
<event>
 5    1  0.2022058E-009  0.3881809E+03  0.7957747E-01  0.3416293E+00
         13   -1    0    0    0    0  0.00000000000E+00  0.00000000000E+00  0.14999999963E+04  0.15000000000E+04  0.10566000000E+00 0.  1.
        994   -1    0    0    0    0 -0.00000000000E+00 -0.00000000000E+00  0.11368683772E-12  0.17120000000E+03  0.17120000000E+03 0.  0.
         13    1    1    2    0    0  0.29268705565E+03  0.18802042899E+03  0.69776981855E+03  0.77967950153E+03  0.10566000000E+00 0.  1.
        994    1    1    2    0    0 -0.29338836814E+03 -0.18782064658E+03  0.80080088613E+03  0.88991282105E+03  0.17120000000E+03 0.  0.
        998    1    1    2    0    0  0.70131248959E+00 -0.19978241202E+00  0.14292915984E+01  0.16076774221E+01  0.10000000000E+00 0.  1.
</event>
<event>
 5    1  0.2022058E-009  0.3881927E+03  0.7957747E-01  0.3416243E+00
         13   -1    0    0    0    0  0.00000000000E+00  0.00000000000E+00  0.14999999963E+04  0.15000000000E+04  0.10566000000E+00 0. -1.
        994   -1    0    0    0    0 -0.00000000000E+00 -0.00000000000E+00  0.11368683772E-12  0.17120000000E+03  0.17120000000E+03 0.  0.
         13    1    1    2    0    0  0.19101257461E+03  0.45785892127E+02  0.11653164287E+04  0.11817548569E+04  0.10566000000E+00 0. -1.
        994    1    1    2    0    0 -0.21263953405E+03 -0.53803246569E+02  0.17631049218E+03  0.32940126052E+03  0.17120000000E+03 0.  0.
        998    1    1    2    0    0  0.21626959445E+02  0.80173544421E+01  0.15837307535E+03  0.16004388256E+03  0.10000000000E+00 0.  1.
</event>
<event>
 5    1  0.2022058E-009  0.3881854E+03  0.7957747E-01  0.3416274E+00
         13   -1    0    0    0    0  0.00000000000E+00  0.00000000000E+00  0.14999999963E+04  0.15000000000E+04  0.10566000000E+00 0.  1.
        994   -1    0    0    0    0 -0.00000000000E+00 -0.00000000000E+00  0.11368683772E-12  0.17120000000E+03  0.17120000000E+03 0.  0.
         13    1    1    2    0    0 -0.25448884624E+03  0.57605237523E+02  0.12190325364E+04  0.12466448059E+04  0.10566000000E+00 0.  1.
        994    1    1    2    0    0  0.25557824375E+03 -0.58145287060E+02  0.26968697625E+03  0.41320892808E+03  0.17120000000E+03 0.  0.
        998    1    1    2    0    0 -0.10893975073E+01  0.54004953654E+00  0.11280483672E+02  0.11346266007E+02  0.10000000000E+00 0. -1.
</event>
<event>
 5    1  0.2022058E-009  0.3879549E+03  0.7957747E-01  0.3417236E+00
         13   -1    0    0    0    0  0.00000000000E+00  0.00000000000E+00  0.14999999963E+04  0.15000000000E+04  0.10566000000E+00 0. -1.
        994   -1    0    0    0    0 -0.00000000000E+00 -0.00000000000E+00  0.11368683772E-12  0.17120000000E+03  0.17120000000E+03 0.  0.
         13    1    1    2    0    0  0.18635789941E+03  0.27105959339E+03  0.89973817802E+03  0.95798296957E+03  0.10566000000E+00 0. -1.
        994    1    1    2    0    0 -0.19282973873E+03 -0.27522574953E+03  0.58356018858E+03  0.69482692452E+03  0.17120000000E+03 0.  0.
        998    1    1    2    0    0  0.64718393261E+01  0.41661561440E+01  0.16701629677E+02  0.18390105903E+02  0.10000000000E+00 0.  1.
</event>
<event>
 5    1  0.2022058E-009  0.3882256E+03  0.7957747E-01  0.3416106E+00
         13   -1    0    0    0    0  0.00000000000E+00  0.00000000000E+00  0.14999999963E+04  0.15000000000E+04  0.10566000000E+00 0.  1.
        994   -1    0    0    0    0 -0.00000000000E+00 -0.00000000000E+00  0.11368683772E-12  0.17120000000E+03  0.17120000000E+03 0.  0.
         13    1    1    2    0    0  0.19616172207E+03 -0.71185580262E+02  0.10140425673E+04  0.10352918175E+04  0.10566000000E+00 0.  1.
        994    1    1    2    0    0 -0.24108205696E+03  0.82591841260E+02  0.25136569959E+03  0.39678221402E+03  0.17120000000E+03 0.  0.
        998    1    1    2    0    0  0.44920334894E+02 -0.11406260998E+02  0.23459172942E+03  0.23912596845E+03  0.10000000000E+00 0.  1.
</event>
<event>
 5    1  0.2022058E-009  0.3882412E+03  0.7957747E-01  0.3416041E+00
         13   -1    0    0    0    0  0.00000000000E+00  0.00000000000E+00  0.14999999963E+04  0.15000000000E+04  0.10566000000E+00 0.  1.
        994   -1    0    0    0    0 -0.00000000000E+00 -0.00000000000E+00  0.11368683772E-12  0.17120000000E+03  0.17120000000E+03 0.  0.
         13    1    1    2    0    0 -0.18788308707E+03  0.16929837125E+03  0.11079420044E+04  0.11364407108E+04  0.10566000000E+00 0.  1.
        994    1    1    2    0    0  0.20544391619E+03 -0.18194788340E+03  0.30333273718E+03  0.44343254776E+03  0.17120000000E+03 0.  0.
        998    1    1    2    0    0 -0.17560829112E+02  0.12649512159E+02  0.88725254713E+02  0.91326741433E+02  0.10000000000E+00 0.  1.
</event>
<event>
 5    1  0.2022058E-009  0.3882878E+03  0.7957747E-01  0.3415847E+00
         13   -1    0    0    0    0  0.00000000000E+00  0.00000000000E+00  0.14999999963E+04  0.15000000000E+04  0.10566000000E+00 0. -1.
        994   -1    0    0    0    0 -0.00000000000E+00 -0.00000000000E+00  0.11368683772E-12  0.17120000000E+03  0.17120000000E+03 0.  0.
         13    1    1    2    0    0  0.22777732761E+03  0.15793911787E+02  0.12618349628E+04  0.12823257945E+04  0.10566000000E+00 0. -1.
        994    1    1    2    0    0 -0.23337079192E+03 -0.16760117394E+02  0.20462536253E+03  0.35485744609E+03  0.17120000000E+03 0.  0.
        998    1    1    2    0    0  0.55934643107E+01  0.96620560739E+00  0.33539670913E+02  0.34016759417E+02  0.10000000000E+00 0.  1.
</event>
<event>
 5    1  0.2022058E-009  0.3882996E+03  0.7957747E-01  0.3415798E+00
         13   -1    0    0    0    0  0.00000000000E+00  0.00000000000E+00  0.14999999963E+04  0.15000000000E+04  0.10566000000E+00 0. -1.
        994   -1    0    0    0    0 -0.00000000000E+00 -0.00000000000E+00  0.11368683772E-12  0.17120000000E+03  0.17120000000E+03 0.  0.
         13    1    1    2    0    0  0.47827544829E+02  0.22165990988E+03  0.10775775000E+04  0.11011784003E+04  0.10566000000E+00 0. -1.
        994    1    1    2    0    0 -0.54637688681E+02 -0.25389608548E+03  0.26333375205E+03  0.40755687237E+03  0.17120000000E+03 0.  0.
        998    1    1    2    0    0  0.68101438526E+01  0.32236175599E+02  0.15908874422E+03  0.16246472730E+03  0.10000000000E+00 0. -1.
</event>
<event>
 5    1  0.2022058E-009  0.3873959E+03  0.7957747E-01  0.3419574E+00
         13   -1    0    0    0    0  0.00000000000E+00  0.00000000000E+00  0.14999999963E+04  0.15000000000E+04  0.10566000000E+00 0. -1.
        994   -1    0    0    0    0 -0.00000000000E+00 -0.00000000000E+00  0.11368683772E-12  0.17120000000E+03  0.17120000000E+03 0.  0.
         13    1    1    2    0    0 -0.91173066681E+02 -0.47003590760E+02  0.52435977783E+03  0.53429865563E+03  0.10566000000E+00 0. -1.
        994    1    1    2    0    0  0.21574521180E+03  0.15214824572E+03  0.27607807143E+03  0.41859721287E+03  0.17120000000E+03 0.  0.
        998    1    1    2    0    0 -0.12457214512E+03 -0.10514465496E+03  0.69956214701E+03  0.71830413151E+03  0.10000000000E+00 0. -1.
</event>
<event>
 5    1  0.2022058E-009  0.2748174E+03  0.7957747E-01  0.4094005E+00
         13   -1    0    0    0    0  0.00000000000E+00  0.00000000000E+00  0.14999999963E+04  0.15000000000E+04  0.10566000000E+00 0.  1.
        994   -1    0    0    0    0 -0.00000000000E+00 -0.00000000000E+00  0.11368683772E-12  0.17120000000E+03  0.17120000000E+03 0.  0.
         13    1    1    2    0    0  0.46088748413E+02  0.11135880421E+03  0.66466274712E+03  0.67550095083E+03  0.10566000000E+00 0.  1.
        994    1    1    2    0    0  0.11192375342E+03 -0.11196244876E+03  0.11832500906E+03  0.26148186225E+03  0.17120000000E+03 0.  0.
        998    1    1    2    0    0 -0.15801250184E+03  0.60364455514E+00  0.71701224010E+03  0.73421718692E+03  0.10000000000E+00 0.  1.
</event>
<event>
 5    1  0.2022058E-009  0.3883009E+03  0.7957747E-01  0.3415792E+00
         13   -1    0    0    0    0  0.00000000000E+00  0.00000000000E+00  0.14999999963E+04  0.15000000000E+04  0.10566000000E+00 0. -1.
        994   -1    0    0    0    0 -0.00000000000E+00 -0.00000000000E+00  0.11368683772E-12  0.17120000000E+03  0.17120000000E+03 0.  0.
         13    1    1    2    0    0  0.32601341611E+02  0.18971392960E+03  0.80865937763E+03  0.83125460766E+03  0.10566000000E+00 0. -1.
        994    1    1    2    0    0 -0.47448021048E+02 -0.27644198863E+03  0.32127654071E+03  0.45956451494E+03  0.17120000000E+03 0.  0.
        998    1    1    2    0    0  0.14846679437E+02  0.86728059036E+02  0.37006407794E+03  0.38038087741E+03  0.10000000000E+00 0.  1.
</event>
<event>
 5    1  0.2022058E-009  0.3880217E+03  0.7957747E-01  0.3416957E+00
         13   -1    0    0    0    0  0.00000000000E+00  0.00000000000E+00  0.14999999963E+04  0.15000000000E+04  0.10566000000E+00 0.  1.
        994   -1    0    0    0    0 -0.00000000000E+00 -0.00000000000E+00  0.11368683772E-12  0.17120000000E+03  0.17120000000E+03 0.  0.
         13    1    1    2    0    0 -0.20202899492E+03 -0.45817258466E+02  0.11265029402E+04  0.11453924312E+04  0.10566000000E+00 0.  1.
        994    1    1    2    0    0  0.23623078477E+03  0.48523945408E+02  0.22021419591E+03  0.36873200164E+03  0.17120000000E+03 0.  0.
        998    1    1    2    0    0 -0.34201789857E+02 -0.27066869412E+01  0.15328286017E+03  0.15707556719E+03  0.10000000000E+00 0.  1.
</event>
<event>
 5    1  0.2022058E-009  0.3882961E+03  0.7957747E-01  0.3415812E+00
         13   -1    0    0    0    0  0.00000000000E+00  0.00000000000E+00  0.14999999963E+04  0.15000000000E+04  0.10566000000E+00 0.  1.
        994   -1    0    0    0    0 -0.00000000000E+00 -0.00000000000E+00  0.11368683772E-12  0.17120000000E+03  0.17120000000E+03 0.  0.
         13    1    1    2    0    0  0.20913501509E+03 -0.99747833064E+02  0.12455996918E+04  0.12669671219E+04  0.10566000000E+00 0.  1.
        994    1    1    2    0    0 -0.21608169354E+03  0.10284478106E+03  0.21580885807E+03  0.36489895929E+03  0.17120000000E+03 0.  0.
        998    1    1    2    0    0  0.69466784514E+01 -0.30969479918E+01  0.38591446444E+02  0.39333918786E+02  0.10000000000E+00 0. -1.
</event>
<event>
 5    1  0.2022058E-009  0.3882986E+03  0.7957747E-01  0.3415802E+00
         13   -1    0    0    0    0  0.00000000000E+00  0.00000000000E+00  0.14999999963E+04  0.15000000000E+04  0.10566000000E+00 0. -1.
        994   -1    0    0    0    0 -0.00000000000E+00 -0.00000000000E+00  0.11368683772E-12  0.17120000000E+03  0.17120000000E+03 0.  0.
         13    1    1    2    0    0 -0.20772712202E+03 -0.61939223823E+01  0.97052609639E+03  0.99252699552E+03  0.10566000000E+00 0. -1.
        994    1    1    2    0    0  0.26349028123E+03  0.75680016077E+01  0.27336494056E+03  0.41656000009E+03  0.17120000000E+03 0.  0.
        998    1    1    2    0    0 -0.55763159210E+02 -0.13740792253E+01  0.25610895933E+03  0.26211300438E+03  0.10000000000E+00 0. -1.
</event>
<event>
 5    1  0.2022058E-009  0.3875185E+03  0.7957747E-01  0.3419061E+00
         13   -1    0    0    0    0  0.00000000000E+00  0.00000000000E+00  0.14999999963E+04  0.15000000000E+04  0.10566000000E+00 0.  1.
        994   -1    0    0    0    0 -0.00000000000E+00 -0.00000000000E+00  0.11368683772E-12  0.17120000000E+03  0.17120000000E+03 0.  0.
         13    1    1    2    0    0  0.15655926052E+03 -0.16590891711E+03  0.11942812822E+04  0.12158718530E+04  0.10566000000E+00 0.  1.
        994    1    1    2    0    0 -0.16399207242E+03  0.17073357504E+03  0.21144980129E+03  0.36064360791E+03  0.17120000000E+03 0.  0.
        998    1    1    2    0    0  0.74328119006E+01 -0.48246579330E+01  0.94268912826E+02  0.94684539088E+02  0.10000000000E+00 0.  1.
</event>
<event>
 5    1  0.2022058E-009  0.3869566E+03  0.7957747E-01  0.3421416E+00
         13   -1    0    0    0    0  0.00000000000E+00  0.00000000000E+00  0.14999999963E+04  0.15000000000E+04  0.10566000000E+00 0.  1.
        994   -1    0    0    0    0 -0.00000000000E+00 -0.00000000000E+00  0.11368683772E-12  0.17120000000E+03  0.17120000000E+03 0.  0.
         13    1    1    2    0    0 -0.24934306750E+03 -0.39942675371E+02  0.11811204074E+04  0.12078132349E+04  0.10566000000E+00 0.  1.
        994    1    1    2    0    0  0.26084556334E+03  0.48713989298E+02  0.28052356862E+03  0.42239362355E+03  0.17120000000E+03 0.  0.
        998    1    1    2    0    0 -0.11502495838E+02 -0.87713139277E+01  0.38356020305E+02  0.40993141526E+02  0.10000000000E+00 0. -1.
</event>
<event>
 5    1  0.2022058E-009  0.3882458E+03  0.7957747E-01  0.3416022E+00
         13   -1    0    0    0    0  0.00000000000E+00  0.00000000000E+00  0.14999999963E+04  0.15000000000E+04  0.10566000000E+00 0.  1.
        994   -1    0    0    0    0 -0.00000000000E+00 -0.00000000000E+00  0.11368683772E-12  0.17120000000E+03  0.17120000000E+03 0.  0.
         13    1    1    2    0    0  0.89781972482E+02  0.21475608232E+03  0.12919645637E+04  0.13127655626E+04  0.10566000000E+00 0.  1.
        994    1    1    2    0    0 -0.89706708045E+02 -0.21576383723E+03  0.20406194843E+03  0.35433324106E+03  0.17120000000E+03 0.  0.
        998    1    1    2    0    0 -0.75264437455E-01  0.10077549092E+01  0.39734841512E+01  0.41011962879E+01  0.10000000000E+00 0.  1.
</event>
<event>
 5    1  0.2022058E-009  0.3865105E+03  0.7957747E-01  0.3423291E+00
         13   -1    0    0    0    0  0.00000000000E+00  0.00000000000E+00  0.14999999963E+04  0.15000000000E+04  0.10566000000E+00 0.  1.
        994   -1    0    0    0    0 -0.00000000000E+00 -0.00000000000E+00  0.11368683772E-12  0.17120000000E+03  0.17120000000E+03 0.  0.
         13    1    1    2    0    0  0.34994358334E+01 -0.23492421270E+03  0.12786567185E+04  0.13000633241E+04  0.10566000000E+00 0.  1.
        994    1    1    2    0    0 -0.55381834327E+00  0.23724829151E+03  0.21270443503E+03  0.36171767336E+03  0.17120000000E+03 0.  0.
        998    1    1    2    0    0 -0.29456174901E+01 -0.23240788026E+01  0.86388427346E+01  0.94190025200E+01  0.10000000000E+00 0.  1.
</event>
<event>
 5    1  0.2022058E-009  0.3882722E+03  0.7957747E-01  0.3415912E+00
         13   -1    0    0    0    0  0.00000000000E+00  0.00000000000E+00  0.14999999963E+04  0.15000000000E+04  0.10566000000E+00 0.  1.
        994   -1    0    0    0    0 -0.00000000000E+00 -0.00000000000E+00  0.11368683772E-12  0.17120000000E+03  0.17120000000E+03 0.  0.
         13    1    1    2    0    0  0.13923677640E+03  0.18768163476E+03  0.12907075530E+04  0.13116925228E+04  0.10566000000E+00 0.  1.
        994    1    1    2    0    0 -0.13936145329E+03 -0.18842048857E+03  0.20544236192E+03  0.35558388497E+03  0.17120000000E+03 0.  0.
        998    1    1    2    0    0  0.12467688509E+00  0.73885381077E+00  0.38500813464E+01  0.39235921875E+01  0.10000000000E+00 0. -1.
</event>
<event>
 5    1  0.2022058E-009  0.3882983E+03  0.7957747E-01  0.3415803E+00
         13   -1    0    0    0    0  0.00000000000E+00  0.00000000000E+00  0.14999999963E+04  0.15000000000E+04  0.10566000000E+00 0. -1.
        994   -1    0    0    0    0 -0.00000000000E+00 -0.00000000000E+00  0.11368683772E-12  0.17120000000E+03  0.17120000000E+03 0.  0.
         13    1    1    2    0    0 -0.60969218367E+02  0.19179296915E+03  0.11850183573E+04  0.12019859845E+04  0.10566000000E+00 0. -1.
        994    1    1    2    0    0  0.67098944982E+02 -0.21291533932E+03  0.18344720421E+03  0.33585343063E+03  0.17120000000E+03 0.  0.
        998    1    1    2    0    0 -0.61297266153E+01  0.21122370166E+02  0.13153443474E+03  0.13336058486E+03  0.10000000000E+00 0. -1.
</event>
<event>
 5    1  0.2022058E-009  0.3883000E+03  0.7957747E-01  0.3415796E+00
         13   -1    0    0    0    0  0.00000000000E+00  0.00000000000E+00  0.14999999963E+04  0.15000000000E+04  0.10566000000E+00 0. -1.
        994   -1    0    0    0    0 -0.00000000000E+00 -0.00000000000E+00  0.11368683772E-12  0.17120000000E+03  0.17120000000E+03 0.  0.
         13    1    1    2    0    0  0.15503996753E+03 -0.44398352840E+02  0.96817860321E+03  0.98151842781E+03  0.10566000000E+00 0. -1.
        994    1    1    2    0    0 -0.21183472795E+03  0.59933410648E+02  0.17767070110E+03  0.33066944780E+03  0.17120000000E+03 0.  0.
        998    1    1    2    0    0  0.56794760418E+02 -0.15535057808E+02  0.35415069197E+03  0.35901212439E+03  0.10000000000E+00 0. -1.
</event>
<event>
 5    1  0.2022058E-009  0.3877632E+03  0.7957747E-01  0.3418037E+00
         13   -1    0    0    0    0  0.00000000000E+00  0.00000000000E+00  0.14999999963E+04  0.15000000000E+04  0.10566000000E+00 0. -1.
        994   -1    0    0    0    0 -0.00000000000E+00 -0.00000000000E+00  0.11368683772E-12  0.17120000000E+03  0.17120000000E+03 0.  0.
         13    1    1    2    0    0 -0.17356082178E+03  0.17173666537E+02  0.96133313387E+03  0.97702594598E+03  0.10566000000E+00 0. -1.
        994    1    1    2    0    0  0.24403319877E+03 -0.15151956301E+02  0.22797787343E+03  0.37558638774E+03  0.17120000000E+03 0.  0.
        998    1    1    2    0    0 -0.70472376990E+02 -0.20217102355E+01  0.31068898898E+03  0.31858766627E+03  0.10000000000E+00 0.  1.
</event>
<event>
 5    1  0.2022058E-009  0.3883001E+03  0.7957747E-01  0.3415796E+00
         13   -1    0    0    0    0  0.00000000000E+00  0.00000000000E+00  0.14999999963E+04  0.15000000000E+04  0.10566000000E+00 0. -1.
        994   -1    0    0    0    0 -0.00000000000E+00 -0.00000000000E+00  0.11368683772E-12  0.17120000000E+03  0.17120000000E+03 0.  0.
         13    1    1    2    0    0  0.16994056879E+03 -0.26813840297E+03  0.97422848854E+03  0.10246458701E+04  0.10566000000E+00 0. -1.
        994    1    1    2    0    0 -0.17393923128E+03  0.27426381503E+03  0.50366311409E+03  0.62326677187E+03  0.17120000000E+03 0.  0.
        998    1    1    2    0    0  0.39986624931E+01 -0.61254120585E+01  0.22108393641E+02  0.23287358030E+02  0.10000000000E+00 0.  0.
</event>
<event>
 5    1  0.2022058E-009  0.3882948E+03  0.7957747E-01  0.3415818E+00
         13   -1    0    0    0    0  0.00000000000E+00  0.00000000000E+00  0.14999999963E+04  0.15000000000E+04  0.10566000000E+00 0. -1.
        994   -1    0    0    0    0 -0.00000000000E+00 -0.00000000000E+00  0.11368683772E-12  0.17120000000E+03  0.17120000000E+03 0.  0.
         13    1    1    2    0    0  0.22018832140E+03 -0.69264161201E+02  0.12825398391E+04  0.13031457597E+04  0.10566000000E+00 0. -1.
        994    1    1    2    0    0 -0.22239379920E+03  0.70189943777E+02  0.20304962238E+03  0.35344620422E+03  0.17120000000E+03 0.  0.
        998    1    1    2    0    0  0.22054778038E+01 -0.92578257578E+00  0.14410534810E+02  0.14608036118E+02  0.10000000000E+00 0. -1.
</event>
<event>
 5    1  0.2022058E-009  0.3880033E+03  0.7957747E-01  0.3417034E+00
         13   -1    0    0    0    0  0.00000000000E+00  0.00000000000E+00  0.14999999963E+04  0.15000000000E+04  0.10566000000E+00 0.  1.
        994   -1    0    0    0    0 -0.00000000000E+00 -0.00000000000E+00  0.11368683772E-12  0.17120000000E+03  0.17120000000E+03 0.  0.
         13    1    1    2    0    0 -0.16468144872E+03 -0.17215454639E+03  0.10682001913E+04  0.10944445291E+04  0.10566000000E+00 0.  1.
        994    1    1    2    0    0  0.18462914901E+03  0.18993363517E+03  0.27729778195E+03  0.41995976987E+03  0.17120000000E+03 0.  0.
        998    1    1    2    0    0 -0.19947700295E+02 -0.17779088782E+02  0.15450202302E+03  0.15679570103E+03  0.10000000000E+00 0.  1.
</event>
<event>
 5    1  0.2022058E-009  0.3840909E+03  0.7957747E-01  0.3433537E+00
         13   -1    0    0    0    0  0.00000000000E+00  0.00000000000E+00  0.14999999963E+04  0.15000000000E+04  0.10566000000E+00 0. -1.
        994   -1    0    0    0    0 -0.00000000000E+00 -0.00000000000E+00  0.11368683772E-12  0.17120000000E+03  0.17120000000E+03 0.  0.
         13    1    1    2    0    0 -0.10599693177E+02  0.22636780534E+01  0.37278239788E+02  0.38822107870E+02  0.10566000000E+00 0. -1.
        994    1    1    2    0    0 -0.67625997278E+02 -0.21416495397E+02  0.18859710444E+02  0.18627149664E+03  0.17120000000E+03 0.  0.
        998    1    1    2    0    0  0.78225690455E+02  0.19152817343E+02  0.14438620460E+04  0.14461063955E+04  0.10000000000E+00 0. -1.
</event>
<event>
 5    1  0.2022058E-009  0.3882725E+03  0.7957747E-01  0.3415911E+00
         13   -1    0    0    0    0  0.00000000000E+00  0.00000000000E+00  0.14999999963E+04  0.15000000000E+04  0.10566000000E+00 0. -1.
        994   -1    0    0    0    0 -0.00000000000E+00 -0.00000000000E+00  0.11368683772E-12  0.17120000000E+03  0.17120000000E+03 0.  0.
         13    1    1    2    0    0  0.91638247173E+02 -0.19192442475E+03  0.11509423100E+04  0.11704275993E+04  0.10566000000E+00 0. -1.
        994    1    1    2    0    0 -0.10051489814E+03  0.21436937313E+03  0.21044766885E+03  0.36007656714E+03  0.17120000000E+03 0.  0.
        998    1    1    2    0    0  0.88766509640E+01 -0.22444948377E+02  0.13861001743E+03  0.14069583353E+03  0.10000000000E+00 0. -1.
</event>
<event>
 5    1  0.2022058E-009  0.3032788E+03  0.7957747E-01  0.3872886E+00
         13   -1    0    0    0    0  0.00000000000E+00  0.00000000000E+00  0.14999999963E+04  0.15000000000E+04  0.10566000000E+00 0. -1.
        994   -1    0    0    0    0 -0.00000000000E+00 -0.00000000000E+00  0.11368683772E-12  0.17120000000E+03  0.17120000000E+03 0.  0.
         13    1    1    2    0    0  0.11498200544E+03 -0.15860407855E+03  0.66070821884E+03  0.68913821322E+03  0.10566000000E+00 0. -1.
        994    1    1    2    0    0 -0.23628004334E+03  0.99793843749E+02  0.31540101112E+03  0.44110577863E+03  0.17120000000E+03 0.  0.
        998    1    1    2    0    0  0.12129803790E+03  0.58810234803E+02  0.52389076632E+03  0.54095600815E+03  0.10000000000E+00 0. -1.
</event>
<event>
 5    1  0.2022058E-009  0.3882967E+03  0.7957747E-01  0.3415810E+00
         13   -1    0    0    0    0  0.00000000000E+00  0.00000000000E+00  0.14999999963E+04  0.15000000000E+04  0.10566000000E+00 0. -1.
        994   -1    0    0    0    0 -0.00000000000E+00 -0.00000000000E+00  0.11368683772E-12  0.17120000000E+03  0.17120000000E+03 0.  0.
         13    1    1    2    0    0  0.43454512804E+02 -0.23747209135E+03  0.12750635626E+04  0.12977166057E+04  0.10566000000E+00 0. -1.
        994    1    1    2    0    0 -0.43487338237E+02  0.23808365346E+03  0.22168641704E+03  0.37017466436E+03  0.17120000000E+03 0.  0.
        998    1    1    2    0    0  0.32825433193E-01 -0.61156211281E+00  0.32500166611E+01  0.33087299715E+01  0.10000000000E+00 0.  1.
</event>
<event>
 5    1  0.2022058E-009  0.3868466E+03  0.7957747E-01  0.3421878E+00
         13   -1    0    0    0    0  0.00000000000E+00  0.00000000000E+00  0.14999999963E+04  0.15000000000E+04  0.10566000000E+00 0.  1.
        994   -1    0    0    0    0 -0.00000000000E+00 -0.00000000000E+00  0.11368683772E-12  0.17120000000E+03  0.17120000000E+03 0.  0.
         13    1    1    2    0    0  0.29432590259E+03  0.15081079664E+03  0.86319822758E+03  0.92438240171E+03  0.10566000000E+00 0.  1.
        994    1    1    2    0    0 -0.30269741039E+03 -0.14826071916E+03  0.60140643092E+03  0.71035631781E+03  0.17120000000E+03 0.  0.
        998    1    1    2    0    0  0.83715077984E+01 -0.25500774775E+01  0.35395337774E+02  0.36461280478E+02  0.10000000000E+00 0.  1.
</event>
<event>
 5    1  0.2022058E-009  0.3883002E+03  0.7957747E-01  0.3415795E+00
         13   -1    0    0    0    0  0.00000000000E+00  0.00000000000E+00  0.14999999963E+04  0.15000000000E+04  0.10566000000E+00 0.  1.
        994   -1    0    0    0    0 -0.00000000000E+00 -0.00000000000E+00  0.11368683772E-12  0.17120000000E+03  0.17120000000E+03 0.  0.
         13    1    1    2    0    0  0.66210987845E+02  0.20282521474E+03  0.11658010974E+04  0.11851641964E+04  0.10566000000E+00 0.  1.
        994    1    1    2    0    0 -0.73502591993E+02 -0.22472561809E+03  0.20972953933E+03  0.35944422950E+03  0.17120000000E+03 0.  0.
        998    1    1    2    0    0  0.72916041478E+01  0.21900403348E+02  0.12446935959E+03  0.12659157411E+03  0.10000000000E+00 0. -1.
</event>
<event>
 5    1  0.2022058E-009  0.3794874E+03  0.7957747E-01  0.3453394E+00
         13   -1    0    0    0    0  0.00000000000E+00  0.00000000000E+00  0.14999999963E+04  0.15000000000E+04  0.10566000000E+00 0. -1.
        994   -1    0    0    0    0 -0.00000000000E+00 -0.00000000000E+00  0.11368683772E-12  0.17120000000E+03  0.17120000000E+03 0.  0.
         13    1    1    2    0    0 -0.11721383278E+03 -0.20110490815E+03  0.12500012167E+04  0.12714894099E+04  0.10566000000E+00 0. -1.
        994    1    1    2    0    0  0.13097021606E+03  0.20511645557E+03  0.23875807891E+03  0.38149812331E+03  0.17120000000E+03 0.  0.
        998    1    1    2    0    0 -0.13756383283E+02 -0.40115474261E+01  0.11240700665E+02  0.18212466753E+02  0.10000000000E+00 0. -1.
</event>
<event>
 5    1  0.2022058E-009  0.3881423E+03  0.7957747E-01  0.3416454E+00
         13   -1    0    0    0    0  0.00000000000E+00  0.00000000000E+00  0.14999999963E+04  0.15000000000E+04  0.10566000000E+00 0. -1.
        994   -1    0    0    0    0 -0.00000000000E+00 -0.00000000000E+00  0.11368683772E-12  0.17120000000E+03  0.17120000000E+03 0.  0.
         13    1    1    2    0    0 -0.14487429803E+03  0.18959529614E+03  0.12617674081E+04  0.12841308118E+04  0.10566000000E+00 0. -1.
        994    1    1    2    0    0  0.14774923693E+03 -0.19066754987E+03  0.22014718562E+03  0.36872506685E+03  0.17120000000E+03 0.  0.
        998    1    1    2    0    0 -0.28749389011E+01  0.10722537290E+01  0.18085402597E+02  0.18344121370E+02  0.10000000000E+00 0.  1.
</event>
<event>
 5    1  0.2022058E-009  0.3880396E+03  0.7957747E-01  0.3416882E+00
         13   -1    0    0    0    0  0.00000000000E+00  0.00000000000E+00  0.14999999963E+04  0.15000000000E+04  0.10566000000E+00 0.  1.
        994   -1    0    0    0    0 -0.00000000000E+00 -0.00000000000E+00  0.11368683772E-12  0.17120000000E+03  0.17120000000E+03 0.  0.
         13    1    1    2    0    0  0.27421856916E+03  0.80610325556E+02  0.11207640444E+04  0.11566355963E+04  0.10566000000E+00 0.  1.
        994    1    1    2    0    0 -0.27817591553E+03 -0.81085083972E+02  0.35186101398E+03  0.48690065104E+03  0.17120000000E+03 0.  0.
        998    1    1    2    0    0  0.39573463665E+01  0.47475841584E+00  0.27374937951E+02  0.27663752703E+02  0.10000000000E+00 0.  1.
</event>
<event>
 5    1  0.2022058E-009  0.3871050E+03  0.7957747E-01  0.3420794E+00
         13   -1    0    0    0    0  0.00000000000E+00  0.00000000000E+00  0.14999999963E+04  0.15000000000E+04  0.10566000000E+00 0. -1.
        994   -1    0    0    0    0 -0.00000000000E+00 -0.00000000000E+00  0.11368683772E-12  0.17120000000E+03  0.17120000000E+03 0.  0.
         13    1    1    2    0    0  0.21950363404E+03  0.16830546878E+03  0.30710329957E+03  0.41330500112E+03  0.10566000000E+00 0. -1.
        994    1    1    2    0    0 -0.25383805453E+03 -0.17776374906E+03  0.11431220178E+04  0.11966917297E+04  0.17120000000E+03 0.  0.
        998    1    1    2    0    0  0.34334420485E+02  0.94582802856E+01  0.49774678953E+02  0.61203269201E+02  0.10000000000E+00 0.  1.
</event>
<event>
 5    1  0.2022058E-009  0.3715414E+03  0.7957747E-01  0.3488837E+00
         13   -1    0    0    0    0  0.00000000000E+00  0.00000000000E+00  0.14999999963E+04  0.15000000000E+04  0.10566000000E+00 0. -1.
        994   -1    0    0    0    0 -0.00000000000E+00 -0.00000000000E+00  0.11368683772E-12  0.17120000000E+03  0.17120000000E+03 0.  0.
         13    1    1    2    0    0 -0.20291610239E+02  0.19107845614E+02  0.15565613293E+02  0.31924264931E+02  0.10566000000E+00 0. -1.
        994    1    1    2    0    0 -0.12456515402E+03 -0.26042137891E+03  0.41662663759E+03  0.53499810031E+03  0.17120000000E+03 0.  0.
        998    1    1    2    0    0  0.14485676426E+03  0.24131353329E+03  0.10678077454E+04  0.11042776348E+04  0.10000000000E+00 0. -1.
</event>
<event>
 5    1  0.2022058E-009  0.3865453E+03  0.7957747E-01  0.3423145E+00
         13   -1    0    0    0    0  0.00000000000E+00  0.00000000000E+00  0.14999999963E+04  0.15000000000E+04  0.10566000000E+00 0.  1.
        994   -1    0    0    0    0 -0.00000000000E+00 -0.00000000000E+00  0.11368683772E-12  0.17120000000E+03  0.17120000000E+03 0.  0.
         13    1    1    2    0    0  0.15460039838E+02 -0.12539740164E+01  0.57938930171E+02  0.59979297062E+02  0.10566000000E+00 0.  1.
        994    1    1    2    0    0 -0.13137407072E+03  0.38078335132E+02  0.64676160593E+02  0.22847658920E+03  0.17120000000E+03 0.  0.
        998    1    1    2    0    0  0.11591403089E+03 -0.36824361115E+02  0.13773849055E+04  0.13827441137E+04  0.10000000000E+00 0.  1.
</event>
<event>
 5    1  0.2022058E-009  0.3882656E+03  0.7957747E-01  0.3415940E+00
         13   -1    0    0    0    0  0.00000000000E+00  0.00000000000E+00  0.14999999963E+04  0.15000000000E+04  0.10566000000E+00 0. -1.
        994   -1    0    0    0    0 -0.00000000000E+00 -0.00000000000E+00  0.11368683772E-12  0.17120000000E+03  0.17120000000E+03 0.  0.
         13    1    1    2    0    0  0.74490610989E+02 -0.31344227533E+02  0.42813857319E+03  0.43569939264E+03  0.10566000000E+00 0. -1.
        994    1    1    2    0    0 -0.22909787250E+03  0.96816710091E+02  0.23678670444E+03  0.38371433898E+03  0.17120000000E+03 0.  0.
        998    1    1    2    0    0  0.15460726152E+03 -0.65472482558E+02  0.83507471864E+03  0.85178626838E+03  0.10000000000E+00 0.  1.
</event>
<event>
 5    1  0.2022058E-009  0.3882409E+03  0.7957747E-01  0.3416042E+00
         13   -1    0    0    0    0  0.00000000000E+00  0.00000000000E+00  0.14999999963E+04  0.15000000000E+04  0.10566000000E+00 0.  1.
        994   -1    0    0    0    0 -0.00000000000E+00 -0.00000000000E+00  0.11368683772E-12  0.17120000000E+03  0.17120000000E+03 0.  0.
         13    1    1    2    0    0 -0.98119709642E+02  0.19673079102E+03  0.12745553407E+04  0.12933761283E+04  0.10566000000E+00 0.  1.
        994    1    1    2    0    0  0.99454277871E+02 -0.20221188286E+03  0.18754051526E+03  0.33950211166E+03  0.17120000000E+03 0.  0.
        998    1    1    2    0    0 -0.13345682289E+01  0.54810918434E+01  0.37904140323E+02  0.38321760056E+02  0.10000000000E+00 0. -1.
</event>
<event>
 5    1  0.2022058E-009  0.3882972E+03  0.7957747E-01  0.3415808E+00
         13   -1    0    0    0    0  0.00000000000E+00  0.00000000000E+00  0.14999999963E+04  0.15000000000E+04  0.10566000000E+00 0.  1.
        994   -1    0    0    0    0 -0.00000000000E+00 -0.00000000000E+00  0.11368683772E-12  0.17120000000E+03  0.17120000000E+03 0.  0.
         13    1    1    2    0    0 -0.15560853180E+03  0.21811557958E+03  0.97991674695E+03  0.10158864422E+04  0.10566000000E+00 0.  1.
        994    1    1    2    0    0  0.17463964280E+03 -0.24611779752E+03  0.39507268938E+03  0.52579924400E+03  0.17120000000E+03 0.  0.
        998    1    1    2    0    0 -0.19031110999E+02  0.28002217938E+02  0.12501055994E+03  0.12951431385E+03  0.10000000000E+00 0. -1.
</event>
<event>
 5    1  0.2022058E-009  0.3881725E+03  0.7957747E-01  0.3416328E+00
         13   -1    0    0    0    0  0.00000000000E+00  0.00000000000E+00  0.14999999963E+04  0.15000000000E+04  0.10566000000E+00 0.  1.
        994   -1    0    0    0    0 -0.00000000000E+00 -0.00000000000E+00  0.11368683772E-12  0.17120000000E+03  0.17120000000E+03 0.  0.
         13    1    1    2    0    0 -0.25615997484E+03  0.14394959275E+03  0.11248361507E+04  0.11625815219E+04  0.10566000000E+00 0.  1.
        994    1    1    2    0    0  0.25743514242E+03 -0.14371218129E+03  0.36929626964E+03  0.50260841455E+03  0.17120000000E+03 0.  0.
        998    1    1    2    0    0 -0.12751675866E+01 -0.23741146265E+00  0.58675759504E+01  0.60100635695E+01  0.10000000000E+00 0. -1.
</event>
<event>
 5    1  0.2022058E-009  0.3849390E+03  0.7957747E-01  0.3429931E+00
         13   -1    0    0    0    0  0.00000000000E+00  0.00000000000E+00  0.14999999963E+04  0.15000000000E+04  0.10566000000E+00 0. -1.
        994   -1    0    0    0    0 -0.00000000000E+00 -0.00000000000E+00  0.11368683772E-12  0.17120000000E+03  0.17120000000E+03 0.  0.
         13    1    1    2    0    0 -0.24681863686E+02  0.47918560327E+02  0.31071431145E+03  0.31535500205E+03  0.10566000000E+00 0. -1.
        994    1    1    2    0    0  0.45662314379E+02 -0.10742959581E+03  0.47844544886E+02  0.21266101073E+03  0.17120000000E+03 0.  0.
        998    1    1    2    0    0 -0.20980450693E+02  0.59511035487E+02  0.11414411399E+04  0.11431839872E+04  0.10000000000E+00 0. -1.
</event>
<event>
 5    1  0.2022058E-009  0.3882986E+03  0.7957747E-01  0.3415802E+00
         13   -1    0    0    0    0  0.00000000000E+00  0.00000000000E+00  0.14999999963E+04  0.15000000000E+04  0.10566000000E+00 0. -1.
        994   -1    0    0    0    0 -0.00000000000E+00 -0.00000000000E+00  0.11368683772E-12  0.17120000000E+03  0.17120000000E+03 0.  0.
         13    1    1    2    0    0 -0.18920449383E+03 -0.17879348406E+03  0.11265492535E+04  0.11562347003E+04  0.10566000000E+00 0. -1.
        994    1    1    2    0    0  0.20002062670E+03  0.18956016057E+03  0.30654624429E+03  0.44634218428E+03  0.17120000000E+03 0.  0.
        998    1    1    2    0    0 -0.10816132877E+02 -0.10766676505E+02  0.66904498510E+02  0.68623115451E+02  0.10000000000E+00 0. -1.
</event>
<event>
 5    1  0.2022058E-009  0.3838603E+03  0.7957747E-01  0.3434520E+00
         13   -1    0    0    0    0  0.00000000000E+00  0.00000000000E+00  0.14999999963E+04  0.15000000000E+04  0.10566000000E+00 0. -1.
        994   -1    0    0    0    0 -0.00000000000E+00 -0.00000000000E+00  0.11368683772E-12  0.17120000000E+03  0.17120000000E+03 0.  0.
         13    1    1    2    0    0 -0.15422375928E+03 -0.26317355559E+03  0.53287455413E+03  0.61400373768E+03  0.10566000000E+00 0. -1.
        994    1    1    2    0    0  0.15021692640E+03  0.30244929976E+03  0.92487165796E+03  0.99936866451E+03  0.17120000000E+03 0.  0.
        998    1    1    2    0    0  0.40068328824E+01 -0.39275744167E+02  0.42253784192E+02  0.57827597808E+02  0.10000000000E+00 0. -1.
</event>
<event>
 5    1  0.2022058E-009  0.3882029E+03  0.7957747E-01  0.3416201E+00
         13   -1    0    0    0    0  0.00000000000E+00  0.00000000000E+00  0.14999999963E+04  0.15000000000E+04  0.10566000000E+00 0.  1.
        994   -1    0    0    0    0 -0.00000000000E+00 -0.00000000000E+00  0.11368683772E-12  0.17120000000E+03  0.17120000000E+03 0.  0.
         13    1    1    2    0    0 -0.16800929047E+03  0.54135354012E+02  0.10229886481E+04  0.10381057478E+04  0.10566000000E+00 0.  1.
        994    1    1    2    0    0  0.21025923632E+03 -0.69201229783E+02  0.18002694895E+03  0.33274148977E+03  0.17120000000E+03 0.  0.
        998    1    1    2    0    0 -0.42249945854E+02  0.15065875771E+02  0.29698439923E+03  0.30035276247E+03  0.10000000000E+00 0.  1.
</event>
<event>
 5    1  0.2413239E-009  0.3882919E+03  0.7957747E-01  0.3415830E+00
         13   -1    0    0    0    0  0.00000000000E+00  0.00000000000E+00  0.14999999963E+04  0.15000000000E+04  0.10566000000E+00 0.  1.
        994   -1    0    0    0    0 -0.00000000000E+00 -0.00000000000E+00  0.11368683772E-12  0.17120000000E+03  0.17120000000E+03 0.  0.
         13    1    1    2    0    0  0.55333683032E+02 -0.21531183405E+03  0.13162569301E+04  0.13348982432E+04  0.10566000000E+00 0.  1.
        994    1    1    2    0    0 -0.55469203476E+02  0.21553622526E+03  0.18217464217E+03  0.33470843608E+03  0.17120000000E+03 0.  0.
        998    1    1    2    0    0  0.13552044427E+00 -0.22439121590E+00  0.15684239587E+01  0.15933207219E+01  0.10000000000E+00 0.  0.
</event>
<event>
 5    1  0.2022058E-009  0.3882970E+03  0.7957747E-01  0.3415809E+00
         13   -1    0    0    0    0  0.00000000000E+00  0.00000000000E+00  0.14999999963E+04  0.15000000000E+04  0.10566000000E+00 0. -1.
        994   -1    0    0    0    0 -0.00000000000E+00 -0.00000000000E+00  0.11368683772E-12  0.17120000000E+03  0.17120000000E+03 0.  0.
         13    1    1    2    0    0  0.16565080587E+03 -0.12724809849E+02  0.95278565911E+03  0.96716215478E+03  0.10566000000E+00 0. -1.
        994    1    1    2    0    0 -0.22824012571E+03  0.16592225238E+02  0.19428130229E+03  0.34557708451E+03  0.17120000000E+03 0.  0.
        998    1    1    2    0    0  0.62589319831E+02 -0.38674153886E+01  0.35293303488E+03  0.35846076071E+03  0.10000000000E+00 0. -1.
</event>
<event>
 5    1  0.2022058E-009  0.3881437E+03  0.7957747E-01  0.3416448E+00
         13   -1    0    0    0    0  0.00000000000E+00  0.00000000000E+00  0.14999999963E+04  0.15000000000E+04  0.10566000000E+00 0.  1.
        994   -1    0    0    0    0 -0.00000000000E+00 -0.00000000000E+00  0.11368683772E-12  0.17120000000E+03  0.17120000000E+03 0.  0.
         13    1    1    2    0    0 -0.70143795999E+02 -0.19807379357E+03  0.12584581568E+04  0.12758802151E+04  0.10566000000E+00 0.  1.
        994    1    1    2    0    0  0.75560247209E+02  0.20979616618E+03  0.18316891324E+03  0.33553550196E+03  0.17120000000E+03 0.  0.
        998    1    1    2    0    0 -0.54164512104E+01 -0.11722372600E+02  0.58372926262E+02  0.59784282914E+02  0.10000000000E+00 0.  1.
</event>
<event>
 5    1  0.2022058E-009  0.3841497E+03  0.7957747E-01  0.3433286E+00
         13   -1    0    0    0    0  0.00000000000E+00  0.00000000000E+00  0.14999999963E+04  0.15000000000E+04  0.10566000000E+00 0. -1.
        994   -1    0    0    0    0 -0.00000000000E+00 -0.00000000000E+00  0.11368683772E-12  0.17120000000E+03  0.17120000000E+03 0.  0.
         13    1    1    2    0    0  0.51266009430E+02  0.21762149667E+03  0.10206565559E+04  0.10448574715E+04  0.10566000000E+00 0. -1.
        994    1    1    2    0    0 -0.35161740856E+02 -0.24345821363E+03  0.23696727063E+03  0.38206174521E+03  0.17120000000E+03 0.  0.
        998    1    1    2    0    0 -0.16104268573E+02  0.25836716962E+02  0.24237616974E+03  0.24428078325E+03  0.10000000000E+00 0.  1.
</event>
<event>
 5    1  0.2022058E-009  0.3880591E+03  0.7957747E-01  0.3416801E+00
         13   -1    0    0    0    0  0.00000000000E+00  0.00000000000E+00  0.14999999963E+04  0.15000000000E+04  0.10566000000E+00 0. -1.
        994   -1    0    0    0    0 -0.00000000000E+00 -0.00000000000E+00  0.11368683772E-12  0.17120000000E+03  0.17120000000E+03 0.  0.
         13    1    1    2    0    0 -0.30929019304E+03 -0.59463288283E+02  0.75680968499E+03  0.81972996567E+03  0.10566000000E+00 0. -1.
        994    1    1    2    0    0  0.33689672983E+03  0.70623815755E+02  0.67012283143E+03  0.77256791230E+03  0.17120000000E+03 0.  0.
        998    1    1    2    0    0 -0.27606536789E+02 -0.11160527471E+02  0.73067479862E+02  0.78902122027E+02  0.10000000000E+00 0. -1.
</event>
<event>
 5    1  0.2022058E-009  0.3883008E+03  0.7957747E-01  0.3415792E+00
         13   -1    0    0    0    0  0.00000000000E+00  0.00000000000E+00  0.14999999963E+04  0.15000000000E+04  0.10566000000E+00 0. -1.
        994   -1    0    0    0    0 -0.00000000000E+00 -0.00000000000E+00  0.11368683772E-12  0.17120000000E+03  0.17120000000E+03 0.  0.
         13    1    1    2    0    0  0.25300029768E+03  0.64792511250E+02  0.10846605860E+04  0.11156593647E+04  0.10566000000E+00 0. -1.
        994    1    1    2    0    0 -0.27351235444E+03 -0.70080975354E+02  0.32706217564E+03  0.46475741831E+03  0.17120000000E+03 0.  0.
        998    1    1    2    0    0  0.20512056764E+02  0.52884641038E+01  0.88277234650E+02  0.90783216966E+02  0.10000000000E+00 0.  1.
</event>
<event>
 5    1  0.2022058E-009  0.3882912E+03  0.7957747E-01  0.3415832E+00
         13   -1    0    0    0    0  0.00000000000E+00  0.00000000000E+00  0.14999999963E+04  0.15000000000E+04  0.10566000000E+00 0. -1.
        994   -1    0    0    0    0 -0.00000000000E+00 -0.00000000000E+00  0.11368683772E-12  0.17120000000E+03  0.17120000000E+03 0.  0.
         13    1    1    2    0    0 -0.25396589919E+03  0.11036246803E+03  0.11678887462E+04  0.12002677563E+04  0.10566000000E+00 0. -1.
        994    1    1    2    0    0  0.25687887913E+03 -0.11121635384E+03  0.31957074407E+03  0.45802918725E+03  0.17120000000E+03 0.  0.
        998    1    1    2    0    0 -0.29129799408E+01  0.85388581952E+00  0.12540506059E+02  0.12903056434E+02  0.10000000000E+00 0. -1.
</event>
<event>
 5    1  0.2022058E-009  0.3866056E+03  0.7957747E-01  0.3422891E+00
         13   -1    0    0    0    0  0.00000000000E+00  0.00000000000E+00  0.14999999963E+04  0.15000000000E+04  0.10566000000E+00 0.  1.
        994   -1    0    0    0    0 -0.00000000000E+00 -0.00000000000E+00  0.11368683772E-12  0.17120000000E+03  0.17120000000E+03 0.  0.
         13    1    1    2    0    0  0.73866829250E+02  0.20236317198E+03  0.10040433250E+04  0.10268934567E+04  0.10566000000E+00 0.  1.
        994    1    1    2    0    0 -0.72880825281E+02 -0.23799701405E+03  0.23986179195E+03  0.38574254708E+03  0.17120000000E+03 0.  0.
        998    1    1    2    0    0 -0.98600396860E+00  0.35633842070E+02  0.25609487936E+03  0.25856399622E+03  0.10000000000E+00 0.  1.
</event>
<event>
 5    1  0.2022058E-009  0.3882887E+03  0.7957747E-01  0.3415843E+00
         13   -1    0    0    0    0  0.00000000000E+00  0.00000000000E+00  0.14999999963E+04  0.15000000000E+04  0.10566000000E+00 0.  1.
        994   -1    0    0    0    0 -0.00000000000E+00 -0.00000000000E+00  0.11368683772E-12  0.17120000000E+03  0.17120000000E+03 0.  0.
         13    1    1    2    0    0  0.90868146647E+02 -0.14067591139E+03  0.94105665078E+03  0.95584222718E+03  0.10566000000E+00 0.  1.
        994    1    1    2    0    0 -0.12542650667E+03  0.19233488432E+03  0.19582856933E+03  0.34696222398E+03  0.17120000000E+03 0.  0.
        998    1    1    2    0    0  0.34558360025E+02 -0.51658972937E+02  0.36311477617E+03  0.36839554884E+03  0.10000000000E+00 0.  1.
</event>
<event>
 5    1  0.2022058E-009  0.3882483E+03  0.7957747E-01  0.3416011E+00
         13   -1    0    0    0    0  0.00000000000E+00  0.00000000000E+00  0.14999999963E+04  0.15000000000E+04  0.10566000000E+00 0.  1.
        994   -1    0    0    0    0 -0.00000000000E+00 -0.00000000000E+00  0.11368683772E-12  0.17120000000E+03  0.17120000000E+03 0.  0.
         13    1    1    2    0    0 -0.10852138065E+03  0.24025356199E+03  0.11933746861E+04  0.12221463974E+04  0.10566000000E+00 0.  1.
        994    1    1    2    0    0  0.10943664561E+03 -0.24426930856E+03  0.28431612297E+03  0.42636718013E+03  0.17120000000E+03 0.  0.
        998    1    1    2    0    0 -0.91526495362E+00  0.40157465756E+01  0.22309187239E+02  0.22686422498E+02  0.10000000000E+00 0. -1.
</event>
<event>
 5    1  0.2022058E-009  0.3882380E+03  0.7957747E-01  0.3416054E+00
         13   -1    0    0    0    0  0.00000000000E+00  0.00000000000E+00  0.14999999963E+04  0.15000000000E+04  0.10566000000E+00 0. -1.
        994   -1    0    0    0    0 -0.00000000000E+00 -0.00000000000E+00  0.11368683772E-12  0.17120000000E+03  0.17120000000E+03 0.  0.
         13    1    1    2    0    0 -0.17975647213E+03  0.17280658860E+03  0.11854956251E+04  0.12114348495E+04  0.10566000000E+00 0. -1.
        994    1    1    2    0    0  0.18775550533E+03 -0.17845335798E+03  0.26173226354E+03  0.40609229066E+03  0.17120000000E+03 0.  0.
        998    1    1    2    0    0 -0.79990332003E+01  0.56467693829E+01  0.52772107681E+02  0.53672859861E+02  0.10000000000E+00 0.  1.
</event>
<event>
 5    1  0.2022058E-009  0.3882941E+03  0.7957747E-01  0.3415821E+00
         13   -1    0    0    0    0  0.00000000000E+00  0.00000000000E+00  0.14999999963E+04  0.15000000000E+04  0.10566000000E+00 0.  1.
        994   -1    0    0    0    0 -0.00000000000E+00 -0.00000000000E+00  0.11368683772E-12  0.17120000000E+03  0.17120000000E+03 0.  0.
         13    1    1    2    0    0  0.21247161473E+03 -0.13895573681E+03  0.12422355659E+04  0.12679124954E+04  0.10566000000E+00 0.  1.
        994    1    1    2    0    0 -0.21338560956E+03  0.13978652766E+03  0.25188009997E+03  0.39727410744E+03  0.17120000000E+03 0.  0.
        998    1    1    2    0    0  0.91399483277E+00 -0.83079084164E+00  0.58843304592E+01  0.60133971206E+01  0.10000000000E+00 0.  0.
</event>
<event>
 5    1  0.2022058E-009  0.3883008E+03  0.7957747E-01  0.3415793E+00
         13   -1    0    0    0    0  0.00000000000E+00  0.00000000000E+00  0.14999999963E+04  0.15000000000E+04  0.10566000000E+00 0.  1.
        994   -1    0    0    0    0 -0.00000000000E+00 -0.00000000000E+00  0.11368683772E-12  0.17120000000E+03  0.17120000000E+03 0.  0.
         13    1    1    2    0    0  0.19842133937E+03  0.10146585849E+03  0.11157193064E+04  0.11377591705E+04  0.10566000000E+00 0.  1.
        994    1    1    2    0    0 -0.22376044868E+03 -0.11432542418E+03  0.24270787443E+03  0.38904446188E+03  0.17120000000E+03 0.  0.
        998    1    1    2    0    0  0.25339109317E+02  0.12859565689E+02  0.14157281547E+03  0.14439636758E+03  0.10000000000E+00 0.  1.
</event>
<event>
 5    1  0.2022058E-009  0.3863978E+03  0.7957747E-01  0.3423766E+00
         13   -1    0    0    0    0  0.00000000000E+00  0.00000000000E+00  0.14999999963E+04  0.15000000000E+04  0.10566000000E+00 0.  1.
        994   -1    0    0    0    0 -0.00000000000E+00 -0.00000000000E+00  0.11368683772E-12  0.17120000000E+03  0.17120000000E+03 0.  0.
         13    1    1    2    0    0  0.18915473425E+01 -0.81972000668E+02  0.48890755373E+03  0.49573540735E+03  0.10566000000E+00 0.  1.
        994    1    1    2    0    0 -0.38438704173E+02  0.16916221702E+03  0.10655750403E+03  0.26600250245E+03  0.17120000000E+03 0.  0.
        998    1    1    2    0    0  0.36547156831E+02 -0.87190216352E+02  0.90453493852E+03  0.90946209020E+03  0.10000000000E+00 0.  1.
</event>
<event>
 5    1  0.2022058E-009  0.3882993E+03  0.7957747E-01  0.3415799E+00
         13   -1    0    0    0    0  0.00000000000E+00  0.00000000000E+00  0.14999999963E+04  0.15000000000E+04  0.10566000000E+00 0.  1.
        994   -1    0    0    0    0 -0.00000000000E+00 -0.00000000000E+00  0.11368683772E-12  0.17120000000E+03  0.17120000000E+03 0.  0.
         13    1    1    2    0    0 -0.18831524629E+03 -0.12945057341E+03  0.12961431649E+04  0.13161334271E+04  0.10566000000E+00 0.  1.
        994    1    1    2    0    0  0.18940731672E+03  0.13015184028E+03  0.19620445979E+03  0.34730428042E+03  0.17120000000E+03 0.  0.
        998    1    1    2    0    0 -0.10920704353E+01 -0.70126687643E+00  0.76523715993E+01  0.77622924553E+01  0.10000000000E+00 0. -1.
</event>
<event>
 5    1  0.2022058E-009  0.3883004E+03  0.7957747E-01  0.3415794E+00
         13   -1    0    0    0    0  0.00000000000E+00  0.00000000000E+00  0.14999999963E+04  0.15000000000E+04  0.10566000000E+00 0. -1.
        994   -1    0    0    0    0 -0.00000000000E+00 -0.00000000000E+00  0.11368683772E-12  0.17120000000E+03  0.17120000000E+03 0.  0.
         13    1    1    2    0    0  0.49838243894E+02 -0.18850093804E+03  0.11393721407E+04  0.11559348340E+04  0.10566000000E+00 0. -1.
        994    1    1    2    0    0 -0.57235028920E+02  0.21755734744E+03  0.18672386242E+03  0.33879534938E+03  0.17120000000E+03 0.  0.
        998    1    1    2    0    0  0.73967850259E+01 -0.29056409408E+02  0.17390399317E+03  0.17646981667E+03  0.10000000000E+00 0. -1.
</event>
<event>
 5    1  0.2022058E-009  0.3882945E+03  0.7957747E-01  0.3415819E+00
         13   -1    0    0    0    0  0.00000000000E+00  0.00000000000E+00  0.14999999963E+04  0.15000000000E+04  0.10566000000E+00 0. -1.
        994   -1    0    0    0    0 -0.00000000000E+00 -0.00000000000E+00  0.11368683772E-12  0.17120000000E+03  0.17120000000E+03 0.  0.
         13    1    1    2    0    0  0.23348159399E+03  0.36107662634E+02  0.12689607727E+04  0.12907667767E+04  0.10566000000E+00 0. -1.
        994    1    1    2    0    0 -0.23657159559E+03 -0.36607068636E+02  0.21598060213E+03  0.36505240420E+03  0.17120000000E+03 0.  0.
        998    1    1    2    0    0  0.30900015942E+01  0.49940600265E+00  0.15058621425E+02  0.15380819075E+02  0.10000000000E+00 0.  1.
</event>
<event>
 5    1  0.2022058E-009  0.3883004E+03  0.7957747E-01  0.3415794E+00
         13   -1    0    0    0    0  0.00000000000E+00  0.00000000000E+00  0.14999999963E+04  0.15000000000E+04  0.10566000000E+00 0.  1.
        994   -1    0    0    0    0 -0.00000000000E+00 -0.00000000000E+00  0.11368683772E-12  0.17120000000E+03  0.17120000000E+03 0.  0.
         13    1    1    2    0    0 -0.64668768523E+02 -0.26245936799E+03  0.11635629421E+04  0.11945483251E+04  0.10566000000E+00 0.  1.
        994    1    1    2    0    0  0.66241375219E+02  0.26857028975E+03  0.30961701030E+03  0.44909915764E+03  0.17120000000E+03 0.  0.
        998    1    1    2    0    0 -0.15726066958E+01 -0.61109217683E+01  0.26820043853E+02  0.27552517289E+02  0.10000000000E+00 0.  0.
</event>
<event>
 5    1  0.2022058E-009  0.3881587E+03  0.7957747E-01  0.3416385E+00
         13   -1    0    0    0    0  0.00000000000E+00  0.00000000000E+00  0.14999999963E+04  0.15000000000E+04  0.10566000000E+00 0. -1.
        994   -1    0    0    0    0 -0.00000000000E+00 -0.00000000000E+00  0.11368683772E-12  0.17120000000E+03  0.17120000000E+03 0.  0.
         13    1    1    2    0    0  0.38850682185E+02 -0.20543271383E+03  0.74015138600E+03  0.76911381523E+03  0.10566000000E+00 0. -1.
        994    1    1    2    0    0 -0.54081357051E+02  0.30597062824E+03  0.43290954984E+03  0.55969896987E+03  0.17120000000E+03 0.  0.
        998    1    1    2    0    0  0.15230674866E+02 -0.10053791441E+03  0.32693906044E+03  0.34238721491E+03  0.10000000000E+00 0. -1.
</event>
<event>
 5    1  0.2022058E-009  0.3846833E+03  0.7957747E-01  0.3431016E+00
         13   -1    0    0    0    0  0.00000000000E+00  0.00000000000E+00  0.14999999963E+04  0.15000000000E+04  0.10566000000E+00 0.  1.
        994   -1    0    0    0    0 -0.00000000000E+00 -0.00000000000E+00  0.11368683772E-12  0.17120000000E+03  0.17120000000E+03 0.  0.
         13    1    1    2    0    0 -0.36719384150E+02  0.47648243384E+00  0.21695252489E+03  0.22003851806E+03  0.10566000000E+00 0.  1.
        994    1    1    2    0    0  0.75935294581E+02 -0.35309953775E+02  0.25225737770E+02  0.19224655951E+03  0.17120000000E+03 0.  0.
        998    1    1    2    0    0 -0.39215910431E+02  0.34833471341E+02  0.12578217336E+04  0.12589149224E+04  0.10000000000E+00 0.  1.
</event>
<event>
 5    1  0.2022058E-009  0.3883008E+03  0.7957747E-01  0.3415792E+00
         13   -1    0    0    0    0  0.00000000000E+00  0.00000000000E+00  0.14999999963E+04  0.15000000000E+04  0.10566000000E+00 0.  1.
        994   -1    0    0    0    0 -0.00000000000E+00 -0.00000000000E+00  0.11368683772E-12  0.17120000000E+03  0.17120000000E+03 0.  0.
         13    1    1    2    0    0  0.10330832338E+03 -0.16553974483E+03  0.11640450923E+04  0.11802868316E+04  0.10566000000E+00 0.  1.
        994    1    1    2    0    0 -0.11707682629E+03  0.18769633524E+03  0.17964951564E+03  0.33244591438E+03  0.17120000000E+03 0.  0.
        998    1    1    2    0    0  0.13768502910E+02 -0.22156590404E+02  0.15630538833E+03  0.15846725400E+03  0.10000000000E+00 0.  0.
</event>
<event>
 5    1  0.2022058E-009  0.3883008E+03  0.7957747E-01  0.3415793E+00
         13   -1    0    0    0    0  0.00000000000E+00  0.00000000000E+00  0.14999999963E+04  0.15000000000E+04  0.10566000000E+00 0.  1.
        994   -1    0    0    0    0 -0.00000000000E+00 -0.00000000000E+00  0.11368683772E-12  0.17120000000E+03  0.17120000000E+03 0.  0.
         13    1    1    2    0    0  0.13467224254E+01  0.11497580881E+03  0.68547068493E+03  0.69504771155E+03  0.10566000000E+00 0.  1.
        994    1    1    2    0    0 -0.30348003055E+01 -0.22135855555E+03  0.17995248436E+03  0.33271783354E+03  0.17120000000E+03 0.  0.
        998    1    1    2    0    0  0.16880778802E+01  0.10638274674E+03  0.63457682699E+03  0.64343445490E+03  0.10000000000E+00 0.  1.
</event>
<event>
 5    1  0.2022058E-009  0.3882945E+03  0.7957747E-01  0.3415819E+00
         13   -1    0    0    0    0  0.00000000000E+00  0.00000000000E+00  0.14999999963E+04  0.15000000000E+04  0.10566000000E+00 0. -1.
        994   -1    0    0    0    0 -0.00000000000E+00 -0.00000000000E+00  0.11368683772E-12  0.17120000000E+03  0.17120000000E+03 0.  0.
         13    1    1    2    0    0  0.16430681663E+03 -0.17877028271E+03  0.11237290049E+04  0.11496618771E+04  0.10566000000E+00 0. -1.
        994    1    1    2    0    0 -0.17894234448E+03  0.19546492034E+03  0.27707888268E+03  0.41989170623E+03  0.17120000000E+03 0.  0.
        998    1    1    2    0    0  0.14635527844E+02 -0.16694637626E+02  0.99192108701E+02  0.10164641671E+03  0.10000000000E+00 0.  1.
</event>
<event>
 5    1  0.2022058E-009  0.3883006E+03  0.7957747E-01  0.3415793E+00
         13   -1    0    0    0    0  0.00000000000E+00  0.00000000000E+00  0.14999999963E+04  0.15000000000E+04  0.10566000000E+00 0.  1.
        994   -1    0    0    0    0 -0.00000000000E+00 -0.00000000000E+00  0.11368683772E-12  0.17120000000E+03  0.17120000000E+03 0.  0.
         13    1    1    2    0    0  0.76537988252E+02  0.21741019069E+03  0.91522483161E+03  0.94380175790E+03  0.10566000000E+00 0.  1.
        994    1    1    2    0    0 -0.96024194710E+02 -0.27292913876E+03  0.34976805530E+03  0.48513719015E+03  0.17120000000E+03 0.  0.
        998    1    1    2    0    0  0.19486206457E+02  0.55518948074E+02  0.23500710937E+03  0.24226105195E+03  0.10000000000E+00 0.  1.
</event>
<event>
 5    1  0.2022058E-009  0.3882711E+03  0.7957747E-01  0.3415917E+00
         13   -1    0    0    0    0  0.00000000000E+00  0.00000000000E+00  0.14999999963E+04  0.15000000000E+04  0.10566000000E+00 0. -1.
        994   -1    0    0    0    0 -0.00000000000E+00 -0.00000000000E+00  0.11368683772E-12  0.17120000000E+03  0.17120000000E+03 0.  0.
         13    1    1    2    0    0  0.38454814414E+02 -0.32518677211E+03  0.97423251051E+03  0.10277909346E+04  0.10566000000E+00 0. -1.
        994    1    1    2    0    0 -0.38799461434E+02  0.32575496156E+03  0.52376081031E+03  0.64129285011E+03  0.17120000000E+03 0.  0.
        998    1    1    2    0    0  0.34464702061E+00 -0.56818945178E+00  0.20066754634E+01  0.21162153098E+01  0.10000000000E+00 0.  1.
</event>
<event>
 5    1  0.2022058E-009  0.3882592E+03  0.7957747E-01  0.3415966E+00
         13   -1    0    0    0    0  0.00000000000E+00  0.00000000000E+00  0.14999999963E+04  0.15000000000E+04  0.10566000000E+00 0. -1.
        994   -1    0    0    0    0 -0.00000000000E+00 -0.00000000000E+00  0.11368683772E-12  0.17120000000E+03  0.17120000000E+03 0.  0.
         13    1    1    2    0    0 -0.11476661084E+03 -0.47185061538E+02  0.39087333214E+03  0.41009727863E+03  0.10566000000E+00 0. -1.
        994    1    1    2    0    0  0.30068598680E+03  0.12428069359E+03  0.50731676102E+03  0.62652812345E+03  0.17120000000E+03 0.  0.
        998    1    1    2    0    0 -0.18591937596E+03 -0.77095632055E+02  0.60180990312E+03  0.63457459792E+03  0.10000000000E+00 0. -1.
</event>
<event>
 5    1  0.2022058E-009  0.3882882E+03  0.7957747E-01  0.3415845E+00
         13   -1    0    0    0    0  0.00000000000E+00  0.00000000000E+00  0.14999999963E+04  0.15000000000E+04  0.10566000000E+00 0.  1.
        994   -1    0    0    0    0 -0.00000000000E+00 -0.00000000000E+00  0.11368683772E-12  0.17120000000E+03  0.17120000000E+03 0.  0.
         13    1    1    2    0    0  0.31751026628E+02  0.23770969238E+03  0.72288331109E+03  0.76162610129E+03  0.10566000000E+00 0.  1.
        994    1    1    2    0    0 -0.45095035075E+02 -0.32423893728E+03  0.51929516830E+03  0.63729221120E+03  0.17120000000E+03 0.  0.
        998    1    1    2    0    0  0.13344008446E+02  0.86529244899E+02  0.25782151688E+03  0.27228168751E+03  0.10000000000E+00 0. -1.
</event>
<event>
 5    1  0.2022058E-009  0.3879737E+03  0.7957747E-01  0.3417157E+00
         13   -1    0    0    0    0  0.00000000000E+00  0.00000000000E+00  0.14999999963E+04  0.15000000000E+04  0.10566000000E+00 0.  1.
        994   -1    0    0    0    0 -0.00000000000E+00 -0.00000000000E+00  0.11368683772E-12  0.17120000000E+03  0.17120000000E+03 0.  0.
         13    1    1    2    0    0 -0.66723723968E+02 -0.21936330385E+03  0.12430691189E+04  0.12640384329E+04  0.10566000000E+00 0.  1.
        994    1    1    2    0    0  0.69973804681E+02  0.22387091685E+03  0.20625367264E+03  0.35618048547E+03  0.17120000000E+03 0.  0.
        998    1    1    2    0    0 -0.32500807125E+01 -0.45076130071E+01  0.50677204761E+02  0.50981081609E+02  0.10000000000E+00 0.  1.
</event>
<event>
 5    1  0.2022058E-009  0.3881854E+03  0.7957747E-01  0.3416274E+00
         13   -1    0    0    0    0  0.00000000000E+00  0.00000000000E+00  0.14999999963E+04  0.15000000000E+04  0.10566000000E+00 0. -1.
        994   -1    0    0    0    0 -0.00000000000E+00 -0.00000000000E+00  0.11368683772E-12  0.17120000000E+03  0.17120000000E+03 0.  0.
         13    1    1    2    0    0 -0.20150314981E+03 -0.14702584038E+03  0.12299770159E+04  0.12550153736E+04  0.10566000000E+00 0. -1.
        994    1    1    2    0    0  0.20387441161E+03  0.15087781824E+03  0.24851403457E+03  0.39420496841E+03  0.17120000000E+03 0.  0.
        998    1    1    2    0    0 -0.23712617959E+01 -0.38519778685E+01  0.21508945807E+02  0.21979657999E+02  0.10000000000E+00 0.  1.
</event>
<event>
 5    1  0.2022058E-009  0.3874883E+03  0.7957747E-01  0.3419187E+00
         13   -1    0    0    0    0  0.00000000000E+00  0.00000000000E+00  0.14999999963E+04  0.15000000000E+04  0.10566000000E+00 0.  1.
        994   -1    0    0    0    0 -0.00000000000E+00 -0.00000000000E+00  0.11368683772E-12  0.17120000000E+03  0.17120000000E+03 0.  0.
         13    1    1    2    0    0 -0.16693173636E+03  0.20310187910E+03  0.12213193705E+04  0.12492948386E+04  0.10566000000E+00 0.  1.
        994    1    1    2    0    0  0.16862292360E+03 -0.20332039760E+03  0.27556495415E+03  0.41835195517E+03  0.17120000000E+03 0.  0.
        998    1    1    2    0    0 -0.16911872359E+01  0.21851850224E+00  0.31156716682E+01  0.35532062348E+01  0.10000000000E+00 0. -1.
</event>
<event>
 5    1  0.2022058E-009  0.3768254E+03  0.7957747E-01  0.3465099E+00
         13   -1    0    0    0    0  0.00000000000E+00  0.00000000000E+00  0.14999999963E+04  0.15000000000E+04  0.10566000000E+00 0. -1.
        994   -1    0    0    0    0 -0.00000000000E+00 -0.00000000000E+00  0.11368683772E-12  0.17120000000E+03  0.17120000000E+03 0.  0.
         13    1    1    2    0    0 -0.17812267537E+02 -0.39809663158E+02  0.15850320412E+03  0.16439392640E+03  0.10566000000E+00 0. -1.
        994    1    1    2    0    0 -0.10009374038E+03  0.95413500058E+02  0.73346702947E+02  0.23197342884E+03  0.17120000000E+03 0.  0.
        998    1    1    2    0    0  0.11790600791E+03 -0.55603836900E+02  0.12681500892E+04  0.12748326448E+04  0.10000000000E+00 0. -1.
</event>
<event>
 5    1  0.2022058E-009  0.3882651E+03  0.7957747E-01  0.3415941E+00
         13   -1    0    0    0    0  0.00000000000E+00  0.00000000000E+00  0.14999999963E+04  0.15000000000E+04  0.10566000000E+00 0. -1.
        994   -1    0    0    0    0 -0.00000000000E+00 -0.00000000000E+00  0.11368683772E-12  0.17120000000E+03  0.17120000000E+03 0.  0.
         13    1    1    2    0    0  0.25855015323E+03  0.85298115412E+02  0.10073774687E+04  0.10435196816E+04  0.10566000000E+00 0. -1.
        994    1    1    2    0    0 -0.28573977149E+03 -0.95412835870E+02  0.39307857596E+03  0.52399526060E+03  0.17120000000E+03 0.  0.
        998    1    1    2    0    0  0.27189618255E+02  0.10114720458E+02  0.99543951622E+02  0.10368505782E+03  0.10000000000E+00 0. -1.
</event>
<event>
 5    1  0.2022058E-009  0.3882991E+03  0.7957747E-01  0.3415800E+00
         13   -1    0    0    0    0  0.00000000000E+00  0.00000000000E+00  0.14999999963E+04  0.15000000000E+04  0.10566000000E+00 0.  1.
        994   -1    0    0    0    0 -0.00000000000E+00 -0.00000000000E+00  0.11368683772E-12  0.17120000000E+03  0.17120000000E+03 0.  0.
         13    1    1    2    0    0 -0.21901225600E+03 -0.40417382184E+02  0.13109069582E+04  0.13296905645E+04  0.10566000000E+00 0.  1.
        994    1    1    2    0    0  0.21984519325E+03  0.40551296610E+02  0.18404435560E+03  0.33638977612E+03  0.17120000000E+03 0.  0.
        998    1    1    2    0    0 -0.83293724824E+00 -0.13391442621E+00  0.50486824933E+01  0.51196594077E+01  0.10000000000E+00 0.  0.
</event>
<event>
 5    1  0.2022058E-009  0.3882568E+03  0.7957747E-01  0.3415976E+00
         13   -1    0    0    0    0  0.00000000000E+00  0.00000000000E+00  0.14999999963E+04  0.15000000000E+04  0.10566000000E+00 0.  1.
        994   -1    0    0    0    0 -0.00000000000E+00 -0.00000000000E+00  0.11368683772E-12  0.17120000000E+03  0.17120000000E+03 0.  0.
         13    1    1    2    0    0  0.21534371136E+03  0.35975823833E+02  0.13130315549E+04  0.13310593710E+04  0.10566000000E+00 0.  1.
        994    1    1    2    0    0 -0.21643799433E+03 -0.35943791544E+02  0.17634554575E+03  0.32946100383E+03  0.17120000000E+03 0.  0.
        998    1    1    2    0    0  0.10942829695E+01 -0.32032289188E-01  0.10622895659E+02  0.10679625156E+02  0.10000000000E+00 0.  1.
</event>
<event>
 5    1  0.2022058E-009  0.3881899E+03  0.7957747E-01  0.3416255E+00
         13   -1    0    0    0    0  0.00000000000E+00  0.00000000000E+00  0.14999999963E+04  0.15000000000E+04  0.10566000000E+00 0.  1.
        994   -1    0    0    0    0 -0.00000000000E+00 -0.00000000000E+00  0.11368683772E-12  0.17120000000E+03  0.17120000000E+03 0.  0.
         13    1    1    2    0    0  0.20955533547E+02 -0.21768400468E+03  0.12972751110E+04  0.13155790303E+04  0.10566000000E+00 0.  1.
        994    1    1    2    0    0 -0.19693128392E+02  0.22145211815E+03  0.18186291757E+03  0.33438364303E+03  0.17120000000E+03 0.  0.
        998    1    1    2    0    0 -0.12624051551E+01 -0.37681134688E+01  0.20861967699E+02  0.21237326624E+02  0.10000000000E+00 0. -1.
</event>
<event>
 5    1  0.2022058E-009  0.3882997E+03  0.7957747E-01  0.3415797E+00
         13   -1    0    0    0    0  0.00000000000E+00  0.00000000000E+00  0.14999999963E+04  0.15000000000E+04  0.10566000000E+00 0. -1.
        994   -1    0    0    0    0 -0.00000000000E+00 -0.00000000000E+00  0.11368683772E-12  0.17120000000E+03  0.17120000000E+03 0.  0.
         13    1    1    2    0    0 -0.80123996410E+02 -0.23718236539E+03  0.12434305302E+04  0.12683827593E+04  0.10566000000E+00 0. -1.
        994    1    1    2    0    0  0.80851953111E+02  0.23919733268E+03  0.24559733260E+03  0.39163744977E+03  0.17120000000E+03 0.  0.
        998    1    1    2    0    0 -0.72795670100E+00 -0.20149672922E+01  0.10972133435E+02  0.11179790976E+02  0.10000000000E+00 0.  0.
</event>
<event>
 5    1  0.2022058E-009  0.3878246E+03  0.7957747E-01  0.3417780E+00
         13   -1    0    0    0    0  0.00000000000E+00  0.00000000000E+00  0.14999999963E+04  0.15000000000E+04  0.10566000000E+00 0.  1.
        994   -1    0    0    0    0 -0.00000000000E+00 -0.00000000000E+00  0.11368683772E-12  0.17120000000E+03  0.17120000000E+03 0.  0.
         13    1    1    2    0    0 -0.24424608323E+03  0.42808950779E+02  0.11499651982E+04  0.11763964993E+04  0.10566000000E+00 0.  1.
        994    1    1    2    0    0  0.25534022144E+03 -0.45294132431E+02  0.26319855794E+03  0.40722611412E+03  0.17120000000E+03 0.  0.
        998    1    1    2    0    0 -0.11094138212E+02  0.24851816522E+01  0.86836240143E+02  0.87577386537E+02  0.10000000000E+00 0. -1.
</event>
<event>
 5    1  0.2022058E-009  0.3881994E+03  0.7957747E-01  0.3416215E+00
         13   -1    0    0    0    0  0.00000000000E+00  0.00000000000E+00  0.14999999963E+04  0.15000000000E+04  0.10566000000E+00 0. -1.
        994   -1    0    0    0    0 -0.00000000000E+00 -0.00000000000E+00  0.11368683772E-12  0.17120000000E+03  0.17120000000E+03 0.  0.
         13    1    1    2    0    0  0.20421400627E+03  0.13982553307E+03  0.12575771060E+04  0.12816999371E+04  0.10566000000E+00 0. -1.
        994    1    1    2    0    0 -0.20546749673E+03 -0.13969906725E+03  0.23630267582E+03  0.38325072238E+03  0.17120000000E+03 0.  0.
        998    1    1    2    0    0  0.12534904611E+01 -0.12646582512E+00  0.61202144529E+01  0.62493405165E+01  0.10000000000E+00 0.  1.
</event>
<event>
 5    1  0.2022058E-009  0.3880015E+03  0.7957747E-01  0.3417041E+00
         13   -1    0    0    0    0  0.00000000000E+00  0.00000000000E+00  0.14999999963E+04  0.15000000000E+04  0.10566000000E+00 0.  1.
        994   -1    0    0    0    0 -0.00000000000E+00 -0.00000000000E+00  0.11368683772E-12  0.17120000000E+03  0.17120000000E+03 0.  0.
         13    1    1    2    0    0  0.32422425703E+02  0.65593139702E+02  0.30005652506E+03  0.30884883529E+03  0.10566000000E+00 0.  1.
        994    1    1    2    0    0 -0.12635250426E+03 -0.23098167644E+03  0.27307708901E+03  0.41617067019E+03  0.17120000000E+03 0.  0.
        998    1    1    2    0    0  0.93930078554E+02  0.16538853674E+03  0.92686638221E+03  0.94618049452E+03  0.10000000000E+00 0. -1.
</event>
<event>
 5    1  0.2022058E-009  0.3883005E+03  0.7957747E-01  0.3415794E+00
         13   -1    0    0    0    0  0.00000000000E+00  0.00000000000E+00  0.14999999963E+04  0.15000000000E+04  0.10566000000E+00 0.  1.
        994   -1    0    0    0    0 -0.00000000000E+00 -0.00000000000E+00  0.11368683772E-12  0.17120000000E+03  0.17120000000E+03 0.  0.
         13    1    1    2    0    0 -0.18424575421E+03 -0.16919568256E+03  0.11652074587E+04  0.11917558936E+04  0.10566000000E+00 0.  1.
        994    1    1    2    0    0  0.19411954017E+03  0.17823518766E+03  0.27319117314E+03  0.41640489320E+03  0.17120000000E+03 0.  0.
        998    1    1    2    0    0 -0.98737859555E+01 -0.90395051052E+01  0.61601364470E+02  0.63039213243E+02  0.10000000000E+00 0.  0.
</event>
<event>
 5    1  0.2022058E-009  0.3882216E+03  0.7957747E-01  0.3416123E+00
         13   -1    0    0    0    0  0.00000000000E+00  0.00000000000E+00  0.14999999963E+04  0.15000000000E+04  0.10566000000E+00 0. -1.
        994   -1    0    0    0    0 -0.00000000000E+00 -0.00000000000E+00  0.11368683772E-12  0.17120000000E+03  0.17120000000E+03 0.  0.
         13    1    1    2    0    0 -0.86650490164E+02  0.29714905190E+03  0.10481284897E+04  0.10928765752E+04  0.10566000000E+00 0. -1.
        994    1    1    2    0    0  0.86869544173E+02 -0.30062397529E+03  0.44274000575E+03  0.56855012525E+03  0.17120000000E+03 0.  0.
        998    1    1    2    0    0 -0.21905400983E+00  0.34749233919E+01  0.91315007760E+01  0.97732995278E+01  0.10000000000E+00 0.  1.
</event>
<event>
 5    1  0.2022058E-009  0.3882550E+03  0.7957747E-01  0.3415984E+00
         13   -1    0    0    0    0  0.00000000000E+00  0.00000000000E+00  0.14999999963E+04  0.15000000000E+04  0.10566000000E+00 0. -1.
        994   -1    0    0    0    0 -0.00000000000E+00 -0.00000000000E+00  0.11368683772E-12  0.17120000000E+03  0.17120000000E+03 0.  0.
         13    1    1    2    0    0 -0.18190542388E+03  0.15061939525E+03  0.12808061121E+04  0.13023978246E+04  0.10566000000E+00 0. -1.
        994    1    1    2    0    0  0.18268507962E+03 -0.15199150825E+03  0.21232828307E+03  0.36175681983E+03  0.17120000000E+03 0.  0.
        998    1    1    2    0    0 -0.77965574507E+00  0.13721130020E+01  0.68656010736E+01  0.70453555817E+01  0.10000000000E+00 0.  1.
</event>
<event>
 5    1  0.2022058E-009  0.3881969E+03  0.7957747E-01  0.3416226E+00
         13   -1    0    0    0    0  0.00000000000E+00  0.00000000000E+00  0.14999999963E+04  0.15000000000E+04  0.10566000000E+00 0. -1.
        994   -1    0    0    0    0 -0.00000000000E+00 -0.00000000000E+00  0.11368683772E-12  0.17120000000E+03  0.17120000000E+03 0.  0.
         13    1    1    2    0    0 -0.50302661867E+02  0.22269901246E+03  0.12621591458E+04  0.12826421670E+04  0.10566000000E+00 0. -1.
        994    1    1    2    0    0  0.50314119728E+02 -0.22738126826E+03  0.20251823281E+03  0.35292609201E+03  0.17120000000E+03 0.  0.
        998    1    1    2    0    0 -0.11457860978E-01  0.46822558000E+01  0.35322617648E+02  0.35631741021E+02  0.10000000000E+00 0.  1.
</event>
<event>
 5    1  0.2022058E-009  0.3883001E+03  0.7957747E-01  0.3415795E+00
         13   -1    0    0    0    0  0.00000000000E+00  0.00000000000E+00  0.14999999963E+04  0.15000000000E+04  0.10566000000E+00 0. -1.
        994   -1    0    0    0    0 -0.00000000000E+00 -0.00000000000E+00  0.11368683772E-12  0.17120000000E+03  0.17120000000E+03 0.  0.
         13    1    1    2    0    0  0.82769278370E+02  0.16225274745E+03  0.10479927466E+04  0.10637036785E+04  0.10566000000E+00 0. -1.
        994    1    1    2    0    0 -0.10309592990E+03 -0.20224910511E+03  0.19068394455E+03  0.34234964290E+03  0.17120000000E+03 0.  0.
        998    1    1    2    0    0  0.20326651530E+02  0.39996357668E+02  0.26132330510E+03  0.26514667861E+03  0.10000000000E+00 0.  1.
</event>
<event>
 5    1  0.2022058E-009  0.3882985E+03  0.7957747E-01  0.3415802E+00
         13   -1    0    0    0    0  0.00000000000E+00  0.00000000000E+00  0.14999999963E+04  0.15000000000E+04  0.10566000000E+00 0.  1.
        994   -1    0    0    0    0 -0.00000000000E+00 -0.00000000000E+00  0.11368683772E-12  0.17120000000E+03  0.17120000000E+03 0.  0.
         13    1    1    2    0    0 -0.69342073615E+02  0.42336090080E+02  0.37316378608E+03  0.38190560365E+03  0.10566000000E+00 0.  1.
        994    1    1    2    0    0  0.22744362887E+03 -0.13590741858E+03  0.27694388230E+03  0.41977230099E+03  0.17120000000E+03 0.  0.
        998    1    1    2    0    0 -0.15810155525E+03  0.93571328496E+02  0.84989232791E+03  0.86952209536E+03  0.10000000000E+00 0.  1.
</event>
<event>
 5    1  0.2022058E-009  0.3882908E+03  0.7957747E-01  0.3415834E+00
         13   -1    0    0    0    0  0.00000000000E+00  0.00000000000E+00  0.14999999963E+04  0.15000000000E+04  0.10566000000E+00 0.  1.
        994   -1    0    0    0    0 -0.00000000000E+00 -0.00000000000E+00  0.11368683772E-12  0.17120000000E+03  0.17120000000E+03 0.  0.
         13    1    1    2    0    0 -0.11069689516E+03 -0.20014884527E+03  0.12988410268E+04  0.13188257607E+04  0.10566000000E+00 0.  1.
        994    1    1    2    0    0  0.11101828802E+03  0.20083706271E+03  0.19554929760E+03  0.34671249448E+03  0.17120000000E+03 0.  0.
        998    1    1    2    0    0 -0.32139286459E+00 -0.68821743892E+00  0.56096718371E+01  0.56617448491E+01  0.10000000000E+00 0. -1.
</event>
<event>
 5    1  0.2022058E-009  0.3882963E+03  0.7957747E-01  0.3415812E+00
         13   -1    0    0    0    0  0.00000000000E+00  0.00000000000E+00  0.14999999963E+04  0.15000000000E+04  0.10566000000E+00 0.  1.
        994   -1    0    0    0    0 -0.00000000000E+00 -0.00000000000E+00  0.11368683772E-12  0.17120000000E+03  0.17120000000E+03 0.  0.
         13    1    1    2    0    0 -0.27058737778E+02 -0.22097296111E+03  0.13001475938E+04  0.13190697486E+04  0.10566000000E+00 0.  1.
        994    1    1    2    0    0  0.27514430697E+02  0.22334172041E+03  0.18686338584E+03  0.33891877042E+03  0.17120000000E+03 0.  0.
        998    1    1    2    0    0 -0.45569291898E+00 -0.23687593031E+01  0.12989016659E+02  0.13211481009E+02  0.10000000000E+00 0. -1.
</event>
<event>
 5    1  0.2022058E-009  0.3882806E+03  0.7957747E-01  0.3415877E+00
         13   -1    0    0    0    0  0.00000000000E+00  0.00000000000E+00  0.14999999963E+04  0.15000000000E+04  0.10566000000E+00 0. -1.
        994   -1    0    0    0    0 -0.00000000000E+00 -0.00000000000E+00  0.11368683772E-12  0.17120000000E+03  0.17120000000E+03 0.  0.
         13    1    1    2    0    0 -0.12894838552E+03  0.18212576560E+03  0.13158131457E+04  0.13346017107E+04  0.10566000000E+00 0. -1.
        994    1    1    2    0    0  0.12898224956E+03 -0.18215689053E+03  0.18339455932E+03  0.33579838870E+03  0.17120000000E+03 0.  0.
        998    1    1    2    0    0 -0.33864040142E-01  0.31124925728E-01  0.79229127879E+00  0.79990062174E+00  0.10000000000E+00 0. -1.
</event>
<event>
 5    1  0.2022058E-009  0.3882957E+03  0.7957747E-01  0.3415814E+00
         13   -1    0    0    0    0  0.00000000000E+00  0.00000000000E+00  0.14999999963E+04  0.15000000000E+04  0.10566000000E+00 0. -1.
        994   -1    0    0    0    0 -0.00000000000E+00 -0.00000000000E+00  0.11368683772E-12  0.17120000000E+03  0.17120000000E+03 0.  0.
         13    1    1    2    0    0  0.10851400948E+03 -0.20446568838E+03  0.12622930054E+04  0.12833414006E+04  0.10566000000E+00 0. -1.
        994    1    1    2    0    0 -0.11073318667E+03  0.20870769342E+03  0.20936617847E+03  0.35911610464E+03  0.17120000000E+03 0.  0.
        998    1    1    2    0    0  0.22191771926E+01 -0.42420050449E+01  0.28340812425E+02  0.28742494727E+02  0.10000000000E+00 0.  1.
</event>
<event>
 5    1  0.2022058E-009  0.3883007E+03  0.7957747E-01  0.3415793E+00
         13   -1    0    0    0    0  0.00000000000E+00  0.00000000000E+00  0.14999999963E+04  0.15000000000E+04  0.10566000000E+00 0.  1.
        994   -1    0    0    0    0 -0.00000000000E+00 -0.00000000000E+00  0.11368683772E-12  0.17120000000E+03  0.17120000000E+03 0.  0.
         13    1    1    2    0    0  0.94043073162E+02 -0.20712204576E+03  0.11978172837E+04  0.12192251218E+04  0.10566000000E+00 0.  1.
        994    1    1    2    0    0 -0.10020234794E+03  0.22092487102E+03  0.22291781145E+03  0.37128169875E+03  0.17120000000E+03 0.  0.
        998    1    1    2    0    0  0.61592747755E+01 -0.13802825257E+02  0.79264901166E+02  0.80693179437E+02  0.10000000000E+00 0.  0.
</event>
<event>
 5    1  0.2022058E-009  0.3826048E+03  0.7957747E-01  0.3439894E+00
         13   -1    0    0    0    0  0.00000000000E+00  0.00000000000E+00  0.14999999963E+04  0.15000000000E+04  0.10566000000E+00 0.  1.
        994   -1    0    0    0    0 -0.00000000000E+00 -0.00000000000E+00  0.11368683772E-12  0.17120000000E+03  0.17120000000E+03 0.  0.
         13    1    1    2    0    0  0.50867521864E+01 -0.23754407912E+02  0.73778319535E+02  0.77674954397E+02  0.10566000000E+00 0.  1.
        994    1    1    2    0    0  0.20440146076E+02  0.87052674668E+02  0.29794114707E+02  0.19543054267E+03  0.17120000000E+03 0.  0.
        998    1    1    2    0    0 -0.25526898262E+02 -0.63298266756E+02  0.13964275620E+04  0.13980945029E+04  0.10000000000E+00 0.  1.
</event>
<event>
 5    1  0.2022058E-009  0.3880526E+03  0.7957747E-01  0.3416828E+00
         13   -1    0    0    0    0  0.00000000000E+00  0.00000000000E+00  0.14999999963E+04  0.15000000000E+04  0.10566000000E+00 0.  1.
        994   -1    0    0    0    0 -0.00000000000E+00 -0.00000000000E+00  0.11368683772E-12  0.17120000000E+03  0.17120000000E+03 0.  0.
         13    1    1    2    0    0 -0.10131737921E+02 -0.29574634210E+03  0.10845088625E+04  0.11241565883E+04  0.10566000000E+00 0.  1.
        994    1    1    2    0    0  0.76653766695E+01  0.30130396762E+03  0.39431323173E+03  0.52500971765E+03  0.17120000000E+03 0.  0.
        998    1    1    2    0    0  0.24663612512E+01 -0.55576255169E+01  0.21177902004E+02  0.22033694027E+02  0.10000000000E+00 0. -1.
</event>
<event>
 5    1  0.2022058E-009  0.3883001E+03  0.7957747E-01  0.3415796E+00
         13   -1    0    0    0    0  0.00000000000E+00  0.00000000000E+00  0.14999999963E+04  0.15000000000E+04  0.10566000000E+00 0.  1.
        994   -1    0    0    0    0 -0.00000000000E+00 -0.00000000000E+00  0.11368683772E-12  0.17120000000E+03  0.17120000000E+03 0.  0.
         13    1    1    2    0    0 -0.16504888327E+03 -0.22646567621E+03  0.10811961446E+04  0.11169211927E+04  0.10566000000E+00 0.  1.
        994    1    1    2    0    0  0.17310896770E+03  0.23771694221E+03  0.36621423983E+03  0.49989835844E+03  0.17120000000E+03 0.  0.
        998    1    1    2    0    0 -0.80600844331E+01 -0.11251266002E+02  0.52589611844E+02  0.54380448891E+02  0.10000000000E+00 0.  1.
</event>
<event>
 5    1  0.2022058E-009  0.3876820E+03  0.7957747E-01  0.3418377E+00
         13   -1    0    0    0    0  0.00000000000E+00  0.00000000000E+00  0.14999999963E+04  0.15000000000E+04  0.10566000000E+00 0. -1.
        994   -1    0    0    0    0 -0.00000000000E+00 -0.00000000000E+00  0.11368683772E-12  0.17120000000E+03  0.17120000000E+03 0.  0.
         13    1    1    2    0    0 -0.26798516199E+03 -0.37425175947E+02  0.11447725063E+04  0.11763166211E+04  0.10566000000E+00 0. -1.
        994    1    1    2    0    0  0.27709965193E+03  0.43440485797E+02  0.32265578115E+03  0.46052957127E+03  0.17120000000E+03 0.  0.
        998    1    1    2    0    0 -0.91144899392E+01 -0.60153098493E+01  0.32571708846E+02  0.34353807599E+02  0.10000000000E+00 0. -1.
</event>
<event>
 5    1  0.2022058E-009  0.3879644E+03  0.7957747E-01  0.3417196E+00
         13   -1    0    0    0    0  0.00000000000E+00  0.00000000000E+00  0.14999999963E+04  0.15000000000E+04  0.10566000000E+00 0.  1.
        994   -1    0    0    0    0 -0.00000000000E+00 -0.00000000000E+00  0.11368683772E-12  0.17120000000E+03  0.17120000000E+03 0.  0.
         13    1    1    2    0    0  0.13286214334E+03 -0.16962217183E+03  0.12745219146E+04  0.12926059539E+04  0.10566000000E+00 0.  1.
        994    1    1    2    0    0 -0.13362417541E+03  0.17705381319E+03  0.18119087158E+03  0.33368105275E+03  0.17120000000E+03 0.  0.
        998    1    1    2    0    0  0.76203206257E+00 -0.74316413602E+01  0.44287210139E+02  0.44912993310E+02  0.10000000000E+00 0.  1.
</event>
<event>
 5    1  0.2022058E-009  0.3882979E+03  0.7957747E-01  0.3415805E+00
         13   -1    0    0    0    0  0.00000000000E+00  0.00000000000E+00  0.14999999963E+04  0.15000000000E+04  0.10566000000E+00 0. -1.
        994   -1    0    0    0    0 -0.00000000000E+00 -0.00000000000E+00  0.11368683772E-12  0.17120000000E+03  0.17120000000E+03 0.  0.
         13    1    1    2    0    0  0.99516211175E+02  0.44906230816E+02  0.62339443719E+03  0.63288283382E+03  0.10566000000E+00 0. -1.
        994    1    1    2    0    0 -0.20724896034E+03 -0.92843271925E+02  0.19085213644E+03  0.34249960976E+03  0.17120000000E+03 0.  0.
        998    1    1    2    0    0  0.10773274916E+03  0.47937041109E+02  0.68575342264E+03  0.69581755642E+03  0.10000000000E+00 0.  1.
</event>
<event>
 5    1  0.2022058E-009  0.3881618E+03  0.7957747E-01  0.3416372E+00
         13   -1    0    0    0    0  0.00000000000E+00  0.00000000000E+00  0.14999999963E+04  0.15000000000E+04  0.10566000000E+00 0. -1.
        994   -1    0    0    0    0 -0.00000000000E+00 -0.00000000000E+00  0.11368683772E-12  0.17120000000E+03  0.17120000000E+03 0.  0.
         13    1    1    2    0    0 -0.19567078804E+03  0.18542711813E+03  0.11859090673E+04  0.12161622427E+04  0.10566000000E+00 0. -1.
        994    1    1    2    0    0  0.19681473069E+03 -0.18784651976E+03  0.29672700255E+03  0.43746852143E+03  0.17120000000E+03 0.  0.
        998    1    1    2    0    0 -0.11439426458E+01  0.24194016261E+01  0.17363926423E+02  0.17569235892E+02  0.10000000000E+00 0. -1.
</event>
<event>
 5    1  0.2022058E-009  0.3816338E+03  0.7957747E-01  0.3444075E+00
         13   -1    0    0    0    0  0.00000000000E+00  0.00000000000E+00  0.14999999963E+04  0.15000000000E+04  0.10566000000E+00 0.  1.
        994   -1    0    0    0    0 -0.00000000000E+00 -0.00000000000E+00  0.11368683772E-12  0.17120000000E+03  0.17120000000E+03 0.  0.
         13    1    1    2    0    0  0.19325604900E+02 -0.22140260583E+02  0.10096218856E+03  0.10515248369E+03  0.10566000000E+00 0.  1.
        994    1    1    2    0    0  0.59268353542E+02  0.15926237722E+03  0.10616194167E+03  0.26354703639E+03  0.17120000000E+03 0.  0.
        998    1    1    2    0    0 -0.78593958442E+02 -0.13712211664E+03  0.12928758660E+04  0.13025004799E+04  0.10000000000E+00 0.  1.
</event>
<event>
 5    1  0.2022058E-009  0.3883009E+03  0.7957747E-01  0.3415792E+00
         13   -1    0    0    0    0  0.00000000000E+00  0.00000000000E+00  0.14999999963E+04  0.15000000000E+04  0.10566000000E+00 0.  1.
        994   -1    0    0    0    0 -0.00000000000E+00 -0.00000000000E+00  0.11368683772E-12  0.17120000000E+03  0.17120000000E+03 0.  0.
         13    1    1    2    0    0  0.22460684018E+03 -0.40049420561E+01  0.11825803865E+04  0.12037278156E+04  0.10566000000E+00 0.  1.
        994    1    1    2    0    0 -0.24255898489E+03  0.43510591154E+01  0.22294244464E+03  0.37130387351E+03  0.17120000000E+03 0.  0.
        998    1    1    2    0    0  0.17952144703E+02 -0.34611705929E+00  0.94477165104E+02  0.96168310906E+02  0.10000000000E+00 0.  0.
</event>
<event>
 5    1  0.2022058E-009  0.3882249E+03  0.7957747E-01  0.3416109E+00
         13   -1    0    0    0    0  0.00000000000E+00  0.00000000000E+00  0.14999999963E+04  0.15000000000E+04  0.10566000000E+00 0. -1.
        994   -1    0    0    0    0 -0.00000000000E+00 -0.00000000000E+00  0.11368683772E-12  0.17120000000E+03  0.17120000000E+03 0.  0.
         13    1    1    2    0    0 -0.29617589923E+02 -0.25337067482E+03  0.12321703250E+04  0.12582994959E+04  0.10566000000E+00 0. -1.
        994    1    1    2    0    0  0.30230790378E+02  0.25484766974E+03  0.25577194515E+03  0.40073677569E+03  0.17120000000E+03 0.  0.
        998    1    1    2    0    0 -0.61320045494E+00 -0.14769949196E+01  0.12057726149E+02  0.12163728404E+02  0.10000000000E+00 0.  1.
</event>
<event>
 5    1  0.2022058E-009  0.3883000E+03  0.7957747E-01  0.3415796E+00
         13   -1    0    0    0    0  0.00000000000E+00  0.00000000000E+00  0.14999999963E+04  0.15000000000E+04  0.10566000000E+00 0.  1.
        994   -1    0    0    0    0 -0.00000000000E+00 -0.00000000000E+00  0.11368683772E-12  0.17120000000E+03  0.17120000000E+03 0.  0.
         13    1    1    2    0    0  0.13010288201E+03  0.25715303909E+03  0.11278715949E+04  0.11641085822E+04  0.10566000000E+00 0.  1.
        994    1    1    2    0    0 -0.13179343932E+03 -0.26033764416E+03  0.35822134002E+03  0.49272423125E+03  0.17120000000E+03 0.  0.
        998    1    1    2    0    0  0.16905573149E+01  0.31846050691E+01  0.13907061349E+02  0.14367186532E+02  0.10000000000E+00 0.  0.
</event>
<event>
 5    1  0.2022058E-009  0.3876368E+03  0.7957747E-01  0.3418565E+00
         13   -1    0    0    0    0  0.00000000000E+00  0.00000000000E+00  0.14999999963E+04  0.15000000000E+04  0.10566000000E+00 0. -1.
        994   -1    0    0    0    0 -0.00000000000E+00 -0.00000000000E+00  0.11368683772E-12  0.17120000000E+03  0.17120000000E+03 0.  0.
         13    1    1    2    0    0  0.12447412397E+02  0.25482463048E+01  0.59532255486E+02  0.60873083065E+02  0.10566000000E+00 0. -1.
        994    1    1    2    0    0 -0.15344366886E+03 -0.11746800929E+02  0.81755301507E+02  0.24428736392E+03  0.17120000000E+03 0.  0.
        998    1    1    2    0    0  0.14099625646E+03  0.91985546245E+01  0.13587124393E+04  0.13660395530E+04  0.10000000000E+00 0. -1.
</event>
<event>
 5    1  0.2022058E-009  0.3871379E+03  0.7957747E-01  0.3420656E+00
         13   -1    0    0    0    0  0.00000000000E+00  0.00000000000E+00  0.14999999963E+04  0.15000000000E+04  0.10566000000E+00 0.  1.
        994   -1    0    0    0    0 -0.00000000000E+00 -0.00000000000E+00  0.11368683772E-12  0.17120000000E+03  0.17120000000E+03 0.  0.
         13    1    1    2    0    0  0.72410640504E+02  0.16750106224E+03  0.10632132170E+04  0.10787595945E+04  0.10566000000E+00 0.  1.
        994    1    1    2    0    0 -0.78220571438E+02 -0.19427883825E+03  0.15995836921E+03  0.31425919982E+03  0.17120000000E+03 0.  0.
        998    1    1    2    0    0  0.58099309338E+01  0.26777776013E+02  0.27682841006E+03  0.27818120569E+03  0.10000000000E+00 0.  1.
</event>
<event>
 5    1  0.2022058E-009  0.3882722E+03  0.7957747E-01  0.3415912E+00
         13   -1    0    0    0    0  0.00000000000E+00  0.00000000000E+00  0.14999999963E+04  0.15000000000E+04  0.10566000000E+00 0. -1.
        994   -1    0    0    0    0 -0.00000000000E+00 -0.00000000000E+00  0.11368683772E-12  0.17120000000E+03  0.17120000000E+03 0.  0.
         13    1    1    2    0    0 -0.26087815447E+03 -0.18714173486E+02  0.12222033660E+04  0.12498754781E+04  0.10566000000E+00 0. -1.
        994    1    1    2    0    0  0.26204729927E+03  0.18427027592E+02  0.27105005232E+03  0.41447064222E+03  0.17120000000E+03 0.  0.
        998    1    1    2    0    0 -0.11691448007E+01  0.28714589381E+00  0.67465779568E+01  0.68538796646E+01  0.10000000000E+00 0. -1.
</event>
<event>
 5    1  0.2022058E-009  0.3866962E+03  0.7957747E-01  0.3422510E+00
         13   -1    0    0    0    0  0.00000000000E+00  0.00000000000E+00  0.14999999963E+04  0.15000000000E+04  0.10566000000E+00 0. -1.
        994   -1    0    0    0    0 -0.00000000000E+00 -0.00000000000E+00  0.11368683772E-12  0.17120000000E+03  0.17120000000E+03 0.  0.
         13    1    1    2    0    0 -0.14190940556E+03  0.13185092745E+03  0.83575965750E+03  0.85791442623E+03  0.10566000000E+00 0. -1.
        994    1    1    2    0    0  0.21465761588E+03 -0.15979665029E+03  0.28714768297E+03  0.42822434930E+03  0.17120000000E+03 0.  0.
        998    1    1    2    0    0 -0.72748210323E+02  0.27945722840E+02  0.37709265580E+03  0.38506122447E+03  0.10000000000E+00 0. -1.
</event>
<event>
 5    1  0.2022058E-009  0.3883005E+03  0.7957747E-01  0.3415794E+00
         13   -1    0    0    0    0  0.00000000000E+00  0.00000000000E+00  0.14999999963E+04  0.15000000000E+04  0.10566000000E+00 0.  1.
        994   -1    0    0    0    0 -0.00000000000E+00 -0.00000000000E+00  0.11368683772E-12  0.17120000000E+03  0.17120000000E+03 0.  0.
         13    1    1    2    0    0 -0.44715643906E+02 -0.11390847207E+03  0.36427348271E+03  0.38427829784E+03  0.10566000000E+00 0.  1.
        994    1    1    2    0    0  0.11893519404E+03  0.30549959351E+03  0.52219606147E+03  0.63990135852E+03  0.17120000000E+03 0.  0.
        998    1    1    2    0    0 -0.74219550132E+02 -0.19159112145E+03  0.61353045209E+03  0.64702034364E+03  0.10000000000E+00 0.  1.
</event>
<event>
 5    1  0.2022058E-009  0.3879993E+03  0.7957747E-01  0.3417051E+00
         13   -1    0    0    0    0  0.00000000000E+00  0.00000000000E+00  0.14999999963E+04  0.15000000000E+04  0.10566000000E+00 0.  1.
        994   -1    0    0    0    0 -0.00000000000E+00 -0.00000000000E+00  0.11368683772E-12  0.17120000000E+03  0.17120000000E+03 0.  0.
         13    1    1    2    0    0  0.16188998135E+03 -0.16809328941E+03  0.11301133885E+04  0.11539584057E+04  0.10566000000E+00 0.  1.
        994    1    1    2    0    0 -0.18350282694E+03  0.18134320514E+03  0.25952765570E+03  0.40400827915E+03  0.17120000000E+03 0.  0.
        998    1    1    2    0    0  0.21612845594E+02 -0.13249915729E+02  0.11035895208E+03  0.11323331518E+03  0.10000000000E+00 0. -1.
</event>
<event>
 5    1  0.2022058E-009  0.3882656E+03  0.7957747E-01  0.3415939E+00
         13   -1    0    0    0    0  0.00000000000E+00  0.00000000000E+00  0.14999999963E+04  0.15000000000E+04  0.10566000000E+00 0. -1.
        994   -1    0    0    0    0 -0.00000000000E+00 -0.00000000000E+00  0.11368683772E-12  0.17120000000E+03  0.17120000000E+03 0.  0.
         13    1    1    2    0    0  0.15933278306E+03  0.18297545471E+03  0.12751691258E+04  0.12980459404E+04  0.10566000000E+00 0. -1.
        994    1    1    2    0    0 -0.15948734874E+03 -0.18330182947E+03  0.22382031029E+03  0.37207626422E+03  0.17120000000E+03 0.  0.
        998    1    1    2    0    0  0.15456568206E+00  0.32637475656E+00  0.10105601794E+01  0.10777953925E+01  0.10000000000E+00 0. -1.
</event>
<event>
 5    1  0.2022058E-009  0.3842319E+03  0.7957747E-01  0.3432936E+00
         13   -1    0    0    0    0  0.00000000000E+00  0.00000000000E+00  0.14999999963E+04  0.15000000000E+04  0.10566000000E+00 0.  1.
        994   -1    0    0    0    0 -0.00000000000E+00 -0.00000000000E+00  0.11368683772E-12  0.17120000000E+03  0.17120000000E+03 0.  0.
         13    1    1    2    0    0 -0.13679588039E+03 -0.65637042864E+01  0.70046645064E+03  0.71372925872E+03  0.10566000000E+00 0.  1.
        994    1    1    2    0    0  0.19078669665E+03  0.85724536523E+01  0.13330463892E+03  0.28905469610E+03  0.17120000000E+03 0.  0.
        998    1    1    2    0    0 -0.53990816258E+02 -0.20087493659E+01  0.66622890672E+03  0.66841604518E+03  0.10000000000E+00 0.  1.
</event>
<event>
 5    1  0.2022058E-009  0.3879853E+03  0.7957747E-01  0.3417109E+00
         13   -1    0    0    0    0  0.00000000000E+00  0.00000000000E+00  0.14999999963E+04  0.15000000000E+04  0.10566000000E+00 0.  1.
        994   -1    0    0    0    0 -0.00000000000E+00 -0.00000000000E+00  0.11368683772E-12  0.17120000000E+03  0.17120000000E+03 0.  0.
         13    1    1    2    0    0 -0.90207200923E+02 -0.19373584333E+03  0.12611321727E+04  0.12791111305E+04  0.10566000000E+00 0.  1.
        994    1    1    2    0    0  0.89985687058E+02  0.20397700954E+03  0.18328397585E+03  0.33556892005E+03  0.17120000000E+03 0.  0.
        998    1    1    2    0    0  0.22151386528E+00 -0.10241166212E+02  0.55583847723E+02  0.56519949411E+02  0.10000000000E+00 0. -1.
</event>
<event>
 5    1  0.2022058E-009  0.3882851E+03  0.7957747E-01  0.3415858E+00
         13   -1    0    0    0    0  0.00000000000E+00  0.00000000000E+00  0.14999999963E+04  0.15000000000E+04  0.10566000000E+00 0.  1.
        994   -1    0    0    0    0 -0.00000000000E+00 -0.00000000000E+00  0.11368683772E-12  0.17120000000E+03  0.17120000000E+03 0.  0.
         13    1    1    2    0    0 -0.24650709999E+03 -0.11096125842E+03  0.11847214924E+04  0.12151720771E+04  0.10566000000E+00 0.  1.
        994    1    1    2    0    0  0.24928706343E+03  0.11278635352E+03  0.30088552506E+03  0.44125541439E+03  0.17120000000E+03 0.  0.
        998    1    1    2    0    0 -0.27799634444E+01 -0.18250950913E+01  0.14392978788E+02  0.14772508495E+02  0.10000000000E+00 0. -1.
</event>
<event>
 5    1  0.2022058E-009  0.3882889E+03  0.7957747E-01  0.3415842E+00
         13   -1    0    0    0    0  0.00000000000E+00  0.00000000000E+00  0.14999999963E+04  0.15000000000E+04  0.10566000000E+00 0.  1.
        994   -1    0    0    0    0 -0.00000000000E+00 -0.00000000000E+00  0.11368683772E-12  0.17120000000E+03  0.17120000000E+03 0.  0.
         13    1    1    2    0    0 -0.32169361782E+03 -0.22157424958E+02  0.98805228396E+03  0.10393387620E+04  0.10566000000E+00 0.  1.
        994    1    1    2    0    0  0.32421371390E+03  0.22033011551E+02  0.50483708718E+03  0.62431555360E+03  0.17120000000E+03 0.  0.
        998    1    1    2    0    0 -0.25200960733E+01  0.12441340629E+00  0.71106251387E+01  0.75456843810E+01  0.10000000000E+00 0.  1.
</event>
<event>
 5    1  0.2022058E-009  0.3882914E+03  0.7957747E-01  0.3415832E+00
         13   -1    0    0    0    0  0.00000000000E+00  0.00000000000E+00  0.14999999963E+04  0.15000000000E+04  0.10566000000E+00 0.  1.
        994   -1    0    0    0    0 -0.00000000000E+00 -0.00000000000E+00  0.11368683772E-12  0.17120000000E+03  0.17120000000E+03 0.  0.
         13    1    1    2    0    0  0.23202212979E+03  0.89024456202E+02  0.12301485589E+04  0.12550000441E+04  0.10566000000E+00 0.  1.
        994    1    1    2    0    0 -0.23641862256E+03 -0.90185819628E+02  0.24690994357E+03  0.39281192368E+03  0.17120000000E+03 0.  0.
        998    1    1    2    0    0  0.43964927671E+01  0.11613634263E+01  0.22941493778E+02  0.23388032205E+02  0.10000000000E+00 0.  0.
</event>
<event>
 5    1  0.2022058E-009  0.3833838E+03  0.7957747E-01  0.3436556E+00
         13   -1    0    0    0    0  0.00000000000E+00  0.00000000000E+00  0.14999999963E+04  0.15000000000E+04  0.10566000000E+00 0.  1.
        994   -1    0    0    0    0 -0.00000000000E+00 -0.00000000000E+00  0.11368683772E-12  0.17120000000E+03  0.17120000000E+03 0.  0.
         13    1    1    2    0    0  0.19416681893E+01 -0.15462810810E+02  0.93238952787E+02  0.94532439270E+02  0.10566000000E+00 0.  1.
        994    1    1    2    0    0  0.48892242709E+02 -0.73812673808E+02  0.28795708683E+02  0.19487789780E+03  0.17120000000E+03 0.  0.
        998    1    1    2    0    0 -0.50833910899E+02  0.89275484617E+02  0.13779653348E+04  0.13817896629E+04  0.10000000000E+00 0.  1.
</event>
<event>
 5    1  0.2022058E-009  0.3882727E+03  0.7957747E-01  0.3415910E+00
         13   -1    0    0    0    0  0.00000000000E+00  0.00000000000E+00  0.14999999963E+04  0.15000000000E+04  0.10566000000E+00 0. -1.
        994   -1    0    0    0    0 -0.00000000000E+00 -0.00000000000E+00  0.11368683772E-12  0.17120000000E+03  0.17120000000E+03 0.  0.
         13    1    1    2    0    0 -0.83637248616E+01 -0.18640220028E+03  0.85428183222E+03  0.87442163296E+03  0.10566000000E+00 0. -1.
        994    1    1    2    0    0  0.11075775384E+02  0.26337910747E+03  0.27344618662E+03  0.41662151172E+03  0.17120000000E+03 0.  0.
        998    1    1    2    0    0 -0.27120505223E+01 -0.76976907195E+02  0.37227197744E+03  0.38015685532E+03  0.10000000000E+00 0.  1.
</event>
<event>
 5    1  0.2022058E-009  0.3883007E+03  0.7957747E-01  0.3415793E+00
         13   -1    0    0    0    0  0.00000000000E+00  0.00000000000E+00  0.14999999963E+04  0.15000000000E+04  0.10566000000E+00 0.  1.
        994   -1    0    0    0    0 -0.00000000000E+00 -0.00000000000E+00  0.11368683772E-12  0.17120000000E+03  0.17120000000E+03 0.  0.
         13    1    1    2    0    0 -0.67222158470E+02 -0.10080050289E+03  0.57016010873E+03  0.58289117400E+03  0.10566000000E+00 0.  1.
        994    1    1    2    0    0  0.14465492304E+03  0.21812866030E+03  0.26851307351E+03  0.41220610118E+03  0.17120000000E+03 0.  0.
        998    1    1    2    0    0 -0.77432764568E+02 -0.11732815741E+03  0.66132681404E+03  0.67610272482E+03  0.10000000000E+00 0.  1.
</event>
<event>
 5    1  0.2022058E-009  0.3883009E+03  0.7957747E-01  0.3415792E+00
         13   -1    0    0    0    0  0.00000000000E+00  0.00000000000E+00  0.14999999963E+04  0.15000000000E+04  0.10566000000E+00 0.  1.
        994   -1    0    0    0    0 -0.00000000000E+00 -0.00000000000E+00  0.11368683772E-12  0.17120000000E+03  0.17120000000E+03 0.  0.
         13    1    1    2    0    0  0.30877577814E+03  0.54690827533E+02  0.72080840106E+03  0.78606509272E+03  0.10566000000E+00 0.  1.
        994    1    1    2    0    0 -0.34110839061E+03 -0.60453686836E+02  0.70386793120E+03  0.80296269338E+03  0.17120000000E+03 0.  0.
        998    1    1    2    0    0  0.32332612463E+02  0.57628593024E+01  0.75323664016E+02  0.82172213897E+02  0.10000000000E+00 0.  0.
</event>
<event>
 5    1  0.2022058E-009  0.3882947E+03  0.7957747E-01  0.3415818E+00
         13   -1    0    0    0    0  0.00000000000E+00  0.00000000000E+00  0.14999999963E+04  0.15000000000E+04  0.10566000000E+00 0.  1.
        994   -1    0    0    0    0 -0.00000000000E+00 -0.00000000000E+00  0.11368683772E-12  0.17120000000E+03  0.17120000000E+03 0.  0.
         13    1    1    2    0    0  0.21112977744E+02  0.14983933681E+03  0.64828893966E+03  0.66571476259E+03  0.10566000000E+00 0.  1.
        994    1    1    2    0    0 -0.35990278077E+02 -0.27453761141E+03  0.31042289116E+03  0.44981997683E+03  0.17120000000E+03 0.  0.
        998    1    1    2    0    0  0.14877300333E+02  0.12469827460E+03  0.54128816546E+03  0.55566526058E+03  0.10000000000E+00 0.  1.
</event>
<event>
 5    1  0.2022058E-009  0.3862168E+03  0.7957747E-01  0.3424528E+00
         13   -1    0    0    0    0  0.00000000000E+00  0.00000000000E+00  0.14999999963E+04  0.15000000000E+04  0.10566000000E+00 0. -1.
        994   -1    0    0    0    0 -0.00000000000E+00 -0.00000000000E+00  0.11368683772E-12  0.17120000000E+03  0.17120000000E+03 0.  0.
         13    1    1    2    0    0  0.26049741819E+03  0.11708566194E+03  0.10492084333E+04  0.10873850766E+04  0.10566000000E+00 0. -1.
        994    1    1    2    0    0 -0.26485203163E+03 -0.12854487592E+03  0.37307885986E+03  0.50514122724E+03  0.17120000000E+03 0.  0.
        998    1    1    2    0    0  0.43546134428E+01  0.11459213980E+02  0.77712703104E+02  0.78673696157E+02  0.10000000000E+00 0. -1.
</event>
<event>
 5    1  0.2022058E-009  0.3882992E+03  0.7957747E-01  0.3415799E+00
         13   -1    0    0    0    0  0.00000000000E+00  0.00000000000E+00  0.14999999963E+04  0.15000000000E+04  0.10566000000E+00 0.  1.
        994   -1    0    0    0    0 -0.00000000000E+00 -0.00000000000E+00  0.11368683772E-12  0.17120000000E+03  0.17120000000E+03 0.  0.
         13    1    1    2    0    0  0.84423560740E+02 -0.24888944985E+03  0.12088972667E+04  0.12371361721E+04  0.10566000000E+00 0.  1.
        994    1    1    2    0    0 -0.85421442683E+02  0.25142884823E+03  0.27850700518E+03  0.42117559346E+03  0.17120000000E+03 0.  0.
        998    1    1    2    0    0  0.99788194339E+00 -0.25393983791E+01  0.12595724402E+02  0.12888234391E+02  0.10000000000E+00 0.  1.
</event>
<event>
 5    1  0.2022058E-009  0.3883006E+03  0.7957747E-01  0.3415793E+00
         13   -1    0    0    0    0  0.00000000000E+00  0.00000000000E+00  0.14999999963E+04  0.15000000000E+04  0.10566000000E+00 0. -1.
        994   -1    0    0    0    0 -0.00000000000E+00 -0.00000000000E+00  0.11368683772E-12  0.17120000000E+03  0.17120000000E+03 0.  0.
         13    1    1    2    0    0 -0.32164758703E+02  0.12532051807E+03  0.59484715350E+03  0.60875524732E+03  0.10566000000E+00 0. -1.
        994    1    1    2    0    0  0.66728009248E+02 -0.25722526069E+03  0.27902799219E+03  0.42164383356E+03  0.17120000000E+03 0.  0.
        998    1    1    2    0    0 -0.34563250545E+02  0.13190474263E+03  0.62612485059E+03  0.64080091912E+03  0.10000000000E+00 0.  1.
</event>
<event>
 5    1  0.2022058E-009  0.3882980E+03  0.7957747E-01  0.3415804E+00
         13   -1    0    0    0    0  0.00000000000E+00  0.00000000000E+00  0.14999999963E+04  0.15000000000E+04  0.10566000000E+00 0.  1.
        994   -1    0    0    0    0 -0.00000000000E+00 -0.00000000000E+00  0.11368683772E-12  0.17120000000E+03  0.17120000000E+03 0.  0.
         13    1    1    2    0    0 -0.37072479045E+02 -0.22772846805E+03  0.12796446904E+04  0.13002788811E+04  0.10566000000E+00 0.  1.
        994    1    1    2    0    0  0.37342056840E+02  0.23060769694E+03  0.20387204816E+03  0.35418581439E+03  0.17120000000E+03 0.  0.
        998    1    1    2    0    0 -0.26957779491E+00 -0.28792288868E+01  0.16483257717E+02  0.16735304483E+02  0.10000000000E+00 0.  0.
</event>
<event>
 5    1  0.2022058E-009  0.3882359E+03  0.7957747E-01  0.3416063E+00
         13   -1    0    0    0    0  0.00000000000E+00  0.00000000000E+00  0.14999999963E+04  0.15000000000E+04  0.10566000000E+00 0. -1.
        994   -1    0    0    0    0 -0.00000000000E+00 -0.00000000000E+00  0.11368683772E-12  0.17120000000E+03  0.17120000000E+03 0.  0.
         13    1    1    2    0    0 -0.48042832257E+02  0.28221900146E+03  0.11529271185E+04  0.11879379741E+04  0.10566000000E+00 0. -1.
        994    1    1    2    0    0  0.48569544446E+02 -0.28286895325E+03  0.34218884866E+03  0.47830585770E+03  0.17120000000E+03 0.  0.
        998    1    1    2    0    0 -0.52671218910E+00  0.64995179243E+00  0.48840290754E+01  0.49561681844E+01  0.10000000000E+00 0.  1.
</event>
<event>
 5    1  0.2022058E-009  0.3882990E+03  0.7957747E-01  0.3415800E+00
         13   -1    0    0    0    0  0.00000000000E+00  0.00000000000E+00  0.14999999963E+04  0.15000000000E+04  0.10566000000E+00 0.  1.
        994   -1    0    0    0    0 -0.00000000000E+00 -0.00000000000E+00  0.11368683772E-12  0.17120000000E+03  0.17120000000E+03 0.  0.
         13    1    1    2    0    0  0.61172306161E+02 -0.22437031605E+03  0.12585893732E+04  0.12798950392E+04  0.10566000000E+00 0.  1.
        994    1    1    2    0    0 -0.62551457672E+02  0.22966066050E+03  0.21307356835E+03  0.36244515360E+03  0.17120000000E+03 0.  0.
        998    1    1    2    0    0  0.13791515112E+01 -0.52903444546E+01  0.28337054696E+02  0.28859807210E+02  0.10000000000E+00 0. -1.
</event>
<event>
 5    1  0.2022058E-009  0.3855080E+03  0.7957747E-01  0.3427521E+00
         13   -1    0    0    0    0  0.00000000000E+00  0.00000000000E+00  0.14999999963E+04  0.15000000000E+04  0.10566000000E+00 0.  1.
        994   -1    0    0    0    0 -0.00000000000E+00 -0.00000000000E+00  0.11368683772E-12  0.17120000000E+03  0.17120000000E+03 0.  0.
         13    1    1    2    0    0 -0.10261540410E+03  0.11773830322E+03  0.76658955273E+03  0.78233738421E+03  0.10566000000E+00 0.  1.
        994    1    1    2    0    0  0.11993894316E+03 -0.19867598662E+03  0.20454998502E+03  0.35356418670E+03  0.17120000000E+03 0.  0.
        998    1    1    2    0    0 -0.17323539061E+02  0.80937683395E+02  0.52886045853E+03  0.53529842909E+03  0.10000000000E+00 0.  1.
</event>
<event>
 5    1  0.2022058E-009  0.3883008E+03  0.7957747E-01  0.3415793E+00
         13   -1    0    0    0    0  0.00000000000E+00  0.00000000000E+00  0.14999999963E+04  0.15000000000E+04  0.10566000000E+00 0. -1.
        994   -1    0    0    0    0 -0.00000000000E+00 -0.00000000000E+00  0.11368683772E-12  0.17120000000E+03  0.17120000000E+03 0.  0.
         13    1    1    2    0    0  0.12855116445E+03 -0.16787714734E+03  0.10734546170E+04  0.10940808765E+04  0.10566000000E+00 0. -1.
        994    1    1    2    0    0 -0.15142094444E+03  0.19748223003E+03  0.23704829349E+03  0.38396466899E+03  0.17120000000E+03 0.  0.
        998    1    1    2    0    0  0.22869779986E+02 -0.29605082684E+02  0.18949708584E+03  0.19315445451E+03  0.10000000000E+00 0.  1.
</event>
<event>
 5    1  0.2022058E-009  0.3882928E+03  0.7957747E-01  0.3415826E+00
         13   -1    0    0    0    0  0.00000000000E+00  0.00000000000E+00  0.14999999963E+04  0.15000000000E+04  0.10566000000E+00 0. -1.
        994   -1    0    0    0    0 -0.00000000000E+00 -0.00000000000E+00  0.11368683772E-12  0.17120000000E+03  0.17120000000E+03 0.  0.
         13    1    1    2    0    0  0.21251991187E+03 -0.11239380853E+03  0.10929814693E+04  0.11191092817E+04  0.10566000000E+00 0. -1.
        994    1    1    2    0    0 -0.23687547370E+03  0.12576562312E+03  0.28567157585E+03  0.42760340416E+03  0.17120000000E+03 0.  0.
        998    1    1    2    0    0  0.24355561823E+02 -0.13371814597E+02  0.12134695115E+03  0.12448731410E+03  0.10000000000E+00 0. -1.
</event>
<event>
 5    1  0.2022058E-009  0.3883009E+03  0.7957747E-01  0.3415792E+00
         13   -1    0    0    0    0  0.00000000000E+00  0.00000000000E+00  0.14999999963E+04  0.15000000000E+04  0.10566000000E+00 0.  1.
        994   -1    0    0    0    0 -0.00000000000E+00 -0.00000000000E+00  0.11368683772E-12  0.17120000000E+03  0.17120000000E+03 0.  0.
         13    1    1    2    0    0 -0.27579744230E+02 -0.11390788613E+03  0.63461912808E+03  0.64535036817E+03  0.10566000000E+00 0.  1.
        994    1    1    2    0    0  0.55736402025E+02  0.23092797364E+03  0.21208091744E+03  0.36155501803E+03  0.17120000000E+03 0.  0.
        998    1    1    2    0    0 -0.28156657795E+02 -0.11702008751E+03  0.65329995076E+03  0.66429461380E+03  0.10000000000E+00 0.  1.
</event>
<event>
 5    1  0.2022058E-009  0.3882984E+03  0.7957747E-01  0.3415802E+00
         13   -1    0    0    0    0  0.00000000000E+00  0.00000000000E+00  0.14999999963E+04  0.15000000000E+04  0.10566000000E+00 0.  1.
        994   -1    0    0    0    0 -0.00000000000E+00 -0.00000000000E+00  0.11368683772E-12  0.17120000000E+03  0.17120000000E+03 0.  0.
         13    1    1    2    0    0 -0.20769917149E+03  0.23289692700E+02  0.10517808362E+04  0.10723452309E+04  0.10566000000E+00 0.  1.
        994    1    1    2    0    0  0.24913572579E+03 -0.27217880898E+02  0.24116603969E+03  0.38765954342E+03  0.17120000000E+03 0.  0.
        998    1    1    2    0    0 -0.41436554305E+02  0.39281881980E+01  0.20705312040E+03  0.21119522571E+03  0.10000000000E+00 0. -1.
</event>
<event>
 5    1  0.2022058E-009  0.3882947E+03  0.7957747E-01  0.3415818E+00
         13   -1    0    0    0    0  0.00000000000E+00  0.00000000000E+00  0.14999999963E+04  0.15000000000E+04  0.10566000000E+00 0. -1.
        994   -1    0    0    0    0 -0.00000000000E+00 -0.00000000000E+00  0.11368683772E-12  0.17120000000E+03  0.17120000000E+03 0.  0.
         13    1    1    2    0    0 -0.11335843082E+03  0.15257260355E+03  0.10805444299E+04  0.10971348183E+04  0.10566000000E+00 0. -1.
        994    1    1    2    0    0  0.13716726446E+03 -0.18520692043E+03  0.19751850183E+03  0.34848164999E+03  0.17120000000E+03 0.  0.
        998    1    1    2    0    0 -0.23808833630E+02  0.32634316883E+02  0.22193706450E+03  0.22558353175E+03  0.10000000000E+00 0. -1.
</event>
<event>
 5    1  0.2022058E-009  0.3883008E+03  0.7957747E-01  0.3415792E+00
         13   -1    0    0    0    0  0.00000000000E+00  0.00000000000E+00  0.14999999963E+04  0.15000000000E+04  0.10566000000E+00 0. -1.
        994   -1    0    0    0    0 -0.00000000000E+00 -0.00000000000E+00  0.11368683772E-12  0.17120000000E+03  0.17120000000E+03 0.  0.
         13    1    1    2    0    0 -0.24186746088E+03  0.96219430926E+02  0.11115816810E+04  0.11416531401E+04  0.10566000000E+00 0. -1.
        994    1    1    2    0    0  0.25818448706E+03 -0.10266937067E+03  0.31327964439E+03  0.45238678653E+03  0.17120000000E+03 0.  0.
        998    1    1    2    0    0 -0.16317026180E+02  0.64499397471E+01  0.75138670849E+02  0.77160073374E+02  0.10000000000E+00 0.  1.
</event>
<event>
 5    1  0.2022058E-009  0.3881881E+03  0.7957747E-01  0.3416263E+00
         13   -1    0    0    0    0  0.00000000000E+00  0.00000000000E+00  0.14999999963E+04  0.15000000000E+04  0.10566000000E+00 0. -1.
        994   -1    0    0    0    0 -0.00000000000E+00 -0.00000000000E+00  0.11368683772E-12  0.17120000000E+03  0.17120000000E+03 0.  0.
         13    1    1    2    0    0 -0.46521137947E+02  0.22740363945E+03  0.12562459284E+04  0.12775094815E+04  0.10566000000E+00 0. -1.
        994    1    1    2    0    0  0.47606675031E+02 -0.23144808457E+03  0.20957857760E+03  0.35925928178E+03  0.17120000000E+03 0.  0.
        998    1    1    2    0    0 -0.10855370836E+01  0.40444451141E+01  0.34175490226E+02  0.34431236678E+02  0.10000000000E+00 0.  1.
</event>
<event>
 5    1  0.2022058E-009  0.3880258E+03  0.7957747E-01  0.3416940E+00
         13   -1    0    0    0    0  0.00000000000E+00  0.00000000000E+00  0.14999999963E+04  0.15000000000E+04  0.10566000000E+00 0. -1.
        994   -1    0    0    0    0 -0.00000000000E+00 -0.00000000000E+00  0.11368683772E-12  0.17120000000E+03  0.17120000000E+03 0.  0.
         13    1    1    2    0    0  0.17672504402E+03  0.97218432303E+02  0.11858977810E+04  0.12029283948E+04  0.10566000000E+00 0. -1.
        994    1    1    2    0    0 -0.19941616893E+03 -0.10213445842E+03  0.18533204183E+03  0.33742504613E+03  0.17120000000E+03 0.  0.
        998    1    1    2    0    0  0.22691124913E+02  0.49160261127E+01  0.12877017343E+03  0.13084655910E+03  0.10000000000E+00 0. -1.
</event>
<event>
 5    1  0.2022058E-009  0.3883000E+03  0.7957747E-01  0.3415796E+00
         13   -1    0    0    0    0  0.00000000000E+00  0.00000000000E+00  0.14999999963E+04  0.15000000000E+04  0.10566000000E+00 0.  1.
        994   -1    0    0    0    0 -0.00000000000E+00 -0.00000000000E+00  0.11368683772E-12  0.17120000000E+03  0.17120000000E+03 0.  0.
         13    1    1    2    0    0  0.18137396551E+03  0.12477206588E+03  0.13004916416E+04  0.13189932164E+04  0.10566000000E+00 0.  1.
        994    1    1    2    0    0 -0.18375393561E+03 -0.12639260070E+03  0.18304430216E+03  0.33549255568E+03  0.17120000000E+03 0.  0.
        998    1    1    2    0    0  0.23799700962E+01  0.16205348190E+01  0.16464052527E+02  0.16714227963E+02  0.10000000000E+00 0.  1.
</event>
<event>
 5    1  0.2022058E-009  0.3882979E+03  0.7957747E-01  0.3415805E+00
         13   -1    0    0    0    0  0.00000000000E+00  0.00000000000E+00  0.14999999963E+04  0.15000000000E+04  0.10566000000E+00 0. -1.
        994   -1    0    0    0    0 -0.00000000000E+00 -0.00000000000E+00  0.11368683772E-12  0.17120000000E+03  0.17120000000E+03 0.  0.
         13    1    1    2    0    0 -0.20983506169E+03 -0.52364873146E+02  0.12579695600E+04  0.12764247953E+04  0.10566000000E+00 0. -1.
        994    1    1    2    0    0  0.21865374425E+03  0.54979704421E+02  0.18768708009E+03  0.33965881087E+03  0.17120000000E+03 0.  0.
        998    1    1    2    0    0 -0.88186825566E+01 -0.26148312755E+01  0.54343356168E+02  0.55116393789E+02  0.10000000000E+00 0. -1.
</event>
<event>
 5    1  0.2022058E-009  0.3883005E+03  0.7957747E-01  0.3415794E+00
         13   -1    0    0    0    0  0.00000000000E+00  0.00000000000E+00  0.14999999963E+04  0.15000000000E+04  0.10566000000E+00 0. -1.
        994   -1    0    0    0    0 -0.00000000000E+00 -0.00000000000E+00  0.11368683772E-12  0.17120000000E+03  0.17120000000E+03 0.  0.
         13    1    1    2    0    0 -0.47975325240E+02  0.88437753042E+01  0.25268256551E+03  0.25734866285E+03  0.10566000000E+00 0.  1.
        994    1    1    2    0    0  0.24101801121E+03 -0.45984704136E+02  0.22909681201E+03  0.37682763170E+03  0.17120000000E+03 0.  0.
        998    1    1    2    0    0 -0.19304268597E+03  0.37140928832E+02  0.10182206188E+04  0.10370237054E+04  0.10000000000E+00 0. -1.
</event>
<event>
 5    1  0.2022058E-009  0.3882997E+03  0.7957747E-01  0.3415797E+00
         13   -1    0    0    0    0  0.00000000000E+00  0.00000000000E+00  0.14999999963E+04  0.15000000000E+04  0.10566000000E+00 0. -1.
        994   -1    0    0    0    0 -0.00000000000E+00 -0.00000000000E+00  0.11368683772E-12  0.17120000000E+03  0.17120000000E+03 0.  0.
         13    1    1    2    0    0  0.30410571061E+02  0.67186543244E+02  0.41219900520E+03  0.41874439158E+03  0.10566000000E+00 0. -1.
        994    1    1    2    0    0 -0.94552220355E+02 -0.21303813127E+03  0.20277903762E+03  0.35320552918E+03  0.17120000000E+03 0.  0.
        998    1    1    2    0    0  0.64141649294E+02  0.14585158802E+03  0.88502195346E+03  0.89925007924E+03  0.10000000000E+00 0. -1.
</event>
<event>
 5    1  0.2022058E-009  0.3883004E+03  0.7957747E-01  0.3415794E+00
         13   -1    0    0    0    0  0.00000000000E+00  0.00000000000E+00  0.14999999963E+04  0.15000000000E+04  0.10566000000E+00 0. -1.
        994   -1    0    0    0    0 -0.00000000000E+00 -0.00000000000E+00  0.11368683772E-12  0.17120000000E+03  0.17120000000E+03 0.  0.
         13    1    1    2    0    0 -0.15091354362E+03  0.17238652324E+03  0.12092976298E+04  0.12308098064E+04  0.10566000000E+00 0. -1.
        994    1    1    2    0    0  0.15966757905E+03 -0.18214300590E+03  0.22210994079E+03  0.37055644131E+03  0.17120000000E+03 0.  0.
        998    1    1    2    0    0 -0.87540354316E+01  0.97564826631E+01  0.68592425731E+02  0.69833752283E+02  0.10000000000E+00 0.  0.
</event>
<event>
 5    1  0.2022058E-009  0.3882734E+03  0.7957747E-01  0.3415907E+00
         13   -1    0    0    0    0  0.00000000000E+00  0.00000000000E+00  0.14999999963E+04  0.15000000000E+04  0.10566000000E+00 0.  1.
        994   -1    0    0    0    0 -0.00000000000E+00 -0.00000000000E+00  0.11368683772E-12  0.17120000000E+03  0.17120000000E+03 0.  0.
         13    1    1    2    0    0  0.19918991777E+03  0.10910977608E+03  0.13029716342E+04  0.13226173510E+04  0.10566000000E+00 0.  1.
        994    1    1    2    0    0 -0.19959993159E+03 -0.10941890109E+03  0.19191706645E+03  0.34344465202E+03  0.17120000000E+03 0.  0.
        998    1    1    2    0    0  0.41001382058E+00  0.30912500532E+00  0.51112956324E+01  0.51379969486E+01  0.10000000000E+00 0.  1.
</event>
<event>
 5    1  0.2022058E-009  0.3882928E+03  0.7957747E-01  0.3415826E+00
         13   -1    0    0    0    0  0.00000000000E+00  0.00000000000E+00  0.14999999963E+04  0.15000000000E+04  0.10566000000E+00 0.  1.
        994   -1    0    0    0    0 -0.00000000000E+00 -0.00000000000E+00  0.11368683772E-12  0.17120000000E+03  0.17120000000E+03 0.  0.
         13    1    1    2    0    0 -0.27988044394E+03  0.14957254130E+03  0.98657105210E+03  0.10363529611E+04  0.10566000000E+00 0.  1.
        994    1    1    2    0    0  0.28484769576E+03 -0.15273873494E+03  0.49479450877E+03  0.61530348352E+03  0.17120000000E+03 0.  0.
        998    1    1    2    0    0 -0.49672518266E+01  0.31661936364E+01  0.18634435411E+02  0.19543555356E+02  0.10000000000E+00 0. -1.
</event>
<event>
 5    1  0.2022058E-009  0.3882991E+03  0.7957747E-01  0.3415800E+00
         13   -1    0    0    0    0  0.00000000000E+00  0.00000000000E+00  0.14999999963E+04  0.15000000000E+04  0.10566000000E+00 0.  1.
        994   -1    0    0    0    0 -0.00000000000E+00 -0.00000000000E+00  0.11368683772E-12  0.17120000000E+03  0.17120000000E+03 0.  0.
         13    1    1    2    0    0 -0.15764854612E+03 -0.28623744812E+03  0.82946829737E+03  0.89151702636E+03  0.10566000000E+00 0.  1.
        994    1    1    2    0    0  0.16501902008E+03  0.29907609598E+03  0.63352658294E+03  0.73982643875E+03  0.17120000000E+03 0.  0.
        998    1    1    2    0    0 -0.73704739564E+01 -0.12838647866E+02  0.37005115970E+02  0.39856534889E+02  0.10000000000E+00 0.  0.
</event>
<event>
 5    1  0.2022058E-009  0.3882604E+03  0.7957747E-01  0.3415961E+00
         13   -1    0    0    0    0  0.00000000000E+00  0.00000000000E+00  0.14999999963E+04  0.15000000000E+04  0.10566000000E+00 0.  1.
        994   -1    0    0    0    0 -0.00000000000E+00 -0.00000000000E+00  0.11368683772E-12  0.17120000000E+03  0.17120000000E+03 0.  0.
         13    1    1    2    0    0 -0.10481105994E+03 -0.23403196552E+03  0.10817747707E+04  0.11117522138E+04  0.10566000000E+00 0.  1.
        994    1    1    2    0    0  0.11316545306E+03  0.25693792025E+03  0.32220105603E+03  0.46037644937E+03  0.17120000000E+03 0.  0.
        998    1    1    2    0    0 -0.83543931202E+01 -0.22905954732E+02  0.96024169566E+02  0.99071336861E+02  0.10000000000E+00 0.  1.
</event>
<event>
 5    1  0.2022058E-009  0.3883002E+03  0.7957747E-01  0.3415795E+00
         13   -1    0    0    0    0  0.00000000000E+00  0.00000000000E+00  0.14999999963E+04  0.15000000000E+04  0.10566000000E+00 0. -1.
        994   -1    0    0    0    0 -0.00000000000E+00 -0.00000000000E+00  0.11368683772E-12  0.17120000000E+03  0.17120000000E+03 0.  0.
         13    1    1    2    0    0  0.12287552485E+03  0.19015692906E+03  0.12807915876E+04  0.13006479748E+04  0.10566000000E+00 0. -1.
        994    1    1    2    0    0 -0.12495743338E+03 -0.19351506117E+03  0.19727688835E+03  0.34826721025E+03  0.17120000000E+03 0.  0.
        998    1    1    2    0    0  0.20819085237E+01  0.33581321059E+01  0.21931520278E+02  0.22284814921E+02  0.10000000000E+00 0.  0.
</event>
<event>
 5    1  0.2022058E-009  0.3882931E+03  0.7957747E-01  0.3415825E+00
         13   -1    0    0    0    0  0.00000000000E+00  0.00000000000E+00  0.14999999963E+04  0.15000000000E+04  0.10566000000E+00 0.  1.
        994   -1    0    0    0    0 -0.00000000000E+00 -0.00000000000E+00  0.11368683772E-12  0.17120000000E+03  0.17120000000E+03 0.  0.
         13    1    1    2    0    0 -0.10709996149E+02  0.28482867204E+02  0.11598942260E+03  0.11991469910E+03  0.10566000000E+00 0.  1.
        994    1    1    2    0    0  0.11314799287E+03 -0.27262111301E+03  0.37018434984E+03  0.50345867002E+03  0.17120000000E+03 0.  0.
        998    1    1    2    0    0 -0.10243799672E+03  0.24413824581E+03  0.10138262238E+04  0.10478266309E+04  0.10000000000E+00 0.  1.
</event>
<event>
 5    1  0.2022058E-009  0.3882081E+03  0.7957747E-01  0.3416179E+00
         13   -1    0    0    0    0  0.00000000000E+00  0.00000000000E+00  0.14999999963E+04  0.15000000000E+04  0.10566000000E+00 0.  1.
        994   -1    0    0    0    0 -0.00000000000E+00 -0.00000000000E+00  0.11368683772E-12  0.17120000000E+03  0.17120000000E+03 0.  0.
         13    1    1    2    0    0 -0.72039518573E+02 -0.36997122656E+02  0.38353837235E+03  0.39199511930E+03  0.10566000000E+00 0.  1.
        994    1    1    2    0    0  0.24448098778E+03  0.11404784149E+03  0.29019179068E+03  0.43162319089E+03  0.17120000000E+03 0.  0.
        998    1    1    2    0    0 -0.17244146921E+03 -0.77050718834E+02  0.82626983324E+03  0.84758168981E+03  0.10000000000E+00 0. -1.
</event>
<event>
 5    1  0.2022058E-009  0.3880797E+03  0.7957747E-01  0.3416715E+00
         13   -1    0    0    0    0  0.00000000000E+00  0.00000000000E+00  0.14999999963E+04  0.15000000000E+04  0.10566000000E+00 0. -1.
        994   -1    0    0    0    0 -0.00000000000E+00 -0.00000000000E+00  0.11368683772E-12  0.17120000000E+03  0.17120000000E+03 0.  0.
         13    1    1    2    0    0  0.48949697764E+02  0.52295005548E+02  0.37577815396E+03  0.38254421009E+03  0.10566000000E+00 0. -1.
        994    1    1    2    0    0 -0.16076406830E+03 -0.15602918902E+03  0.18522958236E+03  0.33735683136E+03  0.17120000000E+03 0.  0.
        998    1    1    2    0    0  0.11181437054E+03  0.10373418347E+03  0.93899225996E+03  0.95129895855E+03  0.10000000000E+00 0. -1.
</event>
<event>
 5    1  0.2022058E-009  0.3883009E+03  0.7957747E-01  0.3415792E+00
         13   -1    0    0    0    0  0.00000000000E+00  0.00000000000E+00  0.14999999963E+04  0.15000000000E+04  0.10566000000E+00 0.  1.
        994   -1    0    0    0    0 -0.00000000000E+00 -0.00000000000E+00  0.11368683772E-12  0.17120000000E+03  0.17120000000E+03 0.  0.
         13    1    1    2    0    0  0.64631362986E+02 -0.18167474537E+03  0.77022622064E+03  0.79399708332E+03  0.10566000000E+00 0.  1.
        994    1    1    2    0    0 -0.96840712505E+02  0.27173379302E+03  0.34689617135E+03  0.48255960416E+03  0.17120000000E+03 0.  0.
        998    1    1    2    0    0  0.32209349519E+02 -0.90059047648E+02  0.38287760429E+03  0.39464331253E+03  0.10000000000E+00 0. -1.
</event>
<event>
 5    1  0.2022058E-009  0.3879824E+03  0.7957747E-01  0.3417121E+00
         13   -1    0    0    0    0  0.00000000000E+00  0.00000000000E+00  0.14999999963E+04  0.15000000000E+04  0.10566000000E+00 0. -1.
        994   -1    0    0    0    0 -0.00000000000E+00 -0.00000000000E+00  0.11368683772E-12  0.17120000000E+03  0.17120000000E+03 0.  0.
         13    1    1    2    0    0  0.20302460831E+03 -0.49783691331E+02  0.12379740829E+04  0.12554988047E+04  0.10566000000E+00 0. -1.
        994    1    1    2    0    0 -0.21501122711E+03  0.58353804087E+02  0.18299487344E+03  0.33530815371E+03  0.17120000000E+03 0.  0.
        998    1    1    2    0    0  0.11986618805E+02 -0.85701127561E+01  0.79031039930E+02  0.80393041586E+02  0.10000000000E+00 0. -1.
</event>
<event>
 5    1  0.2022058E-009  0.3864556E+03  0.7957747E-01  0.3423522E+00
         13   -1    0    0    0    0  0.00000000000E+00  0.00000000000E+00  0.14999999963E+04  0.15000000000E+04  0.10566000000E+00 0.  1.
        994   -1    0    0    0    0 -0.00000000000E+00 -0.00000000000E+00  0.11368683772E-12  0.17120000000E+03  0.17120000000E+03 0.  0.
         13    1    1    2    0    0 -0.27576642383E+03  0.46944752112E+02  0.11288899827E+04  0.11630320436E+04  0.10566000000E+00 0.  1.
        994    1    1    2    0    0  0.28341331201E+03 -0.39972131009E+02  0.34391235347E+03  0.47906786946E+03  0.17120000000E+03 0.  0.
        998    1    1    2    0    0 -0.76468881732E+01 -0.69726211037E+01  0.27197660100E+02  0.29100086919E+02  0.10000000000E+00 0.  1.
</event>
<event>
 5    1  0.2022058E-009  0.3882970E+03  0.7957747E-01  0.3415808E+00
         13   -1    0    0    0    0  0.00000000000E+00  0.00000000000E+00  0.14999999963E+04  0.15000000000E+04  0.10566000000E+00 0. -1.
        994   -1    0    0    0    0 -0.00000000000E+00 -0.00000000000E+00  0.11368683772E-12  0.17120000000E+03  0.17120000000E+03 0.  0.
         13    1    1    2    0    0 -0.25473620951E+03 -0.81101953308E+02  0.12042523034E+04  0.12335686785E+04  0.10566000000E+00 0. -1.
        994    1    1    2    0    0  0.25648010007E+03  0.81557412537E+02  0.28825184991E+03  0.42992118143E+03  0.17120000000E+03 0.  0.
        998    1    1    2    0    0 -0.17438905611E+01 -0.45545922942E+00  0.74958429765E+01  0.77101400329E+01  0.10000000000E+00 0. -1.
</event>
<event>
 5    1  0.2022058E-009  0.3882711E+03  0.7957747E-01  0.3415916E+00
         13   -1    0    0    0    0  0.00000000000E+00  0.00000000000E+00  0.14999999963E+04  0.15000000000E+04  0.10566000000E+00 0. -1.
        994   -1    0    0    0    0 -0.00000000000E+00 -0.00000000000E+00  0.11368683772E-12  0.17120000000E+03  0.17120000000E+03 0.  0.
         13    1    1    2    0    0 -0.13988098032E+03  0.24437118830E+03  0.97213253504E+03  0.10120897407E+04  0.10566000000E+00 0. -1.
        994    1    1    2    0    0  0.15565543310E+03 -0.26890275115E+03  0.43247086183E+03  0.55935479775E+03  0.17120000000E+03 0.  0.
        998    1    1    2    0    0 -0.15774452779E+02  0.24531562854E+02  0.95396599402E+02  0.99755461575E+02  0.10000000000E+00 0. -1.
</event>
<event>
 5    1  0.2022058E-009  0.3826208E+03  0.7957747E-01  0.3439826E+00
         13   -1    0    0    0    0  0.00000000000E+00  0.00000000000E+00  0.14999999963E+04  0.15000000000E+04  0.10566000000E+00 0.  1.
        994   -1    0    0    0    0 -0.00000000000E+00 -0.00000000000E+00  0.11368683772E-12  0.17120000000E+03  0.17120000000E+03 0.  0.
         13    1    1    2    0    0 -0.24720683687E+02  0.21696625034E+02  0.18732765747E+03  0.19019337043E+03  0.10566000000E+00 0.  1.
        994    1    1    2    0    0 -0.35605843392E+02 -0.98352387255E+02  0.39965463162E+02  0.20456697292E+03  0.17120000000E+03 0.  0.
        998    1    1    2    0    0  0.60326527078E+02  0.76655762221E+02  0.12727068756E+04  0.12764396566E+04  0.10000000000E+00 0.  1.
</event>
<event>
 5    1  0.2022058E-009  0.3882960E+03  0.7957747E-01  0.3415813E+00
         13   -1    0    0    0    0  0.00000000000E+00  0.00000000000E+00  0.14999999963E+04  0.15000000000E+04  0.10566000000E+00 0.  1.
        994   -1    0    0    0    0 -0.00000000000E+00 -0.00000000000E+00  0.11368683772E-12  0.17120000000E+03  0.17120000000E+03 0.  0.
         13    1    1    2    0    0 -0.67352738482E+02  0.11516416495E+03  0.79013146348E+03  0.80131574115E+03  0.10566000000E+00 0.  1.
        994    1    1    2    0    0  0.11074403536E+03 -0.19356348837E+03  0.18300894100E+03  0.33545905545E+03  0.17120000000E+03 0.  0.
        998    1    1    2    0    0 -0.43391296874E+02  0.78399323422E+02  0.52685959180E+03  0.53442520340E+03  0.10000000000E+00 0.  1.
</event>
<event>
 5    1  0.2022058E-009  0.3882955E+03  0.7957747E-01  0.3415815E+00
         13   -1    0    0    0    0  0.00000000000E+00  0.00000000000E+00  0.14999999963E+04  0.15000000000E+04  0.10566000000E+00 0. -1.
        994   -1    0    0    0    0 -0.00000000000E+00 -0.00000000000E+00  0.11368683772E-12  0.17120000000E+03  0.17120000000E+03 0.  0.
         13    1    1    2    0    0  0.15630264010E+03 -0.15250942435E+03  0.11299835718E+04  0.11508920555E+04  0.10566000000E+00 0. -1.
        994    1    1    2    0    0 -0.17610683216E+03  0.17209158075E+03  0.23105456797E+03  0.37858259585E+03  0.17120000000E+03 0.  0.
        998    1    1    2    0    0  0.19804192061E+02 -0.19582156400E+02  0.13896185653E+03  0.14172534862E+03  0.10000000000E+00 0. -1.
</event>
<event>
 5    1  0.2022058E-009  0.3882942E+03  0.7957747E-01  0.3415820E+00
         13   -1    0    0    0    0  0.00000000000E+00  0.00000000000E+00  0.14999999963E+04  0.15000000000E+04  0.10566000000E+00 0.  1.
        994   -1    0    0    0    0 -0.00000000000E+00 -0.00000000000E+00  0.11368683772E-12  0.17120000000E+03  0.17120000000E+03 0.  0.
         13    1    1    2    0    0 -0.74120278167E+02  0.26503925383E+03  0.11608152377E+04  0.11929927280E+04  0.10566000000E+00 0.  1.
        994    1    1    2    0    0  0.75493758069E+02 -0.26928738871E+03  0.31879551378E+03  0.45733469673E+03  0.17120000000E+03 0.  0.
        998    1    1    2    0    0 -0.13734799021E+01  0.42481348763E+01  0.20389244766E+02  0.20872575287E+02  0.10000000000E+00 0.  0.
</event>
<event>
 5    1  0.2022058E-009  0.3883009E+03  0.7957747E-01  0.3415792E+00
         13   -1    0    0    0    0  0.00000000000E+00  0.00000000000E+00  0.14999999963E+04  0.15000000000E+04  0.10566000000E+00 0. -1.
        994   -1    0    0    0    0 -0.00000000000E+00 -0.00000000000E+00  0.11368683772E-12  0.17120000000E+03  0.17120000000E+03 0.  0.
         13    1    1    2    0    0  0.13098069106E+03 -0.13620075035E+03  0.11370718306E+04  0.11526660163E+04  0.10566000000E+00 0. -1.
        994    1    1    2    0    0 -0.15242051748E+03  0.15846183186E+03  0.17715019191E+03  0.33020266020E+03  0.17120000000E+03 0.  0.
        998    1    1    2    0    0  0.21439826427E+02 -0.22261081511E+02  0.18577797373E+03  0.18833132355E+03  0.10000000000E+00 0.  0.
</event>
<event>
 5    1  0.2022058E-009  0.3883004E+03  0.7957747E-01  0.3415794E+00
         13   -1    0    0    0    0  0.00000000000E+00  0.00000000000E+00  0.14999999963E+04  0.15000000000E+04  0.10566000000E+00 0. -1.
        994   -1    0    0    0    0 -0.00000000000E+00 -0.00000000000E+00  0.11368683772E-12  0.17120000000E+03  0.17120000000E+03 0.  0.
         13    1    1    2    0    0 -0.17236813949E+03 -0.13471293200E+03  0.12841248407E+04  0.13026261809E+04  0.10566000000E+00 0. -1.
        994    1    1    2    0    0  0.17654769826E+03  0.13802887426E+03  0.18508163390E+03  0.33732137658E+03  0.17120000000E+03 0.  0.
        998    1    1    2    0    0 -0.41795587741E+01 -0.33159422654E+01  0.30793521707E+02  0.31252442525E+02  0.10000000000E+00 0. -1.
</event>
<event>
 5    1  0.2022058E-009  0.3882499E+03  0.7957747E-01  0.3416005E+00
         13   -1    0    0    0    0  0.00000000000E+00  0.00000000000E+00  0.14999999963E+04  0.15000000000E+04  0.10566000000E+00 0. -1.
        994   -1    0    0    0    0 -0.00000000000E+00 -0.00000000000E+00  0.11368683772E-12  0.17120000000E+03  0.17120000000E+03 0.  0.
         13    1    1    2    0    0 -0.25554841210E+03  0.89203642608E+02  0.11254361241E+04  0.11575270024E+04  0.10566000000E+00 0. -1.
        994    1    1    2    0    0  0.26673634919E+03 -0.91266010667E+02  0.32583297183E+03  0.46363167517E+03  0.17120000000E+03 0.  0.
        998    1    1    2    0    0 -0.11187937098E+02  0.20623680592E+01  0.48730900365E+02  0.50041322414E+02  0.10000000000E+00 0. -1.
</event>
<event>
 5    1  0.2022058E-009  0.3883008E+03  0.7957747E-01  0.3415793E+00
         13   -1    0    0    0    0  0.00000000000E+00  0.00000000000E+00  0.14999999963E+04  0.15000000000E+04  0.10566000000E+00 0. -1.
        994   -1    0    0    0    0 -0.00000000000E+00 -0.00000000000E+00  0.11368683772E-12  0.17120000000E+03  0.17120000000E+03 0.  0.
         13    1    1    2    0    0 -0.24511401014E+03 -0.62493560641E+02  0.11189550843E+04  0.11471908363E+04  0.10566000000E+00 0. -1.
        994    1    1    2    0    0  0.26358729950E+03  0.67199451590E+02  0.29630029232E+03  0.43714681056E+03  0.17120000000E+03 0.  0.
        998    1    1    2    0    0 -0.18473289364E+02 -0.47058909485E+01  0.84744619636E+02  0.86862353105E+02  0.10000000000E+00 0. -1.
</event>
<event>
 5    1  0.2022058E-009  0.3883004E+03  0.7957747E-01  0.3415794E+00
         13   -1    0    0    0    0  0.00000000000E+00  0.00000000000E+00  0.14999999963E+04  0.15000000000E+04  0.10566000000E+00 0. -1.
        994   -1    0    0    0    0 -0.00000000000E+00 -0.00000000000E+00  0.11368683772E-12  0.17120000000E+03  0.17120000000E+03 0.  0.
         13    1    1    2    0    0  0.83244595824E+02  0.17215813986E+03  0.99069868414E+03  0.10089856202E+04  0.10566000000E+00 0. -1.
        994    1    1    2    0    0 -0.10663971854E+03 -0.22057251310E+03  0.22827282588E+03  0.37608800319E+03  0.17120000000E+03 0.  0.
        998    1    1    2    0    0  0.23395122713E+02  0.48414373249E+02  0.28102848626E+03  0.28612637661E+03  0.10000000000E+00 0. -1.
</event>
<event>
 5    1  0.2022058E-009  0.3882134E+03  0.7957747E-01  0.3416157E+00
         13   -1    0    0    0    0  0.00000000000E+00  0.00000000000E+00  0.14999999963E+04  0.15000000000E+04  0.10566000000E+00 0.  1.
        994   -1    0    0    0    0 -0.00000000000E+00 -0.00000000000E+00  0.11368683772E-12  0.17120000000E+03  0.17120000000E+03 0.  0.
         13    1    1    2    0    0 -0.17767746748E+03  0.14299883649E+03  0.12532535651E+04  0.12738376895E+04  0.10566000000E+00 0.  1.
        994    1    1    2    0    0  0.18434274907E+03 -0.14579570328E+03  0.20690951242E+03  0.35687479956E+03  0.17120000000E+03 0.  0.
        998    1    1    2    0    0 -0.66652815905E+01  0.27968667978E+01  0.39836918759E+02  0.40487510899E+02  0.10000000000E+00 0.  1.
</event>
<event>
 5    1  0.2022058E-009  0.3882819E+03  0.7957747E-01  0.3415872E+00
         13   -1    0    0    0    0  0.00000000000E+00  0.00000000000E+00  0.14999999963E+04  0.15000000000E+04  0.10566000000E+00 0. -1.
        994   -1    0    0    0    0 -0.00000000000E+00 -0.00000000000E+00  0.11368683772E-12  0.17120000000E+03  0.17120000000E+03 0.  0.
         13    1    1    2    0    0  0.13992144485E+02 -0.39004184856E+02  0.23711728613E+03  0.24071087447E+03  0.10566000000E+00 0. -1.
        994    1    1    2    0    0 -0.75140754594E+02  0.20650255853E+03  0.17695237757E+03  0.33001670201E+03  0.17120000000E+03 0.  0.
        998    1    1    2    0    0  0.61148610109E+02 -0.16749837367E+03  0.10859303326E+04  0.11004724235E+04  0.10000000000E+00 0. -1.
</event>
<event>
 5    1  0.2030062E-009  0.3882309E+03  0.7957747E-01  0.3416084E+00
         13   -1    0    0    0    0  0.00000000000E+00  0.00000000000E+00  0.14999999963E+04  0.15000000000E+04  0.10566000000E+00 0. -1.
        994   -1    0    0    0    0 -0.00000000000E+00 -0.00000000000E+00  0.11368683772E-12  0.17120000000E+03  0.17120000000E+03 0.  0.
         13    1    1    2    0    0  0.14721288833E+03  0.25056511502E+03  0.11414561653E+04  0.11778695598E+04  0.10566000000E+00 0. -1.
        994    1    1    2    0    0 -0.14709587410E+03 -0.25108634420E+03  0.35564788442E+03  0.49038393745E+03  0.17120000000E+03 0.  0.
        998    1    1    2    0    0 -0.11701423308E+00  0.52122917114E+00  0.28959465083E+01  0.29465027335E+01  0.10000000000E+00 0. -1.
</event>
<event>
 5    1  0.2022058E-009  0.3880498E+03  0.7957747E-01  0.3416840E+00
         13   -1    0    0    0    0  0.00000000000E+00  0.00000000000E+00  0.14999999963E+04  0.15000000000E+04  0.10566000000E+00 0. -1.
        994   -1    0    0    0    0 -0.00000000000E+00 -0.00000000000E+00  0.11368683772E-12  0.17120000000E+03  0.17120000000E+03 0.  0.
         13    1    1    2    0    0 -0.52036020216E+02  0.15239043003E+03  0.72276475534E+03  0.74048598454E+03  0.10566000000E+00 0. -1.
        994    1    1    2    0    0  0.99569115042E+02 -0.24640294259E+03  0.27955277537E+03  0.42200428078E+03  0.17120000000E+03 0.  0.
        998    1    1    2    0    0 -0.47533094826E+02  0.94012512553E+02  0.49768246557E+03  0.50870973468E+03  0.10000000000E+00 0.  1.
</event>
<event>
 5    1  0.2022058E-009  0.3883009E+03  0.7957747E-01  0.3415792E+00
         13   -1    0    0    0    0  0.00000000000E+00  0.00000000000E+00  0.14999999963E+04  0.15000000000E+04  0.10566000000E+00 0. -1.
        994   -1    0    0    0    0 -0.00000000000E+00 -0.00000000000E+00  0.11368683772E-12  0.17120000000E+03  0.17120000000E+03 0.  0.
         13    1    1    2    0    0 -0.42393988051E+02  0.19922106075E+03  0.11600283755E+04  0.11777742247E+04  0.10566000000E+00 0. -1.
        994    1    1    2    0    0  0.47677742754E+02 -0.22417182533E+03  0.19495518507E+03  0.34618367756E+03  0.17120000000E+03 0.  0.
        998    1    1    2    0    0 -0.52837547029E+01  0.24950764579E+02  0.14501643568E+03  0.14724209770E+03  0.10000000000E+00 0.  0.
</event>
<event>
 5    1  0.2022058E-009  0.3882993E+03  0.7957747E-01  0.3415799E+00
         13   -1    0    0    0    0  0.00000000000E+00  0.00000000000E+00  0.14999999963E+04  0.15000000000E+04  0.10566000000E+00 0. -1.
        994   -1    0    0    0    0 -0.00000000000E+00 -0.00000000000E+00  0.11368683772E-12  0.17120000000E+03  0.17120000000E+03 0.  0.
         13    1    1    2    0    0  0.65534603871E+01  0.14248642666E+03  0.84452031210E+03  0.85648111383E+03  0.10566000000E+00 0. -1.
        994    1    1    2    0    0 -0.11344037996E+02 -0.22257735006E+03  0.18274359415E+03  0.33522235182E+03  0.17120000000E+03 0.  0.
        998    1    1    2    0    0  0.47905776093E+01  0.80090923395E+02  0.47273609002E+03  0.47949653435E+03  0.10000000000E+00 0.  1.
</event>
<event>
 5    1  0.2022058E-009  0.3882948E+03  0.7957747E-01  0.3415818E+00
         13   -1    0    0    0    0  0.00000000000E+00  0.00000000000E+00  0.14999999963E+04  0.15000000000E+04  0.10566000000E+00 0. -1.
        994   -1    0    0    0    0 -0.00000000000E+00 -0.00000000000E+00  0.11368683772E-12  0.17120000000E+03  0.17120000000E+03 0.  0.
         13    1    1    2    0    0 -0.19685108266E+03  0.14512371155E+03  0.12296646320E+04  0.12537489217E+04  0.10566000000E+00 0. -1.
        994    1    1    2    0    0  0.20187713660E+03 -0.14826587357E+03  0.24083348900E+03  0.38735946738E+03  0.17120000000E+03 0.  0.
        998    1    1    2    0    0 -0.50260539389E+01  0.31421620173E+01  0.29501875295E+02  0.30091610895E+02  0.10000000000E+00 0.  1.
</event>
<event>
 5    1  0.2022058E-009  0.3883002E+03  0.7957747E-01  0.3415795E+00
         13   -1    0    0    0    0  0.00000000000E+00  0.00000000000E+00  0.14999999963E+04  0.15000000000E+04  0.10566000000E+00 0. -1.
        994   -1    0    0    0    0 -0.00000000000E+00 -0.00000000000E+00  0.11368683772E-12  0.17120000000E+03  0.17120000000E+03 0.  0.
         13    1    1    2    0    0  0.20045569747E+03  0.19223568717E+03  0.11667333429E+04  0.11993347117E+04  0.10566000000E+00 0. -1.
        994    1    1    2    0    0 -0.20246921188E+03 -0.19416706794E+03  0.32140499173E+03  0.45967949785E+03  0.17120000000E+03 0.  0.
        998    1    1    2    0    0  0.20135144161E+01  0.19313807755E+01  0.11861661687E+02  0.12185790494E+02  0.10000000000E+00 0.  0.
</event>
<event>
 5    1  0.2022058E-009  0.3870482E+03  0.7957747E-01  0.3421032E+00
         13   -1    0    0    0    0  0.00000000000E+00  0.00000000000E+00  0.14999999963E+04  0.15000000000E+04  0.10566000000E+00 0.  1.
        994   -1    0    0    0    0 -0.00000000000E+00 -0.00000000000E+00  0.11368683772E-12  0.17120000000E+03  0.17120000000E+03 0.  0.
         13    1    1    2    0    0  0.10741494985E+02  0.78154780063E+01  0.79105688057E+02  0.80213355858E+02  0.10566000000E+00 0.  1.
        994    1    1    2    0    0 -0.61611863357E+02 -0.30154132657E+02  0.16141814003E+02  0.18513587330E+03  0.17120000000E+03 0.  0.
        998    1    1    2    0    0  0.50870368371E+02  0.22338654650E+02  0.14047524942E+04  0.14058507708E+04  0.10000000000E+00 0.  1.
</event>
<event>
 5    1  0.2022058E-009  0.3883009E+03  0.7957747E-01  0.3415792E+00
         13   -1    0    0    0    0  0.00000000000E+00  0.00000000000E+00  0.14999999963E+04  0.15000000000E+04  0.10566000000E+00 0. -1.
        994   -1    0    0    0    0 -0.00000000000E+00 -0.00000000000E+00  0.11368683772E-12  0.17120000000E+03  0.17120000000E+03 0.  0.
         13    1    1    2    0    0 -0.78481224507E+02 -0.11139652542E+03  0.70029930613E+03  0.71343368144E+03  0.10566000000E+00 0. -1.
        994    1    1    2    0    0  0.14227006618E+03  0.20158711258E+03  0.23219224643E+03  0.37960613140E+03  0.17120000000E+03 0.  0.
        998    1    1    2    0    0 -0.63788841676E+02 -0.90190587161E+02  0.56750844372E+03  0.57816018717E+03  0.10000000000E+00 0. -1.
</event>
<event>
 5    1  0.2022058E-009  0.3883008E+03  0.7957747E-01  0.3415792E+00
         13   -1    0    0    0    0  0.00000000000E+00  0.00000000000E+00  0.14999999963E+04  0.15000000000E+04  0.10566000000E+00 0.  1.
        994   -1    0    0    0    0 -0.00000000000E+00 -0.00000000000E+00  0.11368683772E-12  0.17120000000E+03  0.17120000000E+03 0.  0.
         13    1    1    2    0    0  0.16562337690E+03 -0.13212803749E+03  0.11596639010E+04  0.11788593197E+04  0.10566000000E+00 0.  1.
        994    1    1    2    0    0 -0.18449370686E+03  0.14717218008E+03  0.20881411907E+03  0.35862285870E+03  0.17120000000E+03 0.  0.
        998    1    1    2    0    0  0.18870329963E+02 -0.15044142589E+02  0.13152197621E+03  0.13371782157E+03  0.10000000000E+00 0.  1.
</event>
<event>
 5    1  0.2022058E-009  0.3882900E+03  0.7957747E-01  0.3415837E+00
         13   -1    0    0    0    0  0.00000000000E+00  0.00000000000E+00  0.14999999963E+04  0.15000000000E+04  0.10566000000E+00 0.  1.
        994   -1    0    0    0    0 -0.00000000000E+00 -0.00000000000E+00  0.11368683772E-12  0.17120000000E+03  0.17120000000E+03 0.  0.
         13    1    1    2    0    0  0.26640333445E+03  0.86408910920E+02  0.11643788721E+04  0.11975873269E+04  0.10566000000E+00 0.  1.
        994    1    1    2    0    0 -0.26839363166E+03 -0.87396176174E+02  0.32682526843E+03  0.46454001896E+03  0.17120000000E+03 0.  0.
        998    1    1    2    0    0  0.19902972094E+01  0.98726525405E+00  0.87958557502E+01  0.90726541895E+01  0.10000000000E+00 0. -1.
</event>
<event>
 5    1  0.2022058E-009  0.3857877E+03  0.7957747E-01  0.3426338E+00
         13   -1    0    0    0    0  0.00000000000E+00  0.00000000000E+00  0.14999999963E+04  0.15000000000E+04  0.10566000000E+00 0.  1.
        994   -1    0    0    0    0 -0.00000000000E+00 -0.00000000000E+00  0.11368683772E-12  0.17120000000E+03  0.17120000000E+03 0.  0.
         13    1    1    2    0    0 -0.15466052442E+03  0.58639895272E+02  0.99250342932E+03  0.10061916236E+04  0.10566000000E+00 0.  1.
        994    1    1    2    0    0  0.17525060876E+03 -0.84931520313E+02  0.13748383407E+03  0.29349170966E+03  0.17120000000E+03 0.  0.
        998    1    1    2    0    0 -0.20590084339E+02  0.26291625041E+02  0.37001273290E+03  0.37151666669E+03  0.10000000000E+00 0. -1.
</event>
<event>
 5    1  0.2022058E-009  0.3819534E+03  0.7957747E-01  0.3442697E+00
         13   -1    0    0    0    0  0.00000000000E+00  0.00000000000E+00  0.14999999963E+04  0.15000000000E+04  0.10566000000E+00 0.  1.
        994   -1    0    0    0    0 -0.00000000000E+00 -0.00000000000E+00  0.11368683772E-12  0.17120000000E+03  0.17120000000E+03 0.  0.
         13    1    1    2    0    0  0.32739629780E+02  0.89329060942E+02  0.56175434765E+03  0.56975391421E+03  0.10566000000E+00 0.  1.
        994    1    1    2    0    0 -0.13570577217E+03 -0.11661929448E+03  0.11800689950E+03  0.27431949398E+03  0.17120000000E+03 0.  0.
        998    1    1    2    0    0  0.10296614239E+03  0.27290233540E+02  0.82023874913E+03  0.82712659182E+03  0.10000000000E+00 0.  1.
</event>
<event>
 5    1  0.2022058E-009  0.3882385E+03  0.7957747E-01  0.3416053E+00
         13   -1    0    0    0    0  0.00000000000E+00  0.00000000000E+00  0.14999999963E+04  0.15000000000E+04  0.10566000000E+00 0.  1.
        994   -1    0    0    0    0 -0.00000000000E+00 -0.00000000000E+00  0.11368683772E-12  0.17120000000E+03  0.17120000000E+03 0.  0.
         13    1    1    2    0    0 -0.18533495209E+03 -0.13697019708E+03  0.12235742112E+04  0.12450878446E+04  0.10566000000E+00 0.  1.
        994    1    1    2    0    0  0.19218229253E+03  0.14410089327E+03  0.21782384006E+03  0.36668210524E+03  0.17120000000E+03 0.  0.
        998    1    1    2    0    0 -0.68473404386E+01 -0.71306961906E+01  0.58601945002E+02  0.59430050120E+02  0.10000000000E+00 0.  1.
</event>
<event>
 5    1  0.2022058E-009  0.3883008E+03  0.7957747E-01  0.3415792E+00
         13   -1    0    0    0    0  0.00000000000E+00  0.00000000000E+00  0.14999999963E+04  0.15000000000E+04  0.10566000000E+00 0.  1.
        994   -1    0    0    0    0 -0.00000000000E+00 -0.00000000000E+00  0.11368683772E-12  0.17120000000E+03  0.17120000000E+03 0.  0.
         13    1    1    2    0    0  0.35373880795E+02 -0.17331727708E+03  0.10176718395E+04  0.10329308660E+04  0.10566000000E+00 0.  1.
        994    1    1    2    0    0 -0.45283385085E+02  0.22287995191E+03  0.19150944562E+03  0.34309090004E+03  0.17120000000E+03 0.  0.
        998    1    1    2    0    0  0.99095042898E+01 -0.49562674827E+02  0.29081871119E+03  0.29517823393E+03  0.10000000000E+00 0. -1.
</event>
<event>
 5    1  0.2022058E-009  0.3882740E+03  0.7957747E-01  0.3415904E+00
         13   -1    0    0    0    0  0.00000000000E+00  0.00000000000E+00  0.14999999963E+04  0.15000000000E+04  0.10566000000E+00 0. -1.
        994   -1    0    0    0    0 -0.00000000000E+00 -0.00000000000E+00  0.11368683772E-12  0.17120000000E+03  0.17120000000E+03 0.  0.
         13    1    1    2    0    0 -0.89260205347E+02 -0.20874314935E+03  0.12926141138E+04  0.13123994609E+04  0.10566000000E+00 0. -1.
        994    1    1    2    0    0  0.89590683776E+02  0.21103811624E+03  0.19515219304E+03  0.34634866186E+03  0.17120000000E+03 0.  0.
        998    1    1    2    0    0 -0.33047842853E+00 -0.22949668862E+01  0.12233689476E+02  0.12451877256E+02  0.10000000000E+00 0.  1.
</event>
<event>
 5    1  0.2022058E-009  0.3880791E+03  0.7957747E-01  0.3416718E+00
         13   -1    0    0    0    0  0.00000000000E+00  0.00000000000E+00  0.14999999963E+04  0.15000000000E+04  0.10566000000E+00 0.  1.
        994   -1    0    0    0    0 -0.00000000000E+00 -0.00000000000E+00  0.11368683772E-12  0.17120000000E+03  0.17120000000E+03 0.  0.
         13    1    1    2    0    0  0.11689716062E+03  0.60879387917E+02  0.72763623991E+03  0.73947667633E+03  0.10566000000E+00 0.  1.
        994    1    1    2    0    0 -0.20078828010E+03 -0.97601983133E+02  0.18375166021E+03  0.33603004801E+03  0.17120000000E+03 0.  0.
        998    1    1    2    0    0  0.83891119480E+02  0.36722595216E+02  0.58861209616E+03  0.59569327566E+03  0.10000000000E+00 0.  1.
</event>
<event>
 5    1  0.2022058E-009  0.3883002E+03  0.7957747E-01  0.3415795E+00
         13   -1    0    0    0    0  0.00000000000E+00  0.00000000000E+00  0.14999999963E+04  0.15000000000E+04  0.10566000000E+00 0. -1.
        994   -1    0    0    0    0 -0.00000000000E+00 -0.00000000000E+00  0.11368683772E-12  0.17120000000E+03  0.17120000000E+03 0.  0.
         13    1    1    2    0    0  0.59067446928E+01  0.16754413524E+03  0.83653818286E+03  0.85317177018E+03  0.10566000000E+00 0. -1.
        994    1    1    2    0    0 -0.96065512840E+01 -0.25160241543E+03  0.24391698596E+03  0.39012946225E+03  0.17120000000E+03 0.  0.
        998    1    1    2    0    0  0.36998065912E+01  0.84058280190E+02  0.41954482745E+03  0.42789876756E+03  0.10000000000E+00 0. -1.
</event>
<event>
 5    1  0.2022058E-009  0.3882942E+03  0.7957747E-01  0.3415820E+00
         13   -1    0    0    0    0  0.00000000000E+00  0.00000000000E+00  0.14999999963E+04  0.15000000000E+04  0.10566000000E+00 0. -1.
        994   -1    0    0    0    0 -0.00000000000E+00 -0.00000000000E+00  0.11368683772E-12  0.17120000000E+03  0.17120000000E+03 0.  0.
         13    1    1    2    0    0  0.18019583899E+03 -0.15859993832E+03  0.12371673610E+04  0.12602410766E+04  0.10566000000E+00 0. -1.
        994    1    1    2    0    0 -0.18444787155E+03  0.16261490788E+03  0.23030069987E+03  0.37790538226E+03  0.17120000000E+03 0.  0.
        998    1    1    2    0    0  0.42520325525E+01 -0.40149695549E+01  0.32531935365E+02  0.33053541111E+02  0.10000000000E+00 0. -1.
</event>
<event>
 5    1  0.2022058E-009  0.3830538E+03  0.7957747E-01  0.3437968E+00
         13   -1    0    0    0    0  0.00000000000E+00  0.00000000000E+00  0.14999999963E+04  0.15000000000E+04  0.10566000000E+00 0. -1.
        994   -1    0    0    0    0 -0.00000000000E+00 -0.00000000000E+00  0.11368683772E-12  0.17120000000E+03  0.17120000000E+03 0.  0.
         13    1    1    2    0    0  0.48995003574E+00  0.14529432438E+03  0.74748356015E+03  0.76147381084E+03  0.10566000000E+00 0. -1.
        994    1    1    2    0    0 -0.72738908469E+02 -0.23154521154E+03  0.23114592627E+03  0.37635357448E+03  0.17120000000E+03 0.  0.
        998    1    1    2    0    0  0.72248958434E+02  0.86250887169E+02  0.52137050986E+03  0.53337261467E+03  0.10000000000E+00 0. -1.
</event>
<event>
 5    1  0.2022058E-009  0.3882204E+03  0.7957747E-01  0.3416128E+00
         13   -1    0    0    0    0  0.00000000000E+00  0.00000000000E+00  0.14999999963E+04  0.15000000000E+04  0.10566000000E+00 0.  1.
        994   -1    0    0    0    0 -0.00000000000E+00 -0.00000000000E+00  0.11368683772E-12  0.17120000000E+03  0.17120000000E+03 0.  0.
         13    1    1    2    0    0 -0.76493519678E+02 -0.20044821795E+03  0.10619045415E+04  0.10833614415E+04  0.10566000000E+00 0.  1.
        994    1    1    2    0    0  0.87523066856E+02  0.23954073683E+03  0.25184258534E+03  0.39720798031E+03  0.17120000000E+03 0.  0.
        998    1    1    2    0    0 -0.11029547178E+02 -0.39092518887E+02  0.18625286946E+03  0.19063057815E+03  0.10000000000E+00 0.  1.
</event>
<event>
 5    1  0.2022058E-009  0.3877685E+03  0.7957747E-01  0.3418015E+00
         13   -1    0    0    0    0  0.00000000000E+00  0.00000000000E+00  0.14999999963E+04  0.15000000000E+04  0.10566000000E+00 0.  1.
        994   -1    0    0    0    0 -0.00000000000E+00 -0.00000000000E+00  0.11368683772E-12  0.17120000000E+03  0.17120000000E+03 0.  0.
         13    1    1    2    0    0 -0.11642925145E+03 -0.14040277460E+03  0.10463017349E+04  0.10620809957E+04  0.10566000000E+00 0.  1.
        994    1    1    2    0    0  0.14136024696E+03  0.18708672533E+03  0.20640401819E+03  0.35622495834E+03  0.17120000000E+03 0.  0.
        998    1    1    2    0    0 -0.24930995514E+02 -0.46683950738E+02  0.24729424316E+03  0.25289404598E+03  0.10000000000E+00 0. -1.
</event>
<event>
 5    1  0.2022058E-009  0.3882996E+03  0.7957747E-01  0.3415797E+00
         13   -1    0    0    0    0  0.00000000000E+00  0.00000000000E+00  0.14999999963E+04  0.15000000000E+04  0.10566000000E+00 0. -1.
        994   -1    0    0    0    0 -0.00000000000E+00 -0.00000000000E+00  0.11368683772E-12  0.17120000000E+03  0.17120000000E+03 0.  0.
         13    1    1    2    0    0 -0.25371712107E+03  0.10065586921E+03  0.11696395563E+04  0.12010664779E+04  0.10566000000E+00 0. -1.
        994    1    1    2    0    0  0.25767953911E+03 -0.10224833931E+03  0.31141679183E+03  0.45071423984E+03  0.17120000000E+03 0.  0.
        998    1    1    2    0    0 -0.39624180363E+01  0.15924701061E+01  0.18943648161E+02  0.19419282257E+02  0.10000000000E+00 0.  1.
</event>
<event>
 5    1  0.2022058E-009  0.3882849E+03  0.7957747E-01  0.3415859E+00
         13   -1    0    0    0    0  0.00000000000E+00  0.00000000000E+00  0.14999999963E+04  0.15000000000E+04  0.10566000000E+00 0. -1.
        994   -1    0    0    0    0 -0.00000000000E+00 -0.00000000000E+00  0.11368683772E-12  0.17120000000E+03  0.17120000000E+03 0.  0.
         13    1    1    2    0    0  0.11653119150E+03 -0.21560747139E+03  0.12514413892E+04  0.12752143592E+04  0.10566000000E+00 0. -1.
        994    1    1    2    0    0 -0.11809842731E+03  0.21823187690E+03  0.23542509164E+03  0.38250072471E+03  0.17120000000E+03 0.  0.
        998    1    1    2    0    0  0.15672358140E+01 -0.26244055150E+01  0.13133515464E+02  0.13484916049E+02  0.10000000000E+00 0.  1.
</event>
<event>
 5    1  0.2022058E-009  0.3883003E+03  0.7957747E-01  0.3415795E+00
         13   -1    0    0    0    0  0.00000000000E+00  0.00000000000E+00  0.14999999963E+04  0.15000000000E+04  0.10566000000E+00 0. -1.
        994   -1    0    0    0    0 -0.00000000000E+00 -0.00000000000E+00  0.11368683772E-12  0.17120000000E+03  0.17120000000E+03 0.  0.
         13    1    1    2    0    0 -0.18634008210E+03 -0.15450406548E+03  0.12023617281E+04  0.12264859840E+04  0.10566000000E+00 0. -1.
        994    1    1    2    0    0  0.19424610809E+03  0.16121237504E+03  0.24544805845E+03  0.39150372894E+03  0.17120000000E+03 0.  0.
        998    1    1    2    0    0 -0.79060259879E+01 -0.67083095575E+01  0.52190209691E+02  0.53210287084E+02  0.10000000000E+00 0. -1.
</event>
<event>
 5    1  0.2022058E-009  0.3880288E+03  0.7957747E-01  0.3416927E+00
         13   -1    0    0    0    0  0.00000000000E+00  0.00000000000E+00  0.14999999963E+04  0.15000000000E+04  0.10566000000E+00 0. -1.
        994   -1    0    0    0    0 -0.00000000000E+00 -0.00000000000E+00  0.11368683772E-12  0.17120000000E+03  0.17120000000E+03 0.  0.
         13    1    1    2    0    0  0.13056766346E+03 -0.16760636356E+03  0.12572384791E+04  0.12750640816E+04  0.10566000000E+00 0. -1.
        994    1    1    2    0    0 -0.14047356629E+03  0.17329499438E+03  0.18348347361E+03  0.33576718570E+03  0.17120000000E+03 0.  0.
        998    1    1    2    0    0  0.99059028312E+01 -0.56886308216E+01  0.59278043588E+02  0.60368732661E+02  0.10000000000E+00 0. -1.
</event>
<event>
 5    1  0.2022058E-009  0.3882927E+03  0.7957747E-01  0.3415827E+00
         13   -1    0    0    0    0  0.00000000000E+00  0.00000000000E+00  0.14999999963E+04  0.15000000000E+04  0.10566000000E+00 0. -1.
        994   -1    0    0    0    0 -0.00000000000E+00 -0.00000000000E+00  0.11368683772E-12  0.17120000000E+03  0.17120000000E+03 0.  0.
         13    1    1    2    0    0  0.16851069364E+03  0.21920323547E+03  0.11839996586E+04  0.12158540682E+04  0.10566000000E+00 0. -1.
        994    1    1    2    0    0 -0.16895357967E+03 -0.22006182011E+03  0.31207129860E+03  0.45129862858E+03  0.17120000000E+03 0.  0.
        998    1    1    2    0    0  0.44288603108E+00  0.85858463643E+00  0.39290390501E+01  0.40473032344E+01  0.10000000000E+00 0.  1.
</event>
<event>
 5    1  0.2022058E-009  0.3880197E+03  0.7957747E-01  0.3416966E+00
         13   -1    0    0    0    0  0.00000000000E+00  0.00000000000E+00  0.14999999963E+04  0.15000000000E+04  0.10566000000E+00 0. -1.
        994   -1    0    0    0    0 -0.00000000000E+00 -0.00000000000E+00  0.11368683772E-12  0.17120000000E+03  0.17120000000E+03 0.  0.
         13    1    1    2    0    0  0.18011171315E+03  0.15642501643E+03  0.11362197029E+04  0.11609927818E+04  0.10566000000E+00 0. -1.
        994    1    1    2    0    0 -0.19564659335E+03 -0.17504754669E+03  0.27106586350E+03  0.41437347339E+03  0.17120000000E+03 0.  0.
        998    1    1    2    0    0  0.15534880204E+02  0.18622530260E+02  0.92714429915E+02  0.95833744843E+02  0.10000000000E+00 0.  1.
</event>
<event>
 5    1  0.2022058E-009  0.3883009E+03  0.7957747E-01  0.3415792E+00
         13   -1    0    0    0    0  0.00000000000E+00  0.00000000000E+00  0.14999999963E+04  0.15000000000E+04  0.10566000000E+00 0.  1.
        994   -1    0    0    0    0 -0.00000000000E+00 -0.00000000000E+00  0.11368683772E-12  0.17120000000E+03  0.17120000000E+03 0.  0.
         13    1    1    2    0    0 -0.14118003807E+03  0.75294618268E+02  0.79737464404E+03  0.81326958434E+03  0.10566000000E+00 0.  1.
        994    1    1    2    0    0  0.22247885152E+03 -0.11836763322E+03  0.24444171288E+03  0.39060072576E+03  0.17120000000E+03 0.  0.
        998    1    1    2    0    0 -0.81298813459E+02  0.43073014949E+02  0.45818363936E+03  0.46732968990E+03  0.10000000000E+00 0.  1.
</event>
<event>
 5    1  0.2022058E-009  0.3797687E+03  0.7957747E-01  0.3452166E+00
         13   -1    0    0    0    0  0.00000000000E+00  0.00000000000E+00  0.14999999963E+04  0.15000000000E+04  0.10566000000E+00 0.  1.
        994   -1    0    0    0    0 -0.00000000000E+00 -0.00000000000E+00  0.11368683772E-12  0.17120000000E+03  0.17120000000E+03 0.  0.
         13    1    1    2    0    0  0.53524839076E+02 -0.86514480100E+02  0.57975585744E+03  0.58861407481E+03  0.10566000000E+00 0.  1.
        994    1    1    2    0    0 -0.19642668491E+02 -0.19655552457E+02  0.19000812270E+02  0.17447821077E+03  0.17120000000E+03 0.  0.
        998    1    1    2    0    0 -0.33882170585E+02  0.10617003256E+03  0.90124332657E+03  0.90810771442E+03  0.10000000000E+00 0.  1.
</event>
<event>
 5    1  0.2022058E-009  0.3882976E+03  0.7957747E-01  0.3415806E+00
         13   -1    0    0    0    0  0.00000000000E+00  0.00000000000E+00  0.14999999963E+04  0.15000000000E+04  0.10566000000E+00 0.  1.
        994   -1    0    0    0    0 -0.00000000000E+00 -0.00000000000E+00  0.11368683772E-12  0.17120000000E+03  0.17120000000E+03 0.  0.
         13    1    1    2    0    0  0.17079236978E+03  0.21842616219E+03  0.11492061286E+04  0.11821822021E+04  0.10566000000E+00 0.  1.
        994    1    1    2    0    0 -0.17398359253E+03 -0.22293779273E+03  0.32846593696E+03  0.46601594569E+03  0.17120000000E+03 0.  0.
        998    1    1    2    0    0  0.31912227454E+01  0.45116305373E+01  0.22327930759E+02  0.23001852202E+02  0.10000000000E+00 0.  1.
</event>
<event>
 5    1  0.2022058E-009  0.3882995E+03  0.7957747E-01  0.3415798E+00
         13   -1    0    0    0    0  0.00000000000E+00  0.00000000000E+00  0.14999999963E+04  0.15000000000E+04  0.10566000000E+00 0.  1.
        994   -1    0    0    0    0 -0.00000000000E+00 -0.00000000000E+00  0.11368683772E-12  0.17120000000E+03  0.17120000000E+03 0.  0.
         13    1    1    2    0    0  0.62825119558E+02  0.82099477177E+02  0.58784534128E+03  0.59686638055E+03  0.10566000000E+00 0.  1.
        994    1    1    2    0    0 -0.13995709649E+03 -0.18332135164E+03  0.19785160184E+03  0.34878274495E+03  0.17120000000E+03 0.  0.
        998    1    1    2    0    0  0.77131976930E+02  0.10122187447E+03  0.71430305316E+03  0.72555087450E+03  0.10000000000E+00 0. -1.
</event>
<event>
 5    1  0.2022058E-009  0.3854132E+03  0.7957747E-01  0.3427922E+00
         13   -1    0    0    0    0  0.00000000000E+00  0.00000000000E+00  0.14999999963E+04  0.15000000000E+04  0.10566000000E+00 0.  1.
        994   -1    0    0    0    0 -0.00000000000E+00 -0.00000000000E+00  0.11368683772E-12  0.17120000000E+03  0.17120000000E+03 0.  0.
         13    1    1    2    0    0 -0.33156764900E+02  0.23375196913E+03  0.51564795598E+03  0.56712624679E+03  0.10566000000E+00 0.  1.
        994    1    1    2    0    0  0.33227033485E+02 -0.33773430823E+03  0.63999496927E+03  0.74435979163E+03  0.17120000000E+03 0.  0.
        998    1    1    2    0    0 -0.70268585324E-01  0.10398233911E+03  0.34435707103E+03  0.35971396158E+03  0.10000000000E+00 0.  1.
</event>
<event>
 5    1  0.2022058E-009  0.3882688E+03  0.7957747E-01  0.3415926E+00
         13   -1    0    0    0    0  0.00000000000E+00  0.00000000000E+00  0.14999999963E+04  0.15000000000E+04  0.10566000000E+00 0. -1.
        994   -1    0    0    0    0 -0.00000000000E+00 -0.00000000000E+00  0.11368683772E-12  0.17120000000E+03  0.17120000000E+03 0.  0.
         13    1    1    2    0    0 -0.22920022099E+03  0.19785344002E+03  0.10266423352E+04  0.10703612570E+04  0.10566000000E+00 0. -1.
        994    1    1    2    0    0  0.23725270732E+03 -0.20319971642E+03  0.44004452581E+03  0.56615156679E+03  0.17120000000E+03 0.  0.
        998    1    1    2    0    0 -0.80524863308E+01  0.53462764060E+01  0.33313135301E+02  0.34687176176E+02  0.10000000000E+00 0. -1.
</event>
<event>
 5    1  0.2022058E-009  0.3882725E+03  0.7957747E-01  0.3415911E+00
         13   -1    0    0    0    0  0.00000000000E+00  0.00000000000E+00  0.14999999963E+04  0.15000000000E+04  0.10566000000E+00 0. -1.
        994   -1    0    0    0    0 -0.00000000000E+00 -0.00000000000E+00  0.11368683772E-12  0.17120000000E+03  0.17120000000E+03 0.  0.
         13    1    1    2    0    0  0.25312532887E+03 -0.56844957521E+02  0.11817347549E+04  0.12098763670E+04  0.10566000000E+00 0. -1.
        994    1    1    2    0    0 -0.26137802117E+03  0.58020658076E+02  0.28447831523E+03  0.42652340915E+03  0.17120000000E+03 0.  0.
        998    1    1    2    0    0  0.82526923014E+01 -0.11757005550E+01  0.33786926164E+02  0.34800223873E+02  0.10000000000E+00 0.  1.
</event>
<event>
 5    1  0.2022058E-009  0.3867827E+03  0.7957747E-01  0.3422147E+00
         13   -1    0    0    0    0  0.00000000000E+00  0.00000000000E+00  0.14999999963E+04  0.15000000000E+04  0.10566000000E+00 0. -1.
        994   -1    0    0    0    0 -0.00000000000E+00 -0.00000000000E+00  0.11368683772E-12  0.17120000000E+03  0.17120000000E+03 0.  0.
         13    1    1    2    0    0  0.93914656028E+02  0.12282142260E+03  0.91113805165E+03  0.92416320247E+03  0.10566000000E+00 0. -1.
        994    1    1    2    0    0 -0.15628700027E+03 -0.15354907580E+03  0.17758191348E+03  0.32992078008E+03  0.17120000000E+03 0.  0.
        998    1    1    2    0    0  0.62372344238E+02  0.30727653204E+02  0.41128003115E+03  0.41711601745E+03  0.10000000000E+00 0. -1.
</event>
<event>
 5    1  0.2022058E-009  0.3883004E+03  0.7957747E-01  0.3415794E+00
         13   -1    0    0    0    0  0.00000000000E+00  0.00000000000E+00  0.14999999963E+04  0.15000000000E+04  0.10566000000E+00 0.  1.
        994   -1    0    0    0    0 -0.00000000000E+00 -0.00000000000E+00  0.11368683772E-12  0.17120000000E+03  0.17120000000E+03 0.  0.
         13    1    1    2    0    0  0.17475219669E+03 -0.12430928816E+03  0.12873453751E+04  0.13050859187E+04  0.10566000000E+00 0.  1.
        994    1    1    2    0    0 -0.17941998160E+03  0.12760452280E+03  0.17770578617E+03  0.33070111955E+03  0.17120000000E+03 0.  0.
        998    1    1    2    0    0  0.46677849098E+01 -0.32952346426E+01  0.34948835016E+02  0.35412961699E+02  0.10000000000E+00 0.  1.
</event>
<event>
 5    1  0.2022058E-009  0.3882930E+03  0.7957747E-01  0.3415825E+00
         13   -1    0    0    0    0  0.00000000000E+00  0.00000000000E+00  0.14999999963E+04  0.15000000000E+04  0.10566000000E+00 0. -1.
        994   -1    0    0    0    0 -0.00000000000E+00 -0.00000000000E+00  0.11368683772E-12  0.17120000000E+03  0.17120000000E+03 0.  0.
         13    1    1    2    0    0 -0.69203022828E+02  0.26997438042E+03  0.11682274334E+04  0.12010123112E+04  0.10566000000E+00 0. -1.
        994    1    1    2    0    0  0.69701084201E+02 -0.27193254193E+03  0.32202971164E+03  0.46023702989E+03  0.17120000000E+03 0.  0.
        998    1    1    2    0    0 -0.49806137284E+00  0.19581615113E+01  0.97428512402E+01  0.99506588688E+01  0.10000000000E+00 0. -1.
</event>
<event>
 5    1  0.2022058E-009  0.3882950E+03  0.7957747E-01  0.3415817E+00
         13   -1    0    0    0    0  0.00000000000E+00  0.00000000000E+00  0.14999999963E+04  0.15000000000E+04  0.10566000000E+00 0. -1.
        994   -1    0    0    0    0 -0.00000000000E+00 -0.00000000000E+00  0.11368683772E-12  0.17120000000E+03  0.17120000000E+03 0.  0.
         13    1    1    2    0    0 -0.95670771331E+02 -0.22013962726E+03  0.12382890677E+04  0.12613382490E+04  0.10566000000E+00 0. -1.
        994    1    1    2    0    0  0.97669131005E+02  0.22559500124E+03  0.23015132293E+03  0.37777167070E+03  0.17120000000E+03 0.  0.
        998    1    1    2    0    0 -0.19983596745E+01 -0.54553739800E+01  0.31559605636E+02  0.32090080314E+02  0.10000000000E+00 0.  1.
</event>
<event>
 5    1  0.2022058E-009  0.3882989E+03  0.7957747E-01  0.3415801E+00
         13   -1    0    0    0    0  0.00000000000E+00  0.00000000000E+00  0.14999999963E+04  0.15000000000E+04  0.10566000000E+00 0. -1.
        994   -1    0    0    0    0 -0.00000000000E+00 -0.00000000000E+00  0.11368683772E-12  0.17120000000E+03  0.17120000000E+03 0.  0.
         13    1    1    2    0    0 -0.23833018733E+03 -0.10423148902E+03  0.10742025161E+04  0.11052495366E+04  0.10566000000E+00 0. -1.
        994    1    1    2    0    0  0.25922489179E+03  0.11366771962E+03  0.32927839585E+03  0.46674575197E+03  0.17120000000E+03 0.  0.
        998    1    1    2    0    0 -0.20894704453E+02 -0.94362305921E+01  0.96519084359E+02  0.99204711418E+02  0.10000000000E+00 0. -1.
</event>
<event>
 5    1  0.2022058E-009  0.3869438E+03  0.7957747E-01  0.3421470E+00
         13   -1    0    0    0    0  0.00000000000E+00  0.00000000000E+00  0.14999999963E+04  0.15000000000E+04  0.10566000000E+00 0.  1.
        994   -1    0    0    0    0 -0.00000000000E+00 -0.00000000000E+00  0.11368683772E-12  0.17120000000E+03  0.17120000000E+03 0.  0.
         13    1    1    2    0    0 -0.19785172437E+03 -0.44654422126E+02  0.10961863894E+04  0.11147932246E+04  0.10566000000E+00 0.  1.
        994    1    1    2    0    0  0.22584118412E+03  0.36086557229E+02  0.19579860800E+03  0.34634233780E+03  0.17120000000E+03 0.  0.
        998    1    1    2    0    0 -0.27989459751E+02  0.85678648970E+01  0.20801499891E+03  0.21006443758E+03  0.10000000000E+00 0. -1.
</event>
<event>
 5    1  0.2022058E-009  0.3692221E+03  0.7957747E-01  0.3499474E+00
         13   -1    0    0    0    0  0.00000000000E+00  0.00000000000E+00  0.14999999963E+04  0.15000000000E+04  0.10566000000E+00 0.  1.
        994   -1    0    0    0    0 -0.00000000000E+00 -0.00000000000E+00  0.11368683772E-12  0.17120000000E+03  0.17120000000E+03 0.  0.
         13    1    1    2    0    0 -0.12125730394E+02  0.67822650758E+02  0.30516402613E+03  0.31284507236E+03  0.10566000000E+00 0.  1.
        994    1    1    2    0    0  0.77867259173E+02  0.15042295148E+02  0.32790458972E+02  0.19150518242E+03  0.17120000000E+03 0.  0.
        998    1    1    2    0    0 -0.65741528778E+02 -0.82864945906E+02  0.11620455112E+04  0.11668497452E+04  0.10000000000E+00 0.  1.
</event>
<event>
 5    1  0.2022058E-009  0.3881652E+03  0.7957747E-01  0.3416358E+00
         13   -1    0    0    0    0  0.00000000000E+00  0.00000000000E+00  0.14999999963E+04  0.15000000000E+04  0.10566000000E+00 0.  1.
        994   -1    0    0    0    0 -0.00000000000E+00 -0.00000000000E+00  0.11368683772E-12  0.17120000000E+03  0.17120000000E+03 0.  0.
         13    1    1    2    0    0 -0.61751456972E+02 -0.26395390265E+03  0.11694701682E+04  0.12004771512E+04  0.10566000000E+00 0.  1.
        994    1    1    2    0    0  0.61173223330E+02  0.26854816403E+03  0.30639466030E+03  0.44614729352E+03  0.17120000000E+03 0.  0.
        998    1    1    2    0    0  0.57823364278E+00 -0.45942613767E+01  0.24135167813E+02  0.24575555275E+02  0.10000000000E+00 0. -1.
</event>
<event>
 5    1  0.2022058E-009  0.3882567E+03  0.7957747E-01  0.3415976E+00
         13   -1    0    0    0    0  0.00000000000E+00  0.00000000000E+00  0.14999999963E+04  0.15000000000E+04  0.10566000000E+00 0. -1.
        994   -1    0    0    0    0 -0.00000000000E+00 -0.00000000000E+00  0.11368683772E-12  0.17120000000E+03  0.17120000000E+03 0.  0.
         13    1    1    2    0    0 -0.23270681347E+03 -0.15508773039E+03  0.11781090147E+04  0.12108449640E+04  0.10566000000E+00 0. -1.
        994    1    1    2    0    0  0.23322498386E+03  0.15533622904E+03  0.32056244468E+03  0.45890408375E+03  0.17120000000E+03 0.  0.
        998    1    1    2    0    0 -0.51817039334E+00 -0.24849865158E+00  0.13285369370E+01  0.14509522836E+01  0.10000000000E+00 0.  1.
</event>
<event>
 5    1  0.2022058E-009  0.3883008E+03  0.7957747E-01  0.3415792E+00
         13   -1    0    0    0    0  0.00000000000E+00  0.00000000000E+00  0.14999999963E+04  0.15000000000E+04  0.10566000000E+00 0. -1.
        994   -1    0    0    0    0 -0.00000000000E+00 -0.00000000000E+00  0.11368683772E-12  0.17120000000E+03  0.17120000000E+03 0.  0.
         13    1    1    2    0    0  0.64497913930E+02 -0.16633460038E+03  0.72624975696E+03  0.74784082586E+03  0.10566000000E+00 0. -1.
        994    1    1    2    0    0 -0.10352799881E+03  0.26613032891E+03  0.33729360352E+03  0.47394072782E+03  0.17120000000E+03 0.  0.
        998    1    1    2    0    0  0.39030084880E+02 -0.99795728539E+02  0.43645663580E+03  0.44941844632E+03  0.10000000000E+00 0. -1.
</event>
<event>
 5    1  0.2022058E-009  0.3867962E+03  0.7957747E-01  0.3422090E+00
         13   -1    0    0    0    0  0.00000000000E+00  0.00000000000E+00  0.14999999963E+04  0.15000000000E+04  0.10566000000E+00 0. -1.
        994   -1    0    0    0    0 -0.00000000000E+00 -0.00000000000E+00  0.11368683772E-12  0.17120000000E+03  0.17120000000E+03 0.  0.
         13    1    1    2    0    0 -0.30870116206E+03  0.30634750842E+02  0.72178607029E+03  0.78562716211E+03  0.10566000000E+00 0. -1.
        994    1    1    2    0    0  0.33979544111E+03 -0.44960335036E+02  0.66699166791E+03  0.76920068811E+03  0.17120000000E+03 0.  0.
        998    1    1    2    0    0 -0.31094279057E+02  0.14325584194E+02  0.11122225808E+03  0.11637214978E+03  0.10000000000E+00 0. -1.
</event>
<event>
 5    1  0.2022058E-009  0.3882981E+03  0.7957747E-01  0.3415804E+00
         13   -1    0    0    0    0  0.00000000000E+00  0.00000000000E+00  0.14999999963E+04  0.15000000000E+04  0.10566000000E+00 0.  1.
        994   -1    0    0    0    0 -0.00000000000E+00 -0.00000000000E+00  0.11368683772E-12  0.17120000000E+03  0.17120000000E+03 0.  0.
         13    1    1    2    0    0  0.12188335997E+03  0.13991546361E+03  0.10499588871E+04  0.10662296029E+04  0.10566000000E+00 0.  1.
        994    1    1    2    0    0 -0.15193426102E+03 -0.17397031024E+03  0.19852641266E+03  0.34938784329E+03  0.17120000000E+03 0.  0.
        998    1    1    2    0    0  0.30050901045E+02  0.34054846630E+02  0.25151469655E+03  0.25558255381E+03  0.10000000000E+00 0. -1.
</event>
<event>
 5    1  0.2022058E-009  0.3883004E+03  0.7957747E-01  0.3415794E+00
         13   -1    0    0    0    0  0.00000000000E+00  0.00000000000E+00  0.14999999963E+04  0.15000000000E+04  0.10566000000E+00 0.  1.
        994   -1    0    0    0    0 -0.00000000000E+00 -0.00000000000E+00  0.11368683772E-12  0.17120000000E+03  0.17120000000E+03 0.  0.
         13    1    1    2    0    0  0.37916553934E+02 -0.21606694457E+03  0.13004444754E+04  0.13188170587E+04  0.10566000000E+00 0.  1.
        994    1    1    2    0    0 -0.38413157788E+02  0.21899925889E+03  0.18175636547E+03  0.33433675011E+03  0.17120000000E+03 0.  0.
        998    1    1    2    0    0  0.49660385452E+00 -0.29323143245E+01  0.17799155378E+02  0.18046191146E+02  0.10000000000E+00 0.  0.
</event>
<event>
 5    1  0.2022058E-009  0.3882990E+03  0.7957747E-01  0.3415800E+00
         13   -1    0    0    0    0  0.00000000000E+00  0.00000000000E+00  0.14999999963E+04  0.15000000000E+04  0.10566000000E+00 0. -1.
        994   -1    0    0    0    0 -0.00000000000E+00 -0.00000000000E+00  0.11368683772E-12  0.17120000000E+03  0.17120000000E+03 0.  0.
         13    1    1    2    0    0 -0.11701117668E+03 -0.18763755394E+03  0.12795841533E+04  0.12985511479E+04  0.10566000000E+00 0. -1.
        994    1    1    2    0    0  0.12005717798E+03  0.19208670906E+03  0.18973224866E+03  0.34149494281E+03  0.17120000000E+03 0.  0.
        998    1    1    2    0    0 -0.30460013009E+01 -0.44491551141E+01  0.30683594300E+02  0.31153909295E+02  0.10000000000E+00 0.  1.
</event>
<event>
 5    1  0.3415921E-009  0.3882862E+03  0.7957747E-01  0.3415853E+00
         13   -1    0    0    0    0  0.00000000000E+00  0.00000000000E+00  0.14999999963E+04  0.15000000000E+04  0.10566000000E+00 0.  1.
        994   -1    0    0    0    0 -0.00000000000E+00 -0.00000000000E+00  0.11368683772E-12  0.17120000000E+03  0.17120000000E+03 0.  0.
         13    1    1    2    0    0 -0.22494099254E+03 -0.20591236572E+03  0.10905323250E+04  0.11323688072E+04  0.10566000000E+00 0.  1.
        994    1    1    2    0    0  0.22511186764E+03  0.20608045872E+03  0.40882109068E+03  0.53813440013E+03  0.17120000000E+03 0.  0.
        998    1    1    2    0    0 -0.17087510095E+00 -0.16809300423E+00  0.64658056097E+00  0.69679263775E+00  0.10000000000E+00 0.  0.
</event>
<event>
 5    1  0.2022058E-009  0.3882752E+03  0.7957747E-01  0.3415899E+00
         13   -1    0    0    0    0  0.00000000000E+00  0.00000000000E+00  0.14999999963E+04  0.15000000000E+04  0.10566000000E+00 0. -1.
        994   -1    0    0    0    0 -0.00000000000E+00 -0.00000000000E+00  0.11368683772E-12  0.17120000000E+03  0.17120000000E+03 0.  0.
         13    1    1    2    0    0  0.14349380043E+03  0.26847728613E+03  0.10873576923E+04  0.11291666335E+04  0.10566000000E+00 0. -1.
        994    1    1    2    0    0 -0.14363133051E+03 -0.26933016785E+03  0.40901938364E+03  0.53830752792E+03  0.17120000000E+03 0.  0.
        998    1    1    2    0    0  0.13753008213E+00  0.85288171694E+00  0.36229202905E+01  0.37258385872E+01  0.10000000000E+00 0. -1.
</event>
<event>
 5    1  0.2022058E-009  0.3882941E+03  0.7957747E-01  0.3415820E+00
         13   -1    0    0    0    0  0.00000000000E+00  0.00000000000E+00  0.14999999963E+04  0.15000000000E+04  0.10566000000E+00 0. -1.
        994   -1    0    0    0    0 -0.00000000000E+00 -0.00000000000E+00  0.11368683772E-12  0.17120000000E+03  0.17120000000E+03 0.  0.
         13    1    1    2    0    0 -0.62793085693E+01  0.19934482044E+03  0.11968756577E+04  0.12133792228E+04  0.10566000000E+00 0. -1.
        994    1    1    2    0    0  0.61560175572E+01 -0.22070765449E+03  0.17887027561E+03  0.33174354674E+03  0.17120000000E+03 0.  0.
        998    1    1    2    0    0  0.12329101212E+00  0.21362834055E+02  0.12425406292E+03  0.12607723043E+03  0.10000000000E+00 0. -1.
</event>
<event>
 5    1  0.2022058E-009  0.3882387E+03  0.7957747E-01  0.3416051E+00
         13   -1    0    0    0    0  0.00000000000E+00  0.00000000000E+00  0.14999999963E+04  0.15000000000E+04  0.10566000000E+00 0. -1.
        994   -1    0    0    0    0 -0.00000000000E+00 -0.00000000000E+00  0.11368683772E-12  0.17120000000E+03  0.17120000000E+03 0.  0.
         13    1    1    2    0    0  0.12416759618E+03  0.18650240601E+03  0.13084465612E+04  0.13274913009E+04  0.10566000000E+00 0. -1.
        994    1    1    2    0    0 -0.12407418764E+03 -0.18723426658E+03  0.18613800509E+03  0.33824232668E+03  0.17120000000E+03 0.  0.
        998    1    1    2    0    0 -0.93408536692E-01  0.73186057200E+00  0.54154300217E+01  0.54663724143E+01  0.10000000000E+00 0. -1.
</event>
<event>
 5    1  0.2022058E-009  0.3882971E+03  0.7957747E-01  0.3415808E+00
         13   -1    0    0    0    0  0.00000000000E+00  0.00000000000E+00  0.14999999963E+04  0.15000000000E+04  0.10566000000E+00 0.  1.
        994   -1    0    0    0    0 -0.00000000000E+00 -0.00000000000E+00  0.11368683772E-12  0.17120000000E+03  0.17120000000E+03 0.  0.
         13    1    1    2    0    0  0.37946680721E+02 -0.22743245735E+03  0.12027315122E+04  0.12246340575E+04  0.10566000000E+00 0.  1.
        994    1    1    2    0    0 -0.39712226005E+02  0.24109576027E+03  0.22681553053E+03  0.37477853648E+03  0.17120000000E+03 0.  0.
        998    1    1    2    0    0  0.17655452844E+01 -0.13663302920E+02  0.70452953580E+02  0.71787406033E+02  0.10000000000E+00 0. -1.
</event>
<event>
 5    1  0.2022058E-009  0.3882978E+03  0.7957747E-01  0.3415805E+00
         13   -1    0    0    0    0  0.00000000000E+00  0.00000000000E+00  0.14999999963E+04  0.15000000000E+04  0.10566000000E+00 0. -1.
        994   -1    0    0    0    0 -0.00000000000E+00 -0.00000000000E+00  0.11368683772E-12  0.17120000000E+03  0.17120000000E+03 0.  0.
         13    1    1    2    0    0 -0.17897027579E+03  0.24826073425E+03  0.10414460609E+04  0.10854831462E+04  0.10566000000E+00 0. -1.
        994    1    1    2    0    0  0.18224186552E+03 -0.25327656510E+03  0.43834312908E+03  0.56463727719E+03  0.17120000000E+03 0.  0.
        998    1    1    2    0    0 -0.32715897272E+01  0.50158308506E+01  0.20210806345E+02  0.21079576646E+02  0.10000000000E+00 0.  1.
</event>
<event>
 5    1  0.2022058E-009  0.3881285E+03  0.7957747E-01  0.3416511E+00
         13   -1    0    0    0    0  0.00000000000E+00  0.00000000000E+00  0.14999999963E+04  0.15000000000E+04  0.10566000000E+00 0.  1.
        994   -1    0    0    0    0 -0.00000000000E+00 -0.00000000000E+00  0.11368683772E-12  0.17120000000E+03  0.17120000000E+03 0.  0.
         13    1    1    2    0    0 -0.24765582590E+03 -0.95307964184E+02  0.11920864100E+04  0.12212645234E+04  0.10566000000E+00 0.  1.
        994    1    1    2    0    0  0.25005976799E+03  0.96802331295E+02  0.28585284708E+03  0.42769366268E+03  0.17120000000E+03 0.  0.
        998    1    1    2    0    0 -0.24039420904E+01 -0.14943671111E+01  0.22060739197E+02  0.22241813877E+02  0.10000000000E+00 0. -1.
</event>
<event>
 5    1  0.2022058E-009  0.3883006E+03  0.7957747E-01  0.3415794E+00
         13   -1    0    0    0    0  0.00000000000E+00  0.00000000000E+00  0.14999999963E+04  0.15000000000E+04  0.10566000000E+00 0.  1.
        994   -1    0    0    0    0 -0.00000000000E+00 -0.00000000000E+00  0.11368683772E-12  0.17120000000E+03  0.17120000000E+03 0.  0.
         13    1    1    2    0    0 -0.15260170659E+03  0.14822648433E+03  0.12763526066E+04  0.12939607255E+04  0.10566000000E+00 0.  1.
        994    1    1    2    0    0  0.15796252551E+03 -0.15355516680E+03  0.17794451123E+03  0.33091545415E+03  0.17120000000E+03 0.  0.
        998    1    1    2    0    0 -0.53608189233E+01  0.53286824692E+01  0.45702878450E+02  0.46323820385E+02  0.10000000000E+00 0. -1.
</event>
<event>
 5    1  0.2022058E-009  0.3882946E+03  0.7957747E-01  0.3415819E+00
         13   -1    0    0    0    0  0.00000000000E+00  0.00000000000E+00  0.14999999963E+04  0.15000000000E+04  0.10566000000E+00 0. -1.
        994   -1    0    0    0    0 -0.00000000000E+00 -0.00000000000E+00  0.11368683772E-12  0.17120000000E+03  0.17120000000E+03 0.  0.
         13    1    1    2    0    0  0.48317546949E+01  0.15272631341E+03  0.88597870038E+03  0.89905891984E+03  0.10566000000E+00 0. -1.
        994    1    1    2    0    0 -0.50790079897E+01 -0.22637352746E+03  0.18956558042E+03  0.34134340412E+03  0.17120000000E+03 0.  0.
        998    1    1    2    0    0  0.24725329478E+00  0.73647214054E+02  0.42445571548E+03  0.43079767604E+03  0.10000000000E+00 0.  1.
</event>
<event>
 5    1  0.2022058E-009  0.3883006E+03  0.7957747E-01  0.3415793E+00
         13   -1    0    0    0    0  0.00000000000E+00  0.00000000000E+00  0.14999999963E+04  0.15000000000E+04  0.10566000000E+00 0.  1.
        994   -1    0    0    0    0 -0.00000000000E+00 -0.00000000000E+00  0.11368683772E-12  0.17120000000E+03  0.17120000000E+03 0.  0.
         13    1    1    2    0    0 -0.21102945505E+03 -0.19094234642E+03  0.99150553644E+03  0.10315404260E+04  0.10566000000E+00 0.  1.
        994    1    1    2    0    0  0.22912949488E+03  0.20710045998E+03  0.42422513040E+03  0.55196678090E+03  0.17120000000E+03 0.  0.
        998    1    1    2    0    0 -0.18100039829E+02 -0.16158113569E+02  0.84269329433E+02  0.87692793085E+02  0.10000000000E+00 0. -1.
</event>
<event>
 5    1  0.2022058E-009  0.3882855E+03  0.7957747E-01  0.3415857E+00
         13   -1    0    0    0    0  0.00000000000E+00  0.00000000000E+00  0.14999999963E+04  0.15000000000E+04  0.10566000000E+00 0.  1.
        994   -1    0    0    0    0 -0.00000000000E+00 -0.00000000000E+00  0.11368683772E-12  0.17120000000E+03  0.17120000000E+03 0.  0.
         13    1    1    2    0    0  0.20452012804E+03  0.87327269174E+02  0.12996182867E+04  0.13185075795E+04  0.10566000000E+00 0.  1.
        994    1    1    2    0    0 -0.20698175389E+03 -0.88537263039E+02  0.18705498574E+03  0.33908597889E+03  0.17120000000E+03 0.  0.
        998    1    1    2    0    0  0.24616258570E+01  0.12099938649E+01  0.13326723806E+02  0.13606441651E+02  0.10000000000E+00 0. -1.
</event>
<event>
 5    1  0.2022058E-009  0.3882718E+03  0.7957747E-01  0.3415914E+00
         13   -1    0    0    0    0  0.00000000000E+00  0.00000000000E+00  0.14999999963E+04  0.15000000000E+04  0.10566000000E+00 0.  1.
        994   -1    0    0    0    0 -0.00000000000E+00 -0.00000000000E+00  0.11368683772E-12  0.17120000000E+03  0.17120000000E+03 0.  0.
         13    1    1    2    0    0  0.11009737839E+03  0.19293511533E+03  0.12124916211E+04  0.12326724357E+04  0.10566000000E+00 0.  1.
        994    1    1    2    0    0 -0.11599803563E+03 -0.20469134340E+03  0.20733758639E+03  0.35728476746E+03  0.17120000000E+03 0.  0.
        998    1    1    2    0    0  0.59006572471E+01  0.11756228071E+02  0.80170788818E+02  0.81242796814E+02  0.10000000000E+00 0.  1.
</event>
<event>
 5    1  0.2022058E-009  0.3882489E+03  0.7957747E-01  0.3416009E+00
         13   -1    0    0    0    0  0.00000000000E+00  0.00000000000E+00  0.14999999963E+04  0.15000000000E+04  0.10566000000E+00 0.  1.
        994   -1    0    0    0    0 -0.00000000000E+00 -0.00000000000E+00  0.11368683772E-12  0.17120000000E+03  0.17120000000E+03 0.  0.
         13    1    1    2    0    0  0.16705247512E+03 -0.22343422506E+03  0.11711305482E+04  0.12039003923E+04  0.10566000000E+00 0.  1.
        994    1    1    2    0    0 -0.16763941660E+03  0.22456087990E+03  0.32061983799E+03  0.45895215795E+03  0.17120000000E+03 0.  0.
        998    1    1    2    0    0  0.58694148400E+00 -0.11266548371E+01  0.82496100863E+01  0.83474497904E+01  0.10000000000E+00 0.  1.
</event>
<event>
 5    1  0.2022058E-009  0.3862667E+03  0.7957747E-01  0.3424318E+00
         13   -1    0    0    0    0  0.00000000000E+00  0.00000000000E+00  0.14999999963E+04  0.15000000000E+04  0.10566000000E+00 0. -1.
        994   -1    0    0    0    0 -0.00000000000E+00 -0.00000000000E+00  0.11368683772E-12  0.17120000000E+03  0.17120000000E+03 0.  0.
         13    1    1    2    0    0 -0.96382585276E+02  0.24069925504E+03  0.10463393102E+04  0.10779850172E+04  0.10566000000E+00 0. -1.
        994    1    1    2    0    0  0.12274159557E+03 -0.25916970783E+03  0.34620497069E+03  0.48104236660E+03  0.17120000000E+03 0.  0.
        998    1    1    2    0    0 -0.26359010291E+02  0.18470452790E+02  0.10745571539E+03  0.11217261617E+03  0.10000000000E+00 0.  1.
</event>
<event>
 5    1  0.2022058E-009  0.3877477E+03  0.7957747E-01  0.3418102E+00
         13   -1    0    0    0    0  0.00000000000E+00  0.00000000000E+00  0.14999999963E+04  0.15000000000E+04  0.10566000000E+00 0.  1.
        994   -1    0    0    0    0 -0.00000000000E+00 -0.00000000000E+00  0.11368683772E-12  0.17120000000E+03  0.17120000000E+03 0.  0.
         13    1    1    2    0    0 -0.51432760552E+02  0.16273251137E+03  0.90599699239E+03  0.92193153786E+03  0.10566000000E+00 0.  1.
        994    1    1    2    0    0  0.62982638625E+02 -0.24207094686E+03  0.24090308649E+03  0.38718069834E+03  0.17120000000E+03 0.  0.
        998    1    1    2    0    0 -0.11549878073E+02  0.79338435491E+02  0.35309991740E+03  0.36208776380E+03  0.10000000000E+00 0.  1.
</event>
<event>
 5    1  0.2022058E-009  0.3870268E+03  0.7957747E-01  0.3421122E+00
         13   -1    0    0    0    0  0.00000000000E+00  0.00000000000E+00  0.14999999963E+04  0.15000000000E+04  0.10566000000E+00 0. -1.
        994   -1    0    0    0    0 -0.00000000000E+00 -0.00000000000E+00  0.11368683772E-12  0.17120000000E+03  0.17120000000E+03 0.  0.
         13    1    1    2    0    0  0.13072701687E+03 -0.19877313454E+03  0.12209785892E+04  0.12439409304E+04  0.10566000000E+00 0. -1.
        994    1    1    2    0    0 -0.12750747377E+03  0.20873614463E+03  0.22931595718E+03  0.37646272346E+03  0.17120000000E+03 0.  0.
        998    1    1    2    0    0 -0.32195430969E+01 -0.99630100909E+01  0.49705449914E+02  0.50796346118E+02  0.10000000000E+00 0.  1.
</event>
<event>
 5    1  0.2022058E-009  0.3882727E+03  0.7957747E-01  0.3415910E+00
         13   -1    0    0    0    0  0.00000000000E+00  0.00000000000E+00  0.14999999963E+04  0.15000000000E+04  0.10566000000E+00 0.  1.
        994   -1    0    0    0    0 -0.00000000000E+00 -0.00000000000E+00  0.11368683772E-12  0.17120000000E+03  0.17120000000E+03 0.  0.
         13    1    1    2    0    0  0.27779171380E+03 -0.81538479415E+02  0.10811100331E+04  0.11192031428E+04  0.10566000000E+00 0.  1.
        994    1    1    2    0    0 -0.28735865759E+03  0.83377069269E+02  0.38520994194E+03  0.51693604357E+03  0.17120000000E+03 0.  0.
        998    1    1    2    0    0  0.95669437915E+01 -0.18385898533E+01  0.33680021205E+02  0.35060813660E+02  0.10000000000E+00 0. -1.
</event>
<event>
 5    1  0.2022058E-009  0.3882199E+03  0.7957747E-01  0.3416130E+00
         13   -1    0    0    0    0  0.00000000000E+00  0.00000000000E+00  0.14999999963E+04  0.15000000000E+04  0.10566000000E+00 0.  1.
        994   -1    0    0    0    0 -0.00000000000E+00 -0.00000000000E+00  0.11368683772E-12  0.17120000000E+03  0.17120000000E+03 0.  0.
         13    1    1    2    0    0  0.18225019261E+03 -0.25447328763E+03  0.97265016623E+03  0.10217730393E+04  0.10566000000E+00 0.  1.
        994    1    1    2    0    0 -0.18796002994E+03  0.26379028895E+03  0.49905987573E+03  0.61909974072E+03  0.17120000000E+03 0.  0.
        998    1    1    2    0    0  0.57098373307E+01 -0.93170013215E+01  0.28289954314E+02  0.30327219969E+02  0.10000000000E+00 0.  1.
</event>
<event>
 5    1  0.2022058E-009  0.3866490E+03  0.7957747E-01  0.3422709E+00
         13   -1    0    0    0    0  0.00000000000E+00  0.00000000000E+00  0.14999999963E+04  0.15000000000E+04  0.10566000000E+00 0. -1.
        994   -1    0    0    0    0 -0.00000000000E+00 -0.00000000000E+00  0.11368683772E-12  0.17120000000E+03  0.17120000000E+03 0.  0.
         13    1    1    2    0    0  0.12189361277E+03 -0.18614445602E+03  0.12816310248E+04  0.13008020242E+04  0.10566000000E+00 0. -1.
        994    1    1    2    0    0 -0.12904461346E+03  0.19145297584E+03  0.20056030778E+03  0.35048627830E+03  0.17120000000E+03 0.  0.
        998    1    1    2    0    0  0.71510006859E+01 -0.53085198258E+01  0.17808663726E+02  0.19911697498E+02  0.10000000000E+00 0.  1.
</event>
<event>
 5    1  0.2022058E-009  0.3883000E+03  0.7957747E-01  0.3415796E+00
         13   -1    0    0    0    0  0.00000000000E+00  0.00000000000E+00  0.14999999963E+04  0.15000000000E+04  0.10566000000E+00 0.  1.
        994   -1    0    0    0    0 -0.00000000000E+00 -0.00000000000E+00  0.11368683772E-12  0.17120000000E+03  0.17120000000E+03 0.  0.
         13    1    1    2    0    0 -0.21622954105E+03  0.17496912731E+03  0.11629439492E+04  0.11957458133E+04  0.10566000000E+00 0.  1.
        994    1    1    2    0    0  0.21862247852E+03 -0.17697466680E+03  0.32372088473E+03  0.46175802323E+03  0.17120000000E+03 0.  0.
        998    1    1    2    0    0 -0.23929374660E+01  0.20055394928E+01  0.13335162337E+02  0.13696163439E+02  0.10000000000E+00 0.  0.
</event>
<event>
 5    1  0.2022058E-009  0.3883008E+03  0.7957747E-01  0.3415793E+00
         13   -1    0    0    0    0  0.00000000000E+00  0.00000000000E+00  0.14999999963E+04  0.15000000000E+04  0.10566000000E+00 0. -1.
        994   -1    0    0    0    0 -0.00000000000E+00 -0.00000000000E+00  0.11368683772E-12  0.17120000000E+03  0.17120000000E+03 0.  0.
         13    1    1    2    0    0  0.10141505357E+03 -0.18664389951E+03  0.11894865613E+04  0.12083042866E+04  0.10566000000E+00 0. -1.
        994    1    1    2    0    0 -0.11086827992E+03  0.20382661276E+03  0.20064432822E+03  0.35128997994E+03  0.17120000000E+03 0.  0.
        998    1    1    2    0    0  0.94532263510E+01 -0.17182713249E+02  0.10986910674E+03  0.11160573345E+03  0.10000000000E+00 0.  0.
</event>
<event>
 5    1  0.2022058E-009  0.3882994E+03  0.7957747E-01  0.3415799E+00
         13   -1    0    0    0    0  0.00000000000E+00  0.00000000000E+00  0.14999999963E+04  0.15000000000E+04  0.10566000000E+00 0. -1.
        994   -1    0    0    0    0 -0.00000000000E+00 -0.00000000000E+00  0.11368683772E-12  0.17120000000E+03  0.17120000000E+03 0.  0.
         13    1    1    2    0    0  0.46013401759E+01  0.19116043428E+03  0.11182781592E+04  0.11345085000E+04  0.10566000000E+00 0. -1.
        994    1    1    2    0    0 -0.57520098702E+01 -0.22499419995E+03  0.18693148858E+03  0.33898126357E+03  0.17120000000E+03 0.  0.
        998    1    1    2    0    0  0.11506696942E+01  0.33833765664E+02  0.19479034848E+03  0.19771023646E+03  0.10000000000E+00 0.  1.
</event>
<event>
 5    1  0.2022058E-009  0.3883006E+03  0.7957747E-01  0.3415793E+00
         13   -1    0    0    0    0  0.00000000000E+00  0.00000000000E+00  0.14999999963E+04  0.15000000000E+04  0.10566000000E+00 0. -1.
        994   -1    0    0    0    0 -0.00000000000E+00 -0.00000000000E+00  0.11368683772E-12  0.17120000000E+03  0.17120000000E+03 0.  0.
         13    1    1    2    0    0 -0.17445326444E+03 -0.87482706108E+02  0.81566900926E+03  0.83869130744E+03  0.10566000000E+00 0. -1.
        994    1    1    2    0    0  0.25142247531E+03  0.12580938121E+03  0.32330866294E+03  0.46138833213E+03  0.17120000000E+03 0.  0.
        998    1    1    2    0    0 -0.76969210870E+02 -0.38326675106E+02  0.36102232407E+03  0.37112036043E+03  0.10000000000E+00 0. -1.
</event>
<event>
 5    1  0.2022058E-009  0.3882904E+03  0.7957747E-01  0.3415836E+00
         13   -1    0    0    0    0  0.00000000000E+00  0.00000000000E+00  0.14999999963E+04  0.15000000000E+04  0.10566000000E+00 0.  1.
        994   -1    0    0    0    0 -0.00000000000E+00 -0.00000000000E+00  0.11368683772E-12  0.17120000000E+03  0.17120000000E+03 0.  0.
         13    1    1    2    0    0 -0.41917660690E+01 -0.16478044058E+03  0.91558349414E+03  0.93030280576E+03  0.10566000000E+00 0.  1.
        994    1    1    2    0    0  0.63468416542E+01  0.23518395019E+03  0.20730144976E+03  0.35726055463E+03  0.17120000000E+03 0.  0.
        998    1    1    2    0    0 -0.21550755852E+01 -0.70403509612E+02  0.37711505238E+03  0.38363663961E+03  0.10000000000E+00 0. -1.
</event>
<event>
 5    1  0.2022058E-009  0.3877384E+03  0.7957747E-01  0.3418141E+00
         13   -1    0    0    0    0  0.00000000000E+00  0.00000000000E+00  0.14999999963E+04  0.15000000000E+04  0.10566000000E+00 0.  1.
        994   -1    0    0    0    0 -0.00000000000E+00 -0.00000000000E+00  0.11368683772E-12  0.17120000000E+03  0.17120000000E+03 0.  0.
         13    1    1    2    0    0 -0.54171127865E+02 -0.31343420123E+02  0.35631864526E+03  0.36177328426E+03  0.10566000000E+00 0.  1.
        994    1    1    2    0    0  0.16586553186E+03  0.95595805204E+02  0.13049065527E+03  0.28807496202E+03  0.17120000000E+03 0.  0.
        998    1    1    2    0    0 -0.11169440400E+03 -0.64252385081E+02  0.10131906957E+04  0.10213517537E+04  0.10000000000E+00 0.  1.
</event>
<event>
 5    1  0.2022058E-009  0.3865768E+03  0.7957747E-01  0.3423012E+00
         13   -1    0    0    0    0  0.00000000000E+00  0.00000000000E+00  0.14999999963E+04  0.15000000000E+04  0.10566000000E+00 0.  1.
        994   -1    0    0    0    0 -0.00000000000E+00 -0.00000000000E+00  0.11368683772E-12  0.17120000000E+03  0.17120000000E+03 0.  0.
         13    1    1    2    0    0 -0.41692145534E+02  0.28047566617E+02  0.17679376139E+03  0.18379593637E+03  0.10566000000E+00 0.  1.
        994    1    1    2    0    0  0.22491062398E+03 -0.97231233919E+02  0.23097471162E+03  0.37775317211E+03  0.17120000000E+03 0.  0.
        998    1    1    2    0    0 -0.18321847844E+03  0.69183667302E+02  0.10922315233E+04  0.11096508915E+04  0.10000000000E+00 0.  1.
</event>
<event>
 5    1  0.2022058E-009  0.3881614E+03  0.7957747E-01  0.3416374E+00
         13   -1    0    0    0    0  0.00000000000E+00  0.00000000000E+00  0.14999999963E+04  0.15000000000E+04  0.10566000000E+00 0.  1.
        994   -1    0    0    0    0 -0.00000000000E+00 -0.00000000000E+00  0.11368683772E-12  0.17120000000E+03  0.17120000000E+03 0.  0.
         13    1    1    2    0    0 -0.21379477864E+03  0.79125632045E+02  0.11833474904E+04  0.12051059568E+04  0.10566000000E+00 0.  1.
        994    1    1    2    0    0  0.23239396367E+03 -0.82874166899E+02  0.23239352796E+03  0.37972526085E+03  0.17120000000E+03 0.  0.
        998    1    1    2    0    0 -0.18599185033E+02  0.37485348541E+01  0.84258977926E+02  0.86368782315E+02  0.10000000000E+00 0.  1.
</event>
<event>
 5    1  0.2022058E-009  0.3878655E+03  0.7957747E-01  0.3417609E+00
         13   -1    0    0    0    0  0.00000000000E+00  0.00000000000E+00  0.14999999963E+04  0.15000000000E+04  0.10566000000E+00 0. -1.
        994   -1    0    0    0    0 -0.00000000000E+00 -0.00000000000E+00  0.11368683772E-12  0.17120000000E+03  0.17120000000E+03 0.  0.
         13    1    1    2    0    0  0.60883169722E+02  0.16551947889E+03  0.10469068215E+04  0.10616578367E+04  0.10566000000E+00 0. -1.
        994    1    1    2    0    0 -0.80527577592E+02 -0.19783855357E+03  0.16636504525E+03  0.32033037994E+03  0.17120000000E+03 0.  0.
        998    1    1    2    0    0  0.19644407870E+02  0.32319074670E+02  0.28672812954E+03  0.28921178333E+03  0.10000000000E+00 0. -1.
</event>
<event>
 5    1  0.2022058E-009  0.3881557E+03  0.7957747E-01  0.3416398E+00
         13   -1    0    0    0    0  0.00000000000E+00  0.00000000000E+00  0.14999999963E+04  0.15000000000E+04  0.10566000000E+00 0. -1.
        994   -1    0    0    0    0 -0.00000000000E+00 -0.00000000000E+00  0.11368683772E-12  0.17120000000E+03  0.17120000000E+03 0.  0.
         13    1    1    2    0    0 -0.11683600899E+03 -0.19150899998E+03  0.10678889031E+04  0.10911979979E+04  0.10566000000E+00 0. -1.
        994    1    1    2    0    0  0.13600917112E+03  0.21722849361E+03  0.25505010234E+03  0.40005838045E+03  0.17120000000E+03 0.  0.
        998    1    1    2    0    0 -0.19173162129E+02 -0.25719493639E+02  0.17706099087E+03  0.17994362169E+03  0.10000000000E+00 0. -1.
</event>
<event>
 5    1  0.2022058E-009  0.3878012E+03  0.7957747E-01  0.3417878E+00
         13   -1    0    0    0    0  0.00000000000E+00  0.00000000000E+00  0.14999999963E+04  0.15000000000E+04  0.10566000000E+00 0. -1.
        994   -1    0    0    0    0 -0.00000000000E+00 -0.00000000000E+00  0.11368683772E-12  0.17120000000E+03  0.17120000000E+03 0.  0.
         13    1    1    2    0    0 -0.48642456798E+02  0.31626304636E+03  0.10032105102E+04  0.10530051007E+04  0.10566000000E+00 0. -1.
        994    1    1    2    0    0  0.46880381877E+02 -0.31790295479E+03  0.48669565631E+03  0.60781753902E+03  0.17120000000E+03 0.  0.
        998    1    1    2    0    0  0.17620749220E+01  0.16399084257E+01  0.10093829732E+02  0.10377360277E+02  0.10000000000E+00 0.  1.
</event>
<event>
 5    1  0.2022058E-009  0.3882951E+03  0.7957747E-01  0.3415816E+00
         13   -1    0    0    0    0  0.00000000000E+00  0.00000000000E+00  0.14999999963E+04  0.15000000000E+04  0.10566000000E+00 0. -1.
        994   -1    0    0    0    0 -0.00000000000E+00 -0.00000000000E+00  0.11368683772E-12  0.17120000000E+03  0.17120000000E+03 0.  0.
         13    1    1    2    0    0 -0.19854193112E+03 -0.16737252837E+03  0.12329200376E+04  0.12599699568E+04  0.10566000000E+00 0. -1.
        994    1    1    2    0    0  0.19894240215E+03  0.16777696291E+03  0.26470327713E+03  0.40878411611E+03  0.17120000000E+03 0.  0.
        998    1    1    2    0    0 -0.40047103161E+00 -0.40443454060E+00  0.23766815461E+01  0.24459271281E+01  0.10000000000E+00 0.  0.
</event>
<event>
 5    1  0.2022058E-009  0.3870405E+03  0.7957747E-01  0.3421064E+00
         13   -1    0    0    0    0  0.00000000000E+00  0.00000000000E+00  0.14999999963E+04  0.15000000000E+04  0.10566000000E+00 0.  1.
        994   -1    0    0    0    0 -0.00000000000E+00 -0.00000000000E+00  0.11368683772E-12  0.17120000000E+03  0.17120000000E+03 0.  0.
         13    1    1    2    0    0  0.12802887573E+03  0.56923901082E+02  0.77486763851E+03  0.78743354762E+03  0.10566000000E+00 0.  1.
        994    1    1    2    0    0 -0.19802164242E+03 -0.69496989386E+02  0.16080545062E+03  0.31497656318E+03  0.17120000000E+03 0.  0.
        998    1    1    2    0    0  0.69992766684E+02  0.12573088304E+02  0.56432690714E+03  0.56878988921E+03  0.10000000000E+00 0. -1.
</event>
<event>
 5    1  0.2022058E-009  0.3854658E+03  0.7957747E-01  0.3427699E+00
         13   -1    0    0    0    0  0.00000000000E+00  0.00000000000E+00  0.14999999963E+04  0.15000000000E+04  0.10566000000E+00 0. -1.
        994   -1    0    0    0    0 -0.00000000000E+00 -0.00000000000E+00  0.11368683772E-12  0.17120000000E+03  0.17120000000E+03 0.  0.
         13    1    1    2    0    0  0.33395567805E+02 -0.23097046304E+03  0.12754241416E+04  0.12965991558E+04  0.10566000000E+00 0. -1.
        994    1    1    2    0    0 -0.39051198735E+02  0.23285213688E+03  0.21159042907E+03  0.36031245253E+03  0.17120000000E+03 0.  0.
        998    1    1    2    0    0  0.56556309293E+01 -0.18816738387E+01  0.12985425618E+02  0.14288391656E+02  0.10000000000E+00 0.  1.
</event>
<event>
 5    1  0.2022058E-009  0.3882601E+03  0.7957747E-01  0.3415962E+00
         13   -1    0    0    0    0  0.00000000000E+00  0.00000000000E+00  0.14999999963E+04  0.15000000000E+04  0.10566000000E+00 0.  1.
        994   -1    0    0    0    0 -0.00000000000E+00 -0.00000000000E+00  0.11368683772E-12  0.17120000000E+03  0.17120000000E+03 0.  0.
         13    1    1    2    0    0  0.53953562377E+02  0.27261380870E+03  0.11658266906E+04  0.11984912011E+04  0.10566000000E+00 0.  1.
        994    1    1    2    0    0 -0.54928488981E+02 -0.27572590240E+03  0.32340307123E+03  0.46145519678E+03  0.17120000000E+03 0.  0.
        998    1    1    2    0    0  0.97492660464E+00  0.31120937044E+01  0.10770234489E+02  0.11253602093E+02  0.10000000000E+00 0.  1.
</event>
<event>
 5    1  0.2022058E-009  0.3882998E+03  0.7957747E-01  0.3415797E+00
         13   -1    0    0    0    0  0.00000000000E+00  0.00000000000E+00  0.14999999963E+04  0.15000000000E+04  0.10566000000E+00 0. -1.
        994   -1    0    0    0    0 -0.00000000000E+00 -0.00000000000E+00  0.11368683772E-12  0.17120000000E+03  0.17120000000E+03 0.  0.
         13    1    1    2    0    0  0.21601987873E+03 -0.15679053490E+03  0.10270702334E+04  0.10611885484E+04  0.10566000000E+00 0. -1.
        994    1    1    2    0    0 -0.23822628071E+03  0.17261765878E+03  0.36665514271E+03  0.50029396421E+03  0.17120000000E+03 0.  0.
        998    1    1    2    0    0  0.22206401979E+02 -0.15827123882E+02  0.10627462022E+03  0.10971748740E+03  0.10000000000E+00 0.  0.
</event>
<event>
 5    1  0.2022058E-009  0.3798114E+03  0.7957747E-01  0.3451980E+00
         13   -1    0    0    0    0  0.00000000000E+00  0.00000000000E+00  0.14999999963E+04  0.15000000000E+04  0.10566000000E+00 0.  1.
        994   -1    0    0    0    0 -0.00000000000E+00 -0.00000000000E+00  0.11368683772E-12  0.17120000000E+03  0.17120000000E+03 0.  0.
         13    1    1    2    0    0  0.15613191379E+03  0.10261008363E+03  0.10424060178E+04  0.10590166764E+04  0.10566000000E+00 0.  1.
        994    1    1    2    0    0 -0.20070599463E+03 -0.72235510185E+02  0.17549787310E+03  0.32497662789E+03  0.17120000000E+03 0.  0.
        998    1    1    2    0    0  0.44574080843E+02 -0.30374573445E+02  0.28209610533E+03  0.28720669567E+03  0.10000000000E+00 0. -1.
</event>
<event>
 5    1  0.2022058E-009  0.3849310E+03  0.7957747E-01  0.3429965E+00
         13   -1    0    0    0    0  0.00000000000E+00  0.00000000000E+00  0.14999999963E+04  0.15000000000E+04  0.10566000000E+00 0. -1.
        994   -1    0    0    0    0 -0.00000000000E+00 -0.00000000000E+00  0.11368683772E-12  0.17120000000E+03  0.17120000000E+03 0.  0.
         13    1    1    2    0    0 -0.37210219925E+02 -0.18567750718E+03  0.10377052733E+04  0.10548426340E+04  0.10566000000E+00 0. -1.
        994    1    1    2    0    0  0.12730289837E+02  0.22308680096E+03  0.18813515777E+03  0.33857651813E+03  0.17120000000E+03 0.  0.
        998    1    1    2    0    0  0.24479930088E+02 -0.37409293781E+02  0.27415956520E+03  0.27778084785E+03  0.10000000000E+00 0. -1.
</event>
<event>
 5    1  0.2022058E-009  0.3883009E+03  0.7957747E-01  0.3415792E+00
         13   -1    0    0    0    0  0.00000000000E+00  0.00000000000E+00  0.14999999963E+04  0.15000000000E+04  0.10566000000E+00 0.  1.
        994   -1    0    0    0    0 -0.00000000000E+00 -0.00000000000E+00  0.11368683772E-12  0.17120000000E+03  0.17120000000E+03 0.  0.
         13    1    1    2    0    0  0.10425755533E+03 -0.15148709705E+03  0.81319360130E+03  0.83372766703E+03  0.10566000000E+00 0.  1.
        994    1    1    2    0    0 -0.15436786673E+03  0.22401349234E+03  0.29639096168E+03  0.43722823010E+03  0.17120000000E+03 0.  0.
        998    1    1    2    0    0  0.50110311406E+02 -0.72526395293E+02  0.39041543330E+03  0.40024410287E+03  0.10000000000E+00 0.  1.
</event>
<event>
 5    1  0.2022058E-009  0.3882985E+03  0.7957747E-01  0.3415802E+00
         13   -1    0    0    0    0  0.00000000000E+00  0.00000000000E+00  0.14999999963E+04  0.15000000000E+04  0.10566000000E+00 0. -1.
        994   -1    0    0    0    0 -0.00000000000E+00 -0.00000000000E+00  0.11368683772E-12  0.17120000000E+03  0.17120000000E+03 0.  0.
         13    1    1    2    0    0  0.82799256381E+02 -0.81178667788E+01  0.43120574650E+03  0.43915831268E+03  0.10566000000E+00 0. -1.
        994    1    1    2    0    0 -0.24455021379E+03  0.26465551012E+02  0.23048062645E+03  0.37806876574E+03  0.17120000000E+03 0.  0.
        998    1    1    2    0    0  0.16175095741E+03 -0.18347684233E+02  0.83831362333E+03  0.85397292158E+03  0.10000000000E+00 0. -1.
</event>
<event>
 5    1  0.2022058E-009  0.3875324E+03  0.7957747E-01  0.3419002E+00
         13   -1    0    0    0    0  0.00000000000E+00  0.00000000000E+00  0.14999999963E+04  0.15000000000E+04  0.10566000000E+00 0.  1.
        994   -1    0    0    0    0 -0.00000000000E+00 -0.00000000000E+00  0.11368683772E-12  0.17120000000E+03  0.17120000000E+03 0.  0.
         13    1    1    2    0    0  0.25752525061E+03 -0.15119052941E+03  0.97202670445E+03  0.10168646696E+04  0.10566000000E+00 0.  1.
        994    1    1    2    0    0 -0.27118296687E+03  0.15721880030E+03  0.44784712120E+03  0.57283019880E+03  0.17120000000E+03 0.  0.
        998    1    1    2    0    0  0.13657716263E+02 -0.60282708960E+01  0.80126170626E+02  0.81505131634E+02  0.10000000000E+00 0.  1.
</event>
<event>
 5    1  0.2022058E-009  0.3882834E+03  0.7957747E-01  0.3415865E+00
         13   -1    0    0    0    0  0.00000000000E+00  0.00000000000E+00  0.14999999963E+04  0.15000000000E+04  0.10566000000E+00 0. -1.
        994   -1    0    0    0    0 -0.00000000000E+00 -0.00000000000E+00  0.11368683772E-12  0.17120000000E+03  0.17120000000E+03 0.  0.
         13    1    1    2    0    0  0.56034737260E+02 -0.25097951476E+03  0.10485948532E+04  0.10796674423E+04  0.10566000000E+00 0. -1.
        994    1    1    2    0    0 -0.63678896609E+02  0.27782678915E+03  0.33563149956E+03  0.47244118167E+03  0.17120000000E+03 0.  0.
        998    1    1    2    0    0  0.76441593494E+01 -0.26847274386E+02  0.11577364351E+03  0.11909137604E+03  0.10000000000E+00 0.  1.
</event>
<event>
 5    1  0.2022058E-009  0.3776217E+03  0.7957747E-01  0.3461580E+00
         13   -1    0    0    0    0  0.00000000000E+00  0.00000000000E+00  0.14999999963E+04  0.15000000000E+04  0.10566000000E+00 0.  1.
        994   -1    0    0    0    0 -0.00000000000E+00 -0.00000000000E+00  0.11368683772E-12  0.17120000000E+03  0.17120000000E+03 0.  0.
         13    1    1    2    0    0  0.11359529237E+02  0.21727943898E+02  0.77423175300E+02  0.81212694132E+02  0.10566000000E+00 0.  1.
        994    1    1    2    0    0  0.21588869582E+03 -0.73088482593E+02  0.20701253027E+03  0.35229743536E+03  0.17120000000E+03 0.  0.
        998    1    1    2    0    0 -0.22724822505E+03  0.51360538695E+02  0.12155642907E+04  0.12376898705E+04  0.10000000000E+00 0.  1.
</event>
<event>
 5    1  0.2022058E-009  0.3864417E+03  0.7957747E-01  0.3423581E+00
         13   -1    0    0    0    0  0.00000000000E+00  0.00000000000E+00  0.14999999963E+04  0.15000000000E+04  0.10566000000E+00 0. -1.
        994   -1    0    0    0    0 -0.00000000000E+00 -0.00000000000E+00  0.11368683772E-12  0.17120000000E+03  0.17120000000E+03 0.  0.
         13    1    1    2    0    0 -0.44352703498E+02 -0.73857916996E+02  0.43126492660E+03  0.43978585959E+03  0.10566000000E+00 0. -1.
        994    1    1    2    0    0  0.11800386604E+03  0.15822249793E+03  0.14091518253E+03  0.29685989948E+03  0.17120000000E+03 0.  0.
        998    1    1    2    0    0 -0.73651162545E+02 -0.84364580936E+02  0.92781988715E+03  0.93455424093E+03  0.10000000000E+00 0. -1.
</event>
<event>
 5    1  0.2022058E-009  0.3882406E+03  0.7957747E-01  0.3416044E+00
         13   -1    0    0    0    0  0.00000000000E+00  0.00000000000E+00  0.14999999963E+04  0.15000000000E+04  0.10566000000E+00 0.  1.
        994   -1    0    0    0    0 -0.00000000000E+00 -0.00000000000E+00  0.11368683772E-12  0.17120000000E+03  0.17120000000E+03 0.  0.
         13    1    1    2    0    0 -0.24944746258E+02  0.10525405288E+03  0.43692387636E+03  0.45011458642E+03  0.10566000000E+00 0.  1.
        994    1    1    2    0    0  0.55008002425E+02 -0.27807342644E+03  0.33071323318E+03  0.46800789889E+03  0.17120000000E+03 0.  0.
        998    1    1    2    0    0 -0.30063256167E+02  0.17281937357E+03  0.73236288674E+03  0.75307751468E+03  0.10000000000E+00 0.  1.
</event>
<event>
 5    1  0.2022058E-009  0.3882997E+03  0.7957747E-01  0.3415797E+00
         13   -1    0    0    0    0  0.00000000000E+00  0.00000000000E+00  0.14999999963E+04  0.15000000000E+04  0.10566000000E+00 0.  1.
        994   -1    0    0    0    0 -0.00000000000E+00 -0.00000000000E+00  0.11368683772E-12  0.17120000000E+03  0.17120000000E+03 0.  0.
         13    1    1    2    0    0 -0.21183164175E+03 -0.15526883645E+03  0.10945098300E+04  0.11255811100E+04  0.10566000000E+00 0.  1.
        994    1    1    2    0    0  0.22747722167E+03  0.16630266591E+03  0.32530380803E+03  0.46317865947E+03  0.17120000000E+03 0.  0.
        998    1    1    2    0    0 -0.15645579924E+02 -0.11033829464E+02  0.80186358251E+02  0.82440230551E+02  0.10000000000E+00 0. -1.
</event>
<event>
 5    1  0.2022058E-009  0.3801412E+03  0.7957747E-01  0.3450544E+00
         13   -1    0    0    0    0  0.00000000000E+00  0.00000000000E+00  0.14999999963E+04  0.15000000000E+04  0.10566000000E+00 0.  1.
        994   -1    0    0    0    0 -0.00000000000E+00 -0.00000000000E+00  0.11368683772E-12  0.17120000000E+03  0.17120000000E+03 0.  0.
         13    1    1    2    0    0 -0.90325279367E+01  0.10644890022E+03  0.35675553148E+03  0.37240767355E+03  0.10566000000E+00 0.  1.
        994    1    1    2    0    0 -0.21261635526E+02 -0.21756631411E+03  0.18499465238E+03  0.33364594946E+03  0.17120000000E+03 0.  0.
        998    1    1    2    0    0  0.30294163463E+02  0.11111741388E+03  0.95824981242E+03  0.96514637699E+03  0.10000000000E+00 0.  1.
</event>
<event>
 5    1  0.2022058E-009  0.3882763E+03  0.7957747E-01  0.3415895E+00
         13   -1    0    0    0    0  0.00000000000E+00  0.00000000000E+00  0.14999999963E+04  0.15000000000E+04  0.10566000000E+00 0. -1.
        994   -1    0    0    0    0 -0.00000000000E+00 -0.00000000000E+00  0.11368683772E-12  0.17120000000E+03  0.17120000000E+03 0.  0.
         13    1    1    2    0    0 -0.26886656523E+02  0.25469261401E+02  0.14895652237E+03  0.15349147304E+03  0.10566000000E+00 0. -1.
        994    1    1    2    0    0  0.20282643307E+03 -0.19064408584E+03  0.31486325558E+03  0.45379735470E+03  0.17120000000E+03 0.  0.
        998    1    1    2    0    0 -0.17593977655E+03  0.16517482444E+03  0.10361802183E+04  0.10639111723E+04  0.10000000000E+00 0. -1.
</event>
<event>
 5    1  0.2022058E-009  0.3883007E+03  0.7957747E-01  0.3415793E+00
         13   -1    0    0    0    0  0.00000000000E+00  0.00000000000E+00  0.14999999963E+04  0.15000000000E+04  0.10566000000E+00 0.  1.
        994   -1    0    0    0    0 -0.00000000000E+00 -0.00000000000E+00  0.11368683772E-12  0.17120000000E+03  0.17120000000E+03 0.  0.
         13    1    1    2    0    0 -0.19297288419E+03 -0.89998824941E+01  0.96142325247E+03  0.98063969605E+03  0.10566000000E+00 0.  1.
        994    1    1    2    0    0  0.25168087543E+03  0.11769979827E+02  0.24431985207E+03  0.39049126187E+03  0.17120000000E+03 0.  0.
        998    1    1    2    0    0 -0.58707991247E+02 -0.27700973332E+01  0.29425689174E+03  0.30006904207E+03  0.10000000000E+00 0. -1.
</event>
<event>
 5    1  0.2022058E-009  0.3882260E+03  0.7957747E-01  0.3416105E+00
         13   -1    0    0    0    0  0.00000000000E+00  0.00000000000E+00  0.14999999963E+04  0.15000000000E+04  0.10566000000E+00 0.  1.
        994   -1    0    0    0    0 -0.00000000000E+00 -0.00000000000E+00  0.11368683772E-12  0.17120000000E+03  0.17120000000E+03 0.  0.
         13    1    1    2    0    0 -0.13968693365E+03  0.31249972959E+03  0.83705910256E+03  0.90434311672E+03  0.10566000000E+00 0.  1.
        994    1    1    2    0    0  0.14082967193E+03 -0.31342975327E+03  0.65928075794E+03  0.76291006319E+03  0.17120000000E+03 0.  0.
        998    1    1    2    0    0 -0.11427382851E+01  0.93002368226E+00  0.36601357851E+01  0.39468200875E+01  0.10000000000E+00 0.  1.
</event>
<event>
 5    1  0.2022058E-009  0.3882991E+03  0.7957747E-01  0.3415800E+00
         13   -1    0    0    0    0  0.00000000000E+00  0.00000000000E+00  0.14999999963E+04  0.15000000000E+04  0.10566000000E+00 0.  1.
        994   -1    0    0    0    0 -0.00000000000E+00 -0.00000000000E+00  0.11368683772E-12  0.17120000000E+03  0.17120000000E+03 0.  0.
         13    1    1    2    0    0  0.20376851841E+03  0.10082068398E+03  0.12230727498E+04  0.12440230633E+04  0.10566000000E+00 0.  1.
        994    1    1    2    0    0 -0.21438536823E+03 -0.10585978839E+03  0.21535278038E+03  0.36449093394E+03  0.17120000000E+03 0.  0.
        998    1    1    2    0    0  0.10616849823E+02  0.50391044113E+01  0.61574466059E+02  0.62686002775E+02  0.10000000000E+00 0.  1.
</event>
<event>
 5    1  0.2022058E-009  0.3882777E+03  0.7957747E-01  0.3415889E+00
         13   -1    0    0    0    0  0.00000000000E+00  0.00000000000E+00  0.14999999963E+04  0.15000000000E+04  0.10566000000E+00 0.  1.
        994   -1    0    0    0    0 -0.00000000000E+00 -0.00000000000E+00  0.11368683772E-12  0.17120000000E+03  0.17120000000E+03 0.  0.
         13    1    1    2    0    0 -0.20060173742E+03  0.20733052225E+03  0.11187566441E+04  0.11553542497E+04  0.10566000000E+00 0.  1.
        994    1    1    2    0    0  0.20442296880E+03 -0.21050902757E+03  0.36401649502E+03  0.49791590606E+03  0.17120000000E+03 0.  0.
        998    1    1    2    0    0 -0.38212313833E+01  0.31785053208E+01  0.17226857161E+02  0.17929844199E+02  0.10000000000E+00 0.  1.
</event>
<event>
 5    1  0.2022058E-009  0.2942339E+03  0.7957747E-01  0.3938063E+00
         13   -1    0    0    0    0  0.00000000000E+00  0.00000000000E+00  0.14999999963E+04  0.15000000000E+04  0.10566000000E+00 0. -1.
        994   -1    0    0    0    0 -0.00000000000E+00 -0.00000000000E+00  0.11368683772E-12  0.17120000000E+03  0.17120000000E+03 0.  0.
         13    1    1    2    0    0 -0.95350080605E+02 -0.15590792249E+03  0.80947123943E+03  0.82984493539E+03  0.10566000000E+00 0. -1.
        994    1    1    2    0    0 -0.68561278910E+02  0.17599580039E+03  0.20072213227E+03  0.32445952768E+03  0.17120000000E+03 0.  0.
        998    1    1    2    0    0  0.16391135951E+03 -0.20087877897E+02  0.48980662457E+03  0.51689553692E+03  0.10000000000E+00 0.  1.
</event>
<event>
 5    1  0.2022058E-009  0.3877844E+03  0.7957747E-01  0.3417948E+00
         13   -1    0    0    0    0  0.00000000000E+00  0.00000000000E+00  0.14999999963E+04  0.15000000000E+04  0.10566000000E+00 0. -1.
        994   -1    0    0    0    0 -0.00000000000E+00 -0.00000000000E+00  0.11368683772E-12  0.17120000000E+03  0.17120000000E+03 0.  0.
         13    1    1    2    0    0  0.91471097779E+01  0.23288504153E+03  0.11734939062E+04  0.11964142557E+04  0.10566000000E+00 0. -1.
        994    1    1    2    0    0 -0.28709050053E+01 -0.24774491281E+03  0.23534222080E+03  0.38220568390E+03  0.17120000000E+03 0.  0.
        998    1    1    2    0    0 -0.62762047726E+01  0.14859871278E+02  0.91163869274E+02  0.92580060389E+02  0.10000000000E+00 0. -1.
</event>
<event>
 5    1  0.2022058E-009  0.3882986E+03  0.7957747E-01  0.3415802E+00
         13   -1    0    0    0    0  0.00000000000E+00  0.00000000000E+00  0.14999999963E+04  0.15000000000E+04  0.10566000000E+00 0.  1.
        994   -1    0    0    0    0 -0.00000000000E+00 -0.00000000000E+00  0.11368683772E-12  0.17120000000E+03  0.17120000000E+03 0.  0.
         13    1    1    2    0    0  0.24333299654E+03 -0.35918147931E+02  0.12113125702E+04  0.12360336624E+04  0.10566000000E+00 0.  1.
        994    1    1    2    0    0 -0.25106121329E+03  0.37253206496E+02  0.24875757089E+03  0.39447345068E+03  0.17120000000E+03 0.  0.
        998    1    1    2    0    0  0.77282167517E+01 -0.13350585654E+01  0.39929855154E+02  0.40692886948E+02  0.10000000000E+00 0.  1.
</event>
<event>
 5    1  0.2022058E-009  0.3882971E+03  0.7957747E-01  0.3415808E+00
         13   -1    0    0    0    0  0.00000000000E+00  0.00000000000E+00  0.14999999963E+04  0.15000000000E+04  0.10566000000E+00 0. -1.
        994   -1    0    0    0    0 -0.00000000000E+00 -0.00000000000E+00  0.11368683772E-12  0.17120000000E+03  0.17120000000E+03 0.  0.
         13    1    1    2    0    0  0.26344565699E+02 -0.47964863471E+01  0.15999337157E+03  0.16221877984E+03  0.10566000000E+00 0. -1.
        994    1    1    2    0    0 -0.21728399789E+03  0.33281262342E+02  0.17706182063E+03  0.33012165407E+03  0.17120000000E+03 0.  0.
        998    1    1    2    0    0  0.19093943219E+03 -0.28484775995E+02  0.11629448041E+04  0.11788595661E+04  0.10000000000E+00 0. -1.
</event>
<event>
 5    1  0.2022058E-009  0.3882922E+03  0.7957747E-01  0.3415828E+00
         13   -1    0    0    0    0  0.00000000000E+00  0.00000000000E+00  0.14999999963E+04  0.15000000000E+04  0.10566000000E+00 0. -1.
        994   -1    0    0    0    0 -0.00000000000E+00 -0.00000000000E+00  0.11368683772E-12  0.17120000000E+03  0.17120000000E+03 0.  0.
         13    1    1    2    0    0 -0.15815883941E+03  0.21906575348E+03  0.86560407911E+03  0.90679350227E+03  0.10566000000E+00 0. -1.
        994    1    1    2    0    0  0.18664967754E+03 -0.25880578449E+03  0.47258850769E+03  0.59537204655E+03  0.17120000000E+03 0.  0.
        998    1    1    2    0    0 -0.28490838129E+02  0.39740031008E+02  0.16180740948E+03  0.16903445118E+03  0.10000000000E+00 0. -1.
</event>
<event>
 5    1  0.2022058E-009  0.3882156E+03  0.7957747E-01  0.3416148E+00
         13   -1    0    0    0    0  0.00000000000E+00  0.00000000000E+00  0.14999999963E+04  0.15000000000E+04  0.10566000000E+00 0. -1.
        994   -1    0    0    0    0 -0.00000000000E+00 -0.00000000000E+00  0.11368683772E-12  0.17120000000E+03  0.17120000000E+03 0.  0.
         13    1    1    2    0    0  0.19828379855E+03 -0.71365801708E+02  0.10198214217E+04  0.10413670274E+04  0.10566000000E+00 0. -1.
        994    1    1    2    0    0 -0.24537023730E+03  0.86879077894E+02  0.26497728250E+03  0.40899502169E+03  0.17120000000E+03 0.  0.
        998    1    1    2    0    0  0.47086438751E+02 -0.15513276187E+02  0.21520129204E+03  0.22083795087E+03  0.10000000000E+00 0.  1.
</event>
<event>
 5    1  0.2022058E-009  0.3882876E+03  0.7957747E-01  0.3415847E+00
         13   -1    0    0    0    0  0.00000000000E+00  0.00000000000E+00  0.14999999963E+04  0.15000000000E+04  0.10566000000E+00 0. -1.
        994   -1    0    0    0    0 -0.00000000000E+00 -0.00000000000E+00  0.11368683772E-12  0.17120000000E+03  0.17120000000E+03 0.  0.
         13    1    1    2    0    0  0.40704300081E+02  0.20593068291E+03  0.11946283302E+04  0.12129308079E+04  0.10566000000E+00 0. -1.
        994    1    1    2    0    0 -0.45223757060E+02 -0.22568944055E+03  0.19694011821E+03  0.34795942571E+03  0.17120000000E+03 0.  0.
        998    1    1    2    0    0  0.45194569788E+01  0.19758757639E+02  0.10843154789E+03  0.11030976644E+03  0.10000000000E+00 0.  1.
</event>
<event>
 5    1  0.2022058E-009  0.3882588E+03  0.7957747E-01  0.3415968E+00
         13   -1    0    0    0    0  0.00000000000E+00  0.00000000000E+00  0.14999999963E+04  0.15000000000E+04  0.10566000000E+00 0. -1.
        994   -1    0    0    0    0 -0.00000000000E+00 -0.00000000000E+00  0.11368683772E-12  0.17120000000E+03  0.17120000000E+03 0.  0.
         13    1    1    2    0    0 -0.20676911360E+03 -0.85391729088E+02  0.13114552428E+04  0.13303984662E+04  0.10566000000E+00 0. -1.
        994    1    1    2    0    0  0.20720600302E+03  0.85241538098E+02  0.18504662223E+03  0.33727161147E+03  0.17120000000E+03 0.  0.
        998    1    1    2    0    0 -0.43688941812E+00  0.15019099022E+00  0.34981312568E+01  0.35299223769E+01  0.10000000000E+00 0.  1.
</event>
<event>
 5    1  0.2022058E-009  0.3882996E+03  0.7957747E-01  0.3415798E+00
         13   -1    0    0    0    0  0.00000000000E+00  0.00000000000E+00  0.14999999963E+04  0.15000000000E+04  0.10566000000E+00 0. -1.
        994   -1    0    0    0    0 -0.00000000000E+00 -0.00000000000E+00  0.11368683772E-12  0.17120000000E+03  0.17120000000E+03 0.  0.
         13    1    1    2    0    0  0.53359219895E+02 -0.93791634668E+02  0.15868359747E+03  0.19189729636E+03  0.10566000000E+00 0. -1.
        994    1    1    2    0    0 -0.16750741682E+03  0.29058647148E+03  0.10052743023E+04  0.10734920098E+04  0.17120000000E+03 0.  0.
        998    1    1    2    0    0  0.11414819693E+03 -0.19679483681E+03  0.33604209646E+03  0.40581069386E+03  0.10000000000E+00 0. -1.
</event>
<event>
 5    1  0.2022058E-009  0.3882913E+03  0.7957747E-01  0.3415832E+00
         13   -1    0    0    0    0  0.00000000000E+00  0.00000000000E+00  0.14999999963E+04  0.15000000000E+04  0.10566000000E+00 0.  1.
        994   -1    0    0    0    0 -0.00000000000E+00 -0.00000000000E+00  0.11368683772E-12  0.17120000000E+03  0.17120000000E+03 0.  0.
         13    1    1    2    0    0 -0.24305989459E+03  0.31340777257E+02  0.11872459745E+04  0.12122761121E+04  0.10566000000E+00 0.  1.
        994    1    1    2    0    0  0.25424839254E+03 -0.32363040666E+02  0.25483427349E+03  0.39992444093E+03  0.17120000000E+03 0.  0.
        998    1    1    2    0    0 -0.11188497942E+02  0.10222634093E+01  0.57919748260E+02  0.58999447008E+02  0.10000000000E+00 0. -1.
</event>
<event>
 5    1  0.2022058E-009  0.3882604E+03  0.7957747E-01  0.3415961E+00
         13   -1    0    0    0    0  0.00000000000E+00  0.00000000000E+00  0.14999999963E+04  0.15000000000E+04  0.10566000000E+00 0.  1.
        994   -1    0    0    0    0 -0.00000000000E+00 -0.00000000000E+00  0.11368683772E-12  0.17120000000E+03  0.17120000000E+03 0.  0.
         13    1    1    2    0    0 -0.45350136677E+01 -0.29232995749E+03  0.10170813964E+04  0.10582683726E+04  0.10566000000E+00 0.  1.
        994    1    1    2    0    0  0.57456486688E+01  0.30820175650E+03  0.42177483021E+03  0.54974974542E+03  0.17120000000E+03 0.  0.
        998    1    1    2    0    0 -0.12106350011E+01 -0.15871799004E+02  0.61143769713E+02  0.63181882019E+02  0.10000000000E+00 0. -1.
</event>
<event>
 5    1  0.2022058E-009  0.3883003E+03  0.7957747E-01  0.3415795E+00
         13   -1    0    0    0    0  0.00000000000E+00  0.00000000000E+00  0.14999999963E+04  0.15000000000E+04  0.10566000000E+00 0. -1.
        994   -1    0    0    0    0 -0.00000000000E+00 -0.00000000000E+00  0.11368683772E-12  0.17120000000E+03  0.17120000000E+03 0.  0.
         13    1    1    2    0    0 -0.18446944879E+03  0.67846512141E+02  0.75086665143E+03  0.77616548889E+03  0.10566000000E+00 0. -1.
        994    1    1    2    0    0  0.27704778609E+03 -0.10167154105E+03  0.36996791970E+03  0.50326760242E+03  0.17120000000E+03 0.  0.
        998    1    1    2    0    0 -0.92578337296E+02  0.33825028913E+02  0.37916542515E+03  0.39176690869E+03  0.10000000000E+00 0. -1.
</event>
<event>
 5    1  0.2022058E-009  0.3882900E+03  0.7957747E-01  0.3415837E+00
         13   -1    0    0    0    0  0.00000000000E+00  0.00000000000E+00  0.14999999963E+04  0.15000000000E+04  0.10566000000E+00 0.  1.
        994   -1    0    0    0    0 -0.00000000000E+00 -0.00000000000E+00  0.11368683772E-12  0.17120000000E+03  0.17120000000E+03 0.  0.
         13    1    1    2    0    0  0.43313291166E+02 -0.12064418667E+02  0.26341840825E+03  0.26722810548E+03  0.10566000000E+00 0.  1.
        994    1    1    2    0    0 -0.21970731011E+03  0.53188757444E+02  0.18884236173E+03  0.34069227115E+03  0.17120000000E+03 0.  0.
        998    1    1    2    0    0  0.17639401895E+03 -0.41124338777E+02  0.10477392263E+04  0.10632796234E+04  0.10000000000E+00 0.  1.
</event>
<event>
 5    1  0.2022058E-009  0.3878435E+03  0.7957747E-01  0.3417701E+00
         13   -1    0    0    0    0  0.00000000000E+00  0.00000000000E+00  0.14999999963E+04  0.15000000000E+04  0.10566000000E+00 0.  1.
        994   -1    0    0    0    0 -0.00000000000E+00 -0.00000000000E+00  0.11368683772E-12  0.17120000000E+03  0.17120000000E+03 0.  0.
         13    1    1    2    0    0 -0.91647043706E+02  0.15011263165E+03  0.98107330233E+03  0.99671350874E+03  0.10566000000E+00 0.  1.
        994    1    1    2    0    0  0.10720345839E+03 -0.20230188286E+03  0.19509384180E+03  0.34610645820E+03  0.17120000000E+03 0.  0.
        998    1    1    2    0    0 -0.15556414683E+02  0.52189251216E+02  0.32383285215E+03  0.32838003306E+03  0.10000000000E+00 0. -1.
</event>
<event>
 5    1  0.2022058E-009  0.3800045E+03  0.7957747E-01  0.3451139E+00
         13   -1    0    0    0    0  0.00000000000E+00  0.00000000000E+00  0.14999999963E+04  0.15000000000E+04  0.10566000000E+00 0. -1.
        994   -1    0    0    0    0 -0.00000000000E+00 -0.00000000000E+00  0.11368683772E-12  0.17120000000E+03  0.17120000000E+03 0.  0.
         13    1    1    2    0    0  0.32864724213E+02 -0.50796546013E+02  0.19406479062E+03  0.20327698666E+03  0.10566000000E+00 0. -1.
        994    1    1    2    0    0 -0.45675684339E+02  0.16045732964E+03  0.10359904895E+03  0.26052835876E+03  0.17120000000E+03 0.  0.
        998    1    1    2    0    0  0.12810960126E+02 -0.10966078363E+03  0.12023361567E+04  0.12073946546E+04  0.10000000000E+00 0. -1.
</event>
<event>
 5    1  0.2022058E-009  0.3883006E+03  0.7957747E-01  0.3415794E+00
         13   -1    0    0    0    0  0.00000000000E+00  0.00000000000E+00  0.14999999963E+04  0.15000000000E+04  0.10566000000E+00 0. -1.
        994   -1    0    0    0    0 -0.00000000000E+00 -0.00000000000E+00  0.11368683772E-12  0.17120000000E+03  0.17120000000E+03 0.  0.
         13    1    1    2    0    0 -0.22408648212E+03 -0.10662310980E+03  0.90990631353E+03  0.94313983565E+03  0.10566000000E+00 0. -1.
        994    1    1    2    0    0  0.27252795199E+03  0.12947858957E+03  0.39482336036E+03  0.52557693600E+03  0.17120000000E+03 0.  0.
        998    1    1    2    0    0 -0.48441469868E+02 -0.22855479776E+02  0.19527032239E+03  0.20248322835E+03  0.10000000000E+00 0. -1.
</event>
<event>
 5    1  0.2022058E-009  0.3882398E+03  0.7957747E-01  0.3416047E+00
         13   -1    0    0    0    0  0.00000000000E+00  0.00000000000E+00  0.14999999963E+04  0.15000000000E+04  0.10566000000E+00 0.  1.
        994   -1    0    0    0    0 -0.00000000000E+00 -0.00000000000E+00  0.11368683772E-12  0.17120000000E+03  0.17120000000E+03 0.  0.
         13    1    1    2    0    0  0.15936886920E+03  0.13948920411E+03  0.11377528465E+04  0.11572973799E+04  0.10566000000E+00 0.  1.
        994    1    1    2    0    0 -0.17839243039E+03 -0.16041449080E+03  0.21718237105E+03  0.36610693844E+03  0.17120000000E+03 0.  0.
        998    1    1    2    0    0  0.19023561187E+02  0.20925286688E+02  0.14506477869E+03  0.14779568166E+03  0.10000000000E+00 0.  1.
</event>
<event>
 5    1  0.2022058E-009  0.3882167E+03  0.7957747E-01  0.3416143E+00
         13   -1    0    0    0    0  0.00000000000E+00  0.00000000000E+00  0.14999999963E+04  0.15000000000E+04  0.10566000000E+00 0.  1.
        994   -1    0    0    0    0 -0.00000000000E+00 -0.00000000000E+00  0.11368683772E-12  0.17120000000E+03  0.17120000000E+03 0.  0.
         13    1    1    2    0    0  0.15984456770E+03  0.26770360544E+03  0.10545389457E+04  0.10996671793E+04  0.10566000000E+00 0.  1.
        994    1    1    2    0    0 -0.16088776104E+03 -0.26824603082E+03  0.44216440377E+03  0.56803134127E+03  0.17120000000E+03 0.  0.
        998    1    1    2    0    0  0.10431933386E+01  0.54242537647E+00  0.32966468419E+01  0.35014794060E+01  0.10000000000E+00 0.  1.
</event>
<event>
 5    1  0.2022058E-009  0.3883000E+03  0.7957747E-01  0.3415796E+00
         13   -1    0    0    0    0  0.00000000000E+00  0.00000000000E+00  0.14999999963E+04  0.15000000000E+04  0.10566000000E+00 0. -1.
        994   -1    0    0    0    0 -0.00000000000E+00 -0.00000000000E+00  0.11368683772E-12  0.17120000000E+03  0.17120000000E+03 0.  0.
         13    1    1    2    0    0 -0.44124674116E+02 -0.23190749673E+03  0.12324305250E+04  0.12548358793E+04  0.10566000000E+00 0. -1.
        994    1    1    2    0    0  0.45411587856E+02  0.23972406358E+03  0.22601604010E+03  0.37406219985E+03  0.17120000000E+03 0.  0.
        998    1    1    2    0    0 -0.12869137402E+01 -0.78165668484E+01  0.41553431176E+02  0.42301920840E+02  0.10000000000E+00 0.  0.
</event>
<event>
 5    1  0.2022058E-009  0.3856579E+03  0.7957747E-01  0.3426887E+00
         13   -1    0    0    0    0  0.00000000000E+00  0.00000000000E+00  0.14999999963E+04  0.15000000000E+04  0.10566000000E+00 0. -1.
        994   -1    0    0    0    0 -0.00000000000E+00 -0.00000000000E+00  0.11368683772E-12  0.17120000000E+03  0.17120000000E+03 0.  0.
         13    1    1    2    0    0  0.30802914394E+02  0.13633421527E+03  0.77361615230E+03  0.78614108152E+03  0.10566000000E+00 0. -1.
        994    1    1    2    0    0 -0.13869831441E+02 -0.25357931422E+03  0.25353859998E+03  0.39760043071E+03  0.17120000000E+03 0.  0.
        998    1    1    2    0    0 -0.16933082953E+02  0.11724509894E+03  0.47284524399E+03  0.48745848776E+03  0.10000000000E+00 0.  1.
</event>
<event>
 5    1  0.2022058E-009  0.3883007E+03  0.7957747E-01  0.3415793E+00
         13   -1    0    0    0    0  0.00000000000E+00  0.00000000000E+00  0.14999999963E+04  0.15000000000E+04  0.10566000000E+00 0.  1.
        994   -1    0    0    0    0 -0.00000000000E+00 -0.00000000000E+00  0.11368683772E-12  0.17120000000E+03  0.17120000000E+03 0.  0.
         13    1    1    2    0    0  0.17643151310E+03 -0.15127426337E+03  0.12150886635E+04  0.12371145674E+04  0.10566000000E+00 0.  1.
        994    1    1    2    0    0 -0.18506493166E+03  0.15873304417E+03  0.22562935689E+03  0.37371547323E+03  0.17120000000E+03 0.  0.
        998    1    1    2    0    0  0.86334185676E+01 -0.74587808026E+01  0.59281975866E+02  0.60369959332E+02  0.10000000000E+00 0.  0.
</event>
<event>
 5    1  0.2022058E-009  0.3882963E+03  0.7957747E-01  0.3415811E+00
         13   -1    0    0    0    0  0.00000000000E+00  0.00000000000E+00  0.14999999963E+04  0.15000000000E+04  0.10566000000E+00 0.  1.
        994   -1    0    0    0    0 -0.00000000000E+00 -0.00000000000E+00  0.11368683772E-12  0.17120000000E+03  0.17120000000E+03 0.  0.
         13    1    1    2    0    0  0.15674472876E+03 -0.15933439976E+03  0.13075674681E+04  0.13265327194E+04  0.10566000000E+00 0.  1.
        994    1    1    2    0    0 -0.15764508650E+03  0.16009538012E+03  0.18619871704E+03  0.33832219297E+03  0.17120000000E+03 0.  0.
        998    1    1    2    0    0  0.90035773908E+00 -0.76098035989E+00  0.62338111784E+01  0.63450876255E+01  0.10000000000E+00 0. -1.
</event>
<event>
 5    1  0.2022058E-009  0.3879704E+03  0.7957747E-01  0.3417171E+00
         13   -1    0    0    0    0  0.00000000000E+00  0.00000000000E+00  0.14999999963E+04  0.15000000000E+04  0.10566000000E+00 0. -1.
        994   -1    0    0    0    0 -0.00000000000E+00 -0.00000000000E+00  0.11368683772E-12  0.17120000000E+03  0.17120000000E+03 0.  0.
         13    1    1    2    0    0 -0.59676821890E+02 -0.12759390467E+02  0.32367730222E+03  0.32937992084E+03  0.10566000000E+00 0. -1.
        994    1    1    2    0    0  0.22156263189E+03  0.19415638868E+02  0.18229807210E+03  0.33467744766E+03  0.17120000000E+03 0.  0.
        998    1    1    2    0    0 -0.16188581000E+03 -0.66562484009E+01  0.99402462196E+03  0.10071426315E+04  0.10000000000E+00 0. -1.
</event>
<event>
 5    1  0.2022058E-009  0.3880314E+03  0.7957747E-01  0.3416916E+00
         13   -1    0    0    0    0  0.00000000000E+00  0.00000000000E+00  0.14999999963E+04  0.15000000000E+04  0.10566000000E+00 0.  1.
        994   -1    0    0    0    0 -0.00000000000E+00 -0.00000000000E+00  0.11368683772E-12  0.17120000000E+03  0.17120000000E+03 0.  0.
         13    1    1    2    0    0  0.71109392616E+02  0.11556653680E+03  0.68801765984E+03  0.70127061934E+03  0.10566000000E+00 0.  1.
        994    1    1    2    0    0 -0.14450384472E+03 -0.20052643491E+03  0.23359723701E+03  0.38074837016E+03  0.17120000000E+03 0.  0.
        998    1    1    2    0    0  0.73394452107E+02  0.84959898108E+02  0.57838509943E+03  0.58918101050E+03  0.10000000000E+00 0.  1.
</event>
<event>
 5    1  0.2022058E-009  0.3883004E+03  0.7957747E-01  0.3415794E+00
         13   -1    0    0    0    0  0.00000000000E+00  0.00000000000E+00  0.14999999963E+04  0.15000000000E+04  0.10566000000E+00 0.  1.
        994   -1    0    0    0    0 -0.00000000000E+00 -0.00000000000E+00  0.11368683772E-12  0.17120000000E+03  0.17120000000E+03 0.  0.
         13    1    1    2    0    0  0.14455415481E+03 -0.15812005157E+03  0.12510734227E+04  0.12692842765E+04  0.10566000000E+00 0.  1.
        994    1    1    2    0    0 -0.15163713202E+03  0.16591232242E+03  0.18635619188E+03  0.33846534356E+03  0.17120000000E+03 0.  0.
        998    1    1    2    0    0  0.70829772074E+01 -0.77922708484E+01  0.62570381658E+02  0.63450379919E+02  0.10000000000E+00 0.  1.
</event>
<event>
 5    1  0.2022058E-009  0.3882550E+03  0.7957747E-01  0.3415984E+00
         13   -1    0    0    0    0  0.00000000000E+00  0.00000000000E+00  0.14999999963E+04  0.15000000000E+04  0.10566000000E+00 0. -1.
        994   -1    0    0    0    0 -0.00000000000E+00 -0.00000000000E+00  0.11368683772E-12  0.17120000000E+03  0.17120000000E+03 0.  0.
         13    1    1    2    0    0 -0.60981899413E+02  0.27979005874E+03  0.11362104561E+04  0.11717403640E+04  0.10566000000E+00 0. -1.
        994    1    1    2    0    0  0.62036124279E+02 -0.28333958772E+03  0.35233452476E+03  0.48742061920E+03  0.17120000000E+03 0.  0.
        998    1    1    2    0    0 -0.10542248660E+01  0.35495289773E+01  0.11455015457E+02  0.12039016785E+02  0.10000000000E+00 0. -1.
</event>
<event>
 5    1  0.2022058E-009  0.3882581E+03  0.7957747E-01  0.3415971E+00
         13   -1    0    0    0    0  0.00000000000E+00  0.00000000000E+00  0.14999999963E+04  0.15000000000E+04  0.10566000000E+00 0. -1.
        994   -1    0    0    0    0 -0.00000000000E+00 -0.00000000000E+00  0.11368683772E-12  0.17120000000E+03  0.17120000000E+03 0.  0.
         13    1    1    2    0    0  0.64441061974E+02  0.21584959483E+03  0.12970921652E+04  0.13165074228E+04  0.10566000000E+00 0. -1.
        994    1    1    2    0    0 -0.65048147859E+02 -0.21718179553E+03  0.19016271914E+03  0.34186326740E+03  0.17120000000E+03 0.  0.
        998    1    1    2    0    0  0.60708588510E+00  0.13322006983E+01  0.12745111939E+02  0.12829309814E+02  0.10000000000E+00 0.  1.
</event>
<event>
 5    1  0.2022058E-009  0.3863808E+03  0.7957747E-01  0.3423837E+00
         13   -1    0    0    0    0  0.00000000000E+00  0.00000000000E+00  0.14999999963E+04  0.15000000000E+04  0.10566000000E+00 0. -1.
        994   -1    0    0    0    0 -0.00000000000E+00 -0.00000000000E+00  0.11368683772E-12  0.17120000000E+03  0.17120000000E+03 0.  0.
         13    1    1    2    0    0  0.33573378649E+02  0.26768189469E+03  0.11943369307E+04  0.12244270022E+04  0.10566000000E+00 0. -1.
        994    1    1    2    0    0 -0.37016185436E+02 -0.26964106944E+03  0.29931460578E+03  0.43928940067E+03  0.17120000000E+03 0.  0.
        998    1    1    2    0    0  0.34428067871E+01  0.19591747435E+01  0.63484598047E+01  0.74835971391E+01  0.10000000000E+00 0. -1.
</event>
<event>
 5    1  0.2022058E-009  0.3882325E+03  0.7957747E-01  0.3416077E+00
         13   -1    0    0    0    0  0.00000000000E+00  0.00000000000E+00  0.14999999963E+04  0.15000000000E+04  0.10566000000E+00 0.  1.
        994   -1    0    0    0    0 -0.00000000000E+00 -0.00000000000E+00  0.11368683772E-12  0.17120000000E+03  0.17120000000E+03 0.  0.
         13    1    1    2    0    0  0.18333894686E+03  0.11666531798E+03  0.13077399472E+04  0.13256725638E+04  0.10566000000E+00 0.  1.
        994    1    1    2    0    0 -0.18472129562E+03 -0.11754268128E+03  0.17554149251E+03  0.32872860322E+03  0.17120000000E+03 0.  0.
        998    1    1    2    0    0  0.13823487580E+01  0.87736330282E+00  0.16718556598E+02  0.16798832971E+02  0.10000000000E+00 0.  1.
</event>
<event>
 5    1  0.2022058E-009  0.3879871E+03  0.7957747E-01  0.3417102E+00
         13   -1    0    0    0    0  0.00000000000E+00  0.00000000000E+00  0.14999999963E+04  0.15000000000E+04  0.10566000000E+00 0. -1.
        994   -1    0    0    0    0 -0.00000000000E+00 -0.00000000000E+00  0.11368683772E-12  0.17120000000E+03  0.17120000000E+03 0.  0.
         13    1    1    2    0    0  0.88542248605E+02  0.81959024360E+02  0.71529404156E+03  0.72539822754E+03  0.10566000000E+00 0. -1.
        994    1    1    2    0    0 -0.15913675656E+03 -0.16840669376E+03  0.20040613019E+03  0.35093785606E+03  0.17120000000E+03 0.  0.
        998    1    1    2    0    0  0.70594507960E+02  0.86447669404E+02  0.58429982453E+03  0.59486391641E+03  0.10000000000E+00 0. -1.
</event>
<event>
 5    1  0.2022058E-009  0.3882982E+03  0.7957747E-01  0.3415803E+00
         13   -1    0    0    0    0  0.00000000000E+00  0.00000000000E+00  0.14999999963E+04  0.15000000000E+04  0.10566000000E+00 0. -1.
        994   -1    0    0    0    0 -0.00000000000E+00 -0.00000000000E+00  0.11368683772E-12  0.17120000000E+03  0.17120000000E+03 0.  0.
         13    1    1    2    0    0  0.22050016956E+03 -0.37295598286E+02  0.12783234595E+04  0.12977373250E+04  0.10566000000E+00 0. -1.
        994    1    1    2    0    0 -0.22552946110E+03  0.37983969371E+02  0.19400991956E+03  0.34533405370E+03  0.17120000000E+03 0.  0.
        998    1    1    2    0    0  0.50292915451E+01 -0.68837108533E+00  0.27666617182E+02  0.28128621269E+02  0.10000000000E+00 0. -1.
</event>
<event>
 5    1  0.2022058E-009  0.3883006E+03  0.7957747E-01  0.3415794E+00
         13   -1    0    0    0    0  0.00000000000E+00  0.00000000000E+00  0.14999999963E+04  0.15000000000E+04  0.10566000000E+00 0. -1.
        994   -1    0    0    0    0 -0.00000000000E+00 -0.00000000000E+00  0.11368683772E-12  0.17120000000E+03  0.17120000000E+03 0.  0.
         13    1    1    2    0    0  0.82213137427E+02  0.19826852444E+03  0.12913809764E+04  0.13090967287E+04  0.10566000000E+00 0. -1.
        994    1    1    2    0    0 -0.84199616370E+02 -0.20315040405E+03  0.17722398155E+03  0.33026874163E+03  0.17120000000E+03 0.  0.
        998    1    1    2    0    0  0.19864789427E+01  0.48818796111E+01  0.31395038320E+02  0.31834529653E+02  0.10000000000E+00 0.  0.
</event>
<event>
 5    1  0.2022058E-009  0.3882781E+03  0.7957747E-01  0.3415887E+00
         13   -1    0    0    0    0  0.00000000000E+00  0.00000000000E+00  0.14999999963E+04  0.15000000000E+04  0.10566000000E+00 0. -1.
        994   -1    0    0    0    0 -0.00000000000E+00 -0.00000000000E+00  0.11368683772E-12  0.17120000000E+03  0.17120000000E+03 0.  0.
         13    1    1    2    0    0  0.11885113331E+03  0.92675043279E+02  0.70035375701E+03  0.71638652393E+03  0.10566000000E+00 0. -1.
        994    1    1    2    0    0 -0.20398789539E+03 -0.16396661577E+03  0.26850894827E+03  0.41219244032E+03  0.17120000000E+03 0.  0.
        998    1    1    2    0    0  0.85136762079E+02  0.71291572488E+02  0.53113729099E+03  0.54262103576E+03  0.10000000000E+00 0. -1.
</event>
<event>
 5    1  0.2022058E-009  0.3882387E+03  0.7957747E-01  0.3416051E+00
         13   -1    0    0    0    0  0.00000000000E+00  0.00000000000E+00  0.14999999963E+04  0.15000000000E+04  0.10566000000E+00 0. -1.
        994   -1    0    0    0    0 -0.00000000000E+00 -0.00000000000E+00  0.11368683772E-12  0.17120000000E+03  0.17120000000E+03 0.  0.
         13    1    1    2    0    0 -0.16192498839E+03 -0.20844982863E+03  0.12181084079E+04  0.12463784086E+04  0.10566000000E+00 0. -1.
        994    1    1    2    0    0  0.16201456059E+03  0.20948221288E+03  0.27670459542E+03  0.41953115317E+03  0.17120000000E+03 0.  0.
        998    1    1    2    0    0 -0.89572195350E-01 -0.10323842569E+01  0.51869929957E+01  0.52904382398E+01  0.10000000000E+00 0. -1.
</event>
<event>
 5    1  0.2022058E-009  0.3813392E+03  0.7957747E-01  0.3445348E+00
         13   -1    0    0    0    0  0.00000000000E+00  0.00000000000E+00  0.14999999963E+04  0.15000000000E+04  0.10566000000E+00 0.  1.
        994   -1    0    0    0    0 -0.00000000000E+00 -0.00000000000E+00  0.11368683772E-12  0.17120000000E+03  0.17120000000E+03 0.  0.
         13    1    1    2    0    0 -0.31256221018E+01 -0.14077092101E+02  0.20263971339E+02  0.24871142595E+02  0.10566000000E+00 0.  1.
        994    1    1    2    0    0 -0.12258893322E+02  0.12606667693E+03  0.58836015504E+02  0.22093936774E+03  0.17120000000E+03 0.  0.
        998    1    1    2    0    0  0.15384515424E+02 -0.11198958483E+03  0.14209000094E+04  0.14253894897E+04  0.10000000000E+00 0.  1.
</event>
<event>
 5    1  0.2022058E-009  0.3882975E+03  0.7957747E-01  0.3415806E+00
         13   -1    0    0    0    0  0.00000000000E+00  0.00000000000E+00  0.14999999963E+04  0.15000000000E+04  0.10566000000E+00 0.  1.
        994   -1    0    0    0    0 -0.00000000000E+00 -0.00000000000E+00  0.11368683772E-12  0.17120000000E+03  0.17120000000E+03 0.  0.
         13    1    1    2    0    0  0.23179076450E+03 -0.96244987235E+01  0.12919488146E+04  0.13126124105E+04  0.10566000000E+00 0.  1.
        994    1    1    2    0    0 -0.23284137965E+03  0.97192861290E+01  0.20271299639E+03  0.35314525554E+03  0.17120000000E+03 0.  0.
        998    1    1    2    0    0  0.10506151556E+01 -0.94787405564E-01  0.53381852660E+01  0.54423339471E+01  0.10000000000E+00 0.  1.
</event>
<event>
 5    1  0.2022058E-009  0.3883000E+03  0.7957747E-01  0.3415796E+00
         13   -1    0    0    0    0  0.00000000000E+00  0.00000000000E+00  0.14999999963E+04  0.15000000000E+04  0.10566000000E+00 0. -1.
        994   -1    0    0    0    0 -0.00000000000E+00 -0.00000000000E+00  0.11368683772E-12  0.17120000000E+03  0.17120000000E+03 0.  0.
         13    1    1    2    0    0  0.18913827313E+03  0.51034607273E+02  0.14450341844E+03  0.24343185208E+03  0.10566000000E+00 0. -1.
        994    1    1    2    0    0 -0.25531967474E+03 -0.68427490130E+02  0.13056886392E+04  0.13431316839E+04  0.17120000000E+03 0.  0.
        998    1    1    2    0    0  0.66181401610E+02  0.17392882857E+02  0.49807938647E+02  0.84636464041E+02  0.10000000000E+00 0. -1.
</event>
<event>
 5    1  0.2022058E-009  0.3882947E+03  0.7957747E-01  0.3415818E+00
         13   -1    0    0    0    0  0.00000000000E+00  0.00000000000E+00  0.14999999963E+04  0.15000000000E+04  0.10566000000E+00 0. -1.
        994   -1    0    0    0    0 -0.00000000000E+00 -0.00000000000E+00  0.11368683772E-12  0.17120000000E+03  0.17120000000E+03 0.  0.
         13    1    1    2    0    0 -0.25251438302E+03  0.79026370458E+02  0.86110563370E+03  0.90083938880E+03  0.10566000000E+00 0. -1.
        994    1    1    2    0    0  0.30266462533E+03 -0.94962040841E+02  0.46305283451E+03  0.58681430809E+03  0.17120000000E+03 0.  0.
        998    1    1    2    0    0 -0.50150242303E+02  0.15935670383E+02  0.17584152807E+03  0.18354630311E+03  0.10000000000E+00 0.  1.
</event>
<event>
 5    1  0.2022058E-009  0.3883005E+03  0.7957747E-01  0.3415794E+00
         13   -1    0    0    0    0  0.00000000000E+00  0.00000000000E+00  0.14999999963E+04  0.15000000000E+04  0.10566000000E+00 0.  1.
        994   -1    0    0    0    0 -0.00000000000E+00 -0.00000000000E+00  0.11368683772E-12  0.17120000000E+03  0.17120000000E+03 0.  0.
         13    1    1    2    0    0 -0.18750787402E+03  0.90909699378E+02  0.10841774457E+04  0.11040219750E+04  0.10566000000E+00 0.  1.
        994    1    1    2    0    0  0.22032084421E+03 -0.10651332038E+03  0.22764210757E+03  0.37552194470E+03  0.17120000000E+03 0.  0.
        998    1    1    2    0    0 -0.32812970187E+02  0.15603621001E+02  0.18818044299E+03  0.19165608032E+03  0.10000000000E+00 0.  1.
</event>
<event>
 5    1  0.2022058E-009  0.3882207E+03  0.7957747E-01  0.3416127E+00
         13   -1    0    0    0    0  0.00000000000E+00  0.00000000000E+00  0.14999999963E+04  0.15000000000E+04  0.10566000000E+00 0. -1.
        994   -1    0    0    0    0 -0.00000000000E+00 -0.00000000000E+00  0.11368683772E-12  0.17120000000E+03  0.17120000000E+03 0.  0.
         13    1    1    2    0    0 -0.17674925093E+03 -0.24318880696E+03  0.10862930538E+04  0.11271263032E+04  0.10566000000E+00 0. -1.
        994    1    1    2    0    0  0.17894413431E+03  0.24483196428E+03  0.40114669420E+03  0.53121728530E+03  0.17120000000E+03 0.  0.
        998    1    1    2    0    0 -0.21948833824E+01 -0.16431573156E+01  0.12560248305E+02  0.12856411495E+02  0.10000000000E+00 0. -1.
</event>
<event>
 5    1  0.2022058E-009  0.3882297E+03  0.7957747E-01  0.3416089E+00
         13   -1    0    0    0    0  0.00000000000E+00  0.00000000000E+00  0.14999999963E+04  0.15000000000E+04  0.10566000000E+00 0.  1.
        994   -1    0    0    0    0 -0.00000000000E+00 -0.00000000000E+00  0.11368683772E-12  0.17120000000E+03  0.17120000000E+03 0.  0.
         13    1    1    2    0    0 -0.18662160543E+02  0.52420651408E+02  0.33191599503E+03  0.33654782699E+03  0.10566000000E+00 0.  1.
        994    1    1    2    0    0  0.56854819854E+02 -0.21095900380E+03  0.17470012416E+03  0.32797217139E+03  0.17120000000E+03 0.  0.
        998    1    1    2    0    0 -0.38192659311E+02  0.15853835239E+03  0.99338387709E+03  0.10066800016E+04  0.10000000000E+00 0.  1.
</event>
<event>
 5    1  0.2022058E-009  0.3879718E+03  0.7957747E-01  0.3417165E+00
         13   -1    0    0    0    0  0.00000000000E+00  0.00000000000E+00  0.14999999963E+04  0.15000000000E+04  0.10566000000E+00 0. -1.
        994   -1    0    0    0    0 -0.00000000000E+00 -0.00000000000E+00  0.11368683772E-12  0.17120000000E+03  0.17120000000E+03 0.  0.
         13    1    1    2    0    0 -0.89626660759E+02  0.12660353000E+03  0.86252983657E+03  0.87636700204E+03  0.10566000000E+00 0. -1.
        994    1    1    2    0    0  0.14877853269E+03 -0.18796530827E+03  0.21716371771E+03  0.36597203335E+03  0.17120000000E+03 0.  0.
        998    1    1    2    0    0 -0.59151871929E+02  0.61361778265E+02  0.42030644200E+03  0.42886096461E+03  0.10000000000E+00 0. -1.
</event>
<event>
 5    1  0.2022058E-009  0.3864391E+03  0.7957747E-01  0.3423592E+00
         13   -1    0    0    0    0  0.00000000000E+00  0.00000000000E+00  0.14999999963E+04  0.15000000000E+04  0.10566000000E+00 0. -1.
        994   -1    0    0    0    0 -0.00000000000E+00 -0.00000000000E+00  0.11368683772E-12  0.17120000000E+03  0.17120000000E+03 0.  0.
         13    1    1    2    0    0  0.27553413963E+03  0.11309880954E+03  0.99567309404E+03  0.10392667243E+04  0.10566000000E+00 0. -1.
        994    1    1    2    0    0 -0.28844397935E+03 -0.10942280576E+03  0.42913876765E+03  0.55555629917E+03  0.17120000000E+03 0.  0.
        998    1    1    2    0    0  0.12909839722E+02 -0.36760037814E+01  0.75188134595E+02  0.76376976566E+02  0.10000000000E+00 0. -1.
</event>
<event>
 5    1  0.2022058E-009  0.3867854E+03  0.7957747E-01  0.3422135E+00
         13   -1    0    0    0    0  0.00000000000E+00  0.00000000000E+00  0.14999999963E+04  0.15000000000E+04  0.10566000000E+00 0.  1.
        994   -1    0    0    0    0 -0.00000000000E+00 -0.00000000000E+00  0.11368683772E-12  0.17120000000E+03  0.17120000000E+03 0.  0.
         13    1    1    2    0    0  0.19862224443E+03  0.22268613461E+02  0.11413343796E+04  0.11587022329E+04  0.10566000000E+00 0.  1.
        994    1    1    2    0    0 -0.22509565774E+03 -0.43161407246E+02  0.19698603952E+03  0.34733831055E+03  0.17120000000E+03 0.  0.
        998    1    1    2    0    0  0.26473413312E+02  0.20892793785E+02  0.16167957711E+03  0.16515945659E+03  0.10000000000E+00 0. -1.
</event>
<event>
 5    1  0.2022058E-009  0.3879480E+03  0.7957747E-01  0.3417265E+00
         13   -1    0    0    0    0  0.00000000000E+00  0.00000000000E+00  0.14999999963E+04  0.15000000000E+04  0.10566000000E+00 0.  1.
        994   -1    0    0    0    0 -0.00000000000E+00 -0.00000000000E+00  0.11368683772E-12  0.17120000000E+03  0.17120000000E+03 0.  0.
         13    1    1    2    0    0  0.45127721962E+01  0.21293431458E+03  0.10608363227E+04  0.10820051304E+04  0.10566000000E+00 0.  1.
        994    1    1    2    0    0 -0.14523826002E+01 -0.24547126161E+03  0.22988231834E+03  0.37737722504E+03  0.17120000000E+03 0.  0.
        998    1    1    2    0    0 -0.30603895960E+01  0.32536947036E+02  0.20928135525E+03  0.21181764459E+03  0.10000000000E+00 0.  1.
</event>
<event>
 5    1  0.2022058E-009  0.3876430E+03  0.7957747E-01  0.3418540E+00
         13   -1    0    0    0    0  0.00000000000E+00  0.00000000000E+00  0.14999999963E+04  0.15000000000E+04  0.10566000000E+00 0.  1.
        994   -1    0    0    0    0 -0.00000000000E+00 -0.00000000000E+00  0.11368683772E-12  0.17120000000E+03  0.17120000000E+03 0.  0.
         13    1    1    2    0    0  0.12694716160E+03 -0.23865133347E+03  0.11733152646E+04  0.12040509798E+04  0.10566000000E+00 0.  1.
        994    1    1    2    0    0 -0.12509098564E+03  0.24367177950E+03  0.30304318997E+03  0.44290891366E+03  0.17120000000E+03 0.  0.
        998    1    1    2    0    0 -0.18561759561E+01 -0.50204460342E+01  0.23641541743E+02  0.24240106509E+02  0.10000000000E+00 0. -1.
</event>
<event>
 5    1  0.2022058E-009  0.3775740E+03  0.7957747E-01  0.3461790E+00
         13   -1    0    0    0    0  0.00000000000E+00  0.00000000000E+00  0.14999999963E+04  0.15000000000E+04  0.10566000000E+00 0.  1.
        994   -1    0    0    0    0 -0.00000000000E+00 -0.00000000000E+00  0.11368683772E-12  0.17120000000E+03  0.17120000000E+03 0.  0.
         13    1    1    2    0    0  0.37997342126E+02  0.15931331464E+02  0.23538739639E+03  0.23896619609E+03  0.10566000000E+00 0.  1.
        994    1    1    2    0    0  0.11530455262E+02  0.44356269233E+02  0.12474070597E+02  0.17766674550E+03  0.17120000000E+03 0.  0.
        998    1    1    2    0    0 -0.49527797388E+02 -0.60287600698E+02  0.12521385293E+04  0.12545670584E+04  0.10000000000E+00 0.  1.
</event>
<event>
 5    1  0.2022058E-009  0.3882992E+03  0.7957747E-01  0.3415799E+00
         13   -1    0    0    0    0  0.00000000000E+00  0.00000000000E+00  0.14999999963E+04  0.15000000000E+04  0.10566000000E+00 0.  1.
        994   -1    0    0    0    0 -0.00000000000E+00 -0.00000000000E+00  0.11368683772E-12  0.17120000000E+03  0.17120000000E+03 0.  0.
         13    1    1    2    0    0 -0.17055399299E+03  0.29018490824E+02  0.93381203995E+03  0.94970294011E+03  0.10566000000E+00 0.  1.
        994    1    1    2    0    0  0.23437502109E+03 -0.40672933936E+02  0.21275813555E+03  0.36216212159E+03  0.17120000000E+03 0.  0.
        998    1    1    2    0    0 -0.63821028106E+02  0.11654443112E+02  0.35342982078E+03  0.35933493831E+03  0.10000000000E+00 0.  1.
</event>
<event>
 5    1  0.2022058E-009  0.3883001E+03  0.7957747E-01  0.3415796E+00
         13   -1    0    0    0    0  0.00000000000E+00  0.00000000000E+00  0.14999999963E+04  0.15000000000E+04  0.10566000000E+00 0. -1.
        994   -1    0    0    0    0 -0.00000000000E+00 -0.00000000000E+00  0.11368683772E-12  0.17120000000E+03  0.17120000000E+03 0.  0.
         13    1    1    2    0    0  0.13233259765E+01  0.24364453996E+03  0.10855762793E+04  0.11125827081E+04  0.10566000000E+00 0. -1.
        994    1    1    2    0    0 -0.11777394854E+01 -0.27101555877E+03  0.29348243819E+03  0.43461730487E+03  0.17120000000E+03 0.  0.
        998    1    1    2    0    0 -0.14558649101E+00  0.27371018808E+02  0.12094127877E+03  0.12399998700E+03  0.10000000000E+00 0. -1.
</event>
<event>
 5    1  0.2022058E-009  0.3882969E+03  0.7957747E-01  0.3415809E+00
         13   -1    0    0    0    0  0.00000000000E+00  0.00000000000E+00  0.14999999963E+04  0.15000000000E+04  0.10566000000E+00 0. -1.
        994   -1    0    0    0    0 -0.00000000000E+00 -0.00000000000E+00  0.11368683772E-12  0.17120000000E+03  0.17120000000E+03 0.  0.
         13    1    1    2    0    0  0.21038536203E+03  0.85394259693E+02  0.12984455064E+04  0.13181482938E+04  0.10566000000E+00 0. -1.
        994    1    1    2    0    0 -0.21176091183E+03 -0.85775665515E+02  0.19355398995E+03  0.34492424617E+03  0.17120000000E+03 0.  0.
        998    1    1    2    0    0  0.13755497978E+01  0.38140582270E+00  0.80004999061E+01  0.81274600212E+01  0.10000000000E+00 0.  0.
</event>
<event>
 5    1  0.2022058E-009  0.3882590E+03  0.7957747E-01  0.3415967E+00
         13   -1    0    0    0    0  0.00000000000E+00  0.00000000000E+00  0.14999999963E+04  0.15000000000E+04  0.10566000000E+00 0.  1.
        994   -1    0    0    0    0 -0.00000000000E+00 -0.00000000000E+00  0.11368683772E-12  0.17120000000E+03  0.17120000000E+03 0.  0.
         13    1    1    2    0    0 -0.22300514699E+03 -0.28299430021E+02  0.12066750928E+04  0.12274351078E+04  0.10566000000E+00 0.  1.
        994    1    1    2    0    0  0.23840057389E+03  0.28672945091E+02  0.21760476788E+03  0.36649453804E+03  0.17120000000E+03 0.  0.
        998    1    1    2    0    0 -0.15395426897E+02 -0.37351507007E+00  0.75720135645E+02  0.77270354115E+02  0.10000000000E+00 0.  1.
</event>
<event>
 5    1  0.2022058E-009  0.3874655E+03  0.7957747E-01  0.3419282E+00
         13   -1    0    0    0    0  0.00000000000E+00  0.00000000000E+00  0.14999999963E+04  0.15000000000E+04  0.10566000000E+00 0.  1.
        994   -1    0    0    0    0 -0.00000000000E+00 -0.00000000000E+00  0.11368683772E-12  0.17120000000E+03  0.17120000000E+03 0.  0.
         13    1    1    2    0    0 -0.13252594730E+03  0.16972952642E+03  0.12762833490E+04  0.12943223852E+04  0.10566000000E+00 0.  1.
        994    1    1    2    0    0  0.13741711791E+03 -0.16934822881E+03  0.17489698625E+03  0.32781196240E+03  0.17120000000E+03 0.  0.
        998    1    1    2    0    0 -0.48911706071E+01 -0.38129761347E+00  0.48819661035E+02  0.49065652359E+02  0.10000000000E+00 0. -1.
</event>
<event>
 5    1  0.2022058E-009  0.3856953E+03  0.7957747E-01  0.3426729E+00
         13   -1    0    0    0    0  0.00000000000E+00  0.00000000000E+00  0.14999999963E+04  0.15000000000E+04  0.10566000000E+00 0. -1.
        994   -1    0    0    0    0 -0.00000000000E+00 -0.00000000000E+00  0.11368683772E-12  0.17120000000E+03  0.17120000000E+03 0.  0.
         13    1    1    2    0    0  0.73980135315E+02 -0.53747182383E+02  0.44929409435E+03  0.45850519563E+03  0.10566000000E+00 0. -1.
        994    1    1    2    0    0 -0.18118797142E+03  0.83814899350E+02  0.14528179225E+03  0.30045009153E+03  0.17120000000E+03 0.  0.
        998    1    1    2    0    0  0.10720783610E+03 -0.30067716968E+02  0.90542410968E+03  0.91224471285E+03  0.10000000000E+00 0. -1.
</event>
<event>
 5    1  0.2022058E-009  0.3882996E+03  0.7957747E-01  0.3415798E+00
         13   -1    0    0    0    0  0.00000000000E+00  0.00000000000E+00  0.14999999963E+04  0.15000000000E+04  0.10566000000E+00 0. -1.
        994   -1    0    0    0    0 -0.00000000000E+00 -0.00000000000E+00  0.11368683772E-12  0.17120000000E+03  0.17120000000E+03 0.  0.
         13    1    1    2    0    0 -0.11843328261E+03 -0.60180238560E+01  0.61413603592E+03  0.62548040803E+03  0.10566000000E+00 0. -1.
        994    1    1    2    0    0  0.24543574547E+03  0.11057982363E+02  0.22981674404E+03  0.37747338975E+03  0.17120000000E+03 0.  0.
        998    1    1    2    0    0 -0.12700246285E+03 -0.50399585072E+01  0.65604721631E+03  0.66824620222E+03  0.10000000000E+00 0. -1.
</event>
<event>
 5    1  0.2022058E-009  0.3882619E+03  0.7957747E-01  0.3415955E+00
         13   -1    0    0    0    0  0.00000000000E+00  0.00000000000E+00  0.14999999963E+04  0.15000000000E+04  0.10566000000E+00 0. -1.
        994   -1    0    0    0    0 -0.00000000000E+00 -0.00000000000E+00  0.11368683772E-12  0.17120000000E+03  0.17120000000E+03 0.  0.
         13    1    1    2    0    0 -0.78756091903E+02 -0.22617940540E+03  0.12827829769E+04  0.13049489731E+04  0.10566000000E+00 0. -1.
        994    1    1    2    0    0  0.78647488110E+02  0.22631398552E+03  0.21646325795E+03  0.36547124302E+03  0.17120000000E+03 0.  0.
        998    1    1    2    0    0  0.10860379372E+00 -0.13458012537E+00  0.75376144570E+00  0.77978388748E+00  0.10000000000E+00 0. -1.
</event>
<event>
 5    1  0.2022058E-009  0.3849718E+03  0.7957747E-01  0.3429792E+00
         13   -1    0    0    0    0  0.00000000000E+00  0.00000000000E+00  0.14999999963E+04  0.15000000000E+04  0.10566000000E+00 0.  1.
        994   -1    0    0    0    0 -0.00000000000E+00 -0.00000000000E+00  0.11368683772E-12  0.17120000000E+03  0.17120000000E+03 0.  0.
         13    1    1    2    0    0  0.88509545510E+01  0.58085331302E+01  0.44392421161E+02  0.45637448156E+02  0.10566000000E+00 0.  1.
        994    1    1    2    0    0  0.65661311540E+02 -0.21088335069E+02  0.17446383453E+02  0.18539132128E+03  0.17120000000E+03 0.  0.
        998    1    1    2    0    0 -0.74512266091E+02  0.15279801939E+02  0.14381611917E+04  0.14401712306E+04  0.10000000000E+00 0.  1.
</event>
<event>
 5    1  0.2022058E-009  0.3880560E+03  0.7957747E-01  0.3416814E+00
         13   -1    0    0    0    0  0.00000000000E+00  0.00000000000E+00  0.14999999963E+04  0.15000000000E+04  0.10566000000E+00 0.  1.
        994   -1    0    0    0    0 -0.00000000000E+00 -0.00000000000E+00  0.11368683772E-12  0.17120000000E+03  0.17120000000E+03 0.  0.
         13    1    1    2    0    0  0.10927239617E+03 -0.21143019088E+03  0.12296866197E+04  0.12525064375E+04  0.10566000000E+00 0.  1.
        994    1    1    2    0    0 -0.11142174490E+03  0.21612776810E+03  0.22454320255E+03  0.37263267059E+03  0.17120000000E+03 0.  0.
        998    1    1    2    0    0  0.21493487259E+01 -0.46975772171E+01  0.45770174064E+02  0.46060891932E+02  0.10000000000E+00 0. -1.
</event>
<event>
 5    1  0.2022058E-009  0.3881016E+03  0.7957747E-01  0.3416624E+00
         13   -1    0    0    0    0  0.00000000000E+00  0.00000000000E+00  0.14999999963E+04  0.15000000000E+04  0.10566000000E+00 0.  1.
        994   -1    0    0    0    0 -0.00000000000E+00 -0.00000000000E+00  0.11368683772E-12  0.17120000000E+03  0.17120000000E+03 0.  0.
         13    1    1    2    0    0  0.17529303928E+03  0.16372355854E+03  0.12661389263E+04  0.12886585448E+04  0.10566000000E+00 0.  1.
        994    1    1    2    0    0 -0.17750942549E+03 -0.16372248807E+03  0.22079719508E+03  0.36929052329E+03  0.17120000000E+03 0.  0.
        998    1    1    2    0    0  0.22163862109E+01 -0.10704718834E-02  0.13063874933E+02  0.13250931939E+02  0.10000000000E+00 0. -1.
</event>
<event>
 5    1  0.2022058E-009  0.3883006E+03  0.7957747E-01  0.3415794E+00
         13   -1    0    0    0    0  0.00000000000E+00  0.00000000000E+00  0.14999999963E+04  0.15000000000E+04  0.10566000000E+00 0.  1.
        994   -1    0    0    0    0 -0.00000000000E+00 -0.00000000000E+00  0.11368683772E-12  0.17120000000E+03  0.17120000000E+03 0.  0.
         13    1    1    2    0    0  0.13428589186E+03 -0.14805934347E+03  0.11497880103E+04  0.11670333113E+04  0.10566000000E+00 0.  1.
        994    1    1    2    0    0 -0.15296613350E+03  0.16826801320E+03  0.19145273241E+03  0.34303986797E+03  0.17120000000E+03 0.  0.
        998    1    1    2    0    0  0.18680241648E+02 -0.20208669729E+02  0.15875925361E+03  0.16112682076E+03  0.10000000000E+00 0.  1.
</event>
<event>
 5    1  0.2022058E-009  0.3883008E+03  0.7957747E-01  0.3415792E+00
         13   -1    0    0    0    0  0.00000000000E+00  0.00000000000E+00  0.14999999963E+04  0.15000000000E+04  0.10566000000E+00 0.  1.
        994   -1    0    0    0    0 -0.00000000000E+00 -0.00000000000E+00  0.11368683772E-12  0.17120000000E+03  0.17120000000E+03 0.  0.
         13    1    1    2    0    0  0.16015545801E+03 -0.12577543009E+03  0.11937494919E+04  0.12109942569E+04  0.10566000000E+00 0.  1.
        994    1    1    2    0    0 -0.17639481935E+03  0.13842097910E+03  0.18531245295E+03  0.33752873206E+03  0.17120000000E+03 0.  0.
        998    1    1    2    0    0  0.16239361341E+02 -0.12645549013E+02  0.12093805140E+03  0.12267701106E+03  0.10000000000E+00 0.  1.
</event>
<event>
 5    1  0.2022058E-009  0.3882948E+03  0.7957747E-01  0.3415818E+00
         13   -1    0    0    0    0  0.00000000000E+00  0.00000000000E+00  0.14999999963E+04  0.15000000000E+04  0.10566000000E+00 0.  1.
        994   -1    0    0    0    0 -0.00000000000E+00 -0.00000000000E+00  0.11368683772E-12  0.17120000000E+03  0.17120000000E+03 0.  0.
         13    1    1    2    0    0  0.39250876629E+02  0.22674204703E+03  0.12960855579E+04  0.13163549566E+04  0.10566000000E+00 0.  1.
        994    1    1    2    0    0 -0.39277628839E+02 -0.22759250470E+03  0.19849350110E+03  0.34935682375E+03  0.17120000000E+03 0.  0.
        998    1    1    2    0    0  0.26752209894E-01  0.85045766487E+00  0.54209372751E+01  0.54882196440E+01  0.10000000000E+00 0.  1.
</event>
<event>
 5    1  0.2022058E-009  0.3882989E+03  0.7957747E-01  0.3415801E+00
         13   -1    0    0    0    0  0.00000000000E+00  0.00000000000E+00  0.14999999963E+04  0.15000000000E+04  0.10566000000E+00 0.  1.
        994   -1    0    0    0    0 -0.00000000000E+00 -0.00000000000E+00  0.11368683772E-12  0.17120000000E+03  0.17120000000E+03 0.  0.
         13    1    1    2    0    0 -0.18783758500E+03 -0.21526907782E+03  0.11373229517E+04  0.11726581948E+04  0.10566000000E+00 0.  1.
        994    1    1    2    0    0  0.19009967163E+03  0.21794644656E+03  0.34934997259E+03  0.48476115982E+03  0.17120000000E+03 0.  0.
        998    1    1    2    0    0 -0.22620866327E+01 -0.26773687336E+01  0.13327071952E+02  0.13780645344E+02  0.10000000000E+00 0. -1.
</event>
<event>
 5    1  0.2022058E-009  0.3881754E+03  0.7957747E-01  0.3416316E+00
         13   -1    0    0    0    0  0.00000000000E+00  0.00000000000E+00  0.14999999963E+04  0.15000000000E+04  0.10566000000E+00 0. -1.
        994   -1    0    0    0    0 -0.00000000000E+00 -0.00000000000E+00  0.11368683772E-12  0.17120000000E+03  0.17120000000E+03 0.  0.
         13    1    1    2    0    0  0.75561680563E+02 -0.22117505655E+03  0.10487405550E+04  0.10744695138E+04  0.10566000000E+00 0. -1.
        994    1    1    2    0    0 -0.82668457630E+02  0.25770263665E+03  0.29266339932E+03  0.43382718693E+03  0.17120000000E+03 0.  0.
        998    1    1    2    0    0  0.71067770664E+01 -0.36527580098E+02  0.15859604197E+03  0.16290329928E+03  0.10000000000E+00 0. -1.
</event>
<event>
 5    1  0.2022058E-009  0.3878411E+03  0.7957747E-01  0.3417711E+00
         13   -1    0    0    0    0  0.00000000000E+00  0.00000000000E+00  0.14999999963E+04  0.15000000000E+04  0.10566000000E+00 0.  1.
        994   -1    0    0    0    0 -0.00000000000E+00 -0.00000000000E+00  0.11368683772E-12  0.17120000000E+03  0.17120000000E+03 0.  0.
         13    1    1    2    0    0 -0.11023875487E+03 -0.83269922899E+02  0.30611754649E+03  0.33584881505E+03  0.10566000000E+00 0.  1.
        994    1    1    2    0    0  0.26164183720E+03  0.22380198539E+03  0.67462662119E+03  0.77651419669E+03  0.17120000000E+03 0.  0.
        998    1    1    2    0    0 -0.15140308233E+03 -0.14053206249E+03  0.51925582860E+03  0.55883698827E+03  0.10000000000E+00 0.  1.
</event>
<event>
 5    1  0.2022058E-009  0.3882114E+03  0.7957747E-01  0.3416166E+00
         13   -1    0    0    0    0  0.00000000000E+00  0.00000000000E+00  0.14999999963E+04  0.15000000000E+04  0.10566000000E+00 0.  1.
        994   -1    0    0    0    0 -0.00000000000E+00 -0.00000000000E+00  0.11368683772E-12  0.17120000000E+03  0.17120000000E+03 0.  0.
         13    1    1    2    0    0 -0.28830100110E+03  0.63499697456E+02  0.11207847982E+04  0.11590117574E+04  0.10566000000E+00 0.  1.
        994    1    1    2    0    0  0.28934775464E+03 -0.63077449169E+02  0.37395067156E+03  0.50680314962E+03  0.17120000000E+03 0.  0.
        998    1    1    2    0    0 -0.10467535431E+01 -0.42224828766E+00  0.52645264980E+01  0.53850929281E+01  0.10000000000E+00 0. -1.
</event>
<event>
 5    1  0.2022058E-009  0.3882784E+03  0.7957747E-01  0.3415886E+00
         13   -1    0    0    0    0  0.00000000000E+00  0.00000000000E+00  0.14999999963E+04  0.15000000000E+04  0.10566000000E+00 0.  1.
        994   -1    0    0    0    0 -0.00000000000E+00 -0.00000000000E+00  0.11368683772E-12  0.17120000000E+03  0.17120000000E+03 0.  0.
         13    1    1    2    0    0  0.99680556946E+02 -0.18664698432E+03  0.10722297627E+04  0.10929089557E+04  0.10566000000E+00 0.  1.
        994    1    1    2    0    0 -0.11738604927E+03  0.21790695974E+03  0.23400289567E+03  0.38122135675E+03  0.17120000000E+03 0.  0.
        998    1    1    2    0    0  0.17705492327E+02 -0.31259975414E+02  0.19376733788E+03  0.19706968755E+03  0.10000000000E+00 0.  1.
</event>
<event>
 5    1  0.2022058E-009  0.3881423E+03  0.7957747E-01  0.3416454E+00
         13   -1    0    0    0    0  0.00000000000E+00  0.00000000000E+00  0.14999999963E+04  0.15000000000E+04  0.10566000000E+00 0.  1.
        994   -1    0    0    0    0 -0.00000000000E+00 -0.00000000000E+00  0.11368683772E-12  0.17120000000E+03  0.17120000000E+03 0.  0.
         13    1    1    2    0    0  0.32559625009E+03 -0.57190585440E+02  0.95818123340E+03  0.10136049370E+04  0.10566000000E+00 0.  1.
        994    1    1    2    0    0 -0.32565382049E+03  0.56877752863E+02  0.54105112498E+03  0.65675813616E+03  0.17120000000E+03 0.  0.
        998    1    1    2    0    0  0.57570395369E-01  0.31283257654E+00  0.76763790469E+00  0.83692683317E+00  0.10000000000E+00 0. -1.
</event>
<event>
 5    1  0.2022058E-009  0.3882919E+03  0.7957747E-01  0.3415830E+00
         13   -1    0    0    0    0  0.00000000000E+00  0.00000000000E+00  0.14999999963E+04  0.15000000000E+04  0.10566000000E+00 0.  1.
        994   -1    0    0    0    0 -0.00000000000E+00 -0.00000000000E+00  0.11368683772E-12  0.17120000000E+03  0.17120000000E+03 0.  0.
         13    1    1    2    0    0  0.19262391966E+03  0.79821960132E+02  0.11127014394E+04  0.11320689132E+04  0.10566000000E+00 0.  1.
        994    1    1    2    0    0 -0.22285460462E+03 -0.90961093257E+02  0.21882060191E+03  0.36760031435E+03  0.17120000000E+03 0.  0.
        998    1    1    2    0    0  0.30230684959E+02  0.11139133125E+02  0.16847795492E+03  0.17153077244E+03  0.10000000000E+00 0. -1.
</event>
<event>
 5    1  0.2022058E-009  0.3881632E+03  0.7957747E-01  0.3416366E+00
         13   -1    0    0    0    0  0.00000000000E+00  0.00000000000E+00  0.14999999963E+04  0.15000000000E+04  0.10566000000E+00 0.  1.
        994   -1    0    0    0    0 -0.00000000000E+00 -0.00000000000E+00  0.11368683772E-12  0.17120000000E+03  0.17120000000E+03 0.  0.
         13    1    1    2    0    0  0.24122645525E+03  0.33292134734E+02  0.12464672845E+04  0.12700312088E+04  0.10566000000E+00 0.  1.
        994    1    1    2    0    0 -0.24406301633E+03 -0.32659596278E+02  0.23127734408E+03  0.37872424672E+03  0.17120000000E+03 0.  0.
        998    1    1    2    0    0  0.28365610748E+01 -0.63253845656E+00  0.22255367714E+02  0.22444544453E+02  0.10000000000E+00 0.  1.
</event>
<event>
 5    1  0.2022058E-009  0.3882699E+03  0.7957747E-01  0.3415921E+00
         13   -1    0    0    0    0  0.00000000000E+00  0.00000000000E+00  0.14999999963E+04  0.15000000000E+04  0.10566000000E+00 0. -1.
        994   -1    0    0    0    0 -0.00000000000E+00 -0.00000000000E+00  0.11368683772E-12  0.17120000000E+03  0.17120000000E+03 0.  0.
         13    1    1    2    0    0  0.20848556944E+03  0.52796469464E+02  0.11460310177E+04  0.11660363650E+04  0.10566000000E+00 0. -1.
        994    1    1    2    0    0 -0.23148449740E+03 -0.60093792417E+02  0.21552431888E+03  0.36463201787E+03  0.17120000000E+03 0.  0.
        998    1    1    2    0    0  0.22998927959E+02  0.72973229524E+01  0.13844465967E+03  0.14053161709E+03  0.10000000000E+00 0. -1.
</event>
<event>
 5    1  0.2022058E-009  0.3882705E+03  0.7957747E-01  0.3415919E+00
         13   -1    0    0    0    0  0.00000000000E+00  0.00000000000E+00  0.14999999963E+04  0.15000000000E+04  0.10566000000E+00 0. -1.
        994   -1    0    0    0    0 -0.00000000000E+00 -0.00000000000E+00  0.11368683772E-12  0.17120000000E+03  0.17120000000E+03 0.  0.
         13    1    1    2    0    0 -0.30434030839E+03 -0.23611531081E+02  0.10564872368E+04  0.10997026055E+04  0.10566000000E+00 0. -1.
        994    1    1    2    0    0  0.30884640307E+03  0.23154111895E+02  0.42808033910E+03  0.55541374696E+03  0.17120000000E+03 0.  0.
        998    1    1    2    0    0 -0.45060946807E+01  0.45741918530E+00  0.15432420350E+02  0.16083647579E+02  0.10000000000E+00 0. -1.
</event>
<event>
 5    1  0.2022058E-009  0.3883008E+03  0.7957747E-01  0.3415793E+00
         13   -1    0    0    0    0  0.00000000000E+00  0.00000000000E+00  0.14999999963E+04  0.15000000000E+04  0.10566000000E+00 0. -1.
        994   -1    0    0    0    0 -0.00000000000E+00 -0.00000000000E+00  0.11368683772E-12  0.17120000000E+03  0.17120000000E+03 0.  0.
         13    1    1    2    0    0 -0.15443461206E+03 -0.20956703017E+03  0.11613143384E+04  0.11901341913E+04  0.10566000000E+00 0. -1.
        994    1    1    2    0    0  0.16060050321E+03  0.21785935444E+03  0.29246985036E+03  0.43370874250E+03  0.17120000000E+03 0.  0.
        998    1    1    2    0    0 -0.61658911545E+01 -0.82923242735E+01  0.46215807503E+02  0.47357066196E+02  0.10000000000E+00 0.  0.
</event>
<event>
 5    1  0.2022058E-009  0.3882926E+03  0.7957747E-01  0.3415827E+00
         13   -1    0    0    0    0  0.00000000000E+00  0.00000000000E+00  0.14999999963E+04  0.15000000000E+04  0.10566000000E+00 0. -1.
        994   -1    0    0    0    0 -0.00000000000E+00 -0.00000000000E+00  0.11368683772E-12  0.17120000000E+03  0.17120000000E+03 0.  0.
         13    1    1    2    0    0  0.21239192505E+03 -0.95382922417E+02  0.12612742532E+04  0.12825837145E+04  0.10566000000E+00 0. -1.
        994    1    1    2    0    0 -0.21714302355E+03  0.97016619094E+02  0.21266676518E+03  0.36207721562E+03  0.17120000000E+03 0.  0.
        998    1    1    2    0    0  0.47510985040E+01 -0.16336966773E+01  0.26058977892E+02  0.26539069890E+02  0.10000000000E+00 0. -1.
</event>
<event>
 5    1  0.2022058E-009  0.3878212E+03  0.7957747E-01  0.3417794E+00
         13   -1    0    0    0    0  0.00000000000E+00  0.00000000000E+00  0.14999999963E+04  0.15000000000E+04  0.10566000000E+00 0. -1.
        994   -1    0    0    0    0 -0.00000000000E+00 -0.00000000000E+00  0.11368683772E-12  0.17120000000E+03  0.17120000000E+03 0.  0.
         13    1    1    2    0    0 -0.22058865349E+02  0.21388543834E+03  0.11165342633E+04  0.11370498435E+04  0.10566000000E+00 0. -1.
        994    1    1    2    0    0  0.16614983306E+02 -0.23995456327E+03  0.21913019245E+03  0.36767068329E+03  0.17120000000E+03 0.  0.
        998    1    1    2    0    0  0.54438820428E+01  0.26069124930E+02  0.16433554052E+03  0.16647947322E+03  0.10000000000E+00 0.  1.
</event>
<event>
 5    1  0.2022058E-009  0.3882960E+03  0.7957747E-01  0.3415813E+00
         13   -1    0    0    0    0  0.00000000000E+00  0.00000000000E+00  0.14999999963E+04  0.15000000000E+04  0.10566000000E+00 0.  1.
        994   -1    0    0    0    0 -0.00000000000E+00 -0.00000000000E+00  0.11368683772E-12  0.17120000000E+03  0.17120000000E+03 0.  0.
         13    1    1    2    0    0 -0.81958801202E+02 -0.38981301399E+02  0.52601685786E+03  0.53378884671E+03  0.10566000000E+00 0.  1.
        994    1    1    2    0    0  0.20296113997E+03  0.94741155408E+02  0.18486654967E+03  0.33712637401E+03  0.17120000000E+03 0.  0.
        998    1    1    2    0    0 -0.12100233877E+03 -0.55759854009E+02  0.78911658875E+03  0.80028477928E+03  0.10000000000E+00 0.  1.
</event>
<event>
 5    1  0.2022058E-009  0.3880724E+03  0.7957747E-01  0.3416746E+00
         13   -1    0    0    0    0  0.00000000000E+00  0.00000000000E+00  0.14999999963E+04  0.15000000000E+04  0.10566000000E+00 0. -1.
        994   -1    0    0    0    0 -0.00000000000E+00 -0.00000000000E+00  0.11368683772E-12  0.17120000000E+03  0.17120000000E+03 0.  0.
         13    1    1    2    0    0 -0.26898237770E+03 -0.14821407108E+03  0.10455636334E+04  0.10897349463E+04  0.10566000000E+00 0. -1.
        994    1    1    2    0    0  0.27171168134E+03  0.15089743662E+03  0.43360929152E+03  0.56028897174E+03  0.17120000000E+03 0.  0.
        998    1    1    2    0    0 -0.27293036421E+01 -0.26833655385E+01  0.20827071331E+02  0.21176082008E+02  0.10000000000E+00 0.  1.
</event>
<event>
 5    1  0.2022058E-009  0.3874553E+03  0.7957747E-01  0.3419325E+00
         13   -1    0    0    0    0  0.00000000000E+00  0.00000000000E+00  0.14999999963E+04  0.15000000000E+04  0.10566000000E+00 0. -1.
        994   -1    0    0    0    0 -0.00000000000E+00 -0.00000000000E+00  0.11368683772E-12  0.17120000000E+03  0.17120000000E+03 0.  0.
         13    1    1    2    0    0  0.20420661012E+03  0.18466786298E+03  0.11700159829E+04  0.12019733652E+04  0.10566000000E+00 0. -1.
        994    1    1    2    0    0 -0.20424040206E+03 -0.18961664550E+03  0.31765732977E+03  0.45594323467E+03  0.17120000000E+03 0.  0.
        998    1    1    2    0    0  0.33791931903E-01  0.49487825247E+01  0.12326683591E+02  0.13283400119E+02  0.10000000000E+00 0. -1.
</event>
<event>
 5    1  0.2022058E-009  0.3882370E+03  0.7957747E-01  0.3416059E+00
         13   -1    0    0    0    0  0.00000000000E+00  0.00000000000E+00  0.14999999963E+04  0.15000000000E+04  0.10566000000E+00 0. -1.
        994   -1    0    0    0    0 -0.00000000000E+00 -0.00000000000E+00  0.11368683772E-12  0.17120000000E+03  0.17120000000E+03 0.  0.
         13    1    1    2    0    0  0.20392542261E+03  0.21490887822E+03  0.75242664314E+03  0.80865151234E+03  0.10566000000E+00 0. -1.
        994    1    1    2    0    0 -0.23618867658E+03 -0.24755255264E+03  0.64074665674E+03  0.74627948879E+03  0.17120000000E+03 0.  0.
        998    1    1    2    0    0  0.32263253969E+02  0.32643674424E+02  0.10682669639E+03  0.11626899887E+03  0.10000000000E+00 0. -1.
</event>
<event>
 5    1  0.2022058E-009  0.3883001E+03  0.7957747E-01  0.3415795E+00
         13   -1    0    0    0    0  0.00000000000E+00  0.00000000000E+00  0.14999999963E+04  0.15000000000E+04  0.10566000000E+00 0. -1.
        994   -1    0    0    0    0 -0.00000000000E+00 -0.00000000000E+00  0.11368683772E-12  0.17120000000E+03  0.17120000000E+03 0.  0.
         13    1    1    2    0    0 -0.19251604857E+03  0.17753041865E+03  0.12110937170E+04  0.12390833229E+04  0.10566000000E+00 0. -1.
        994    1    1    2    0    0  0.19450276567E+03 -0.17941350076E+03  0.27603570603E+03  0.41895785123E+03  0.17120000000E+03 0.  0.
        998    1    1    2    0    0 -0.19867170997E+01  0.18830821077E+01  0.12870573256E+02  0.13158825897E+02  0.10000000000E+00 0.  0.
</event>
<event>
 5    1  0.2022058E-009  0.3883005E+03  0.7957747E-01  0.3415794E+00
         13   -1    0    0    0    0  0.00000000000E+00  0.00000000000E+00  0.14999999963E+04  0.15000000000E+04  0.10566000000E+00 0. -1.
        994   -1    0    0    0    0 -0.00000000000E+00 -0.00000000000E+00  0.11368683772E-12  0.17120000000E+03  0.17120000000E+03 0.  0.
         13    1    1    2    0    0  0.10039164100E+03 -0.15147829798E+03  0.68378427194E+03  0.70752038703E+03  0.10566000000E+00 0. -1.
        994    1    1    2    0    0 -0.16420263801E+03  0.24797851870E+03  0.37839036706E+03  0.51082733086E+03  0.17120000000E+03 0.  0.
        998    1    1    2    0    0  0.63810997017E+02 -0.96500220726E+02  0.43782535728E+03  0.45285228211E+03  0.10000000000E+00 0. -1.
</event>
<event>
 5    1  0.2022058E-009  0.3883001E+03  0.7957747E-01  0.3415796E+00
         13   -1    0    0    0    0  0.00000000000E+00  0.00000000000E+00  0.14999999963E+04  0.15000000000E+04  0.10566000000E+00 0.  1.
        994   -1    0    0    0    0 -0.00000000000E+00 -0.00000000000E+00  0.11368683772E-12  0.17120000000E+03  0.17120000000E+03 0.  0.
         13    1    1    2    0    0  0.22470270159E+03  0.11008507197E+03  0.12211829281E+04  0.12465543639E+04  0.10566000000E+00 0.  1.
        994    1    1    2    0    0 -0.22956669237E+03 -0.11238165384E+03  0.25309780051E+03  0.39836972650E+03  0.17120000000E+03 0.  0.
        998    1    1    2    0    0  0.48639907886E+01  0.22965818717E+01  0.25719267645E+02  0.26275909554E+02  0.10000000000E+00 0.  1.
</event>
<event>
 5    1  0.2022058E-009  0.3852556E+03  0.7957747E-01  0.3428589E+00
         13   -1    0    0    0    0  0.00000000000E+00  0.00000000000E+00  0.14999999963E+04  0.15000000000E+04  0.10566000000E+00 0.  1.
        994   -1    0    0    0    0 -0.00000000000E+00 -0.00000000000E+00  0.11368683772E-12  0.17120000000E+03  0.17120000000E+03 0.  0.
         13    1    1    2    0    0 -0.28978015667E+02 -0.17005010799E+00  0.14750394089E+03  0.15032357783E+03  0.10566000000E+00 0.  1.
        994    1    1    2    0    0  0.94835236509E+02 -0.59355456111E+02  0.43773689308E+02  0.20914676218E+03  0.17120000000E+03 0.  0.
        998    1    1    2    0    0 -0.65857220842E+02  0.59525506219E+02  0.13087223661E+04  0.13117296600E+04  0.10000000000E+00 0.  1.
</event>
<event>
 5    1  0.2022058E-009  0.3883007E+03  0.7957747E-01  0.3415793E+00
         13   -1    0    0    0    0  0.00000000000E+00  0.00000000000E+00  0.14999999963E+04  0.15000000000E+04  0.10566000000E+00 0. -1.
        994   -1    0    0    0    0 -0.00000000000E+00 -0.00000000000E+00  0.11368683772E-12  0.17120000000E+03  0.17120000000E+03 0.  0.
         13    1    1    2    0    0 -0.21628961535E+02 -0.22480163769E+03  0.11203708955E+04  0.11429061829E+04  0.10566000000E+00 0. -1.
        994    1    1    2    0    0  0.24272921343E+02  0.25168194509E+03  0.24644871447E+03  0.39240207066E+03  0.17120000000E+03 0.  0.
        998    1    1    2    0    0 -0.26439598090E+01 -0.26880307410E+02  0.13318038627E+03  0.13589174639E+03  0.10000000000E+00 0.  0.
</event>
<event>
 5    1  0.2022058E-009  0.3882993E+03  0.7957747E-01  0.3415799E+00
         13   -1    0    0    0    0  0.00000000000E+00  0.00000000000E+00  0.14999999963E+04  0.15000000000E+04  0.10566000000E+00 0.  1.
        994   -1    0    0    0    0 -0.00000000000E+00 -0.00000000000E+00  0.11368683772E-12  0.17120000000E+03  0.17120000000E+03 0.  0.
         13    1    1    2    0    0 -0.31116852533E+03  0.13422841026E+03  0.87722898676E+03  0.94041151825E+03  0.10566000000E+00 0.  1.
        994    1    1    2    0    0  0.31241261983E+03 -0.13477265095E+03  0.61922359983E+03  0.72698873379E+03  0.17120000000E+03 0.  0.
        998    1    1    2    0    0 -0.12440945012E+01  0.54424069203E+00  0.35474096839E+01  0.37997479554E+01  0.10000000000E+00 0.  0.
</event>
<event>
 5    1  0.2022058E-009  0.3883004E+03  0.7957747E-01  0.3415794E+00
         13   -1    0    0    0    0  0.00000000000E+00  0.00000000000E+00  0.14999999963E+04  0.15000000000E+04  0.10566000000E+00 0. -1.
        994   -1    0    0    0    0 -0.00000000000E+00 -0.00000000000E+00  0.11368683772E-12  0.17120000000E+03  0.17120000000E+03 0.  0.
         13    1    1    2    0    0  0.14643191538E+03 -0.16284574462E+03  0.13032473261E+04  0.13215198245E+04  0.10566000000E+00 0. -1.
        994    1    1    2    0    0 -0.14824279859E+03  0.16485056205E+03  0.18055496462E+03  0.33325841383E+03  0.17120000000E+03 0.  0.
        998    1    1    2    0    0  0.18108832136E+01 -0.20048174260E+01  0.16197705554E+02  0.16421761663E+02  0.10000000000E+00 0.  0.
</event>
<event>
 5    1  0.2022058E-009  0.3859117E+03  0.7957747E-01  0.3425815E+00
         13   -1    0    0    0    0  0.00000000000E+00  0.00000000000E+00  0.14999999963E+04  0.15000000000E+04  0.10566000000E+00 0. -1.
        994   -1    0    0    0    0 -0.00000000000E+00 -0.00000000000E+00  0.11368683772E-12  0.17120000000E+03  0.17120000000E+03 0.  0.
         13    1    1    2    0    0  0.14325821424E+02 -0.10287272054E+03  0.60764154545E+03  0.61645460880E+03  0.10566000000E+00 0. -1.
        994    1    1    2    0    0 -0.17225812256E+02  0.17008025226E+03  0.10370224764E+03  0.26322541097E+03  0.17120000000E+03 0.  0.
        998    1    1    2    0    0  0.28999908325E+01 -0.67207531725E+02  0.78865620319E+03  0.79151998023E+03  0.10000000000E+00 0.  1.
</event>
<event>
 5    1  0.2022058E-009  0.3873168E+03  0.7957747E-01  0.3419905E+00
         13   -1    0    0    0    0  0.00000000000E+00  0.00000000000E+00  0.14999999963E+04  0.15000000000E+04  0.10566000000E+00 0. -1.
        994   -1    0    0    0    0 -0.00000000000E+00 -0.00000000000E+00  0.11368683772E-12  0.17120000000E+03  0.17120000000E+03 0.  0.
         13    1    1    2    0    0 -0.29920119757E+03  0.14197254946E+03  0.92162569251E+03  0.97932195405E+03  0.10566000000E+00 0. -1.
        994    1    1    2    0    0  0.30219378418E+03 -0.13977296522E+03  0.56341263588E+03  0.67646197474E+03  0.17120000000E+03 0.  0.
        998    1    1    2    0    0 -0.29925866007E+01 -0.21995842402E+01  0.14961667896E+02  0.15416071212E+02  0.10000000000E+00 0. -1.
</event>
<event>
 5    1  0.2022058E-009  0.3883004E+03  0.7957747E-01  0.3415794E+00
         13   -1    0    0    0    0  0.00000000000E+00  0.00000000000E+00  0.14999999963E+04  0.15000000000E+04  0.10566000000E+00 0.  1.
        994   -1    0    0    0    0 -0.00000000000E+00 -0.00000000000E+00  0.11368683772E-12  0.17120000000E+03  0.17120000000E+03 0.  0.
         13    1    1    2    0    0 -0.93255717200E+02  0.11614496505E+03  0.87815447557E+03  0.89069724139E+03  0.10566000000E+00 0.  1.
        994    1    1    2    0    0  0.14022870212E+03 -0.17366133088E+03  0.18339000974E+03  0.33580304110E+03  0.17120000000E+03 0.  0.
        998    1    1    2    0    0 -0.46972984918E+02  0.57516365830E+02  0.43845551097E+03  0.44469971751E+03  0.10000000000E+00 0. -1.
</event>
<event>
 5    1  0.2022058E-009  0.3883009E+03  0.7957747E-01  0.3415792E+00
         13   -1    0    0    0    0  0.00000000000E+00  0.00000000000E+00  0.14999999963E+04  0.15000000000E+04  0.10566000000E+00 0. -1.
        994   -1    0    0    0    0 -0.00000000000E+00 -0.00000000000E+00  0.11368683772E-12  0.17120000000E+03  0.17120000000E+03 0.  0.
         13    1    1    2    0    0 -0.17944732462E+02  0.10145806133E+03  0.16059676551E+03  0.19080640421E+03  0.10566000000E+00 0. -1.
        994    1    1    2    0    0  0.59174174233E+02 -0.33403977725E+03  0.97171162062E+03  0.10433681370E+04  0.17120000000E+03 0.  0.
        998    1    1    2    0    0 -0.41229441771E+02  0.23258171592E+03  0.36769161015E+03  0.43702545878E+03  0.10000000000E+00 0. -1.
</event>
<event>
 5    1  0.2022058E-009  0.3739756E+03  0.7957747E-01  0.3477817E+00
         13   -1    0    0    0    0  0.00000000000E+00  0.00000000000E+00  0.14999999963E+04  0.15000000000E+04  0.10566000000E+00 0. -1.
        994   -1    0    0    0    0 -0.00000000000E+00 -0.00000000000E+00  0.11368683772E-12  0.17120000000E+03  0.17120000000E+03 0.  0.
         13    1    1    2    0    0  0.13909492169E+01 -0.18859390771E+02  0.30507511531E+02  0.35893325059E+02  0.10566000000E+00 0. -1.
        994    1    1    2    0    0  0.81305749778E+02 -0.12086063249E+03  0.83428315827E+02  0.23976580514E+03  0.17120000000E+03 0.  0.
        998    1    1    2    0    0 -0.82696698995E+02  0.13972002326E+03  0.13860641689E+04  0.13955408698E+04  0.10000000000E+00 0. -1.
</event>
<event>
 5    1  0.2022058E-009  0.3882917E+03  0.7957747E-01  0.3415831E+00
         13   -1    0    0    0    0  0.00000000000E+00  0.00000000000E+00  0.14999999963E+04  0.15000000000E+04  0.10566000000E+00 0. -1.
        994   -1    0    0    0    0 -0.00000000000E+00 -0.00000000000E+00  0.11368683772E-12  0.17120000000E+03  0.17120000000E+03 0.  0.
         13    1    1    2    0    0  0.10929863009E+03  0.20540573172E+03  0.11709427235E+04  0.11938360767E+04  0.10566000000E+00 0. -1.
        994    1    1    2    0    0 -0.11835793268E+03 -0.22033890100E+03  0.23999998348E+03  0.38660996313E+03  0.17120000000E+03 0.  0.
        998    1    1    2    0    0  0.90593025907E+01  0.14933169278E+02  0.89057289258E+02  0.90753960123E+02  0.10000000000E+00 0.  1.
</event>
<event>
 5    1  0.2022058E-009  0.3882613E+03  0.7957747E-01  0.3415957E+00
         13   -1    0    0    0    0  0.00000000000E+00  0.00000000000E+00  0.14999999963E+04  0.15000000000E+04  0.10566000000E+00 0.  1.
        994   -1    0    0    0    0 -0.00000000000E+00 -0.00000000000E+00  0.11368683772E-12  0.17120000000E+03  0.17120000000E+03 0.  0.
         13    1    1    2    0    0 -0.17673355368E+03  0.13993111843E+03  0.13117749436E+04  0.13310029980E+04  0.10566000000E+00 0.  1.
        994    1    1    2    0    0  0.17668955907E+03 -0.14000925690E+03  0.18768931649E+03  0.33964468467E+03  0.17120000000E+03 0.  0.
        998    1    1    2    0    0  0.43994611930E-01  0.78138478961E-01  0.53573623929E+00  0.55231735973E+00  0.10000000000E+00 0.  1.
</event>
<event>
 5    1  0.2022058E-009  0.3882998E+03  0.7957747E-01  0.3415797E+00
         13   -1    0    0    0    0  0.00000000000E+00  0.00000000000E+00  0.14999999963E+04  0.15000000000E+04  0.10566000000E+00 0. -1.
        994   -1    0    0    0    0 -0.00000000000E+00 -0.00000000000E+00  0.11368683772E-12  0.17120000000E+03  0.17120000000E+03 0.  0.
         13    1    1    2    0    0  0.17458462116E+02  0.21529268947E+03  0.12579428836E+04  0.12763526353E+04  0.10566000000E+00 0. -1.
        994    1    1    2    0    0 -0.18287737694E+02 -0.22480908896E+03  0.18786105633E+03  0.33981580940E+03  0.17120000000E+03 0.  0.
        998    1    1    2    0    0  0.82927557851E+00  0.95163994898E+01  0.54196056380E+02  0.55031555351E+02  0.10000000000E+00 0.  1.
</event>
<event>
 5    1  0.2022058E-009  0.3882882E+03  0.7957747E-01  0.3415845E+00
         13   -1    0    0    0    0  0.00000000000E+00  0.00000000000E+00  0.14999999963E+04  0.15000000000E+04  0.10566000000E+00 0. -1.
        994   -1    0    0    0    0 -0.00000000000E+00 -0.00000000000E+00  0.11368683772E-12  0.17120000000E+03  0.17120000000E+03 0.  0.
         13    1    1    2    0    0 -0.22960495491E+02 -0.17845826044E+03  0.10723521266E+04  0.10873424620E+04  0.10566000000E+00 0. -1.
        994    1    1    2    0    0  0.27761471557E+02  0.21809980957E+03  0.17714920676E+03  0.33019616547E+03  0.17120000000E+03 0.  0.
        998    1    1    2    0    0 -0.48009760657E+01 -0.39641549129E+02  0.25049866287E+03  0.25366137248E+03  0.10000000000E+00 0. -1.
</event>
<event>
 5    1  0.2022058E-009  0.3881737E+03  0.7957747E-01  0.3416322E+00
         13   -1    0    0    0    0  0.00000000000E+00  0.00000000000E+00  0.14999999963E+04  0.15000000000E+04  0.10566000000E+00 0.  1.
        994   -1    0    0    0    0 -0.00000000000E+00 -0.00000000000E+00  0.11368683772E-12  0.17120000000E+03  0.17120000000E+03 0.  0.
         13    1    1    2    0    0  0.46788077881E+02  0.21477928795E+03  0.12949312820E+04  0.13134558626E+04  0.10566000000E+00 0.  1.
        994    1    1    2    0    0 -0.46934176651E+02 -0.21699605021E+03  0.18129660901E+03  0.33386824225E+03  0.17120000000E+03 0.  0.
        998    1    1    2    0    0  0.14609877068E+00  0.22167622567E+01  0.23772105289E+02  0.23875895159E+02  0.10000000000E+00 0. -1.
</event>
<event>
 5    1  0.2022058E-009  0.3881187E+03  0.7957747E-01  0.3416552E+00
         13   -1    0    0    0    0  0.00000000000E+00  0.00000000000E+00  0.14999999963E+04  0.15000000000E+04  0.10566000000E+00 0. -1.
        994   -1    0    0    0    0 -0.00000000000E+00 -0.00000000000E+00  0.11368683772E-12  0.17120000000E+03  0.17120000000E+03 0.  0.
         13    1    1    2    0    0 -0.53238175428E+02 -0.26546360184E+03  0.10032336878E+04  0.10391261091E+04  0.10566000000E+00 0. -1.
        994    1    1    2    0    0  0.64186682028E+02  0.29272647334E+03  0.38745341272E+03  0.51888178362E+03  0.17120000000E+03 0.  0.
        998    1    1    2    0    0 -0.10948506600E+02 -0.27262871502E+02  0.10931289578E+03  0.11319210725E+03  0.10000000000E+00 0. -1.
</event>
<event>
 5    1  0.2022058E-009  0.3878205E+03  0.7957747E-01  0.3417797E+00
         13   -1    0    0    0    0  0.00000000000E+00  0.00000000000E+00  0.14999999963E+04  0.15000000000E+04  0.10566000000E+00 0.  1.
        994   -1    0    0    0    0 -0.00000000000E+00 -0.00000000000E+00  0.11368683772E-12  0.17120000000E+03  0.17120000000E+03 0.  0.
         13    1    1    2    0    0 -0.89797382743E+02  0.93149166756E+01  0.48081712141E+03  0.48921922798E+03  0.10566000000E+00 0.  1.
        994    1    1    2    0    0  0.24122096324E+03  0.94266127174E+01  0.22103820811E+03  0.36938292269E+03  0.17120000000E+03 0.  0.
        998    1    1    2    0    0 -0.15142358050E+03 -0.18741529393E+02  0.79814466676E+03  0.81259784932E+03  0.10000000000E+00 0.  1.
</event>
<event>
 5    1  0.2022058E-009  0.3881345E+03  0.7957747E-01  0.3416486E+00
         13   -1    0    0    0    0  0.00000000000E+00  0.00000000000E+00  0.14999999963E+04  0.15000000000E+04  0.10566000000E+00 0.  1.
        994   -1    0    0    0    0 -0.00000000000E+00 -0.00000000000E+00  0.11368683772E-12  0.17120000000E+03  0.17120000000E+03 0.  0.
         13    1    1    2    0    0 -0.60102821722E+01  0.28195036288E+02  0.14697009416E+03  0.14977083596E+03  0.10566000000E+00 0.  1.
        994    1    1    2    0    0  0.90827302184E+01 -0.24090094090E+03  0.21985105701E+03  0.36845581361E+03  0.17120000000E+03 0.  0.
        998    1    1    2    0    0 -0.30724480462E+01  0.21270590461E+03  0.11331788451E+04  0.11529733504E+04  0.10000000000E+00 0.  1.
</event>
<event>
 5    1  0.2022058E-009  0.3882527E+03  0.7957747E-01  0.3415993E+00
         13   -1    0    0    0    0  0.00000000000E+00  0.00000000000E+00  0.14999999963E+04  0.15000000000E+04  0.10566000000E+00 0.  1.
        994   -1    0    0    0    0 -0.00000000000E+00 -0.00000000000E+00  0.11368683772E-12  0.17120000000E+03  0.17120000000E+03 0.  0.
         13    1    1    2    0    0  0.77433786272E+01  0.25125146695E+03  0.21746972761E+03  0.33238584980E+03  0.10566000000E+00 0.  1.
        994    1    1    2    0    0 -0.57637245267E+01 -0.28127026090E+03  0.12567881228E+04  0.12992197681E+04  0.17120000000E+03 0.  0.
        998    1    1    2    0    0 -0.19796541005E+01  0.30018793948E+02  0.25742145855E+02  0.39594382098E+02  0.10000000000E+00 0.  1.
</event>
<event>
 5    1  0.2022058E-009  0.3883009E+03  0.7957747E-01  0.3415792E+00
         13   -1    0    0    0    0  0.00000000000E+00  0.00000000000E+00  0.14999999963E+04  0.15000000000E+04  0.10566000000E+00 0. -1.
        994   -1    0    0    0    0 -0.00000000000E+00 -0.00000000000E+00  0.11368683772E-12  0.17120000000E+03  0.17120000000E+03 0.  0.
         13    1    1    2    0    0 -0.16915694518E+03 -0.11730817884E+03  0.85476320462E+03  0.87920158557E+03  0.10566000000E+00 0. -1.
        994    1    1    2    0    0  0.23212530705E+03  0.16088988305E+03  0.32732488331E+03  0.46499326003E+03  0.17120000000E+03 0.  0.
        998    1    1    2    0    0 -0.62968361866E+02 -0.43581704210E+02  0.31791190835E+03  0.32700515440E+03  0.10000000000E+00 0.  1.
</event>
<event>
 5    1  0.2022058E-009  0.3882107E+03  0.7957747E-01  0.3416168E+00
         13   -1    0    0    0    0  0.00000000000E+00  0.00000000000E+00  0.14999999963E+04  0.15000000000E+04  0.10566000000E+00 0.  1.
        994   -1    0    0    0    0 -0.00000000000E+00 -0.00000000000E+00  0.11368683772E-12  0.17120000000E+03  0.17120000000E+03 0.  0.
         13    1    1    2    0    0  0.83260575107E+02 -0.23384303816E+03  0.12615146600E+04  0.12857037522E+04  0.10566000000E+00 0.  1.
        994    1    1    2    0    0 -0.83798919005E+02  0.23405835891E+03  0.23662333834E+03  0.38354350268E+03  0.17120000000E+03 0.  0.
        998    1    1    2    0    0  0.53834389732E+00 -0.21532075134E+00  0.18619979129E+01  0.19527450948E+01  0.10000000000E+00 0.  1.
</event>
<event>
 5    1  0.2022058E-009  0.3878898E+03  0.7957747E-01  0.3417508E+00
         13   -1    0    0    0    0  0.00000000000E+00  0.00000000000E+00  0.14999999963E+04  0.15000000000E+04  0.10566000000E+00 0. -1.
        994   -1    0    0    0    0 -0.00000000000E+00 -0.00000000000E+00  0.11368683772E-12  0.17120000000E+03  0.17120000000E+03 0.  0.
         13    1    1    2    0    0  0.18648211886E+02 -0.26308671835E+03  0.11831534009E+04  0.12121940267E+04  0.10566000000E+00 0. -1.
        994    1    1    2    0    0 -0.17462922177E+02  0.26664703382E+03  0.28378951527E+03  0.42573644814E+03  0.17120000000E+03 0.  0.
        998    1    1    2    0    0 -0.11852897086E+01 -0.35603154760E+01  0.33057080103E+02  0.33269525138E+02  0.10000000000E+00 0.  1.
</event>
<event>
 5    1  0.2022058E-009  0.3880952E+03  0.7957747E-01  0.3416650E+00
         13   -1    0    0    0    0  0.00000000000E+00  0.00000000000E+00  0.14999999963E+04  0.15000000000E+04  0.10566000000E+00 0.  1.
        994   -1    0    0    0    0 -0.00000000000E+00 -0.00000000000E+00  0.11368683772E-12  0.17120000000E+03  0.17120000000E+03 0.  0.
         13    1    1    2    0    0 -0.20115887691E+03 -0.37733932496E+02  0.11873556757E+04  0.12048660735E+04  0.10566000000E+00 0.  1.
        994    1    1    2    0    0  0.21879882061E+03  0.45825709287E+02  0.18428667909E+03  0.33651736898E+03  0.17120000000E+03 0.  0.
        998    1    1    2    0    0 -0.17639943700E+02 -0.80917767903E+01  0.12835764153E+03  0.12981655751E+03  0.10000000000E+00 0.  1.
</event>
<event>
 5    1  0.2022058E-009  0.3882451E+03  0.7957747E-01  0.3416025E+00
         13   -1    0    0    0    0  0.00000000000E+00  0.00000000000E+00  0.14999999963E+04  0.15000000000E+04  0.10566000000E+00 0. -1.
        994   -1    0    0    0    0 -0.00000000000E+00 -0.00000000000E+00  0.11368683772E-12  0.17120000000E+03  0.17120000000E+03 0.  0.
         13    1    1    2    0    0 -0.22925440201E+02 -0.21456766996E+03  0.12677624290E+04  0.12859962863E+04  0.10566000000E+00 0. -1.
        994    1    1    2    0    0  0.25354739114E+02  0.22309765302E+03  0.18597822554E+03  0.33810170948E+03  0.17120000000E+03 0.  0.
        998    1    1    2    0    0 -0.24292989135E+01 -0.85299830587E+01  0.46259341745E+02  0.47102004234E+02  0.10000000000E+00 0. -1.
</event>
<event>
 5    1  0.2022058E-009  0.3881962E+03  0.7957747E-01  0.3416229E+00
         13   -1    0    0    0    0  0.00000000000E+00  0.00000000000E+00  0.14999999963E+04  0.15000000000E+04  0.10566000000E+00 0. -1.
        994   -1    0    0    0    0 -0.00000000000E+00 -0.00000000000E+00  0.11368683772E-12  0.17120000000E+03  0.17120000000E+03 0.  0.
         13    1    1    2    0    0 -0.21105968759E+03  0.14967272060E+03  0.12385277411E+04  0.12652664113E+04  0.10566000000E+00 0. -1.
        994    1    1    2    0    0  0.21119861371E+03 -0.14963827974E+03  0.26133036837E+03  0.40570860310E+03  0.17120000000E+03 0.  0.
        998    1    1    2    0    0 -0.13892612108E+00 -0.34440861267E-01  0.14188682754E+00  0.22498558148E+00  0.10000000000E+00 0.  1.
</event>
<event>
 5    1  0.2022058E-009  0.3882777E+03  0.7957747E-01  0.3415889E+00
         13   -1    0    0    0    0  0.00000000000E+00  0.00000000000E+00  0.14999999963E+04  0.15000000000E+04  0.10566000000E+00 0. -1.
        994   -1    0    0    0    0 -0.00000000000E+00 -0.00000000000E+00  0.11368683772E-12  0.17120000000E+03  0.17120000000E+03 0.  0.
         13    1    1    2    0    0  0.85115115138E+02  0.20442024758E+03  0.13107625413E+04  0.13293346725E+04  0.10566000000E+00 0. -1.
        994    1    1    2    0    0 -0.85632529199E+02 -0.20580622440E+03  0.18285425547E+03  0.33531216919E+03  0.17120000000E+03 0.  0.
        998    1    1    2    0    0  0.51741406105E+00  0.13859768244E+01  0.63831994683E+01  0.65531583623E+01  0.10000000000E+00 0.  1.
</event>
<event>
 5    1  0.2022058E-009  0.3882993E+03  0.7957747E-01  0.3415799E+00
         13   -1    0    0    0    0  0.00000000000E+00  0.00000000000E+00  0.14999999963E+04  0.15000000000E+04  0.10566000000E+00 0.  1.
        994   -1    0    0    0    0 -0.00000000000E+00 -0.00000000000E+00  0.11368683772E-12  0.17120000000E+03  0.17120000000E+03 0.  0.
         13    1    1    2    0    0  0.30668180476E+03 -0.70031676447E+02  0.77137916036E+03  0.83305701202E+03  0.10566000000E+00 0.  1.
        994    1    1    2    0    0 -0.33487265233E+03  0.76902490843E+02  0.65797632562E+03  0.76177160058E+03  0.17120000000E+03 0.  0.
        998    1    1    2    0    0  0.28190847573E+02 -0.68708143959E+01  0.70644510301E+02  0.76371387398E+02  0.10000000000E+00 0. -1.
</event>
<event>
 5    1  0.2022058E-009  0.3881997E+03  0.7957747E-01  0.3416214E+00
         13   -1    0    0    0    0  0.00000000000E+00  0.00000000000E+00  0.14999999963E+04  0.15000000000E+04  0.10566000000E+00 0. -1.
        994   -1    0    0    0    0 -0.00000000000E+00 -0.00000000000E+00  0.11368683772E-12  0.17120000000E+03  0.17120000000E+03 0.  0.
         13    1    1    2    0    0  0.18781068871E+03 -0.18765365352E+03  0.10998365283E+04  0.11314270408E+04  0.10566000000E+00 0. -1.
        994    1    1    2    0    0 -0.19908633730E+03  0.19816650292E+03  0.32278649948E+03  0.46087514234E+03  0.17120000000E+03 0.  0.
        998    1    1    2    0    0  0.11275648587E+02 -0.10512849398E+02  0.77376968511E+02  0.78897816886E+02  0.10000000000E+00 0.  1.
</event>
<event>
 5    1  0.2022058E-009  0.3882817E+03  0.7957747E-01  0.3415872E+00
         13   -1    0    0    0    0  0.00000000000E+00  0.00000000000E+00  0.14999999963E+04  0.15000000000E+04  0.10566000000E+00 0. -1.
        994   -1    0    0    0    0 -0.00000000000E+00 -0.00000000000E+00  0.11368683772E-12  0.17120000000E+03  0.17120000000E+03 0.  0.
         13    1    1    2    0    0 -0.30055344183E+03  0.11120046798E+02  0.11006337982E+04  0.11409867641E+04  0.10566000000E+00 0. -1.
        994    1    1    2    0    0  0.30148450532E+03 -0.11088013149E+02  0.39474811753E+03  0.52550106306E+03  0.17120000000E+03 0.  0.
        998    1    1    2    0    0 -0.93106349267E+00 -0.32033649194E-01  0.46180805279E+01  0.47121728686E+01  0.10000000000E+00 0. -1.
</event>
<event>
 5    1  0.2022058E-009  0.3732739E+03  0.7957747E-01  0.3480979E+00
         13   -1    0    0    0    0  0.00000000000E+00  0.00000000000E+00  0.14999999963E+04  0.15000000000E+04  0.10566000000E+00 0.  1.
        994   -1    0    0    0    0 -0.00000000000E+00 -0.00000000000E+00  0.11368683772E-12  0.17120000000E+03  0.17120000000E+03 0.  0.
         13    1    1    2    0    0 -0.61672994991E+02  0.31090852022E+02  0.10690761578E+03  0.12727705553E+03  0.10566000000E+00 0.  1.
        994    1    1    2    0    0  0.20087688757E+03 -0.17955667409E+03  0.32107895795E+03  0.45276181421E+03  0.17120000000E+03 0.  0.
        998    1    1    2    0    0 -0.13920389258E+03  0.14846582207E+03  0.10720134226E+04  0.10911611303E+04  0.10000000000E+00 0.  1.
</event>
<event>
 5    1  0.2022058E-009  0.3882995E+03  0.7957747E-01  0.3415798E+00
         13   -1    0    0    0    0  0.00000000000E+00  0.00000000000E+00  0.14999999963E+04  0.15000000000E+04  0.10566000000E+00 0. -1.
        994   -1    0    0    0    0 -0.00000000000E+00 -0.00000000000E+00  0.11368683772E-12  0.17120000000E+03  0.17120000000E+03 0.  0.
         13    1    1    2    0    0 -0.72247624881E+02  0.31985554068E+03  0.93147534090E+03  0.98750878886E+03  0.10566000000E+00 0. -1.
        994    1    1    2    0    0  0.73159850286E+02 -0.32453066381E+03  0.55483687900E+03  0.66919796604E+03  0.17120000000E+03 0.  0.
        998    1    1    2    0    0 -0.91222540511E+00  0.46751231315E+01  0.13687776377E+02  0.14493245104E+02  0.10000000000E+00 0.  0.
</event>
<event>
 5    1  0.2022058E-009  0.3882404E+03  0.7957747E-01  0.3416045E+00
         13   -1    0    0    0    0  0.00000000000E+00  0.00000000000E+00  0.14999999963E+04  0.15000000000E+04  0.10566000000E+00 0.  1.
        994   -1    0    0    0    0 -0.00000000000E+00 -0.00000000000E+00  0.11368683772E-12  0.17120000000E+03  0.17120000000E+03 0.  0.
         13    1    1    2    0    0 -0.12538167257E+03 -0.20653845376E+03  0.12714214937E+04  0.12941759241E+04  0.10566000000E+00 0.  1.
        994    1    1    2    0    0  0.12533839093E+03  0.20761867321E+03  0.22285740983E+03  0.37120087665E+03  0.17120000000E+03 0.  0.
        998    1    1    2    0    0  0.43281633441E-01 -0.10802194557E+01  0.57210927318E+01  0.58231992425E+01  0.10000000000E+00 0. -1.
</event>
<event>
 5    1  0.2022058E-009  0.3882970E+03  0.7957747E-01  0.3415809E+00
         13   -1    0    0    0    0  0.00000000000E+00  0.00000000000E+00  0.14999999963E+04  0.15000000000E+04  0.10566000000E+00 0.  1.
        994   -1    0    0    0    0 -0.00000000000E+00 -0.00000000000E+00  0.11368683772E-12  0.17120000000E+03  0.17120000000E+03 0.  0.
         13    1    1    2    0    0 -0.16230097559E+03  0.17557142593E+03  0.12751437467E+04  0.12973659924E+04  0.10566000000E+00 0.  1.
        994    1    1    2    0    0  0.16326076073E+03 -0.17639570275E+03  0.21805520293E+03  0.36691556449E+03  0.17120000000E+03 0.  0.
        998    1    1    2    0    0 -0.95978513810E+00  0.82427681376E+00  0.68010466664E+01  0.69184431439E+01  0.10000000000E+00 0.  0.
</event>
<event>
 5    1  0.2022058E-009  0.3837899E+03  0.7957747E-01  0.3434821E+00
         13   -1    0    0    0    0  0.00000000000E+00  0.00000000000E+00  0.14999999963E+04  0.15000000000E+04  0.10566000000E+00 0.  1.
        994   -1    0    0    0    0 -0.00000000000E+00 -0.00000000000E+00  0.11368683772E-12  0.17120000000E+03  0.17120000000E+03 0.  0.
         13    1    1    2    0    0  0.11255818240E+02  0.14317547299E+02  0.81673286101E+02  0.83679283168E+02  0.10566000000E+00 0.  1.
        994    1    1    2    0    0  0.40594418026E+02 -0.26111920888E+02  0.99623008348E+01  0.17815281818E+03  0.17120000000E+03 0.  0.
        998    1    1    2    0    0 -0.51850236266E+02  0.11794373589E+02  0.14083644093E+04  0.14093678987E+04  0.10000000000E+00 0.  1.
</event>
<event>
 5    1  0.2022058E-009  0.3883004E+03  0.7957747E-01  0.3415795E+00
         13   -1    0    0    0    0  0.00000000000E+00  0.00000000000E+00  0.14999999963E+04  0.15000000000E+04  0.10566000000E+00 0. -1.
        994   -1    0    0    0    0 -0.00000000000E+00 -0.00000000000E+00  0.11368683772E-12  0.17120000000E+03  0.17120000000E+03 0.  0.
         13    1    1    2    0    0 -0.49028919815E+02 -0.12769732170E+03  0.78142265310E+03  0.79330436460E+03  0.10566000000E+00 0. -1.
        994    1    1    2    0    0  0.82183977049E+02  0.21397924234E+03  0.19502134479E+03  0.34624281532E+03  0.17120000000E+03 0.  0.
        998    1    1    2    0    0 -0.33155057234E+02 -0.86281920640E+02  0.52355599839E+03  0.53165282008E+03  0.10000000000E+00 0.  1.
</event>
<event>
 5    1  0.2022058E-009  0.3880371E+03  0.7957747E-01  0.3416893E+00
         13   -1    0    0    0    0  0.00000000000E+00  0.00000000000E+00  0.14999999963E+04  0.15000000000E+04  0.10566000000E+00 0.  1.
        994   -1    0    0    0    0 -0.00000000000E+00 -0.00000000000E+00  0.11368683772E-12  0.17120000000E+03  0.17120000000E+03 0.  0.
         13    1    1    2    0    0 -0.11535406324E+03  0.26484543565E+03  0.60004169782E+03  0.66595774264E+03  0.10566000000E+00 0.  1.
        994    1    1    2    0    0  0.14110756004E+03 -0.31834951987E+03  0.79530946051E+03  0.88492052654E+03  0.17120000000E+03 0.  0.
        998    1    1    2    0    0 -0.25753496791E+02  0.53504084226E+02  0.10464883794E+03  0.12032173083E+03  0.10000000000E+00 0.  1.
</event>
<event>
 5    1  0.2022058E-009  0.3882006E+03  0.7957747E-01  0.3416210E+00
         13   -1    0    0    0    0  0.00000000000E+00  0.00000000000E+00  0.14999999963E+04  0.15000000000E+04  0.10566000000E+00 0.  1.
        994   -1    0    0    0    0 -0.00000000000E+00 -0.00000000000E+00  0.11368683772E-12  0.17120000000E+03  0.17120000000E+03 0.  0.
         13    1    1    2    0    0 -0.26961766740E+02 -0.78635065220E+02  0.32097024722E+03  0.33156043357E+03  0.10566000000E+00 0.  1.
        994    1    1    2    0    0  0.77087726664E+02  0.27903645198E+03  0.35056103608E+03  0.48580483649E+03  0.17120000000E+03 0.  0.
        998    1    1    2    0    0 -0.50125959923E+02 -0.20040138676E+03  0.82846871298E+03  0.85383472994E+03  0.10000000000E+00 0.  1.
</event>
<event>
 5    1  0.2022058E-009  0.3882727E+03  0.7957747E-01  0.3415910E+00
         13   -1    0    0    0    0  0.00000000000E+00  0.00000000000E+00  0.14999999963E+04  0.15000000000E+04  0.10566000000E+00 0.  1.
        994   -1    0    0    0    0 -0.00000000000E+00 -0.00000000000E+00  0.11368683772E-12  0.17120000000E+03  0.17120000000E+03 0.  0.
         13    1    1    2    0    0 -0.97735393767E+02 -0.17622459448E+03  0.12142289450E+04  0.12308368117E+04  0.10566000000E+00 0.  1.
        994    1    1    2    0    0  0.10743305728E+03  0.19050301663E+03  0.17505385909E+03  0.32830862724E+03  0.17120000000E+03 0.  0.
        998    1    1    2    0    0 -0.96976635105E+01 -0.14278422151E+02  0.11071719219E+03  0.11205456110E+03  0.10000000000E+00 0.  1.
</event>
<event>
 5    1  0.2022058E-009  0.3879375E+03  0.7957747E-01  0.3417309E+00
         13   -1    0    0    0    0  0.00000000000E+00  0.00000000000E+00  0.14999999963E+04  0.15000000000E+04  0.10566000000E+00 0.  1.
        994   -1    0    0    0    0 -0.00000000000E+00 -0.00000000000E+00  0.11368683772E-12  0.17120000000E+03  0.17120000000E+03 0.  0.
         13    1    1    2    0    0 -0.24372075568E+03 -0.11961904200E+03  0.11742850509E+04  0.12052609318E+04  0.10566000000E+00 0.  1.
        994    1    1    2    0    0  0.24648588883E+03  0.12408265122E+03  0.30842684740E+03  0.44787091659E+03  0.17120000000E+03 0.  0.
        998    1    1    2    0    0 -0.27651331501E+01 -0.44636092153E+01  0.17288098025E+02  0.18068151590E+02  0.10000000000E+00 0. -1.
</event>
<event>
 5    1  0.2022058E-009  0.3882742E+03  0.7957747E-01  0.3415904E+00
         13   -1    0    0    0    0  0.00000000000E+00  0.00000000000E+00  0.14999999963E+04  0.15000000000E+04  0.10566000000E+00 0.  1.
        994   -1    0    0    0    0 -0.00000000000E+00 -0.00000000000E+00  0.11368683772E-12  0.17120000000E+03  0.17120000000E+03 0.  0.
         13    1    1    2    0    0  0.11946665110E+03 -0.25085809742E+03  0.10456492297E+04  0.10819354826E+04  0.10566000000E+00 0.  1.
        994    1    1    2    0    0 -0.12701386913E+03  0.26837233535E+03  0.37659797461E+03  0.50920694007E+03  0.17120000000E+03 0.  0.
        998    1    1    2    0    0  0.75472180307E+01 -0.17514237931E+02  0.77752791971E+02  0.80057577340E+02  0.10000000000E+00 0. -1.
</event>
<event>
 5    1  0.2022058E-009  0.3879628E+03  0.7957747E-01  0.3417203E+00
         13   -1    0    0    0    0  0.00000000000E+00  0.00000000000E+00  0.14999999963E+04  0.15000000000E+04  0.10566000000E+00 0. -1.
        994   -1    0    0    0    0 -0.00000000000E+00 -0.00000000000E+00  0.11368683772E-12  0.17120000000E+03  0.17120000000E+03 0.  0.
         13    1    1    2    0    0  0.87016652158E+02  0.20736969518E+03  0.11949791785E+04  0.12159561408E+04  0.10566000000E+00 0. -1.
        994    1    1    2    0    0 -0.89651930876E+02 -0.22614928010E+03  0.22493275621E+03  0.37294121576E+03  0.17120000000E+03 0.  0.
        998    1    1    2    0    0  0.26352787182E+01  0.18779584927E+02  0.80088061614E+02  0.82302643439E+02  0.10000000000E+00 0. -1.
</event>
<event>
 5    1  0.2022058E-009  0.3882034E+03  0.7957747E-01  0.3416199E+00
         13   -1    0    0    0    0  0.00000000000E+00  0.00000000000E+00  0.14999999963E+04  0.15000000000E+04  0.10566000000E+00 0. -1.
        994   -1    0    0    0    0 -0.00000000000E+00 -0.00000000000E+00  0.11368683772E-12  0.17120000000E+03  0.17120000000E+03 0.  0.
         13    1    1    2    0    0 -0.53326628289E+02 -0.22334709159E+03  0.12784593005E+04  0.12989171824E+04  0.10566000000E+00 0. -1.
        994    1    1    2    0    0  0.53362600695E+02  0.22571013604E+03  0.20058216905E+03  0.35119122883E+03  0.17120000000E+03 0.  0.
        998    1    1    2    0    0 -0.35972405206E-01 -0.23630444518E+01  0.20958526703E+02  0.21091588718E+02  0.10000000000E+00 0. -1.
</event>
<event>
 5    1  0.2022058E-009  0.3879962E+03  0.7957747E-01  0.3417064E+00
         13   -1    0    0    0    0  0.00000000000E+00  0.00000000000E+00  0.14999999963E+04  0.15000000000E+04  0.10566000000E+00 0. -1.
        994   -1    0    0    0    0 -0.00000000000E+00 -0.00000000000E+00  0.11368683772E-12  0.17120000000E+03  0.17120000000E+03 0.  0.
         13    1    1    2    0    0  0.27210675611E+03 -0.20931546008E+03  0.78411910537E+03  0.85597770481E+03  0.10566000000E+00 0. -1.
        994    1    1    2    0    0 -0.27478517323E+03  0.21040525330E+03  0.70337308392E+03  0.80238419552E+03  0.17120000000E+03 0.  0.
        998    1    1    2    0    0  0.26784171173E+01 -0.10897932205E+01  0.12507806989E+02  0.12838099672E+02  0.10000000000E+00 0. -1.
</event>
<event>
 5    1  0.2022058E-009  0.3882761E+03  0.7957747E-01  0.3415896E+00
         13   -1    0    0    0    0  0.00000000000E+00  0.00000000000E+00  0.14999999963E+04  0.15000000000E+04  0.10566000000E+00 0. -1.
        994   -1    0    0    0    0 -0.00000000000E+00 -0.00000000000E+00  0.11368683772E-12  0.17120000000E+03  0.17120000000E+03 0.  0.
         13    1    1    2    0    0 -0.17267003869E+03  0.14083252851E+03  0.12113178634E+04  0.12316410681E+04  0.10566000000E+00 0. -1.
        994    1    1    2    0    0  0.18333078062E+03 -0.15121975567E+03  0.21230872758E+03  0.36174856660E+03  0.17120000000E+03 0.  0.
        998    1    1    2    0    0 -0.10660741932E+02  0.10387227157E+02  0.76373405328E+02  0.77810365299E+02  0.10000000000E+00 0. -1.
</event>
<event>
 5    1  0.2022058E-009  0.3882472E+03  0.7957747E-01  0.3416016E+00
         13   -1    0    0    0    0  0.00000000000E+00  0.00000000000E+00  0.14999999963E+04  0.15000000000E+04  0.10566000000E+00 0. -1.
        994   -1    0    0    0    0 -0.00000000000E+00 -0.00000000000E+00  0.11368683772E-12  0.17120000000E+03  0.17120000000E+03 0.  0.
         13    1    1    2    0    0  0.24538162336E+03 -0.46099015772E+02  0.12540830146E+04  0.12786952253E+04  0.10566000000E+00 0. -1.
        994    1    1    2    0    0 -0.24604961600E+03  0.46738676581E+02  0.24085232143E+03  0.38735539000E+03  0.17120000000E+03 0.  0.
        998    1    1    2    0    0  0.66799264267E+00 -0.63966080945E+00  0.50646602228E+01  0.51493847491E+01  0.10000000000E+00 0.  1.
</event>
<event>
 5    1  0.2022058E-009  0.3864965E+03  0.7957747E-01  0.3423350E+00
         13   -1    0    0    0    0  0.00000000000E+00  0.00000000000E+00  0.14999999963E+04  0.15000000000E+04  0.10566000000E+00 0. -1.
        994   -1    0    0    0    0 -0.00000000000E+00 -0.00000000000E+00  0.11368683772E-12  0.17120000000E+03  0.17120000000E+03 0.  0.
         13    1    1    2    0    0 -0.20229916227E+03  0.88737027287E+02  0.98672194942E+03  0.10111475796E+04  0.10566000000E+00 0. -1.
        994    1    1    2    0    0  0.25020922258E+03 -0.84693138715E+02  0.27816891222E+03  0.42007733399E+03  0.17120000000E+03 0.  0.
        998    1    1    2    0    0 -0.47910060305E+02 -0.40438885717E+01  0.23510913464E+03  0.23997508643E+03  0.10000000000E+00 0. -1.
</event>
<event>
 5    1  0.2022058E-009  0.3875926E+03  0.7957747E-01  0.3418751E+00
         13   -1    0    0    0    0  0.00000000000E+00  0.00000000000E+00  0.14999999963E+04  0.15000000000E+04  0.10566000000E+00 0. -1.
        994   -1    0    0    0    0 -0.00000000000E+00 -0.00000000000E+00  0.11368683772E-12  0.17120000000E+03  0.17120000000E+03 0.  0.
         13    1    1    2    0    0  0.17157601098E+03 -0.18054748620E+03  0.11566672761E+04  0.11831800037E+04  0.10566000000E+00 0. -1.
        994    1    1    2    0    0 -0.18013159938E+03  0.18540292297E+03  0.26151257041E+03  0.40561052923E+03  0.17120000000E+03 0.  0.
        998    1    1    2    0    0  0.85555883933E+01 -0.48554367743E+01  0.81820149768E+02  0.82409467096E+02  0.10000000000E+00 0. -1.
</event>
<event>
 5    1  0.2022058E-009  0.3883009E+03  0.7957747E-01  0.3415792E+00
         13   -1    0    0    0    0  0.00000000000E+00  0.00000000000E+00  0.14999999963E+04  0.15000000000E+04  0.10566000000E+00 0.  1.
        994   -1    0    0    0    0 -0.00000000000E+00 -0.00000000000E+00  0.11368683772E-12  0.17120000000E+03  0.17120000000E+03 0.  0.
         13    1    1    2    0    0  0.38190582971E+02  0.14224105457E+02  0.22673012620E+03  0.23036364100E+03  0.10566000000E+00 0. -1.
        994    1    1    2    0    0 -0.21850402892E+03 -0.81199088742E+02  0.20282964709E+03  0.35325148040E+03  0.17120000000E+03 0.  0.
        998    1    1    2    0    0  0.18031344594E+03  0.66974983285E+02  0.10704402230E+04  0.10875848786E+04  0.10000000000E+00 0.  1.
</event>
<event>
 5    1  0.2022058E-009  0.3875000E+03  0.7957747E-01  0.3419138E+00
         13   -1    0    0    0    0  0.00000000000E+00  0.00000000000E+00  0.14999999963E+04  0.15000000000E+04  0.10566000000E+00 0. -1.
        994   -1    0    0    0    0 -0.00000000000E+00 -0.00000000000E+00  0.11368683772E-12  0.17120000000E+03  0.17120000000E+03 0.  0.
         13    1    1    2    0    0  0.12798904175E+03 -0.64170093929E+02  0.81434589102E+03  0.82683628195E+03  0.10566000000E+00 0. -1.
        994    1    1    2    0    0 -0.21837070793E+03  0.11676173384E+03  0.23547752383E+03  0.38220174359E+03  0.17120000000E+03 0.  0.
        998    1    1    2    0    0  0.90381666188E+02 -0.52591639915E+02  0.45017658143E+03  0.46216197446E+03  0.10000000000E+00 0. -1.
</event>
<event>
 5    1  0.2022058E-009  0.3882928E+03  0.7957747E-01  0.3415826E+00
         13   -1    0    0    0    0  0.00000000000E+00  0.00000000000E+00  0.14999999963E+04  0.15000000000E+04  0.10566000000E+00 0. -1.
        994   -1    0    0    0    0 -0.00000000000E+00 -0.00000000000E+00  0.11368683772E-12  0.17120000000E+03  0.17120000000E+03 0.  0.
         13    1    1    2    0    0  0.30341862906E+03  0.39545182762E+02  0.10802478009E+04  0.11227475266E+04  0.10566000000E+00 0. -1.
        994    1    1    2    0    0 -0.30444836250E+03 -0.39791988804E+02  0.41647716528E+03  0.54500906140E+03  0.17120000000E+03 0.  0.
        998    1    1    2    0    0  0.10297334465E+01  0.24680604210E+00  0.32750300569E+01  0.34434119804E+01  0.10000000000E+00 0.  0.
</event>
<event>
 5    1  0.2022058E-009  0.3838274E+03  0.7957747E-01  0.3434661E+00
         13   -1    0    0    0    0  0.00000000000E+00  0.00000000000E+00  0.14999999963E+04  0.15000000000E+04  0.10566000000E+00 0. -1.
        994   -1    0    0    0    0 -0.00000000000E+00 -0.00000000000E+00  0.11368683772E-12  0.17120000000E+03  0.17120000000E+03 0.  0.
         13    1    1    2    0    0  0.49030355640E+01 -0.59481031707E+02  0.29714703510E+03  0.30308151466E+03  0.10566000000E+00 0. -1.
        994    1    1    2    0    0  0.11486920198E+02  0.13137808783E+03  0.61915117338E+02  0.22480007352E+03  0.17120000000E+03 0.  0.
        998    1    1    2    0    0 -0.16389955762E+02 -0.71897056123E+02  0.11409378438E+04  0.11433184118E+04  0.10000000000E+00 0. -1.
</event>
<event>
 5    1  0.2309661E-009  0.3882634E+03  0.7957747E-01  0.3415949E+00
         13   -1    0    0    0    0  0.00000000000E+00  0.00000000000E+00  0.14999999963E+04  0.15000000000E+04  0.10566000000E+00 0.  1.
        994   -1    0    0    0    0 -0.00000000000E+00 -0.00000000000E+00  0.11368683772E-12  0.17120000000E+03  0.17120000000E+03 0.  0.
         13    1    1    2    0    0 -0.34500733106E+03  0.34619462249E+02  0.63488154146E+03  0.72339695085E+03  0.10566000000E+00 0.  1.
        994    1    1    2    0    0  0.34520565017E+03 -0.34545998157E+02  0.86490487024E+03  0.94748627508E+03  0.17120000000E+03 0.  0.
        998    1    1    2    0    0 -0.19831910456E+00 -0.73464092054E-01  0.21358458339E+00  0.31677407457E+00  0.10000000000E+00 0. -1.
</event>
<event>
 5    1  0.2022058E-009  0.3882991E+03  0.7957747E-01  0.3415800E+00
         13   -1    0    0    0    0  0.00000000000E+00  0.00000000000E+00  0.14999999963E+04  0.15000000000E+04  0.10566000000E+00 0. -1.
        994   -1    0    0    0    0 -0.00000000000E+00 -0.00000000000E+00  0.11368683772E-12  0.17120000000E+03  0.17120000000E+03 0.  0.
         13    1    1    2    0    0  0.24589070941E+02 -0.22928589622E+03  0.12935186132E+04  0.13139128809E+04  0.10566000000E+00 0. -1.
        994    1    1    2    0    0 -0.24700275566E+02  0.23046663201E+03  0.20015805525E+03  0.35085275995E+03  0.17120000000E+03 0.  0.
        998    1    1    2    0    0  0.11120462486E+00 -0.11807357868E+01  0.63233278085E+01  0.64343591787E+01  0.10000000000E+00 0.  0.
</event>
<event>
 5    1  0.2022058E-009  0.3883002E+03  0.7957747E-01  0.3415795E+00
         13   -1    0    0    0    0  0.00000000000E+00  0.00000000000E+00  0.14999999963E+04  0.15000000000E+04  0.10566000000E+00 0. -1.
        994   -1    0    0    0    0 -0.00000000000E+00 -0.00000000000E+00  0.11368683772E-12  0.17120000000E+03  0.17120000000E+03 0.  0.
         13    1    1    2    0    0 -0.26759240000E+03 -0.38892615511E+02  0.11301113531E+04  0.11620111917E+04  0.10566000000E+00 0. -1.
        994    1    1    2    0    0  0.27851326861E+03  0.40617681348E+02  0.32429176249E+03  0.46227050961E+03  0.17120000000E+03 0.  0.
        998    1    1    2    0    0 -0.10920868618E+02 -0.17250658377E+01  0.45596880671E+02  0.46918298673E+02  0.10000000000E+00 0.  1.
</event>
<event>
 5    1  0.2022058E-009  0.3882971E+03  0.7957747E-01  0.3415808E+00
         13   -1    0    0    0    0  0.00000000000E+00  0.00000000000E+00  0.14999999963E+04  0.15000000000E+04  0.10566000000E+00 0.  1.
        994   -1    0    0    0    0 -0.00000000000E+00 -0.00000000000E+00  0.11368683772E-12  0.17120000000E+03  0.17120000000E+03 0.  0.
         13    1    1    2    0    0 -0.11699792405E+03  0.66547544637E+02  0.73745082901E+03  0.74963379480E+03  0.10566000000E+00 0.  1.
        994    1    1    2    0    0  0.20487868357E+03 -0.11468145039E+03  0.20630219216E+03  0.35636658729E+03  0.17120000000E+03 0.  0.
        998    1    1    2    0    0 -0.87880759517E+02  0.48133905749E+02  0.55624697510E+03  0.56519961791E+03  0.10000000000E+00 0.  1.
</event>
<event>
 5    1  0.2022058E-009  0.3882999E+03  0.7957747E-01  0.3415797E+00
         13   -1    0    0    0    0  0.00000000000E+00  0.00000000000E+00  0.14999999963E+04  0.15000000000E+04  0.10566000000E+00 0.  1.
        994   -1    0    0    0    0 -0.00000000000E+00 -0.00000000000E+00  0.11368683772E-12  0.17120000000E+03  0.17120000000E+03 0.  0.
         13    1    1    2    0    0  0.19425693900E+03  0.10900178316E+03  0.13029265461E+04  0.13218300734E+04  0.10566000000E+00 0.  1.
        994    1    1    2    0    0 -0.19585348181E+03 -0.10996377771E+03  0.18605844682E+03  0.33819787754E+03  0.17120000000E+03 0.  0.
        998    1    1    2    0    0  0.15965428103E+01  0.96199454555E+00  0.11015003326E+02  0.11172049084E+02  0.10000000000E+00 0.  0.
</event>
<event>
 5    1  0.2022058E-009  0.3882153E+03  0.7957747E-01  0.3416149E+00
         13   -1    0    0    0    0  0.00000000000E+00  0.00000000000E+00  0.14999999963E+04  0.15000000000E+04  0.10566000000E+00 0.  1.
        994   -1    0    0    0    0 -0.00000000000E+00 -0.00000000000E+00  0.11368683772E-12  0.17120000000E+03  0.17120000000E+03 0.  0.
         13    1    1    2    0    0 -0.16599387789E+03 -0.13858663015E+03  0.12591858244E+04  0.12776185554E+04  0.10566000000E+00 0.  1.
        994    1    1    2    0    0  0.17412564223E+03  0.14243725272E+03  0.18683664676E+03  0.33885908991E+03  0.17120000000E+03 0.  0.
        998    1    1    2    0    0 -0.81317643331E+01 -0.38506225707E+01  0.53977525104E+02  0.54722354680E+02  0.10000000000E+00 0.  1.
</event>
<event>
 5    1  0.2022058E-009  0.3883009E+03  0.7957747E-01  0.3415792E+00
         13   -1    0    0    0    0  0.00000000000E+00  0.00000000000E+00  0.14999999963E+04  0.15000000000E+04  0.10566000000E+00 0. -1.
        994   -1    0    0    0    0 -0.00000000000E+00 -0.00000000000E+00  0.11368683772E-12  0.17120000000E+03  0.17120000000E+03 0.  0.
         13    1    1    2    0    0  0.38837441157E+02  0.18974754039E+03  0.11582906916E+04  0.11743720933E+04  0.10566000000E+00 0. -1.
        994    1    1    2    0    0 -0.44328319362E+02 -0.21640988779E+03  0.17906583386E+03  0.33192205754E+03  0.17120000000E+03 0.  0.
        998    1    1    2    0    0  0.54908782051E+01  0.26662347395E+02  0.16264347077E+03  0.16490584919E+03  0.10000000000E+00 0.  0.
</event>
<event>
 5    1  0.2022058E-009  0.3882740E+03  0.7957747E-01  0.3415904E+00
         13   -1    0    0    0    0  0.00000000000E+00  0.00000000000E+00  0.14999999963E+04  0.15000000000E+04  0.10566000000E+00 0. -1.
        994   -1    0    0    0    0 -0.00000000000E+00 -0.00000000000E+00  0.11368683772E-12  0.17120000000E+03  0.17120000000E+03 0.  0.
         13    1    1    2    0    0 -0.18806494955E+03 -0.11593106242E+03  0.12989837303E+04  0.13176369680E+04  0.10566000000E+00 0. -1.
        994    1    1    2    0    0  0.19018991274E+03  0.11689267299E+03  0.18348138911E+03  0.33587342863E+03  0.17120000000E+03 0.  0.
        998    1    1    2    0    0 -0.21249631975E+01 -0.96161056904E+00  0.17534876830E+02  0.17689603413E+02  0.10000000000E+00 0.  1.
</event>
<event>
 5    1  0.2022058E-009  0.3882992E+03  0.7957747E-01  0.3415799E+00
         13   -1    0    0    0    0  0.00000000000E+00  0.00000000000E+00  0.14999999963E+04  0.15000000000E+04  0.10566000000E+00 0. -1.
        994   -1    0    0    0    0 -0.00000000000E+00 -0.00000000000E+00  0.11368683772E-12  0.17120000000E+03  0.17120000000E+03 0.  0.
         13    1    1    2    0    0  0.23887765171E+03 -0.95328693244E+02  0.12263243754E+04  0.12530050188E+04  0.10566000000E+00 0. -1.
        994    1    1    2    0    0 -0.24092038557E+03  0.96180853226E+02  0.26257815603E+03  0.40687850365E+03  0.17120000000E+03 0.  0.
        998    1    1    2    0    0  0.20427338594E+01 -0.85215998263E+00  0.11097464839E+02  0.11316477548E+02  0.10000000000E+00 0. -1.
</event>
<event>
 5    1  0.2022058E-009  0.3882850E+03  0.7957747E-01  0.3415858E+00
         13   -1    0    0    0    0  0.00000000000E+00  0.00000000000E+00  0.14999999963E+04  0.15000000000E+04  0.10566000000E+00 0. -1.
        994   -1    0    0    0    0 -0.00000000000E+00 -0.00000000000E+00  0.11368683772E-12  0.17120000000E+03  0.17120000000E+03 0.  0.
         13    1    1    2    0    0 -0.26327243584E+03 -0.11466236566E+02  0.12233219093E+04  0.12513833765E+04  0.10566000000E+00 0. -1.
        994    1    1    2    0    0  0.26375349227E+03  0.11305226548E+02  0.27443191934E+03  0.41751171383E+03  0.17120000000E+03 0.  0.
        998    1    1    2    0    0 -0.48105643015E+00  0.16101001811E+00  0.22461676285E+01  0.23049096577E+01  0.10000000000E+00 0. -1.
</event>
<event>
 5    1  0.2022058E-009  0.3877574E+03  0.7957747E-01  0.3418061E+00
         13   -1    0    0    0    0  0.00000000000E+00  0.00000000000E+00  0.14999999963E+04  0.15000000000E+04  0.10566000000E+00 0. -1.
        994   -1    0    0    0    0 -0.00000000000E+00 -0.00000000000E+00  0.11368683772E-12  0.17120000000E+03  0.17120000000E+03 0.  0.
         13    1    1    2    0    0  0.72899985934E+02 -0.17469767084E+03  0.10891375459E+04  0.11054656436E+04  0.10566000000E+00 0. -1.
        994    1    1    2    0    0 -0.75392801554E+02  0.20914117887E+03  0.18238268628E+03  0.33465951575E+03  0.17120000000E+03 0.  0.
        998    1    1    2    0    0  0.24928156203E+01 -0.34443508034E+02  0.22847976407E+03  0.23107484061E+03  0.10000000000E+00 0. -1.
</event>
<event>
 5    1  0.2022058E-009  0.3882992E+03  0.7957747E-01  0.3415799E+00
         13   -1    0    0    0    0  0.00000000000E+00  0.00000000000E+00  0.14999999963E+04  0.15000000000E+04  0.10566000000E+00 0. -1.
        994   -1    0    0    0    0 -0.00000000000E+00 -0.00000000000E+00  0.11368683772E-12  0.17120000000E+03  0.17120000000E+03 0.  0.
         13    1    1    2    0    0  0.86218491795E+02  0.24510443802E+03  0.12262399307E+04  0.12534648749E+04  0.10566000000E+00 0. -1.
        994    1    1    2    0    0 -0.86733009956E+02 -0.24642604744E+03  0.26725200859E+03  0.41107357975E+03  0.17120000000E+03 0.  0.
        998    1    1    2    0    0  0.51451816120E+00  0.13216094203E+01  0.65080569642E+01  0.66615453047E+01  0.10000000000E+00 0.  0.
</event>
<event>
 5    1  0.2022058E-009  0.3685622E+03  0.7957747E-01  0.3502525E+00
         13   -1    0    0    0    0  0.00000000000E+00  0.00000000000E+00  0.14999999963E+04  0.15000000000E+04  0.10566000000E+00 0.  1.
        994   -1    0    0    0    0 -0.00000000000E+00 -0.00000000000E+00  0.11368683772E-12  0.17120000000E+03  0.17120000000E+03 0.  0.
         13    1    1    2    0    0 -0.17840384067E+02 -0.44915526100E+02  0.25907574046E+03  0.26354493782E+03  0.10566000000E+00 0.  1.
        994    1    1    2    0    0 -0.34157895948E+02 -0.88776966277E+02  0.42158399430E+02  0.20033692181E+03  0.17120000000E+03 0.  0.
        998    1    1    2    0    0  0.51998280015E+02  0.13369249238E+03  0.11987658564E+04  0.12073181404E+04  0.10000000000E+00 0.  1.
</event>
<event>
 5    1  0.2022058E-009  0.3882953E+03  0.7957747E-01  0.3415815E+00
         13   -1    0    0    0    0  0.00000000000E+00  0.00000000000E+00  0.14999999963E+04  0.15000000000E+04  0.10566000000E+00 0. -1.
        994   -1    0    0    0    0 -0.00000000000E+00 -0.00000000000E+00  0.11368683772E-12  0.17120000000E+03  0.17120000000E+03 0.  0.
         13    1    1    2    0    0  0.22206692845E+03 -0.13507829678E+03  0.12309569084E+04  0.12580996735E+04  0.10566000000E+00 0. -1.
        994    1    1    2    0    0 -0.22268777147E+03  0.13534177105E+03  0.26558443184E+03  0.40957510787E+03  0.17120000000E+03 0.  0.
        998    1    1    2    0    0  0.62084301681E+00 -0.26347427294E+00  0.34586560581E+01  0.35252186418E+01  0.10000000000E+00 0.  1.
</event>
<event>
 5    1  0.2022058E-009  0.3873585E+03  0.7957747E-01  0.3419731E+00
         13   -1    0    0    0    0  0.00000000000E+00  0.00000000000E+00  0.14999999963E+04  0.15000000000E+04  0.10566000000E+00 0.  1.
        994   -1    0    0    0    0 -0.00000000000E+00 -0.00000000000E+00  0.11368683772E-12  0.17120000000E+03  0.17120000000E+03 0.  0.
         13    1    1    2    0    0 -0.38871678827E+02  0.11875519799E+03  0.43203785707E+03  0.44974495614E+03  0.10566000000E+00 0.  1.
        994    1    1    2    0    0  0.53124273501E+02 -0.29666895752E+03  0.39636086410E+03  0.52654157802E+03  0.17120000000E+03 0.  0.
        998    1    1    2    0    0 -0.14252594674E+02  0.17791375953E+03  0.67160127511E+03  0.69491346584E+03  0.10000000000E+00 0.  1.
</event>
<event>
 5    1  0.2022058E-009  0.3849180E+03  0.7957747E-01  0.3430020E+00
         13   -1    0    0    0    0  0.00000000000E+00  0.00000000000E+00  0.14999999963E+04  0.15000000000E+04  0.10566000000E+00 0. -1.
        994   -1    0    0    0    0 -0.00000000000E+00 -0.00000000000E+00  0.11368683772E-12  0.17120000000E+03  0.17120000000E+03 0.  0.
         13    1    1    2    0    0 -0.45228052457E+02  0.70504283637E+02  0.44221628416E+03  0.45007964171E+03  0.10566000000E+00 0. -1.
        994    1    1    2    0    0  0.18040544907E+03 -0.12197048720E+03  0.17741971821E+03  0.32895306993E+03  0.17120000000E+03 0.  0.
        998    1    1    2    0    0 -0.13517739661E+03  0.51466203567E+02  0.88036399391E+03  0.89216728837E+03  0.10000000000E+00 0. -1.
</event>
<event>
 5    1  0.2022058E-009  0.3879548E+03  0.7957747E-01  0.3417236E+00
         13   -1    0    0    0    0  0.00000000000E+00  0.00000000000E+00  0.14999999963E+04  0.15000000000E+04  0.10566000000E+00 0.  1.
        994   -1    0    0    0    0 -0.00000000000E+00 -0.00000000000E+00  0.11368683772E-12  0.17120000000E+03  0.17120000000E+03 0.  0.
         13    1    1    2    0    0  0.45677789648E+02 -0.20004808747E+03  0.98181819892E+03  0.10030317466E+04  0.10566000000E+00 0.  1.
        994    1    1    2    0    0 -0.63462362087E+02  0.24455744124E+03  0.24655525080E+03  0.39234518624E+03  0.17120000000E+03 0.  0.
        998    1    1    2    0    0  0.17784572439E+02 -0.44509353770E+02  0.27162654655E+03  0.27582306717E+03  0.10000000000E+00 0.  1.
</event>
<event>
 5    1  0.2022058E-009  0.3882985E+03  0.7957747E-01  0.3415802E+00
         13   -1    0    0    0    0  0.00000000000E+00  0.00000000000E+00  0.14999999963E+04  0.15000000000E+04  0.10566000000E+00 0.  1.
        994   -1    0    0    0    0 -0.00000000000E+00 -0.00000000000E+00  0.11368683772E-12  0.17120000000E+03  0.17120000000E+03 0.  0.
         13    1    1    2    0    0  0.15774822900E+02  0.26612526029E+03  0.11086303835E+04  0.11402336767E+04  0.10566000000E+00 0.  1.
        994    1    1    2    0    0 -0.16498242109E+02 -0.28145361879E+03  0.32578151313E+03  0.46360690873E+03  0.17120000000E+03 0.  0.
        998    1    1    2    0    0  0.72341920849E+00  0.15328358502E+02  0.65588099680E+02  0.67359414557E+02  0.10000000000E+00 0. -1.
</event>
<event>
 5    1  0.2022058E-009  0.3851737E+03  0.7957747E-01  0.3428936E+00
         13   -1    0    0    0    0  0.00000000000E+00  0.00000000000E+00  0.14999999963E+04  0.15000000000E+04  0.10566000000E+00 0. -1.
        994   -1    0    0    0    0 -0.00000000000E+00 -0.00000000000E+00  0.11368683772E-12  0.17120000000E+03  0.17120000000E+03 0.  0.
         13    1    1    2    0    0 -0.16124960836E+02  0.28830196700E+02  0.16821458818E+03  0.17142739992E+03  0.10566000000E+00 0. -1.
        994    1    1    2    0    0  0.49018946553E+02 -0.84811091790E+02  0.33745679403E+02  0.20010994301E+03  0.17120000000E+03 0.  0.
        998    1    1    2    0    0 -0.32893985717E+02  0.55980895090E+02  0.12980397287E+04  0.12996626571E+04  0.10000000000E+00 0. -1.
</event>
<event>
 5    1  0.2022058E-009  0.3881413E+03  0.7957747E-01  0.3416458E+00
         13   -1    0    0    0    0  0.00000000000E+00  0.00000000000E+00  0.14999999963E+04  0.15000000000E+04  0.10566000000E+00 0. -1.
        994   -1    0    0    0    0 -0.00000000000E+00 -0.00000000000E+00  0.11368683772E-12  0.17120000000E+03  0.17120000000E+03 0.  0.
         13    1    1    2    0    0 -0.30832137045E+01 -0.20729372370E+03  0.10907283994E+04  0.11102561176E+04  0.10566000000E+00 0. -1.
        994    1    1    2    0    0 -0.18520640093E+01  0.24484715267E+03  0.22819078906E+03  0.37594419071E+03  0.17120000000E+03 0.  0.
        998    1    1    2    0    0  0.49352777137E+01 -0.37553428971E+02  0.18108080778E+03  0.18499969173E+03  0.10000000000E+00 0.  1.
</event>
<event>
 5    1  0.2022058E-009  0.3826844E+03  0.7957747E-01  0.3439553E+00
         13   -1    0    0    0    0  0.00000000000E+00  0.00000000000E+00  0.14999999963E+04  0.15000000000E+04  0.10566000000E+00 0.  1.
        994   -1    0    0    0    0 -0.00000000000E+00 -0.00000000000E+00  0.11368683772E-12  0.17120000000E+03  0.17120000000E+03 0.  0.
         13    1    1    2    0    0 -0.17314237534E+01 -0.21120948646E+02  0.10936071948E+03  0.11139510954E+03  0.10566000000E+00 0.  1.
        994    1    1    2    0    0  0.68574343812E+02 -0.34050113474E+02  0.22456659971E+02  0.18887983596E+03  0.17120000000E+03 0.  0.
        998    1    1    2    0    0 -0.66842920059E+02  0.55171062121E+02  0.13681826168E+04  0.13709250545E+04  0.10000000000E+00 0.  1.
</event>
<event>
 5    1  0.2022058E-009  0.3740630E+03  0.7957747E-01  0.3477424E+00
         13   -1    0    0    0    0  0.00000000000E+00  0.00000000000E+00  0.14999999963E+04  0.15000000000E+04  0.10566000000E+00 0.  1.
        994   -1    0    0    0    0 -0.00000000000E+00 -0.00000000000E+00  0.11368683772E-12  0.17120000000E+03  0.17120000000E+03 0.  0.
         13    1    1    2    0    0 -0.81367284931E+01  0.16536483475E+02  0.25756550904E+02  0.31671323225E+02  0.10566000000E+00 0.  1.
        994    1    1    2    0    0 -0.64966279361E+02  0.59400987607E+02  0.34063384038E+02  0.19549641663E+03  0.17120000000E+03 0.  0.
        998    1    1    2    0    0  0.73103007854E+02 -0.75937471082E+02  0.14401800613E+04  0.14440322601E+04  0.10000000000E+00 0.  1.
</event>
<event>
 5    1  0.2022058E-009  0.3882706E+03  0.7957747E-01  0.3415919E+00
         13   -1    0    0    0    0  0.00000000000E+00  0.00000000000E+00  0.14999999963E+04  0.15000000000E+04  0.10566000000E+00 0.  1.
        994   -1    0    0    0    0 -0.00000000000E+00 -0.00000000000E+00  0.11368683772E-12  0.17120000000E+03  0.17120000000E+03 0.  0.
         13    1    1    2    0    0  0.21555771793E+03 -0.82295307413E+01  0.11981921343E+04  0.12174552381E+04  0.10566000000E+00 0.  1.
        994    1    1    2    0    0 -0.23398992405E+03  0.72703653820E+01  0.20491826541E+03  0.35511276839E+03  0.17120000000E+03 0.  0.
        998    1    1    2    0    0  0.18432206116E+02  0.95916535926E+00  0.96889596582E+02  0.98631993523E+02  0.10000000000E+00 0.  1.
</event>
<event>
 5    1  0.2022058E-009  0.3882974E+03  0.7957747E-01  0.3415807E+00
         13   -1    0    0    0    0  0.00000000000E+00  0.00000000000E+00  0.14999999963E+04  0.15000000000E+04  0.10566000000E+00 0.  1.
        994   -1    0    0    0    0 -0.00000000000E+00 -0.00000000000E+00  0.11368683772E-12  0.17120000000E+03  0.17120000000E+03 0.  0.
         13    1    1    2    0    0  0.15405831230E+03  0.14467396037E+03  0.69152975986E+03  0.72310299289E+03  0.10566000000E+00 0.  1.
        994    1    1    2    0    0 -0.23235885627E+03 -0.21614183173E+03  0.46370461860E+03  0.58740049610E+03  0.17120000000E+03 0.  0.
        998    1    1    2    0    0  0.78300543967E+02  0.71467871356E+02  0.34476561782E+03  0.36069651101E+03  0.10000000000E+00 0. -1.
</event>
<event>
 5    1  0.2022058E-009  0.3882768E+03  0.7957747E-01  0.3415893E+00
         13   -1    0    0    0    0  0.00000000000E+00  0.00000000000E+00  0.14999999963E+04  0.15000000000E+04  0.10566000000E+00 0.  1.
        994   -1    0    0    0    0 -0.00000000000E+00 -0.00000000000E+00  0.11368683772E-12  0.17120000000E+03  0.17120000000E+03 0.  0.
         13    1    1    2    0    0  0.91409454429E+02 -0.19775063541E+03  0.13034488498E+04  0.13215293857E+04  0.10566000000E+00 0.  1.
        994    1    1    2    0    0 -0.93243777601E+02  0.20008593688E+03  0.17880339457E+03  0.33167586301E+03  0.17120000000E+03 0.  0.
        998    1    1    2    0    0  0.18343231717E+01 -0.23353014729E+01  0.17747751943E+02  0.17994751277E+02  0.10000000000E+00 0. -1.
</event>
<event>
 5    1  0.2022058E-009  0.3882817E+03  0.7957747E-01  0.3415872E+00
         13   -1    0    0    0    0  0.00000000000E+00  0.00000000000E+00  0.14999999963E+04  0.15000000000E+04  0.10566000000E+00 0. -1.
        994   -1    0    0    0    0 -0.00000000000E+00 -0.00000000000E+00  0.11368683772E-12  0.17120000000E+03  0.17120000000E+03 0.  0.
         13    1    1    2    0    0  0.23214875994E+03  0.11041740680E+03  0.12213891627E+04  0.12481492492E+04  0.10566000000E+00 0. -1.
        994    1    1    2    0    0 -0.23522653221E+03 -0.11180156874E+03  0.26523564346E+03  0.40925603086E+03  0.17120000000E+03 0.  0.
        998    1    1    2    0    0  0.30777722708E+01  0.13841619427E+01  0.13375190132E+02  0.13794719914E+02  0.10000000000E+00 0. -1.
</event>
<event>
 5    1  0.5498461E-009  0.3882634E+03  0.7957747E-01  0.3415949E+00
         13   -1    0    0    0    0  0.00000000000E+00  0.00000000000E+00  0.14999999963E+04  0.15000000000E+04  0.10566000000E+00 0.  1.
        994   -1    0    0    0    0 -0.00000000000E+00 -0.00000000000E+00  0.11368683772E-12  0.17120000000E+03  0.17120000000E+03 0.  0.
         13    1    1    2    0    0 -0.33112541887E+03 -0.10738517543E+03  0.71670536582E+03  0.79676986105E+03  0.10566000000E+00 0.  1.
        994    1    1    2    0    0  0.33144935866E+03  0.10754624897E+03  0.78188025172E+03  0.87296680409E+03  0.17120000000E+03 0.  0.
        998    1    1    2    0    0 -0.32393979074E+00 -0.16107353609E+00  0.14143787441E+01  0.14633348571E+01  0.10000000000E+00 0.  1.
</event>
<event>
 5    1  0.2022058E-009  0.3853813E+03  0.7957747E-01  0.3428057E+00
         13   -1    0    0    0    0  0.00000000000E+00  0.00000000000E+00  0.14999999963E+04  0.15000000000E+04  0.10566000000E+00 0.  1.
        994   -1    0    0    0    0 -0.00000000000E+00 -0.00000000000E+00  0.11368683772E-12  0.17120000000E+03  0.17120000000E+03 0.  0.
         13    1    1    2    0    0 -0.13639480613E+03 -0.10704192151E+03  0.66690645526E+03  0.68907600984E+03  0.10566000000E+00 0.  1.
        994    1    1    2    0    0  0.23622835281E+03  0.13402847251E+03  0.30104991817E+03  0.44012266397E+03  0.17120000000E+03 0.  0.
        998    1    1    2    0    0 -0.99833546675E+02 -0.26986551001E+02  0.53204362285E+03  0.54200132619E+03  0.10000000000E+00 0.  1.
</event>
<event>
 5    1  0.2022058E-009  0.3867758E+03  0.7957747E-01  0.3422176E+00
         13   -1    0    0    0    0  0.00000000000E+00  0.00000000000E+00  0.14999999963E+04  0.15000000000E+04  0.10566000000E+00 0.  1.
        994   -1    0    0    0    0 -0.00000000000E+00 -0.00000000000E+00  0.11368683772E-12  0.17120000000E+03  0.17120000000E+03 0.  0.
         13    1    1    2    0    0 -0.25846754805E+03  0.70540271679E+02  0.77307294230E+03  0.81818285768E+03  0.10566000000E+00 0.  1.
        994    1    1    2    0    0  0.32048458449E+03 -0.65191424594E+02  0.52555952956E+03  0.64224804386E+03  0.17120000000E+03 0.  0.
        998    1    1    2    0    0 -0.62017036440E+02 -0.53488470856E+01  0.20136752441E+03  0.21076909845E+03  0.10000000000E+00 0. -1.
</event>
<event>
 5    1  0.2022058E-009  0.3877321E+03  0.7957747E-01  0.3418167E+00
         13   -1    0    0    0    0  0.00000000000E+00  0.00000000000E+00  0.14999999963E+04  0.15000000000E+04  0.10566000000E+00 0.  1.
        994   -1    0    0    0    0 -0.00000000000E+00 -0.00000000000E+00  0.11368683772E-12  0.17120000000E+03  0.17120000000E+03 0.  0.
         13    1    1    2    0    0 -0.39167980511E+01  0.24364198096E+03  0.10829868400E+04  0.11100618285E+04  0.10566000000E+00 0.  1.
        994    1    1    2    0    0  0.54723802546E+01 -0.26457884004E+03  0.27714506903E+03  0.41970315561E+03  0.17120000000E+03 0.  0.
        998    1    1    2    0    0 -0.15555822035E+01  0.20936859080E+02  0.13986808720E+03  0.14143501590E+03  0.10000000000E+00 0. -1.
</event>
<event>
 5    1  0.2022058E-009  0.3883004E+03  0.7957747E-01  0.3415794E+00
         13   -1    0    0    0    0  0.00000000000E+00  0.00000000000E+00  0.14999999963E+04  0.15000000000E+04  0.10566000000E+00 0.  1.
        994   -1    0    0    0    0 -0.00000000000E+00 -0.00000000000E+00  0.11368683772E-12  0.17120000000E+03  0.17120000000E+03 0.  0.
         13    1    1    2    0    0  0.99304894761E+02 -0.10343943682E+03  0.84111926141E+03  0.85325424247E+03  0.10566000000E+00 0.  1.
        994    1    1    2    0    0 -0.15517370202E+03  0.16111855135E+03  0.18430471758E+03  0.33662402515E+03  0.17120000000E+03 0.  0.
        998    1    1    2    0    0  0.55868807255E+02 -0.57679114523E+02  0.47457601729E+03  0.48132173238E+03  0.10000000000E+00 0. -1.
</event>
<event>
 5    1  0.2022058E-009  0.3882646E+03  0.7957747E-01  0.3415944E+00
         13   -1    0    0    0    0  0.00000000000E+00  0.00000000000E+00  0.14999999963E+04  0.15000000000E+04  0.10566000000E+00 0. -1.
        994   -1    0    0    0    0 -0.00000000000E+00 -0.00000000000E+00  0.11368683772E-12  0.17120000000E+03  0.17120000000E+03 0.  0.
         13    1    1    2    0    0  0.13427477114E+03  0.17517705941E+03  0.13168925793E+04  0.13352613201E+04  0.10566000000E+00 0. -1.
        994    1    1    2    0    0 -0.13487892434E+03 -0.17569235839E+03  0.18021352178E+03  0.33293615373E+03  0.17120000000E+03 0.  0.
        998    1    1    2    0    0  0.60415320044E+00  0.51529897424E+00  0.28938951765E+01  0.30025261723E+01  0.10000000000E+00 0.  1.
</event>
<event>
 5    1  0.2022058E-009  0.3882846E+03  0.7957747E-01  0.3415860E+00
         13   -1    0    0    0    0  0.00000000000E+00  0.00000000000E+00  0.14999999963E+04  0.15000000000E+04  0.10566000000E+00 0. -1.
        994   -1    0    0    0    0 -0.00000000000E+00 -0.00000000000E+00  0.11368683772E-12  0.17120000000E+03  0.17120000000E+03 0.  0.
         13    1    1    2    0    0 -0.28895782498E+02  0.22370877399E+03  0.12920559668E+04  0.13115979621E+04  0.10566000000E+00 0. -1.
        994    1    1    2    0    0  0.29275077309E+02 -0.22589405853E+03  0.19221421346E+03  0.34371630699E+03  0.17120000000E+03 0.  0.
        998    1    1    2    0    0 -0.37929481087E+00  0.21852845483E+01  0.15729816043E+02  0.15885730888E+02  0.10000000000E+00 0. -1.
</event>
<event>
 5    1  0.2022058E-009  0.3858717E+03  0.7957747E-01  0.3425983E+00
         13   -1    0    0    0    0  0.00000000000E+00  0.00000000000E+00  0.14999999963E+04  0.15000000000E+04  0.10566000000E+00 0.  1.
        994   -1    0    0    0    0 -0.00000000000E+00 -0.00000000000E+00  0.11368683772E-12  0.17120000000E+03  0.17120000000E+03 0.  0.
         13    1    1    2    0    0  0.93687801737E+02  0.12620960617E+03  0.83880245417E+03  0.85340250595E+03  0.10566000000E+00 0.  1.
        994    1    1    2    0    0 -0.11634738629E+03 -0.16984427986E+03  0.15533595470E+03  0.30955208370E+03  0.17120000000E+03 0.  0.
        998    1    1    2    0    0  0.22659584556E+02  0.43634673696E+02  0.50586158741E+03  0.50824541035E+03  0.10000000000E+00 0. -1.
</event>
<event>
 5    1  0.2022058E-009  0.3883007E+03  0.7957747E-01  0.3415793E+00
         13   -1    0    0    0    0  0.00000000000E+00  0.00000000000E+00  0.14999999963E+04  0.15000000000E+04  0.10566000000E+00 0.  1.
        994   -1    0    0    0    0 -0.00000000000E+00 -0.00000000000E+00  0.11368683772E-12  0.17120000000E+03  0.17120000000E+03 0.  0.
         13    1    1    2    0    0  0.63509743700E+02  0.53238928963E+02  0.25486946130E+03  0.26800433685E+03  0.10566000000E+00 0.  1.
        994    1    1    2    0    0 -0.24926927711E+03 -0.20816926765E+03  0.50360703965E+03  0.62321674150E+03  0.17120000000E+03 0.  0.
        998    1    1    2    0    0  0.18575953341E+03  0.15493033868E+03  0.74152349532E+03  0.77997892164E+03  0.10000000000E+00 0.  1.
</event>
<event>
 5    1  0.2022058E-009  0.3877633E+03  0.7957747E-01  0.3418037E+00
         13   -1    0    0    0    0  0.00000000000E+00  0.00000000000E+00  0.14999999963E+04  0.15000000000E+04  0.10566000000E+00 0.  1.
        994   -1    0    0    0    0 -0.00000000000E+00 -0.00000000000E+00  0.11368683772E-12  0.17120000000E+03  0.17120000000E+03 0.  0.
         13    1    1    2    0    0  0.21134294553E+03 -0.18961315912E+01  0.94486186362E+03  0.96821143787E+03  0.10566000000E+00 0.  1.
        994    1    1    2    0    0 -0.26461698508E+03  0.15066081776E+02  0.27817899077E+03  0.42064489361E+03  0.17120000000E+03 0.  0.
        998    1    1    2    0    0  0.53274039552E+02 -0.13169950185E+02  0.27695914188E+03  0.28234366852E+03  0.10000000000E+00 0.  1.
</event>
<event>
 5    1  0.2022058E-009  0.3882989E+03  0.7957747E-01  0.3415800E+00
         13   -1    0    0    0    0  0.00000000000E+00  0.00000000000E+00  0.14999999963E+04  0.15000000000E+04  0.10566000000E+00 0. -1.
        994   -1    0    0    0    0 -0.00000000000E+00 -0.00000000000E+00  0.11368683772E-12  0.17120000000E+03  0.17120000000E+03 0.  0.
         13    1    1    2    0    0  0.13239547985E+03  0.18688669632E+03  0.10743510729E+04  0.10984923484E+04  0.10566000000E+00 0. -1.
        994    1    1    2    0    0 -0.15149704377E+03 -0.21449268735E+03  0.27075485460E+03  0.41421745314E+03  0.17120000000E+03 0.  0.
        998    1    1    2    0    0  0.19101563918E+02  0.27605991033E+02  0.15489406873E+03  0.15849019848E+03  0.10000000000E+00 0.  1.
</event>
<event>
 5    1  0.2022058E-009  0.3882655E+03  0.7957747E-01  0.3415940E+00
         13   -1    0    0    0    0  0.00000000000E+00  0.00000000000E+00  0.14999999963E+04  0.15000000000E+04  0.10566000000E+00 0. -1.
        994   -1    0    0    0    0 -0.00000000000E+00 -0.00000000000E+00  0.11368683772E-12  0.17120000000E+03  0.17120000000E+03 0.  0.
         13    1    1    2    0    0 -0.43680823861E+02 -0.23257444031E+03  0.12301909026E+04  0.12527444083E+04  0.10566000000E+00 0. -1.
        994    1    1    2    0    0  0.43858482870E+02  0.24050460245E+03  0.22714540631E+03  0.37506066966E+03  0.17120000000E+03 0.  0.
        998    1    1    2    0    0 -0.17765900892E+00 -0.79301621379E+01  0.42663687405E+02  0.43394922021E+02  0.10000000000E+00 0. -1.
</event>
<event>
 5    1  0.2022058E-009  0.3878748E+03  0.7957747E-01  0.3417571E+00
         13   -1    0    0    0    0  0.00000000000E+00  0.00000000000E+00  0.14999999963E+04  0.15000000000E+04  0.10566000000E+00 0.  1.
        994   -1    0    0    0    0 -0.00000000000E+00 -0.00000000000E+00  0.11368683772E-12  0.17120000000E+03  0.17120000000E+03 0.  0.
         13    1    1    2    0    0 -0.79657119733E+02 -0.11815829051E+03  0.84497680792E+03  0.85690866224E+03  0.10566000000E+00 0.  1.
        994    1    1    2    0    0  0.10642962835E+03  0.18717801942E+03  0.16940776756E+03  0.32306548632E+03  0.17120000000E+03 0.  0.
        998    1    1    2    0    0 -0.26772508622E+02 -0.69019728907E+02  0.48561542080E+03  0.49122585143E+03  0.10000000000E+00 0.  1.
</event>
<event>
 5    1  0.2022058E-009  0.3883006E+03  0.7957747E-01  0.3415793E+00
         13   -1    0    0    0    0  0.00000000000E+00  0.00000000000E+00  0.14999999963E+04  0.15000000000E+04  0.10566000000E+00 0.  1.
        994   -1    0    0    0    0 -0.00000000000E+00 -0.00000000000E+00  0.11368683772E-12  0.17120000000E+03  0.17120000000E+03 0.  0.
         13    1    1    2    0    0 -0.10785337752E+03 -0.27959316358E+03  0.10393987679E+04  0.10817367970E+04  0.10566000000E+00 0.  1.
        994    1    1    2    0    0  0.11140234011E+03  0.28872266907E+03  0.42690598168E+03  0.55437299556E+03  0.17120000000E+03 0.  0.
        998    1    1    2    0    0 -0.35489625960E+01 -0.91295054858E+01  0.33695246753E+02  0.35090207461E+02  0.10000000000E+00 0.  0.
</event>
<event>
 5    1  0.2022058E-009  0.3883008E+03  0.7957747E-01  0.3415793E+00
         13   -1    0    0    0    0  0.00000000000E+00  0.00000000000E+00  0.14999999963E+04  0.15000000000E+04  0.10566000000E+00 0. -1.
        994   -1    0    0    0    0 -0.00000000000E+00 -0.00000000000E+00  0.11368683772E-12  0.17120000000E+03  0.17120000000E+03 0.  0.
         13    1    1    2    0    0 -0.10091120348E+02 -0.58077491137E+02  0.31360561008E+03  0.31909765828E+03  0.10566000000E+00 0. -1.
        994    1    1    2    0    0  0.41155538842E+02  0.23786831832E+03  0.22032600741E+03  0.36895542384E+03  0.17120000000E+03 0.  0.
        998    1    1    2    0    0 -0.31064418494E+02 -0.17979082718E+03  0.96606837879E+03  0.98314691788E+03  0.10000000000E+00 0. -1.
</event>
<event>
 5    1  0.2022058E-009  0.3882788E+03  0.7957747E-01  0.3415884E+00
         13   -1    0    0    0    0  0.00000000000E+00  0.00000000000E+00  0.14999999963E+04  0.15000000000E+04  0.10566000000E+00 0.  1.
        994   -1    0    0    0    0 -0.00000000000E+00 -0.00000000000E+00  0.11368683772E-12  0.17120000000E+03  0.17120000000E+03 0.  0.
         13    1    1    2    0    0 -0.11597602750E+03 -0.20948237909E+03  0.93830615671E+03  0.96837583664E+03  0.10566000000E+00 0.  1.
        994    1    1    2    0    0  0.14352244164E+03  0.25374330454E+03  0.35731981836E+03  0.49190573126E+03  0.17120000000E+03 0.  0.
        998    1    1    2    0    0 -0.27546414141E+02 -0.44260925449E+02  0.20437402121E+03  0.21091843210E+03  0.10000000000E+00 0.  1.
</event>
<event>
 5    1  0.2022058E-009  0.3883007E+03  0.7957747E-01  0.3415793E+00
         13   -1    0    0    0    0  0.00000000000E+00  0.00000000000E+00  0.14999999963E+04  0.15000000000E+04  0.10566000000E+00 0.  1.
        994   -1    0    0    0    0 -0.00000000000E+00 -0.00000000000E+00  0.11368683772E-12  0.17120000000E+03  0.17120000000E+03 0.  0.
         13    1    1    2    0    0  0.42402822902E+02  0.12881189618E+03  0.59473140070E+03  0.60999668371E+03  0.10566000000E+00 0.  1.
        994    1    1    2    0    0 -0.84944139342E+02 -0.25995138396E+03  0.30046206747E+03  0.44088220969E+03  0.17120000000E+03 0.  0.
        998    1    1    2    0    0  0.42541316440E+02  0.13113948778E+03  0.60480652811E+03  0.62032110661E+03  0.10000000000E+00 0. -1.
</event>
<event>
 5    1  0.2022058E-009  0.3882980E+03  0.7957747E-01  0.3415804E+00
         13   -1    0    0    0    0  0.00000000000E+00  0.00000000000E+00  0.14999999963E+04  0.15000000000E+04  0.10566000000E+00 0.  1.
        994   -1    0    0    0    0 -0.00000000000E+00 -0.00000000000E+00  0.11368683772E-12  0.17120000000E+03  0.17120000000E+03 0.  0.
         13    1    1    2    0    0 -0.47752145888E+02 -0.16843983848E+03  0.93859240337E+03  0.95478162815E+03  0.10566000000E+00 0.  1.
        994    1    1    2    0    0  0.65293204415E+02  0.23132875964E+03  0.21808368706E+03  0.36694159227E+03  0.17120000000E+03 0.  0.
        998    1    1    2    0    0 -0.17541058528E+02 -0.62888921156E+02  0.34332390585E+03  0.34947677958E+03  0.10000000000E+00 0.  1.
</event>
<event>
 5    1  0.2022058E-009  0.3882990E+03  0.7957747E-01  0.3415800E+00
         13   -1    0    0    0    0  0.00000000000E+00  0.00000000000E+00  0.14999999963E+04  0.15000000000E+04  0.10566000000E+00 0.  1.
        994   -1    0    0    0    0 -0.00000000000E+00 -0.00000000000E+00  0.11368683772E-12  0.17120000000E+03  0.17120000000E+03 0.  0.
         13    1    1    2    0    0 -0.89020964357E+02 -0.22967595427E+03  0.12256633329E+04  0.12501705455E+04  0.10566000000E+00 0.  1.
        994    1    1    2    0    0  0.91327862142E+02  0.23526494749E+03  0.24530580797E+03  0.39137546339E+03  0.17120000000E+03 0.  0.
        998    1    1    2    0    0 -0.23068977842E+01 -0.55889932233E+01  0.29030855370E+02  0.29653991066E+02  0.10000000000E+00 0. -1.
</event>
<event>
 5    1  0.2022058E-009  0.3883006E+03  0.7957747E-01  0.3415793E+00
         13   -1    0    0    0    0  0.00000000000E+00  0.00000000000E+00  0.14999999963E+04  0.15000000000E+04  0.10566000000E+00 0.  1.
        994   -1    0    0    0    0 -0.00000000000E+00 -0.00000000000E+00  0.11368683772E-12  0.17120000000E+03  0.17120000000E+03 0.  0.
         13    1    1    2    0    0  0.21619246506E+03 -0.16345307413E+03  0.11524654488E+04  0.11839057020E+04  0.10566000000E+00 0.  1.
        994    1    1    2    0    0 -0.22225729137E+03  0.16797493194E+03  0.31551489568E+03  0.45439296949E+03  0.17120000000E+03 0.  0.
        998    1    1    2    0    0  0.60648263090E+01 -0.45218578135E+01  0.32019651781E+02  0.32901328490E+02  0.10000000000E+00 0.  0.
</event>
<event>
 5    1  0.2022058E-009  0.3882759E+03  0.7957747E-01  0.3415896E+00
         13   -1    0    0    0    0  0.00000000000E+00  0.00000000000E+00  0.14999999963E+04  0.15000000000E+04  0.10566000000E+00 0. -1.
        994   -1    0    0    0    0 -0.00000000000E+00 -0.00000000000E+00  0.11368683772E-12  0.17120000000E+03  0.17120000000E+03 0.  0.
         13    1    1    2    0    0 -0.16285425995E+03 -0.16877853533E+03  0.11598074838E+04  0.11832840380E+04  0.10566000000E+00 0. -1.
        994    1    1    2    0    0  0.17704318501E+03  0.18264473100E+03  0.25014462214E+03  0.39570842688E+03  0.17120000000E+03 0.  0.
        998    1    1    2    0    0 -0.14188925059E+02 -0.13866195667E+02  0.90047890320E+02  0.92207535092E+02  0.10000000000E+00 0.  1.
</event>
<event>
 5    1  0.2022058E-009  0.3881679E+03  0.7957747E-01  0.3416347E+00
         13   -1    0    0    0    0  0.00000000000E+00  0.00000000000E+00  0.14999999963E+04  0.15000000000E+04  0.10566000000E+00 0. -1.
        994   -1    0    0    0    0 -0.00000000000E+00 -0.00000000000E+00  0.11368683772E-12  0.17120000000E+03  0.17120000000E+03 0.  0.
         13    1    1    2    0    0 -0.13917527953E+03 -0.24686681746E+03  0.89273377024E+03  0.93663577750E+03  0.10566000000E+00 0. -1.
        994    1    1    2    0    0  0.15334941331E+03  0.28198025596E+03  0.48309238713E+03  0.60474507176E+03  0.17120000000E+03 0.  0.
        998    1    1    2    0    0 -0.14174133775E+02 -0.35113438491E+02  0.12417383891E+03  0.12981915075E+03  0.10000000000E+00 0. -1.
</event>
<event>
 5    1  0.2022058E-009  0.3882971E+03  0.7957747E-01  0.3415808E+00
         13   -1    0    0    0    0  0.00000000000E+00  0.00000000000E+00  0.14999999963E+04  0.15000000000E+04  0.10566000000E+00 0.  1.
        994   -1    0    0    0    0 -0.00000000000E+00 -0.00000000000E+00  0.11368683772E-12  0.17120000000E+03  0.17120000000E+03 0.  0.
         13    1    1    2    0    0  0.54642170505E+02 -0.21997804792E+03  0.13030501217E+04  0.13226170040E+04  0.10566000000E+00 0.  1.
        994    1    1    2    0    0 -0.54792304970E+02  0.22092721763E+03  0.19187937142E+03  0.34342126514E+03  0.17120000000E+03 0.  0.
        998    1    1    2    0    0  0.15013446522E+00 -0.94916970656E+00  0.50705031736E+01  0.51617309038E+01  0.10000000000E+00 0.  1.
</event>
<event>
 5    1  0.2022058E-009  0.3882619E+03  0.7957747E-01  0.3415955E+00
         13   -1    0    0    0    0  0.00000000000E+00  0.00000000000E+00  0.14999999963E+04  0.15000000000E+04  0.10566000000E+00 0. -1.
        994   -1    0    0    0    0 -0.00000000000E+00 -0.00000000000E+00  0.11368683772E-12  0.17120000000E+03  0.17120000000E+03 0.  0.
         13    1    1    2    0    0  0.55154173212E+02  0.10122356578E+03  0.67339367485E+03  0.68318902625E+03  0.10566000000E+00 0. -1.
        994    1    1    2    0    0 -0.11250322090E+03 -0.19220052315E+03  0.18248844282E+03  0.33497684633E+03  0.17120000000E+03 0.  0.
        998    1    1    2    0    0  0.57349047688E+02  0.90976957373E+02  0.64411787861E+03  0.65303412743E+03  0.10000000000E+00 0. -1.
</event>
<event>
 5    1  0.2022058E-009  0.3870995E+03  0.7957747E-01  0.3420816E+00
         13   -1    0    0    0    0  0.00000000000E+00  0.00000000000E+00  0.14999999963E+04  0.15000000000E+04  0.10566000000E+00 0. -1.
        994   -1    0    0    0    0 -0.00000000000E+00 -0.00000000000E+00  0.11368683772E-12  0.17120000000E+03  0.17120000000E+03 0.  0.
         13    1    1    2    0    0 -0.23875771699E+03 -0.55882354421E+02  0.80882639581E+03  0.84517940976E+03  0.10566000000E+00 0. -1.
        994    1    1    2    0    0  0.30513407204E+03  0.92456800942E+02  0.47638179317E+03  0.59825087950E+03  0.17120000000E+03 0.  0.
        998    1    1    2    0    0 -0.66376355049E+02 -0.36574446521E+02  0.21479180729E+03  0.22776971074E+03  0.10000000000E+00 0.  1.
</event>
<event>
 5    1  0.2022058E-009  0.3882972E+03  0.7957747E-01  0.3415808E+00
         13   -1    0    0    0    0  0.00000000000E+00  0.00000000000E+00  0.14999999963E+04  0.15000000000E+04  0.10566000000E+00 0. -1.
        994   -1    0    0    0    0 -0.00000000000E+00 -0.00000000000E+00  0.11368683772E-12  0.17120000000E+03  0.17120000000E+03 0.  0.
         13    1    1    2    0    0  0.22014733509E+03  0.17916062165E+03  0.92860501368E+03  0.97101527285E+03  0.10566000000E+00 0. -1.
        994    1    1    2    0    0 -0.24542091293E+03 -0.20041929290E+03  0.46128526890E+03  0.58522889263E+03  0.17120000000E+03 0.  0.
        998    1    1    2    0    0  0.25273577838E+02  0.21258671250E+02  0.11010971370E+03  0.11495583452E+03  0.10000000000E+00 0. -1.
</event>
<event>
 5    1  0.2022058E-009  0.3866243E+03  0.7957747E-01  0.3422812E+00
         13   -1    0    0    0    0  0.00000000000E+00  0.00000000000E+00  0.14999999963E+04  0.15000000000E+04  0.10566000000E+00 0. -1.
        994   -1    0    0    0    0 -0.00000000000E+00 -0.00000000000E+00  0.11368683772E-12  0.17120000000E+03  0.17120000000E+03 0.  0.
         13    1    1    2    0    0 -0.12610619864E+02  0.14161249784E+02  0.82452110058E+02  0.84604552749E+02  0.10566000000E+00 0. -1.
        994    1    1    2    0    0  0.11095194418E+03 -0.74775096344E+02  0.61750388109E+02  0.22588536779E+03  0.17120000000E+03 0.  0.
        998    1    1    2    0    0 -0.98341324312E+02  0.60613846561E+02  0.13557974981E+04  0.13607100795E+04  0.10000000000E+00 0. -1.
</event>
<event>
 5    1  0.2022058E-009  0.3882257E+03  0.7957747E-01  0.3416106E+00
         13   -1    0    0    0    0  0.00000000000E+00  0.00000000000E+00  0.14999999963E+04  0.15000000000E+04  0.10566000000E+00 0. -1.
        994   -1    0    0    0    0 -0.00000000000E+00 -0.00000000000E+00  0.11368683772E-12  0.17120000000E+03  0.17120000000E+03 0.  0.
         13    1    1    2    0    0  0.60469421557E+01  0.21334146850E+03  0.12638660208E+04  0.12817599141E+04  0.10566000000E+00 0. -1.
        994    1    1    2    0    0 -0.52364831075E+01 -0.22095221381E+03  0.17936503605E+03  0.33215742909E+03  0.17120000000E+03 0.  0.
        998    1    1    2    0    0 -0.81045904815E+00  0.76107453056E+01  0.56768939415E+02  0.57282656801E+02  0.10000000000E+00 0.  1.
</event>
<event>
 5    1  0.2022058E-009  0.3881692E+03  0.7957747E-01  0.3416342E+00
         13   -1    0    0    0    0  0.00000000000E+00  0.00000000000E+00  0.14999999963E+04  0.15000000000E+04  0.10566000000E+00 0.  1.
        994   -1    0    0    0    0 -0.00000000000E+00 -0.00000000000E+00  0.11368683772E-12  0.17120000000E+03  0.17120000000E+03 0.  0.
         13    1    1    2    0    0  0.25254102631E+03  0.89410381230E+02  0.12081290134E+04  0.12374760242E+04  0.10566000000E+00 0.  1.
        994    1    1    2    0    0 -0.25309848475E+03 -0.89100778661E+02  0.28627066871E+03  0.42808658880E+03  0.17120000000E+03 0.  0.
        998    1    1    2    0    0  0.55745844538E+00 -0.30960256850E+00  0.56003141250E+01  0.56373869804E+01  0.10000000000E+00 0. -1.
</event>
<event>
 5    1  0.2022058E-009  0.3882502E+03  0.7957747E-01  0.3416004E+00
         13   -1    0    0    0    0  0.00000000000E+00  0.00000000000E+00  0.14999999963E+04  0.15000000000E+04  0.10566000000E+00 0. -1.
        994   -1    0    0    0    0 -0.00000000000E+00 -0.00000000000E+00  0.11368683772E-12  0.17120000000E+03  0.17120000000E+03 0.  0.
         13    1    1    2    0    0 -0.15484668866E+03  0.20478218988E+03  0.11657436575E+04  0.11936798266E+04  0.10566000000E+00 0. -1.
        994    1    1    2    0    0  0.16282837727E+03 -0.21238046910E+03  0.28418386076E+03  0.42624928248E+03  0.17120000000E+03 0.  0.
        998    1    1    2    0    0 -0.79816886020E+01  0.75982792241E+01  0.50072477994E+02  0.51270890889E+02  0.10000000000E+00 0.  1.
</event>
<event>
 5    1  0.2022058E-009  0.3883007E+03  0.7957747E-01  0.3415793E+00
         13   -1    0    0    0    0  0.00000000000E+00  0.00000000000E+00  0.14999999963E+04  0.15000000000E+04  0.10566000000E+00 0.  1.
        994   -1    0    0    0    0 -0.00000000000E+00 -0.00000000000E+00  0.11368683772E-12  0.17120000000E+03  0.17120000000E+03 0.  0.
         13    1    1    2    0    0  0.12807565070E+03 -0.97691592050E+02  0.94388813333E+03  0.95753424944E+03  0.10566000000E+00 0.  1.
        994    1    1    2    0    0 -0.17868148732E+03  0.13583335123E+03  0.18574750760E+03  0.33791914684E+03  0.17120000000E+03 0.  0.
        998    1    1    2    0    0  0.50605836620E+02 -0.38141759181E+02  0.37036435535E+03  0.37574660372E+03  0.10000000000E+00 0.  1.
</event>
<event>
 5    1  0.2022058E-009  0.3881582E+03  0.7957747E-01  0.3416387E+00
         13   -1    0    0    0    0  0.00000000000E+00  0.00000000000E+00  0.14999999963E+04  0.15000000000E+04  0.10566000000E+00 0.  1.
        994   -1    0    0    0    0 -0.00000000000E+00 -0.00000000000E+00  0.11368683772E-12  0.17120000000E+03  0.17120000000E+03 0.  0.
         13    1    1    2    0    0 -0.23515828182E+03 -0.15673244508E+03  0.11363963602E+04  0.11710086146E+04  0.10566000000E+00 0.  1.
        994    1    1    2    0    0  0.24008196760E+03  0.15773653320E+03  0.34321821333E+03  0.47919552068E+03  0.17120000000E+03 0.  0.
        998    1    1    2    0    0 -0.49236857816E+01 -0.10040881279E+01  0.20385422723E+02  0.20995864694E+02  0.10000000000E+00 0.  1.
</event>
<event>
 5    1  0.2022058E-009  0.3883009E+03  0.7957747E-01  0.3415792E+00
         13   -1    0    0    0    0  0.00000000000E+00  0.00000000000E+00  0.14999999963E+04  0.15000000000E+04  0.10566000000E+00 0. -1.
        994   -1    0    0    0    0 -0.00000000000E+00 -0.00000000000E+00  0.11368683772E-12  0.17120000000E+03  0.17120000000E+03 0.  0.
         13    1    1    2    0    0 -0.13101280906E+03  0.65880730317E+02  0.86315472879E+03  0.87552311435E+03  0.10566000000E+00 0. -1.
        994    1    1    2    0    0  0.19956248787E+03 -0.10055198267E+03  0.18387066404E+03  0.33623466341E+03  0.17120000000E+03 0.  0.
        998    1    1    2    0    0 -0.68549678812E+02  0.34671252354E+02  0.45297460345E+03  0.45944222224E+03  0.10000000000E+00 0. -1.
</event>
<event>
 5    1  0.2022058E-009  0.3880684E+03  0.7957747E-01  0.3416762E+00
         13   -1    0    0    0    0  0.00000000000E+00  0.00000000000E+00  0.14999999963E+04  0.15000000000E+04  0.10566000000E+00 0. -1.
        994   -1    0    0    0    0 -0.00000000000E+00 -0.00000000000E+00  0.11368683772E-12  0.17120000000E+03  0.17120000000E+03 0.  0.
         13    1    1    2    0    0 -0.25049225895E+03  0.20047580287E+03  0.89412655312E+03  0.94994695825E+03  0.10566000000E+00 0. -1.
        994    1    1    2    0    0  0.25852862830E+03 -0.21066969845E+03  0.56242504137E+03  0.67590690236E+03  0.17120000000E+03 0.  0.
        998    1    1    2    0    0 -0.80363693521E+01  0.10193895583E+02  0.43448401788E+02  0.45346139389E+02  0.10000000000E+00 0.  1.
</event>
<event>
 5    1  0.2022058E-009  0.3882496E+03  0.7957747E-01  0.3416006E+00
         13   -1    0    0    0    0  0.00000000000E+00  0.00000000000E+00  0.14999999963E+04  0.15000000000E+04  0.10566000000E+00 0.  1.
        994   -1    0    0    0    0 -0.00000000000E+00 -0.00000000000E+00  0.11368683772E-12  0.17120000000E+03  0.17120000000E+03 0.  0.
         13    1    1    2    0    0 -0.56312235012E+02 -0.21596481798E+03  0.13145761644E+04  0.13333875556E+04  0.10566000000E+00 0.  1.
        994    1    1    2    0    0  0.56091276232E+02  0.21622044584E+03  0.18377244776E+03  0.33612388344E+03  0.17120000000E+03 0.  0.
        998    1    1    2    0    0  0.22095878009E+00 -0.25562785593E+00  0.16513841700E+01  0.16885609436E+01  0.10000000000E+00 0. -1.
</event>
<event>
 5    1  0.2022058E-009  0.3882865E+03  0.7957747E-01  0.3415852E+00
         13   -1    0    0    0    0  0.00000000000E+00  0.00000000000E+00  0.14999999963E+04  0.15000000000E+04  0.10566000000E+00 0.  1.
        994   -1    0    0    0    0 -0.00000000000E+00 -0.00000000000E+00  0.11368683772E-12  0.17120000000E+03  0.17120000000E+03 0.  0.
         13    1    1    2    0    0 -0.23505401789E+03  0.14013808362E+03  0.11961199599E+04  0.12270256898E+04  0.10566000000E+00 0.  1.
        994    1    1    2    0    0  0.23547175685E+03 -0.14036696719E+03  0.30238244495E+03  0.44259961225E+03  0.17120000000E+03 0.  0.
        998    1    1    2    0    0 -0.41773896118E+00  0.22888356982E+00  0.14975913861E+01  0.15746979037E+01  0.10000000000E+00 0.  0.
</event>
<event>
 5    1  0.2022058E-009  0.3883009E+03  0.7957747E-01  0.3415792E+00
         13   -1    0    0    0    0  0.00000000000E+00  0.00000000000E+00  0.14999999963E+04  0.15000000000E+04  0.10566000000E+00 0.  1.
        994   -1    0    0    0    0 -0.00000000000E+00 -0.00000000000E+00  0.11368683772E-12  0.17120000000E+03  0.17120000000E+03 0.  0.
         13    1    1    2    0    0 -0.58888877242E+02  0.18586173849E+03  0.94891630127E+03  0.96873868700E+03  0.10566000000E+00 0.  1.
        994    1    1    2    0    0  0.77452635537E+02 -0.24391649763E+03  0.25388044466E+03  0.39907253570E+03  0.17120000000E+03 0.  0.
        998    1    1    2    0    0 -0.18563758294E+02  0.58054759135E+02  0.29720325035E+03  0.30338877731E+03  0.10000000000E+00 0. -1.
</event>
<event>
 5    1  0.2022058E-009  0.3883005E+03  0.7957747E-01  0.3415794E+00
         13   -1    0    0    0    0  0.00000000000E+00  0.00000000000E+00  0.14999999963E+04  0.15000000000E+04  0.10566000000E+00 0.  1.
        994   -1    0    0    0    0 -0.00000000000E+00 -0.00000000000E+00  0.11368683772E-12  0.17120000000E+03  0.17120000000E+03 0.  0.
         13    1    1    2    0    0 -0.94739438736E+02 -0.19000319957E+03  0.11835198626E+04  0.12024125970E+04  0.10566000000E+00 0.  1.
        994    1    1    2    0    0  0.10393792680E+03  0.20852228635E+03  0.20259979879E+03  0.35304497589E+03  0.17120000000E+03 0.  0.
        998    1    1    2    0    0 -0.91984880631E+01 -0.18519086780E+02  0.11388033493E+03  0.11574242714E+03  0.10000000000E+00 0. -1.
</event>
<event>
 5    1  0.2022058E-009  0.3882521E+03  0.7957747E-01  0.3415996E+00
         13   -1    0    0    0    0  0.00000000000E+00  0.00000000000E+00  0.14999999963E+04  0.15000000000E+04  0.10566000000E+00 0.  1.
        994   -1    0    0    0    0 -0.00000000000E+00 -0.00000000000E+00  0.11368683772E-12  0.17120000000E+03  0.17120000000E+03 0.  0.
         13    1    1    2    0    0  0.21193878588E+03  0.19485785247E+03  0.93293319984E+03  0.97634624912E+03  0.10566000000E+00 0.  1.
        994    1    1    2    0    0 -0.23365625678E+03 -0.21442409152E+03  0.46282741698E+03  0.58659321106E+03  0.17120000000E+03 0.  0.
        998    1    1    2    0    0  0.21717470901E+02  0.19566239051E+02  0.10423937946E+03  0.10826053982E+03  0.10000000000E+00 0. -1.
</event>
<event>
 5    1  0.2022058E-009  0.3882904E+03  0.7957747E-01  0.3415836E+00
         13   -1    0    0    0    0  0.00000000000E+00  0.00000000000E+00  0.14999999963E+04  0.15000000000E+04  0.10566000000E+00 0. -1.
        994   -1    0    0    0    0 -0.00000000000E+00 -0.00000000000E+00  0.11368683772E-12  0.17120000000E+03  0.17120000000E+03 0.  0.
         13    1    1    2    0    0 -0.13366813501E+03  0.20714917828E+03  0.12545477536E+04  0.12785413680E+04  0.10566000000E+00 0. -1.
        994    1    1    2    0    0  0.13441636187E+03 -0.20864134605E+03  0.23553966337E+03  0.38260598877E+03  0.17120000000E+03 0.  0.
        998    1    1    2    0    0 -0.74822685659E+00  0.14921677659E+01  0.99125793189E+01  0.10052643275E+02  0.10000000000E+00 0.  1.
</event>
<event>
 5    1  0.2022058E-009  0.3883003E+03  0.7957747E-01  0.3415795E+00
         13   -1    0    0    0    0  0.00000000000E+00  0.00000000000E+00  0.14999999963E+04  0.15000000000E+04  0.10566000000E+00 0. -1.
        994   -1    0    0    0    0 -0.00000000000E+00 -0.00000000000E+00  0.11368683772E-12  0.17120000000E+03  0.17120000000E+03 0.  0.
         13    1    1    2    0    0 -0.15812857281E+03  0.14617337918E+03  0.11842354432E+04  0.12036548087E+04  0.10566000000E+00 0. -1.
        994    1    1    2    0    0  0.17254753132E+03 -0.15984709806E+03  0.20716410886E+03  0.35714164322E+03  0.17120000000E+03 0.  0.
        998    1    1    2    0    0 -0.14418958507E+02  0.13673718885E+02  0.10860044421E+03  0.11040354811E+03  0.10000000000E+00 0. -1.
</event>
<event>
 5    1  0.2022058E-009  0.3883000E+03  0.7957747E-01  0.3415796E+00
         13   -1    0    0    0    0  0.00000000000E+00  0.00000000000E+00  0.14999999963E+04  0.15000000000E+04  0.10566000000E+00 0. -1.
        994   -1    0    0    0    0 -0.00000000000E+00 -0.00000000000E+00  0.11368683772E-12  0.17120000000E+03  0.17120000000E+03 0.  0.
         13    1    1    2    0    0  0.20323312537E+03 -0.81214801558E+02  0.12399665626E+04  0.12591332872E+04  0.10566000000E+00 0. -1.
        994    1    1    2    0    0 -0.21345672489E+03  0.85259967129E+02  0.19628326135E+03  0.34737529285E+03  0.17120000000E+03 0.  0.
        998    1    1    2    0    0  0.10223599518E+02 -0.40451655705E+01  0.63750172306E+02  0.64691419993E+02  0.10000000000E+00 0. -1.
</event>
<event>
 5    1  0.2022058E-009  0.3870496E+03  0.7957747E-01  0.3421026E+00
         13   -1    0    0    0    0  0.00000000000E+00  0.00000000000E+00  0.14999999963E+04  0.15000000000E+04  0.10566000000E+00 0.  1.
        994   -1    0    0    0    0 -0.00000000000E+00 -0.00000000000E+00  0.11368683772E-12  0.17120000000E+03  0.17120000000E+03 0.  0.
         13    1    1    2    0    0  0.19682656529E+03 -0.84887293499E+02  0.10126297819E+04  0.10350679378E+04  0.10566000000E+00 0.  1.
        994    1    1    2    0    0 -0.22657148401E+03  0.96713396833E+02  0.23325093169E+03  0.38000467843E+03  0.17120000000E+03 0.  0.
        998    1    1    2    0    0  0.29744918722E+02 -0.11826103334E+02  0.25411928267E+03  0.25612738380E+03  0.10000000000E+00 0.  1.
</event>
<event>
 5    1  0.2022058E-009  0.3882791E+03  0.7957747E-01  0.3415883E+00
         13   -1    0    0    0    0  0.00000000000E+00  0.00000000000E+00  0.14999999963E+04  0.15000000000E+04  0.10566000000E+00 0. -1.
        994   -1    0    0    0    0 -0.00000000000E+00 -0.00000000000E+00  0.11368683772E-12  0.17120000000E+03  0.17120000000E+03 0.  0.
         13    1    1    2    0    0 -0.23625826063E+03 -0.20782882629E+03  0.62674439261E+03  0.70129831854E+03  0.10566000000E+00 0. -1.
        994    1    1    2    0    0  0.26151361662E+03  0.23029811296E+03  0.80170480231E+03  0.89076743461E+03  0.17120000000E+03 0.  0.
        998    1    1    2    0    0 -0.25255355989E+02 -0.22469286667E+02  0.71550801353E+02  0.79134246845E+02  0.10000000000E+00 0.  1.
</event>
<event>
 5    1  0.2022058E-009  0.3859658E+03  0.7957747E-01  0.3425587E+00
         13   -1    0    0    0    0  0.00000000000E+00  0.00000000000E+00  0.14999999963E+04  0.15000000000E+04  0.10566000000E+00 0. -1.
        994   -1    0    0    0    0 -0.00000000000E+00 -0.00000000000E+00  0.11368683772E-12  0.17120000000E+03  0.17120000000E+03 0.  0.
         13    1    1    2    0    0 -0.83802311196E+01 -0.10357949660E+02  0.78329176233E+02  0.79454303899E+02  0.10566000000E+00 0. -1.
        994    1    1    2    0    0  0.12171505809E+03 -0.52438446271E+02  0.61018131637E+02  0.22493776562E+03  0.17120000000E+03 0.  0.
        998    1    1    2    0    0 -0.11333482698E+03  0.62796395930E+02  0.13606526884E+04  0.13668079305E+04  0.10000000000E+00 0. -1.
</event>
<event>
 5    1  0.2022058E-009  0.3882985E+03  0.7957747E-01  0.3415802E+00
         13   -1    0    0    0    0  0.00000000000E+00  0.00000000000E+00  0.14999999963E+04  0.15000000000E+04  0.10566000000E+00 0.  1.
        994   -1    0    0    0    0 -0.00000000000E+00 -0.00000000000E+00  0.11368683772E-12  0.17120000000E+03  0.17120000000E+03 0.  0.
         13    1    1    2    0    0  0.70831074541E+02 -0.13130801514E+03  0.89158432912E+03  0.90398089750E+03  0.10566000000E+00 0.  1.
        994    1    1    2    0    0 -0.10395794457E+03  0.19399396034E+03  0.17756742879E+03  0.33057607696E+03  0.17120000000E+03 0.  0.
        998    1    1    2    0    0  0.33126870031E+02 -0.62685945200E+02  0.43084823837E+03  0.43664302554E+03  0.10000000000E+00 0.  1.
</event>
<event>
 5    1  0.2155558E-009  0.3882936E+03  0.7957747E-01  0.3415823E+00
         13   -1    0    0    0    0  0.00000000000E+00  0.00000000000E+00  0.14999999963E+04  0.15000000000E+04  0.10566000000E+00 0. -1.
        994   -1    0    0    0    0 -0.00000000000E+00 -0.00000000000E+00  0.11368683772E-12  0.17120000000E+03  0.17120000000E+03 0.  0.
         13    1    1    2    0    0 -0.73211460841E+02 -0.25399095809E+03  0.12224557058E+04  0.12507075152E+04  0.10566000000E+00 0. -1.
        994    1    1    2    0    0  0.73244969193E+02  0.25428824143E+03  0.27608173564E+03  0.41899630070E+03  0.17120000000E+03 0.  0.
        998    1    1    2    0    0 -0.33508351677E-01 -0.29728333962E+00  0.14625548056E+01  0.14961840639E+01  0.10000000000E+00 0.  0.
</event>
<event>
 5    1  0.2022058E-009  0.3883003E+03  0.7957747E-01  0.3415795E+00
         13   -1    0    0    0    0  0.00000000000E+00  0.00000000000E+00  0.14999999963E+04  0.15000000000E+04  0.10566000000E+00 0.  1.
        994   -1    0    0    0    0 -0.00000000000E+00 -0.00000000000E+00  0.11368683772E-12  0.17120000000E+03  0.17120000000E+03 0.  0.
         13    1    1    2    0    0  0.13360178686E+02 -0.14822934176E+02  0.94171506028E+02  0.96262648331E+02  0.10566000000E+00 0.  1.
        994    1    1    2    0    0 -0.17209412953E+03  0.19573913353E+03  0.26568822638E+03  0.40967044249E+03  0.17120000000E+03 0.  0.
        998    1    1    2    0    0  0.15873395084E+03 -0.18091619935E+03  0.11401402639E+04  0.11652669092E+04  0.10000000000E+00 0.  1.
</event>
<event>
 5    1  0.2022058E-009  0.3875229E+03  0.7957747E-01  0.3419042E+00
         13   -1    0    0    0    0  0.00000000000E+00  0.00000000000E+00  0.14999999963E+04  0.15000000000E+04  0.10566000000E+00 0. -1.
        994   -1    0    0    0    0 -0.00000000000E+00 -0.00000000000E+00  0.11368683772E-12  0.17120000000E+03  0.17120000000E+03 0.  0.
         13    1    1    2    0    0  0.13307837139E+03 -0.93395416130E+02  0.53695898928E+03  0.56103255165E+03  0.10566000000E+00 0. -1.
        994    1    1    2    0    0 -0.25992226707E+03  0.15707342642E+03  0.40511212528E+03  0.53446882065E+03  0.17120000000E+03 0.  0.
        998    1    1    2    0    0  0.12684389568E+03 -0.63678010286E+02  0.55792888173E+03  0.57569862769E+03  0.10000000000E+00 0. -1.
</event>
<event>
 5    1  0.2022058E-009  0.3882772E+03  0.7957747E-01  0.3415891E+00
         13   -1    0    0    0    0  0.00000000000E+00  0.00000000000E+00  0.14999999963E+04  0.15000000000E+04  0.10566000000E+00 0.  1.
        994   -1    0    0    0    0 -0.00000000000E+00 -0.00000000000E+00  0.11368683772E-12  0.17120000000E+03  0.17120000000E+03 0.  0.
         13    1    1    2    0    0  0.31742019805E+03  0.99090441801E+02  0.93336156856E+03  0.99082709219E+03  0.10566000000E+00 0.  1.
        994    1    1    2    0    0 -0.31847375991E+03 -0.99770222392E+02  0.56283586131E+03  0.67636771050E+03  0.17120000000E+03 0.  0.
        998    1    1    2    0    0  0.10535618600E+01  0.67978059085E+00  0.38025664115E+01  0.40051973183E+01  0.10000000000E+00 0.  1.
</event>
<event>
 5    1  0.2022058E-009  0.3882977E+03  0.7957747E-01  0.3415805E+00
         13   -1    0    0    0    0  0.00000000000E+00  0.00000000000E+00  0.14999999963E+04  0.15000000000E+04  0.10566000000E+00 0.  1.
        994   -1    0    0    0    0 -0.00000000000E+00 -0.00000000000E+00  0.11368683772E-12  0.17120000000E+03  0.17120000000E+03 0.  0.
         13    1    1    2    0    0  0.15843143478E+03 -0.19690362179E+03  0.12485448335E+04  0.12738664641E+04  0.10566000000E+00 0.  1.
        994    1    1    2    0    0 -0.15884375228E+03  0.19750933112E+03  0.24791324846E+03  0.39371524264E+03  0.17120000000E+03 0.  0.
        998    1    1    2    0    0  0.41231750799E+00 -0.60570932930E+00  0.35419142977E+01  0.36182933009E+01  0.10000000000E+00 0.  0.
</event>
<event>
 5    1  0.2022058E-009  0.3882990E+03  0.7957747E-01  0.3415800E+00
         13   -1    0    0    0    0  0.00000000000E+00  0.00000000000E+00  0.14999999963E+04  0.15000000000E+04  0.10566000000E+00 0.  1.
        994   -1    0    0    0    0 -0.00000000000E+00 -0.00000000000E+00  0.11368683772E-12  0.17120000000E+03  0.17120000000E+03 0.  0.
         13    1    1    2    0    0  0.51153783430E+02 -0.33261416819E+03  0.89388529094E+03  0.95513340375E+03  0.10566000000E+00 0.  1.
        994    1    1    2    0    0 -0.51445600758E+02  0.33442678505E+03  0.60100978496E+03  0.71064064478E+03  0.17120000000E+03 0.  0.
        998    1    1    2    0    0  0.29181732770E+00 -0.18126168642E+01  0.51049203835E+01  0.54259514715E+01  0.10000000000E+00 0.  0.
</event>
<event>
 5    1  0.2022058E-009  0.3882988E+03  0.7957747E-01  0.3415801E+00
         13   -1    0    0    0    0  0.00000000000E+00  0.00000000000E+00  0.14999999963E+04  0.15000000000E+04  0.10566000000E+00 0.  1.
        994   -1    0    0    0    0 -0.00000000000E+00 -0.00000000000E+00  0.11368683772E-12  0.17120000000E+03  0.17120000000E+03 0.  0.
         13    1    1    2    0    0 -0.10794210034E+03 -0.23860671702E+02  0.63023899505E+03  0.63986094640E+03  0.10566000000E+00 0.  1.
        994    1    1    2    0    0  0.22492742056E+03  0.48598519229E+02  0.19680942891E+03  0.34784702371E+03  0.17120000000E+03 0.  0.
        998    1    1    2    0    0 -0.11698532022E+03 -0.24737847527E+02  0.67295157231E+03  0.68349202989E+03  0.10000000000E+00 0.  1.
</event>
<event>
 5    1  0.2022058E-009  0.3882943E+03  0.7957747E-01  0.3415820E+00
         13   -1    0    0    0    0  0.00000000000E+00  0.00000000000E+00  0.14999999963E+04  0.15000000000E+04  0.10566000000E+00 0. -1.
        994   -1    0    0    0    0 -0.00000000000E+00 -0.00000000000E+00  0.11368683772E-12  0.17120000000E+03  0.17120000000E+03 0.  0.
         13    1    1    2    0    0 -0.38584194190E+02 -0.27858559730E+03  0.10800079304E+04  0.11160267990E+04  0.10566000000E+00 0. -1.
        994    1    1    2    0    0  0.40110565970E+02  0.29224015518E+03  0.36949875677E+03  0.50284384958E+03  0.17120000000E+03 0.  0.
        998    1    1    2    0    0 -0.15263717804E+01 -0.13654557883E+02  0.50493309079E+02  0.52329351454E+02  0.10000000000E+00 0. -1.
</event>
<event>
 5    1  0.2022058E-009  0.3862427E+03  0.7957747E-01  0.3424419E+00
         13   -1    0    0    0    0  0.00000000000E+00  0.00000000000E+00  0.14999999963E+04  0.15000000000E+04  0.10566000000E+00 0. -1.
        994   -1    0    0    0    0 -0.00000000000E+00 -0.00000000000E+00  0.11368683772E-12  0.17120000000E+03  0.17120000000E+03 0.  0.
         13    1    1    2    0    0  0.17917853119E+02  0.87340455856E+00  0.82793520215E+02  0.84714759337E+02  0.10566000000E+00 0. -1.
        994    1    1    2    0    0 -0.90818914531E+02 -0.24755287010E+02  0.30595035430E+02  0.19775337080E+03  0.17120000000E+03 0.  0.
        998    1    1    2    0    0  0.72901061412E+02  0.23881882452E+02  0.13866114406E+04  0.13887318699E+04  0.10000000000E+00 0. -1.
</event>
<event>
 5    1  0.2022058E-009  0.3882968E+03  0.7957747E-01  0.3415809E+00
         13   -1    0    0    0    0  0.00000000000E+00  0.00000000000E+00  0.14999999963E+04  0.15000000000E+04  0.10566000000E+00 0. -1.
        994   -1    0    0    0    0 -0.00000000000E+00 -0.00000000000E+00  0.11368683772E-12  0.17120000000E+03  0.17120000000E+03 0.  0.
         13    1    1    2    0    0  0.20550741077E+03  0.11635892637E+03  0.12316962911E+04  0.12541325529E+04  0.10566000000E+00 0. -1.
        994    1    1    2    0    0 -0.21278425032E+03 -0.11999583901E+03  0.22668782776E+03  0.37466378237E+03  0.17120000000E+03 0.  0.
        998    1    1    2    0    0  0.72768395547E+01  0.36369126401E+01  0.41615877433E+02  0.42403664723E+02  0.10000000000E+00 0. -1.
</event>
<event>
 5    1  0.2022058E-009  0.3881389E+03  0.7957747E-01  0.3416468E+00
         13   -1    0    0    0    0  0.00000000000E+00  0.00000000000E+00  0.14999999963E+04  0.15000000000E+04  0.10566000000E+00 0. -1.
        994   -1    0    0    0    0 -0.00000000000E+00 -0.00000000000E+00  0.11368683772E-12  0.17120000000E+03  0.17120000000E+03 0.  0.
         13    1    1    2    0    0 -0.78898391051E+02  0.30203203101E+03  0.10368939739E+04  0.10828653786E+04  0.10566000000E+00 0. -1.
        994    1    1    2    0    0  0.78612403623E+02 -0.30451586587E+03  0.45045274849E+03  0.57543630507E+03  0.17120000000E+03 0.  0.
        998    1    1    2    0    0  0.28598742757E+00  0.24838348578E+01  0.12653273857E+02  0.12898316313E+02  0.10000000000E+00 0.  1.
</event>
<event>
 5    1  0.2022058E-009  0.3882987E+03  0.7957747E-01  0.3415801E+00
         13   -1    0    0    0    0  0.00000000000E+00  0.00000000000E+00  0.14999999963E+04  0.15000000000E+04  0.10566000000E+00 0. -1.
        994   -1    0    0    0    0 -0.00000000000E+00 -0.00000000000E+00  0.11368683772E-12  0.17120000000E+03  0.17120000000E+03 0.  0.
         13    1    1    2    0    0  0.23660135730E+03 -0.42797849307E+02  0.73585293049E+03  0.77413913779E+03  0.10566000000E+00 0. -1.
        994    1    1    2    0    0 -0.32023631810E+03  0.57070470216E+02  0.50667045182E+03  0.62596543415E+03  0.17120000000E+03 0.  0.
        998    1    1    2    0    0  0.83634960798E+02 -0.14272620909E+02  0.25747661396E+03  0.27109542805E+03  0.10000000000E+00 0.  1.
</event>
<event>
 5    1  0.2022058E-009  0.3882535E+03  0.7957747E-01  0.3415990E+00
         13   -1    0    0    0    0  0.00000000000E+00  0.00000000000E+00  0.14999999963E+04  0.15000000000E+04  0.10566000000E+00 0.  1.
        994   -1    0    0    0    0 -0.00000000000E+00 -0.00000000000E+00  0.11368683772E-12  0.17120000000E+03  0.17120000000E+03 0.  0.
         13    1    1    2    0    0  0.11893140074E+03 -0.24640795584E+03  0.11805510124E+04  0.12118425074E+04  0.10566000000E+00 0.  1.
        994    1    1    2    0    0 -0.11934624905E+03  0.24910043522E+03  0.30852264772E+03  0.44809621527E+03  0.17120000000E+03 0.  0.
        998    1    1    2    0    0  0.41484831150E+00 -0.26924793780E+01  0.10926336181E+02  0.11261277311E+02  0.10000000000E+00 0. -1.
</event>
<event>
 5    1  0.2022058E-009  0.3882979E+03  0.7957747E-01  0.3415805E+00
         13   -1    0    0    0    0  0.00000000000E+00  0.00000000000E+00  0.14999999963E+04  0.15000000000E+04  0.10566000000E+00 0. -1.
        994   -1    0    0    0    0 -0.00000000000E+00 -0.00000000000E+00  0.11368683772E-12  0.17120000000E+03  0.17120000000E+03 0.  0.
         13    1    1    2    0    0 -0.62802871100E+02  0.33359105079E+02  0.32267500660E+03  0.33041822219E+03  0.10566000000E+00 0. -1.
        994    1    1    2    0    0  0.23860944187E+03 -0.12651811138E+03  0.29085676224E+03  0.43225963771E+03  0.17120000000E+03 0.  0.
        998    1    1    2    0    0 -0.17580657077E+03  0.93159006296E+02  0.88646822744E+03  0.90852214010E+03  0.10000000000E+00 0. -1.
</event>
<event>
 5    1  0.2022058E-009  0.3883004E+03  0.7957747E-01  0.3415794E+00
         13   -1    0    0    0    0  0.00000000000E+00  0.00000000000E+00  0.14999999963E+04  0.15000000000E+04  0.10566000000E+00 0. -1.
        994   -1    0    0    0    0 -0.00000000000E+00 -0.00000000000E+00  0.11368683772E-12  0.17120000000E+03  0.17120000000E+03 0.  0.
         13    1    1    2    0    0 -0.35156612793E+02 -0.16162323821E+03  0.75602490711E+03  0.77390679664E+03  0.10566000000E+00 0. -1.
        994    1    1    2    0    0  0.56818796263E+02  0.26003787416E+03  0.28018955053E+03  0.42268628536E+03  0.17120000000E+03 0.  0.
        998    1    1    2    0    0 -0.21662183470E+02 -0.98414635946E+02  0.46378553864E+03  0.47460691800E+03  0.10000000000E+00 0.  0.
</event>
<event>
 5    1  0.2022058E-009  0.3882908E+03  0.7957747E-01  0.3415835E+00
         13   -1    0    0    0    0  0.00000000000E+00  0.00000000000E+00  0.14999999963E+04  0.15000000000E+04  0.10566000000E+00 0.  1.
        994   -1    0    0    0    0 -0.00000000000E+00 -0.00000000000E+00  0.11368683772E-12  0.17120000000E+03  0.17120000000E+03 0.  0.
         13    1    1    2    0    0  0.13241414241E+03 -0.18011381263E+03  0.13139774358E+04  0.13328582834E+04  0.10566000000E+00 0.  1.
        994    1    1    2    0    0 -0.13263669601E+03  0.18031597322E+03  0.18460664057E+03  0.33689077617E+03  0.17120000000E+03 0.  0.
        998    1    1    2    0    0  0.22255359813E+00 -0.20216058530E+00  0.14159198669E+01  0.14509404108E+01  0.10000000000E+00 0.  0.
</event>
<event>
 5    1  0.2022058E-009  0.3881399E+03  0.7957747E-01  0.3416464E+00
         13   -1    0    0    0    0  0.00000000000E+00  0.00000000000E+00  0.14999999963E+04  0.15000000000E+04  0.10566000000E+00 0. -1.
        994   -1    0    0    0    0 -0.00000000000E+00 -0.00000000000E+00  0.11368683772E-12  0.17120000000E+03  0.17120000000E+03 0.  0.
         13    1    1    2    0    0 -0.28196163177E+02  0.21037415410E+03  0.12199741141E+04  0.12383009160E+04  0.10566000000E+00 0. -1.
        994    1    1    2    0    0  0.33468211912E+02 -0.22333098397E+03  0.18859261619E+03  0.34040191611E+03  0.17120000000E+03 0.  0.
        998    1    1    2    0    0 -0.52720487352E+01  0.12956829872E+02  0.91433265964E+02  0.92497167865E+02  0.10000000000E+00 0. -1.
</event>
<event>
 5    1  0.2022058E-009  0.3881818E+03  0.7957747E-01  0.3416289E+00
         13   -1    0    0    0    0  0.00000000000E+00  0.00000000000E+00  0.14999999963E+04  0.15000000000E+04  0.10566000000E+00 0. -1.
        994   -1    0    0    0    0 -0.00000000000E+00 -0.00000000000E+00  0.11368683772E-12  0.17120000000E+03  0.17120000000E+03 0.  0.
         13    1    1    2    0    0  0.22961484849E+03 -0.21070717292E+03  0.98734440739E+03  0.10353595904E+04  0.10566000000E+00 0. -1.
        994    1    1    2    0    0 -0.23594811770E+03  0.21620914279E+03  0.47795675785E+03  0.60014165832E+03  0.17120000000E+03 0.  0.
        998    1    1    2    0    0  0.63332692053E+01 -0.55019698715E+01  0.34698831039E+02  0.35698751334E+02  0.10000000000E+00 0.  1.
</event>
<event>
 5    1  0.2022058E-009  0.3728404E+03  0.7957747E-01  0.3482938E+00
         13   -1    0    0    0    0  0.00000000000E+00  0.00000000000E+00  0.14999999963E+04  0.15000000000E+04  0.10566000000E+00 0.  1.
        994   -1    0    0    0    0 -0.00000000000E+00 -0.00000000000E+00  0.11368683772E-12  0.17120000000E+03  0.17120000000E+03 0.  0.
         13    1    1    2    0    0  0.21890890229E+03  0.46855479888E+02  0.93062621798E+03  0.95717381507E+03  0.10566000000E+00 0.  1.
        994    1    1    2    0    0 -0.23751153659E+03 -0.12665571493E+03  0.32128053904E+03  0.45275161502E+03  0.17120000000E+03 0.  0.
        998    1    1    2    0    0  0.18602634307E+02  0.79800235039E+02  0.24809323926E+03  0.26127456991E+03  0.10000000000E+00 0.  1.
</event>
<event>
 5    1  0.2022058E-009  0.3882875E+03  0.7957747E-01  0.3415848E+00
         13   -1    0    0    0    0  0.00000000000E+00  0.00000000000E+00  0.14999999963E+04  0.15000000000E+04  0.10566000000E+00 0. -1.
        994   -1    0    0    0    0 -0.00000000000E+00 -0.00000000000E+00  0.11368683772E-12  0.17120000000E+03  0.17120000000E+03 0.  0.
         13    1    1    2    0    0  0.28150867024E+03  0.11355275210E+03  0.10924397225E+04  0.11338279928E+04  0.10566000000E+00 0. -1.
        994    1    1    2    0    0 -0.28210671481E+03 -0.11372045963E+03  0.40460803609E+03  0.53435348258E+03  0.17120000000E+03 0.  0.
        998    1    1    2    0    0  0.59804457567E+00  0.16770752679E+00  0.29522377283E+01  0.30185245955E+01  0.10000000000E+00 0.  0.
</event>
<event>
 5    1  0.2022058E-009  0.3882760E+03  0.7957747E-01  0.3415896E+00
         13   -1    0    0    0    0  0.00000000000E+00  0.00000000000E+00  0.14999999963E+04  0.15000000000E+04  0.10566000000E+00 0.  1.
        994   -1    0    0    0    0 -0.00000000000E+00 -0.00000000000E+00  0.11368683772E-12  0.17120000000E+03  0.17120000000E+03 0.  0.
         13    1    1    2    0    0  0.12335602670E+03 -0.19215360436E+03  0.13036339585E+04  0.13234807237E+04  0.10566000000E+00 0.  1.
        994    1    1    2    0    0 -0.12347126223E+03  0.19232511156E+03  0.19372765910E+03  0.34507093044E+03  0.17120000000E+03 0.  0.
        998    1    1    2    0    0  0.11523552329E+00 -0.17150720253E+00  0.26383786755E+01  0.26483458954E+01  0.10000000000E+00 0. -1.
</event>
<event>
 5    1  0.2022058E-009  0.3882838E+03  0.7957747E-01  0.3415864E+00
         13   -1    0    0    0    0  0.00000000000E+00  0.00000000000E+00  0.14999999963E+04  0.15000000000E+04  0.10566000000E+00 0.  1.
        994   -1    0    0    0    0 -0.00000000000E+00 -0.00000000000E+00  0.11368683772E-12  0.17120000000E+03  0.17120000000E+03 0.  0.
         13    1    1    2    0    0  0.83117117226E+02  0.28266068060E+03  0.11070051229E+04  0.11455417360E+04  0.10566000000E+00 0.  1.
        994    1    1    2    0    0 -0.83728917731E+02 -0.28570010516E+03  0.37955787171E+03  0.51186785377E+03  0.17120000000E+03 0.  0.
        998    1    1    2    0    0  0.61180050421E+00  0.30394245571E+01  0.13437001656E+02  0.13790410254E+02  0.10000000000E+00 0.  1.
</event>
<event>
 5    1  0.2022058E-009  0.3875453E+03  0.7957747E-01  0.3418949E+00
         13   -1    0    0    0    0  0.00000000000E+00  0.00000000000E+00  0.14999999963E+04  0.15000000000E+04  0.10566000000E+00 0. -1.
        994   -1    0    0    0    0 -0.00000000000E+00 -0.00000000000E+00  0.11368683772E-12  0.17120000000E+03  0.17120000000E+03 0.  0.
         13    1    1    2    0    0 -0.18777420075E+03 -0.96546310977E+02  0.12541861331E+04  0.12718345836E+04  0.10566000000E+00 0. -1.
        994    1    1    2    0    0  0.19121740282E+03  0.10545668048E+03  0.17531550044E+03  0.32822274646E+03  0.17120000000E+03 0.  0.
        998    1    1    2    0    0 -0.34432020700E+01 -0.89103695036E+01  0.70498362780E+02  0.71142669896E+02  0.10000000000E+00 0. -1.
</event>
<event>
 5    1  0.2022058E-009  0.3882949E+03  0.7957747E-01  0.3415817E+00
         13   -1    0    0    0    0  0.00000000000E+00  0.00000000000E+00  0.14999999963E+04  0.15000000000E+04  0.10566000000E+00 0.  1.
        994   -1    0    0    0    0 -0.00000000000E+00 -0.00000000000E+00  0.11368683772E-12  0.17120000000E+03  0.17120000000E+03 0.  0.
         13    1    1    2    0    0  0.18030938424E+02 -0.11152755178E+03  0.26795338895E+03  0.29079638815E+03  0.10566000000E+00 0.  1.
        994    1    1    2    0    0 -0.54336674683E+02  0.34025187357E+03  0.67176030744E+03  0.77414156479E+03  0.17120000000E+03 0.  0.
        998    1    1    2    0    0  0.36305736259E+02 -0.22872432179E+03  0.56028629989E+03  0.60626204706E+03  0.10000000000E+00 0.  1.
</event>
<event>
 5    1  0.2022058E-009  0.3882999E+03  0.7957747E-01  0.3415797E+00
         13   -1    0    0    0    0  0.00000000000E+00  0.00000000000E+00  0.14999999963E+04  0.15000000000E+04  0.10566000000E+00 0. -1.
        994   -1    0    0    0    0 -0.00000000000E+00 -0.00000000000E+00  0.11368683772E-12  0.17120000000E+03  0.17120000000E+03 0.  0.
         13    1    1    2    0    0  0.20154991570E+02  0.15877305946E+03  0.84610829461E+03  0.86111228389E+03  0.10566000000E+00 0. -1.
        994    1    1    2    0    0 -0.30122501581E+02 -0.23934865907E+03  0.21996671590E+03  0.36863252950E+03  0.17120000000E+03 0.  0.
        998    1    1    2    0    0  0.99675100109E+01  0.80575599619E+02  0.43392498577E+03  0.44145518661E+03  0.10000000000E+00 0. -1.
</event>
<event>
 5    1  0.2022058E-009  0.3881315E+03  0.7957747E-01  0.3416499E+00
         13   -1    0    0    0    0  0.00000000000E+00  0.00000000000E+00  0.14999999963E+04  0.15000000000E+04  0.10566000000E+00 0.  1.
        994   -1    0    0    0    0 -0.00000000000E+00 -0.00000000000E+00  0.11368683772E-12  0.17120000000E+03  0.17120000000E+03 0.  0.
         13    1    1    2    0    0 -0.19056297366E+03  0.19008012760E+03  0.11964166033E+04  0.12263186379E+04  0.10566000000E+00 0.  1.
        994    1    1    2    0    0  0.19266605492E+03 -0.19032825161E+03  0.29326940030E+03  0.43435173906E+03  0.17120000000E+03 0.  0.
        998    1    1    2    0    0 -0.21030812602E+01  0.24812401107E+00  0.10313992638E+02  0.10529622996E+02  0.10000000000E+00 0.  1.
</event>
<event>
 5    1  0.2022058E-009  0.3882442E+03  0.7957747E-01  0.3416029E+00
         13   -1    0    0    0    0  0.00000000000E+00  0.00000000000E+00  0.14999999963E+04  0.15000000000E+04  0.10566000000E+00 0.  1.
        994   -1    0    0    0    0 -0.00000000000E+00 -0.00000000000E+00  0.11368683772E-12  0.17120000000E+03  0.17120000000E+03 0.  0.
         13    1    1    2    0    0 -0.41973058615E+02 -0.21713289440E+03  0.12829231976E+04  0.13018449883E+04  0.10566000000E+00 0.  1.
        994    1    1    2    0    0  0.43976344087E+02  0.22240541004E+03  0.19017585184E+03  0.34186895132E+03  0.17120000000E+03 0.  0.
        998    1    1    2    0    0 -0.20032854721E+01 -0.52725156370E+01  0.26900946873E+02  0.27486060404E+02  0.10000000000E+00 0. -1.
</event>
<event>
 5    1  0.2022058E-009  0.3788651E+03  0.7957747E-01  0.3456115E+00
         13   -1    0    0    0    0  0.00000000000E+00  0.00000000000E+00  0.14999999963E+04  0.15000000000E+04  0.10566000000E+00 0.  1.
        994   -1    0    0    0    0 -0.00000000000E+00 -0.00000000000E+00  0.11368683772E-12  0.17120000000E+03  0.17120000000E+03 0.  0.
         13    1    1    2    0    0 -0.33033290699E+01  0.85303129445E+02  0.28964277825E+03  0.30196106708E+03  0.10566000000E+00 0.  1.
        994    1    1    2    0    0  0.14600034810E+03 -0.19762123248E+03  0.24490653651E+03  0.38685773198E+03  0.17120000000E+03 0.  0.
        998    1    1    2    0    0 -0.14269701903E+03  0.11231810303E+03  0.96545068152E+03  0.98238120093E+03  0.10000000000E+00 0.  1.
</event>
<event>
 5    1  0.2022058E-009  0.3882386E+03  0.7957747E-01  0.3416052E+00
         13   -1    0    0    0    0  0.00000000000E+00  0.00000000000E+00  0.14999999963E+04  0.15000000000E+04  0.10566000000E+00 0. -1.
        994   -1    0    0    0    0 -0.00000000000E+00 -0.00000000000E+00  0.11368683772E-12  0.17120000000E+03  0.17120000000E+03 0.  0.
         13    1    1    2    0    0 -0.18702029167E+03 -0.17399378812E+03  0.12370562497E+04  0.12631542281E+04  0.10566000000E+00 0. -1.
        994    1    1    2    0    0  0.18748584731E+03  0.17484866329E+03  0.25508397782E+03  0.40012532254E+03  0.17120000000E+03 0.  0.
        998    1    1    2    0    0 -0.46555563482E+00 -0.85487517702E+00  0.78597687151E+01  0.79204493478E+01  0.10000000000E+00 0. -1.
</event>
<event>
 5    1  0.2022058E-009  0.3882998E+03  0.7957747E-01  0.3415797E+00
         13   -1    0    0    0    0  0.00000000000E+00  0.00000000000E+00  0.14999999963E+04  0.15000000000E+04  0.10566000000E+00 0.  1.
        994   -1    0    0    0    0 -0.00000000000E+00 -0.00000000000E+00  0.11368683772E-12  0.17120000000E+03  0.17120000000E+03 0.  0.
         13    1    1    2    0    0 -0.21992697858E+03  0.20985839129E+03  0.10438972831E+04  0.10872580048E+04  0.10566000000E+00 0.  1.
        994    1    1    2    0    0  0.22493866807E+03 -0.21441933108E+03  0.43262618810E+03  0.55950684765E+03  0.17120000000E+03 0.  0.
        998    1    1    2    0    0 -0.50116894903E+01  0.45609397963E+01  0.23476525111E+02  0.24435147527E+02  0.10000000000E+00 0.  1.
</event>
<event>
 5    1  0.2022058E-009  0.3882903E+03  0.7957747E-01  0.3415836E+00
         13   -1    0    0    0    0  0.00000000000E+00  0.00000000000E+00  0.14999999963E+04  0.15000000000E+04  0.10566000000E+00 0. -1.
        994   -1    0    0    0    0 -0.00000000000E+00 -0.00000000000E+00  0.11368683772E-12  0.17120000000E+03  0.17120000000E+03 0.  0.
         13    1    1    2    0    0 -0.89513853232E+02 -0.11674525454E+03  0.60305847031E+03  0.62074287282E+03  0.10566000000E+00 0. -1.
        994    1    1    2    0    0  0.17044668161E+03  0.22531763776E+03  0.32764013192E+03  0.46527153921E+03  0.17120000000E+03 0.  0.
        998    1    1    2    0    0 -0.80932828374E+02 -0.10857238321E+03  0.56930139404E+03  0.58518558797E+03  0.10000000000E+00 0. -1.
</event>
<event>
 5    1  0.2022058E-009  0.3882640E+03  0.7957747E-01  0.3415946E+00
         13   -1    0    0    0    0  0.00000000000E+00  0.00000000000E+00  0.14999999963E+04  0.15000000000E+04  0.10566000000E+00 0.  1.
        994   -1    0    0    0    0 -0.00000000000E+00 -0.00000000000E+00  0.11368683772E-12  0.17120000000E+03  0.17120000000E+03 0.  0.
         13    1    1    2    0    0  0.87518390132E+02 -0.19604538650E+03  0.12241555154E+04  0.12428394905E+04  0.10566000000E+00 0.  1.
        994    1    1    2    0    0 -0.93163025532E+02  0.20758958267E+03  0.19175808153E+03  0.34329780948E+03  0.17120000000E+03 0.  0.
        998    1    1    2    0    0  0.56446354000E+01 -0.11544196167E+02  0.84086399372E+02  0.85062700011E+02  0.10000000000E+00 0.  1.
</event>
<event>
 5    1  0.2022058E-009  0.3881645E+03  0.7957747E-01  0.3416361E+00
         13   -1    0    0    0    0  0.00000000000E+00  0.00000000000E+00  0.14999999963E+04  0.15000000000E+04  0.10566000000E+00 0.  1.
        994   -1    0    0    0    0 -0.00000000000E+00 -0.00000000000E+00  0.11368683772E-12  0.17120000000E+03  0.17120000000E+03 0.  0.
         13    1    1    2    0    0  0.16450866031E+03  0.19202823831E+03  0.12394344550E+04  0.12649647122E+04  0.10566000000E+00 0.  1.
        994    1    1    2    0    0 -0.16563471753E+03 -0.19437931450E+03  0.25278801567E+03  0.39803190629E+03  0.17120000000E+03 0.  0.
        998    1    1    2    0    0  0.11260572198E+01  0.23510761952E+01  0.77775255969E+01  0.82033815313E+01  0.10000000000E+00 0. -1.
</event>
<event>
 5    1  0.2022058E-009  0.3883009E+03  0.7957747E-01  0.3415792E+00
         13   -1    0    0    0    0  0.00000000000E+00  0.00000000000E+00  0.14999999963E+04  0.15000000000E+04  0.10566000000E+00 0.  1.
        994   -1    0    0    0    0 -0.00000000000E+00 -0.00000000000E+00  0.11368683772E-12  0.17120000000E+03  0.17120000000E+03 0.  0.
         13    1    1    2    0    0 -0.97242486416E-01 -0.20267924836E+03  0.10322537139E+04  0.10519632257E+04  0.10566000000E+00 0.  1.
        994    1    1    2    0    0  0.20150588951E+00  0.24817776827E+03  0.23549207370E+03  0.38256790514E+03  0.17120000000E+03 0.  0.
        998    1    1    2    0    0 -0.10426340310E+00 -0.45498519910E+02  0.23225420867E+03  0.23666886916E+03  0.10000000000E+00 0.  1.
</event>
<event>
 5    1  0.2022058E-009  0.3881190E+03  0.7957747E-01  0.3416551E+00
         13   -1    0    0    0    0  0.00000000000E+00  0.00000000000E+00  0.14999999963E+04  0.15000000000E+04  0.10566000000E+00 0.  1.
        994   -1    0    0    0    0 -0.00000000000E+00 -0.00000000000E+00  0.11368683772E-12  0.17120000000E+03  0.17120000000E+03 0.  0.
         13    1    1    2    0    0  0.28563925716E+03 -0.17925406868E+03  0.90762150398E+03  0.96824511980E+03  0.10566000000E+00 0.  1.
        994    1    1    2    0    0 -0.28540555544E+03  0.17945681859E+03  0.59206151734E+03  0.70250079084E+03  0.17120000000E+03 0.  0.
        998    1    1    2    0    0 -0.23370171885E+00 -0.20274991361E+00  0.31697495556E+00  0.45408935609E+00  0.10000000000E+00 0.  1.
</event>
<event>
 5    1  0.2022058E-009  0.3856225E+03  0.7957747E-01  0.3427037E+00
         13   -1    0    0    0    0  0.00000000000E+00  0.00000000000E+00  0.14999999963E+04  0.15000000000E+04  0.10566000000E+00 0.  1.
        994   -1    0    0    0    0 -0.00000000000E+00 -0.00000000000E+00  0.11368683772E-12  0.17120000000E+03  0.17120000000E+03 0.  0.
         13    1    1    2    0    0 -0.14646262873E+02 -0.33393403896E+01  0.54720311497E+02  0.56744936908E+02  0.10566000000E+00 0.  1.
        994    1    1    2    0    0  0.78318586989E+02  0.21378315901E+02  0.23259717008E+02  0.19089601330E+03  0.17120000000E+03 0.  0.
        998    1    1    2    0    0 -0.63672324116E+02 -0.18038975511E+02  0.14220199678E+04  0.14235590498E+04  0.10000000000E+00 0.  1.
</event>
<event>
 5    1  0.2022058E-009  0.3879196E+03  0.7957747E-01  0.3417384E+00
         13   -1    0    0    0    0  0.00000000000E+00  0.00000000000E+00  0.14999999963E+04  0.15000000000E+04  0.10566000000E+00 0. -1.
        994   -1    0    0    0    0 -0.00000000000E+00 -0.00000000000E+00  0.11368683772E-12  0.17120000000E+03  0.17120000000E+03 0.  0.
         13    1    1    2    0    0  0.11936603615E+03  0.17558596418E+03  0.12500332321E+04  0.12679360291E+04  0.10566000000E+00 0. -1.
        994    1    1    2    0    0 -0.12172644499E+03 -0.18244253446E+03  0.17661066437E+03  0.32955025802E+03  0.17120000000E+03 0.  0.
        998    1    1    2    0    0  0.23604088371E+01  0.68565702797E+01  0.73356099830E+02  0.73713712891E+02  0.10000000000E+00 0.  1.
</event>
<event>
 5    1  0.2022058E-009  0.2927206E+03  0.7957747E-01  0.3949398E+00
         13   -1    0    0    0    0  0.00000000000E+00  0.00000000000E+00  0.14999999963E+04  0.15000000000E+04  0.10566000000E+00 0. -1.
        994   -1    0    0    0    0 -0.00000000000E+00 -0.00000000000E+00  0.11368683772E-12  0.17120000000E+03  0.17120000000E+03 0.  0.
         13    1    1    2    0    0 -0.14717915387E+03  0.26327607514E+02  0.86933635925E+03  0.88210008669E+03  0.10566000000E+00 0. -1.
        994    1    1    2    0    0  0.17543885393E+02 -0.12135967097E+03  0.97176100063E+02  0.23192367727E+03  0.17120000000E+03 0.  0.
        998    1    1    2    0    0  0.12963526848E+03  0.95032063461E+02  0.53348753696E+03  0.55717623605E+03  0.10000000000E+00 0.  1.
</event>
<event>
 5    1  0.2022058E-009  0.3859092E+03  0.7957747E-01  0.3425825E+00
         13   -1    0    0    0    0  0.00000000000E+00  0.00000000000E+00  0.14999999963E+04  0.15000000000E+04  0.10566000000E+00 0. -1.
        994   -1    0    0    0    0 -0.00000000000E+00 -0.00000000000E+00  0.11368683772E-12  0.17120000000E+03  0.17120000000E+03 0.  0.
         13    1    1    2    0    0 -0.49188826755E+02 -0.33039166653E+03  0.78621223376E+03  0.85422940811E+03  0.10566000000E+00 0. -1.
        994    1    1    2    0    0  0.61228649692E+02  0.33746600326E+03  0.68458879150E+03  0.78460404303E+03  0.17120000000E+03 0.  0.
        998    1    1    2    0    0 -0.12039822937E+02 -0.70743367306E+01  0.29198971020E+02  0.32366548861E+02  0.10000000000E+00 0.  1.
</event>
<event>
 5    1  0.2022058E-009  0.3882717E+03  0.7957747E-01  0.3415914E+00
         13   -1    0    0    0    0  0.00000000000E+00  0.00000000000E+00  0.14999999963E+04  0.15000000000E+04  0.10566000000E+00 0.  1.
        994   -1    0    0    0    0 -0.00000000000E+00 -0.00000000000E+00  0.11368683772E-12  0.17120000000E+03  0.17120000000E+03 0.  0.
         13    1    1    2    0    0 -0.11709621948E+03  0.27480363660E+03  0.11110619831E+04  0.11505161037E+04  0.10566000000E+00 0.  1.
        994    1    1    2    0    0  0.11724580075E+03 -0.27566867957E+03  0.38656763881E+03  0.51815420298E+03  0.17120000000E+03 0.  0.
        998    1    1    2    0    0 -0.14958127580E+00  0.86504297034E+00  0.23703743169E+01  0.25296933215E+01  0.10000000000E+00 0.  1.
</event>
<event>
 5    1  0.2022058E-009  0.3857712E+03  0.7957747E-01  0.3426408E+00
         13   -1    0    0    0    0  0.00000000000E+00  0.00000000000E+00  0.14999999963E+04  0.15000000000E+04  0.10566000000E+00 0. -1.
        994   -1    0    0    0    0 -0.00000000000E+00 -0.00000000000E+00  0.11368683772E-12  0.17120000000E+03  0.17120000000E+03 0.  0.
         13    1    1    2    0    0 -0.11490745260E+03 -0.64167096325E+02  0.66497685170E+03  0.67787562529E+03  0.10566000000E+00 0. -1.
        994    1    1    2    0    0  0.16917736378E+03  0.14430650476E+03  0.18497603942E+03  0.33611147391E+03  0.17120000000E+03 0.  0.
        998    1    1    2    0    0 -0.54269911187E+02 -0.80139408437E+02  0.65004710516E+03  0.65721290080E+03  0.10000000000E+00 0. -1.
</event>
<event>
 5    1  0.2022058E-009  0.3882728E+03  0.7957747E-01  0.3415909E+00
         13   -1    0    0    0    0  0.00000000000E+00  0.00000000000E+00  0.14999999963E+04  0.15000000000E+04  0.10566000000E+00 0.  1.
        994   -1    0    0    0    0 -0.00000000000E+00 -0.00000000000E+00  0.11368683772E-12  0.17120000000E+03  0.17120000000E+03 0.  0.
         13    1    1    2    0    0  0.58220006452E+01 -0.25878231736E+03  0.11945499296E+04  0.12222731810E+04  0.10566000000E+00 0.  1.
        994    1    1    2    0    0 -0.61152587151E+01  0.26427239497E+03  0.27537034138E+03  0.41834861066E+03  0.17120000000E+03 0.  0.
        998    1    1    2    0    0  0.29325806985E+00 -0.54900776099E+01  0.30079725324E+02  0.30578208385E+02  0.10000000000E+00 0.  1.
</event>
<event>
 5    1  0.2022058E-009  0.3859064E+03  0.7957747E-01  0.3425837E+00
         13   -1    0    0    0    0  0.00000000000E+00  0.00000000000E+00  0.14999999963E+04  0.15000000000E+04  0.10566000000E+00 0.  1.
        994   -1    0    0    0    0 -0.00000000000E+00 -0.00000000000E+00  0.11368683772E-12  0.17120000000E+03  0.17120000000E+03 0.  0.
         13    1    1    2    0    0  0.17292727554E+02  0.32121457950E+02  0.20434637635E+03  0.20757716439E+03  0.10566000000E+00 0.  1.
        994    1    1    2    0    0 -0.48121022952E+02 -0.10132959009E+03  0.43587941698E+02  0.20926697623E+03  0.17120000000E+03 0.  0.
        998    1    1    2    0    0  0.30828295398E+02  0.69208132140E+02  0.12520656782E+04  0.12543558594E+04  0.10000000000E+00 0.  1.
</event>
<event>
 5    1  0.2022058E-009  0.3883009E+03  0.7957747E-01  0.3415792E+00
         13   -1    0    0    0    0  0.00000000000E+00  0.00000000000E+00  0.14999999963E+04  0.15000000000E+04  0.10566000000E+00 0. -1.
        994   -1    0    0    0    0 -0.00000000000E+00 -0.00000000000E+00  0.11368683772E-12  0.17120000000E+03  0.17120000000E+03 0.  0.
         13    1    1    2    0    0 -0.16962613612E+03 -0.56022360554E+02  0.10234264978E+04  0.10389000619E+04  0.10566000000E+00 0. -1.
        994    1    1    2    0    0  0.21668517321E+03  0.71642162728E+02  0.19305301538E+03  0.34447637149E+03  0.17120000000E+03 0.  0.
        998    1    1    2    0    0 -0.47059037084E+02 -0.15619802174E+02  0.28352048308E+03  0.28782356664E+03  0.10000000000E+00 0. -1.
</event>
<event>
 5    1  0.2022058E-009  0.3882906E+03  0.7957747E-01  0.3415835E+00
         13   -1    0    0    0    0  0.00000000000E+00  0.00000000000E+00  0.14999999963E+04  0.15000000000E+04  0.10566000000E+00 0. -1.
        994   -1    0    0    0    0 -0.00000000000E+00 -0.00000000000E+00  0.11368683772E-12  0.17120000000E+03  0.17120000000E+03 0.  0.
         13    1    1    2    0    0  0.21655988060E+03  0.18571639937E+03  0.10126672129E+04  0.10520853853E+04  0.10566000000E+00 0. -1.
        994    1    1    2    0    0 -0.23321485387E+03 -0.19868231495E+03  0.41368613865E+03  0.54250298769E+03  0.17120000000E+03 0.  0.
        998    1    1    2    0    0  0.16654973273E+02  0.12965915583E+02  0.73646644764E+02  0.76611626968E+02  0.10000000000E+00 0.  1.
</event>
<event>
 5    1  0.2022058E-009  0.3883003E+03  0.7957747E-01  0.3415795E+00
         13   -1    0    0    0    0  0.00000000000E+00  0.00000000000E+00  0.14999999963E+04  0.15000000000E+04  0.10566000000E+00 0.  1.
        994   -1    0    0    0    0 -0.00000000000E+00 -0.00000000000E+00  0.11368683772E-12  0.17120000000E+03  0.17120000000E+03 0.  0.
         13    1    1    2    0    0 -0.23180097263E+03 -0.75054785251E+02  0.12472560577E+04  0.12708314587E+04  0.10566000000E+00 0.  1.
        994    1    1    2    0    0  0.23539767690E+03  0.76220458896E+02  0.23377800621E+03  0.38102916008E+03  0.17120000000E+03 0.  0.
        998    1    1    2    0    0 -0.35967042642E+01 -0.11656736441E+01  0.18965932364E+02  0.19339381247E+02  0.10000000000E+00 0.  0.
</event>
<event>
 5    1  0.2022058E-009  0.3850896E+03  0.7957747E-01  0.3429292E+00
         13   -1    0    0    0    0  0.00000000000E+00  0.00000000000E+00  0.14999999963E+04  0.15000000000E+04  0.10566000000E+00 0.  1.
        994   -1    0    0    0    0 -0.00000000000E+00 -0.00000000000E+00  0.11368683772E-12  0.17120000000E+03  0.17120000000E+03 0.  0.
         13    1    1    2    0    0  0.30247739860E+02 -0.54618575232E+01  0.14533038797E+03  0.14854524727E+03  0.10566000000E+00 0.  1.
        994    1    1    2    0    0 -0.99089730154E+02  0.11089227229E+03  0.78030238557E+02  0.23982082646E+03  0.17120000000E+03 0.  0.
        998    1    1    2    0    0  0.68841990294E+02 -0.10543041477E+03  0.12766393697E+04  0.12828339263E+04  0.10000000000E+00 0.  1.
</event>
<event>
 5    1  0.2022058E-009  0.3882960E+03  0.7957747E-01  0.3415812E+00
         13   -1    0    0    0    0  0.00000000000E+00  0.00000000000E+00  0.14999999963E+04  0.15000000000E+04  0.10566000000E+00 0.  1.
        994   -1    0    0    0    0 -0.00000000000E+00 -0.00000000000E+00  0.11368683772E-12  0.17120000000E+03  0.17120000000E+03 0.  0.
         13    1    1    2    0    0  0.20812986292E+03  0.67162219671E+02  0.12643515032E+04  0.12831264701E+04  0.10566000000E+00 0.  1.
        994    1    1    2    0    0 -0.21580267713E+03 -0.70013581338E+02  0.19042866399E+03  0.34211871199E+03  0.17120000000E+03 0.  0.
        998    1    1    2    0    0  0.76728142102E+01  0.28513616674E+01  0.45219829122E+02  0.45954817888E+02  0.10000000000E+00 0. -1.
</event>
<event>
 5    1  0.2022058E-009  0.3882268E+03  0.7957747E-01  0.3416101E+00
         13   -1    0    0    0    0  0.00000000000E+00  0.00000000000E+00  0.14999999963E+04  0.15000000000E+04  0.10566000000E+00 0.  1.
        994   -1    0    0    0    0 -0.00000000000E+00 -0.00000000000E+00  0.11368683772E-12  0.17120000000E+03  0.17120000000E+03 0.  0.
         13    1    1    2    0    0  0.14052044061E+03  0.16082646957E+03  0.11271432013E+04  0.11471978709E+04  0.10566000000E+00 0.  1.
        994    1    1    2    0    0 -0.16256049945E+03 -0.18048794176E+03  0.22372389187E+03  0.37197262385E+03  0.17120000000E+03 0.  0.
        998    1    1    2    0    0  0.22040058845E+02  0.19661472185E+02  0.14913290311E+03  0.15202950527E+03  0.10000000000E+00 0.  1.
</event>
<event>
 5    1  0.2022058E-009  0.3882989E+03  0.7957747E-01  0.3415801E+00
         13   -1    0    0    0    0  0.00000000000E+00  0.00000000000E+00  0.14999999963E+04  0.15000000000E+04  0.10566000000E+00 0.  1.
        994   -1    0    0    0    0 -0.00000000000E+00 -0.00000000000E+00  0.11368683772E-12  0.17120000000E+03  0.17120000000E+03 0.  0.
         13    1    1    2    0    0  0.20318664569E+03  0.22307430551E+02  0.97223411937E+03  0.99348962172E+03  0.10566000000E+00 0.  1.
        994    1    1    2    0    0 -0.25892887132E+03 -0.28004809729E+02  0.26519213321E+03  0.40922455606E+03  0.17120000000E+03 0.  0.
        998    1    1    2    0    0  0.55742225631E+02  0.56973791778E+01  0.26257374370E+03  0.26848582221E+03  0.10000000000E+00 0. -1.
</event>
<event>
 5    1  0.2022058E-009  0.3882486E+03  0.7957747E-01  0.3416010E+00
         13   -1    0    0    0    0  0.00000000000E+00  0.00000000000E+00  0.14999999963E+04  0.15000000000E+04  0.10566000000E+00 0. -1.
        994   -1    0    0    0    0 -0.00000000000E+00 -0.00000000000E+00  0.11368683772E-12  0.17120000000E+03  0.17120000000E+03 0.  0.
         13    1    1    2    0    0  0.58228163185E+02 -0.22104904367E+03  0.11977627175E+04  0.12193804727E+04  0.10566000000E+00 0. -1.
        994    1    1    2    0    0 -0.63593738125E+02  0.23401045166E+03  0.22279908966E+03  0.37115216471E+03  0.17120000000E+03 0.  0.
        998    1    1    2    0    0  0.53655749395E+01 -0.12961407985E+02  0.79438189136E+02  0.80667362574E+02  0.10000000000E+00 0.  1.
</event>
<event>
 5    1  0.2022058E-009  0.3872490E+03  0.7957747E-01  0.3420189E+00
         13   -1    0    0    0    0  0.00000000000E+00  0.00000000000E+00  0.14999999963E+04  0.15000000000E+04  0.10566000000E+00 0.  1.
        994   -1    0    0    0    0 -0.00000000000E+00 -0.00000000000E+00  0.11368683772E-12  0.17120000000E+03  0.17120000000E+03 0.  0.
         13    1    1    2    0    0  0.12306440439E+03 -0.19453405687E+03  0.11576484681E+04  0.11803128118E+04  0.10566000000E+00 0.  1.
        994    1    1    2    0    0 -0.12431502087E+03  0.21800564583E+03  0.24366204118E+03  0.38943717894E+03  0.17120000000E+03 0.  0.
        998    1    1    2    0    0  0.12506164805E+01 -0.23471588962E+02  0.98689486983E+02  0.10145000922E+03  0.10000000000E+00 0. -1.
</event>
<event>
 5    1  0.2022058E-009  0.3882994E+03  0.7957747E-01  0.3415798E+00
         13   -1    0    0    0    0  0.00000000000E+00  0.00000000000E+00  0.14999999963E+04  0.15000000000E+04  0.10566000000E+00 0. -1.
        994   -1    0    0    0    0 -0.00000000000E+00 -0.00000000000E+00  0.11368683772E-12  0.17120000000E+03  0.17120000000E+03 0.  0.
         13    1    1    2    0    0  0.82745416462E+02  0.13046661563E+03  0.91635298882E+03  0.92928529151E+03  0.10566000000E+00 0. -1.
        994    1    1    2    0    0 -0.11938707549E+03 -0.18687153628E+03  0.18065154072E+03  0.33334466252E+03  0.17120000000E+03 0.  0.
        998    1    1    2    0    0  0.36641659030E+02  0.56404920652E+02  0.40299546674E+03  0.40857004597E+03  0.10000000000E+00 0.  1.
</event>
<event>
 5    1  0.2022058E-009  0.3882986E+03  0.7957747E-01  0.3415802E+00
         13   -1    0    0    0    0  0.00000000000E+00  0.00000000000E+00  0.14999999963E+04  0.15000000000E+04  0.10566000000E+00 0.  1.
        994   -1    0    0    0    0 -0.00000000000E+00 -0.00000000000E+00  0.11368683772E-12  0.17120000000E+03  0.17120000000E+03 0.  0.
         13    1    1    2    0    0  0.14210645267E+03 -0.28838581171E+03  0.10046946974E+04  0.10548801194E+04  0.10566000000E+00 0.  1.
        994    1    1    2    0    0 -0.14266141323E+03  0.28940053985E+03  0.49163182210E+03  0.61246733773E+03  0.17120000000E+03 0.  0.
        998    1    1    2    0    0  0.55496055574E+00 -0.10147281379E+01  0.36734768015E+01  0.38525428257E+01  0.10000000000E+00 0.  0.
</event>
<event>
 5    1  0.2022058E-009  0.3880813E+03  0.7957747E-01  0.3416708E+00
         13   -1    0    0    0    0  0.00000000000E+00  0.00000000000E+00  0.14999999963E+04  0.15000000000E+04  0.10566000000E+00 0.  1.
        994   -1    0    0    0    0 -0.00000000000E+00 -0.00000000000E+00  0.11368683772E-12  0.17120000000E+03  0.17120000000E+03 0.  0.
         13    1    1    2    0    0 -0.12603627367E+03 -0.17794556646E+03  0.11474826373E+04  0.11680180568E+04  0.10566000000E+00 0.  1.
        994    1    1    2    0    0  0.14150442055E+03  0.19288899029E+03  0.21594518002E+03  0.36492660136E+03  0.17120000000E+03 0.  0.
        998    1    1    2    0    0 -0.15468146884E+02 -0.14943423831E+02  0.13657217894E+03  0.13825534183E+03  0.10000000000E+00 0.  1.
</event>
<event>
 5    1  0.2022058E-009  0.3882154E+03  0.7957747E-01  0.3416149E+00
         13   -1    0    0    0    0  0.00000000000E+00  0.00000000000E+00  0.14999999963E+04  0.15000000000E+04  0.10566000000E+00 0. -1.
        994   -1    0    0    0    0 -0.00000000000E+00 -0.00000000000E+00  0.11368683772E-12  0.17120000000E+03  0.17120000000E+03 0.  0.
         13    1    1    2    0    0 -0.23837776112E+03  0.12076133559E+03  0.11932688051E+04  0.12228236625E+04  0.10566000000E+00 0. -1.
        994    1    1    2    0    0  0.24046810743E+03 -0.12203021842E+03  0.28986079363E+03  0.43132934584E+03  0.17120000000E+03 0.  0.
        998    1    1    2    0    0 -0.20903463087E+01  0.12688828288E+01  0.16870397546E+02  0.17046991661E+02  0.10000000000E+00 0.  1.
</event>
<event>
 5    1  0.2022058E-009  0.3872007E+03  0.7957747E-01  0.3420392E+00
         13   -1    0    0    0    0  0.00000000000E+00  0.00000000000E+00  0.14999999963E+04  0.15000000000E+04  0.10566000000E+00 0.  1.
        994   -1    0    0    0    0 -0.00000000000E+00 -0.00000000000E+00  0.11368683772E-12  0.17120000000E+03  0.17120000000E+03 0.  0.
         13    1    1    2    0    0 -0.58059881298E+02 -0.14348958240E+03  0.37515952442E+03  0.40583850237E+03  0.10566000000E+00 0.  1.
        994    1    1    2    0    0  0.16106665161E+03  0.30654126133E+03  0.72803137102E+03  0.82416571656E+03  0.17120000000E+03 0.  0.
        998    1    1    2    0    0 -0.10300677031E+03 -0.16305167893E+03  0.39680910084E+03  0.44119578107E+03  0.10000000000E+00 0.  1.
</event>
<event>
 5    1  0.2022058E-009  0.3882789E+03  0.7957747E-01  0.3415884E+00
         13   -1    0    0    0    0  0.00000000000E+00  0.00000000000E+00  0.14999999963E+04  0.15000000000E+04  0.10566000000E+00 0. -1.
        994   -1    0    0    0    0 -0.00000000000E+00 -0.00000000000E+00  0.11368683772E-12  0.17120000000E+03  0.17120000000E+03 0.  0.
         13    1    1    2    0    0  0.12910132673E+03 -0.18753346126E+03  0.10773736894E+04  0.11011675756E+04  0.10566000000E+00 0. -1.
        994    1    1    2    0    0 -0.14591970483E+03  0.21569020392E+03  0.26516086596E+03  0.40918766985E+03  0.17120000000E+03 0.  0.
        998    1    1    2    0    0  0.16818378101E+02 -0.28156742654E+02  0.15746544090E+03  0.16084475458E+03  0.10000000000E+00 0. -1.
</event>
<event>
 5    1  0.2602936E-009  0.3882517E+03  0.7957747E-01  0.3415997E+00
         13   -1    0    0    0    0  0.00000000000E+00  0.00000000000E+00  0.14999999963E+04  0.15000000000E+04  0.10566000000E+00 0.  1.
        994   -1    0    0    0    0 -0.00000000000E+00 -0.00000000000E+00  0.11368683772E-12  0.17120000000E+03  0.17120000000E+03 0.  0.
         13    1    1    2    0    0 -0.30342408888E+03 -0.91439158882E+02  0.10374026243E+04  0.10847264695E+04  0.10566000000E+00 0.  1.
        994    1    1    2    0    0  0.30356810087E+03  0.91351519041E+02  0.46224663989E+03  0.58607174304E+03  0.17120000000E+03 0.  0.
        998    1    1    2    0    0 -0.14401199135E+00  0.87639840676E-01  0.35073209318E+00  0.40178750168E+00  0.10000000000E+00 0. -1.
</event>
<event>
 5    1  0.2022058E-009  0.3882849E+03  0.7957747E-01  0.3415859E+00
         13   -1    0    0    0    0  0.00000000000E+00  0.00000000000E+00  0.14999999963E+04  0.15000000000E+04  0.10566000000E+00 0.  1.
        994   -1    0    0    0    0 -0.00000000000E+00 -0.00000000000E+00  0.11368683772E-12  0.17120000000E+03  0.17120000000E+03 0.  0.
         13    1    1    2    0    0 -0.24396429324E+03  0.25633900060E+02  0.12609706741E+04  0.12846099507E+04  0.10566000000E+00 0.  1.
        994    1    1    2    0    0  0.24526407033E+03 -0.25437378636E+02  0.23186403272E+03  0.37930448732E+03  0.17120000000E+03 0.  0.
        998    1    1    2    0    0 -0.12997770936E+01 -0.19652142469E+00  0.71652894321E+01  0.72855620105E+01  0.10000000000E+00 0. -1.
</event>
<event>
 5    1  0.2022058E-009  0.3883004E+03  0.7957747E-01  0.3415794E+00
         13   -1    0    0    0    0  0.00000000000E+00  0.00000000000E+00  0.14999999963E+04  0.15000000000E+04  0.10566000000E+00 0. -1.
        994   -1    0    0    0    0 -0.00000000000E+00 -0.00000000000E+00  0.11368683772E-12  0.17120000000E+03  0.17120000000E+03 0.  0.
         13    1    1    2    0    0 -0.84225585627E+02 -0.17650489624E+03  0.10913890431E+04  0.11087731879E+04  0.10566000000E+00 0. -1.
        994    1    1    2    0    0  0.10014647233E+03  0.21024779497E+03  0.20237598430E+03  0.35284405937E+03  0.17120000000E+03 0.  0.
        998    1    1    2    0    0 -0.15920886704E+02 -0.33742898728E+02  0.20623496892E+03  0.20958275275E+03  0.10000000000E+00 0.  1.
</event>
<event>
 5    1  0.2022058E-009  0.3882961E+03  0.7957747E-01  0.3415812E+00
         13   -1    0    0    0    0  0.00000000000E+00  0.00000000000E+00  0.14999999963E+04  0.15000000000E+04  0.10566000000E+00 0.  1.
        994   -1    0    0    0    0 -0.00000000000E+00 -0.00000000000E+00  0.11368683772E-12  0.17120000000E+03  0.17120000000E+03 0.  0.
         13    1    1    2    0    0 -0.88779702733E+02  0.20257126147E+03  0.13148719718E+04  0.13333436410E+04  0.10566000000E+00 0.  1.
        994    1    1    2    0    0  0.89146501011E+02 -0.20314554979E+03  0.18082850469E+03  0.33350202571E+03  0.17120000000E+03 0.  0.
        998    1    1    2    0    0 -0.36679827797E+00  0.57428832456E+00  0.42995198269E+01  0.43543333356E+01  0.10000000000E+00 0.  1.
</event>
<event>
 5    1  0.2022058E-009  0.3883003E+03  0.7957747E-01  0.3415795E+00
         13   -1    0    0    0    0  0.00000000000E+00  0.00000000000E+00  0.14999999963E+04  0.15000000000E+04  0.10566000000E+00 0. -1.
        994   -1    0    0    0    0 -0.00000000000E+00 -0.00000000000E+00  0.11368683772E-12  0.17120000000E+03  0.17120000000E+03 0.  0.
         13    1    1    2    0    0 -0.45393875498E+02  0.21283451760E+03  0.10718096781E+04  0.10936796300E+04  0.10566000000E+00 0. -1.
        994    1    1    2    0    0  0.52903391307E+02 -0.24813801274E+03  0.24852541190E+03  0.39426585261E+03  0.17120000000E+03 0.  0.
        998    1    1    2    0    0 -0.75095158093E+01  0.35303495144E+02  0.17966490631E+03  0.18325451742E+03  0.10000000000E+00 0.  1.
</event>
<event>
 5    1  0.2204827E-009  0.3882828E+03  0.7957747E-01  0.3415868E+00
         13   -1    0    0    0    0  0.00000000000E+00  0.00000000000E+00  0.14999999963E+04  0.15000000000E+04  0.10566000000E+00 0.  1.
        994   -1    0    0    0    0 -0.00000000000E+00 -0.00000000000E+00  0.11368683772E-12  0.17120000000E+03  0.17120000000E+03 0.  0.
         13    1    1    2    0    0  0.18109254425E+03  0.18851684272E+03  0.12292524219E+04  0.12567396856E+04  0.10566000000E+00 0.  1.
        994    1    1    2    0    0 -0.18122633137E+03 -0.18882655441E+03  0.26851214391E+03  0.41219735839E+03  0.17120000000E+03 0.  0.
        998    1    1    2    0    0  0.13378711666E+00  0.30971169492E+00  0.22354304803E+01  0.22629559781E+01  0.10000000000E+00 0. -1.
</event>
<event>
 5    1  0.2022058E-009  0.3882570E+03  0.7957747E-01  0.3415975E+00
         13   -1    0    0    0    0  0.00000000000E+00  0.00000000000E+00  0.14999999963E+04  0.15000000000E+04  0.10566000000E+00 0.  1.
        994   -1    0    0    0    0 -0.00000000000E+00 -0.00000000000E+00  0.11368683772E-12  0.17120000000E+03  0.17120000000E+03 0.  0.
         13    1    1    2    0    0  0.14633298361E+02 -0.34577635385E+03  0.75973552230E+03  0.83484938481E+03  0.10566000000E+00 0.  1.
        994    1    1    2    0    0 -0.14293775223E+02  0.34739611725E+03  0.73741739160E+03  0.83305595474E+03  0.17120000000E+03 0.  0.
        998    1    1    2    0    0 -0.33952313759E+00 -0.16197633981E+01  0.28470823755E+01  0.32946604499E+01  0.10000000000E+00 0.  1.
</event>
<event>
 5    1  0.2022058E-009  0.3882949E+03  0.7957747E-01  0.3415817E+00
         13   -1    0    0    0    0  0.00000000000E+00  0.00000000000E+00  0.14999999963E+04  0.15000000000E+04  0.10566000000E+00 0. -1.
        994   -1    0    0    0    0 -0.00000000000E+00 -0.00000000000E+00  0.11368683772E-12  0.17120000000E+03  0.17120000000E+03 0.  0.
         13    1    1    2    0    0 -0.12450311849E+03  0.19621008329E+03  0.12822750946E+04  0.13031611000E+04  0.10566000000E+00 0. -1.
        994    1    1    2    0    0  0.12556241525E+03 -0.19785825414E+03  0.20536678156E+03  0.35552603818E+03  0.17120000000E+03 0.  0.
        998    1    1    2    0    0 -0.10592967594E+01  0.16481708484E+01  0.12358120164E+02  0.12512861813E+02  0.10000000000E+00 0. -1.
</event>
<event>
 5    1  0.2022058E-009  0.3873696E+03  0.7957747E-01  0.3419684E+00
         13   -1    0    0    0    0  0.00000000000E+00  0.00000000000E+00  0.14999999963E+04  0.15000000000E+04  0.10566000000E+00 0. -1.
        994   -1    0    0    0    0 -0.00000000000E+00 -0.00000000000E+00  0.11368683772E-12  0.17120000000E+03  0.17120000000E+03 0.  0.
         13    1    1    2    0    0 -0.23559789205E+03  0.94964870604E+02  0.11176032807E+04  0.11461072365E+04  0.10566000000E+00 0. -1.
        994    1    1    2    0    0  0.24735703502E+03 -0.97553404117E+02  0.28120674749E+03  0.42318889903E+03  0.17120000000E+03 0.  0.
        998    1    1    2    0    0 -0.11759142973E+02  0.25885335130E+01  0.10118996811E+03  0.10190386448E+03  0.10000000000E+00 0. -1.
</event>
<event>
 5    1  0.2954921E-009  0.3882878E+03  0.7957747E-01  0.3415847E+00
         13   -1    0    0    0    0  0.00000000000E+00  0.00000000000E+00  0.14999999963E+04  0.15000000000E+04  0.10566000000E+00 0. -1.
        994   -1    0    0    0    0 -0.00000000000E+00 -0.00000000000E+00  0.11368683772E-12  0.17120000000E+03  0.17120000000E+03 0.  0.
         13    1    1    2    0    0  0.25936948114E+03  0.79608956634E+02  0.12028758371E+04  0.12330938343E+04  0.10566000000E+00 0. -1.
        994    1    1    2    0    0 -0.25964137766E+03 -0.79751178453E+02  0.29518177351E+03  0.43613715145E+03  0.17120000000E+03 0.  0.
        998    1    1    2    0    0  0.27189652053E+00  0.14222181909E+00  0.19423857010E+01  0.19690142141E+01  0.10000000000E+00 0. -1.
</event>
<event>
 5    1  0.4146658E-009  0.3882797E+03  0.7957747E-01  0.3415881E+00
         13   -1    0    0    0    0  0.00000000000E+00  0.00000000000E+00  0.14999999963E+04  0.15000000000E+04  0.10566000000E+00 0. -1.
        994   -1    0    0    0    0 -0.00000000000E+00 -0.00000000000E+00  0.11368683772E-12  0.17120000000E+03  0.17120000000E+03 0.  0.
         13    1    1    2    0    0  0.39005116400E+02  0.29853704061E+03  0.11068960891E+04  0.11471114711E+04  0.10566000000E+00 0. -1.
        994    1    1    2    0    0 -0.39019022121E+02 -0.29863935985E+03  0.39275768874E+03  0.52371365593E+03  0.17120000000E+03 0.  0.
        998    1    1    2    0    0  0.13905721099E-01  0.10231924019E+00  0.34621839489E+00  0.37487300910E+00  0.10000000000E+00 0.  0.
</event>
<event>
 5    1  0.2022058E-009  0.3882351E+03  0.7957747E-01  0.3416067E+00
         13   -1    0    0    0    0  0.00000000000E+00  0.00000000000E+00  0.14999999963E+04  0.15000000000E+04  0.10566000000E+00 0.  1.
        994   -1    0    0    0    0 -0.00000000000E+00 -0.00000000000E+00  0.11368683772E-12  0.17120000000E+03  0.17120000000E+03 0.  0.
         13    1    1    2    0    0  0.24243791958E+03 -0.13387241430E+03  0.11771123721E+04  0.12092524616E+04  0.10566000000E+00 0.  1.
        994    1    1    2    0    0 -0.24332752338E+03  0.13497562978E+03  0.31464404726E+03  0.45358242993E+03  0.17120000000E+03 0.  0.
        998    1    1    2    0    0  0.88960380575E+00 -0.11032154775E+01  0.82435769348E+01  0.83651084871E+01  0.10000000000E+00 0. -1.
</event>
<event>
 5    1  0.2022058E-009  0.3882996E+03  0.7957747E-01  0.3415798E+00
         13   -1    0    0    0    0  0.00000000000E+00  0.00000000000E+00  0.14999999963E+04  0.15000000000E+04  0.10566000000E+00 0.  1.
        994   -1    0    0    0    0 -0.00000000000E+00 -0.00000000000E+00  0.11368683772E-12  0.17120000000E+03  0.17120000000E+03 0.  0.
         13    1    1    2    0    0  0.17707986135E+02  0.20643957053E+03  0.10355290020E+04  0.10560545413E+04  0.10566000000E+00 0.  1.
        994    1    1    2    0    0 -0.20991373166E+02 -0.25028888384E+03  0.24245684934E+03  0.38881862984E+03  0.17120000000E+03 0.  0.
        998    1    1    2    0    0  0.32833870308E+01  0.43849313313E+02  0.22201414491E+03  0.22632682884E+03  0.10000000000E+00 0.  1.
</event>
<event>
 5    1  0.2022058E-009  0.3881971E+03  0.7957747E-01  0.3416225E+00
         13   -1    0    0    0    0  0.00000000000E+00  0.00000000000E+00  0.14999999963E+04  0.15000000000E+04  0.10566000000E+00 0. -1.
        994   -1    0    0    0    0 -0.00000000000E+00 -0.00000000000E+00  0.11368683772E-12  0.17120000000E+03  0.17120000000E+03 0.  0.
         13    1    1    2    0    0 -0.20094594836E+03  0.36708701512E+02  0.74335229606E+03  0.77090819826E+03  0.10566000000E+00 0. -1.
        994    1    1    2    0    0  0.29885332749E+03 -0.61547614168E+02  0.40881560329E+03  0.53809019472E+03  0.17120000000E+03 0.  0.
        998    1    1    2    0    0 -0.97907379125E+02  0.24838912656E+02  0.34783209693E+03  0.36220160702E+03  0.10000000000E+00 0. -1.
</event>
<event>
 5    1  0.2022058E-009  0.3882341E+03  0.7957747E-01  0.3416071E+00
         13   -1    0    0    0    0  0.00000000000E+00  0.00000000000E+00  0.14999999963E+04  0.15000000000E+04  0.10566000000E+00 0.  1.
        994   -1    0    0    0    0 -0.00000000000E+00 -0.00000000000E+00  0.11368683772E-12  0.17120000000E+03  0.17120000000E+03 0.  0.
         13    1    1    2    0    0 -0.20724537680E+03  0.18144279528E+03  0.11841131487E+04  0.12157286269E+04  0.10566000000E+00 0.  1.
        994    1    1    2    0    0  0.20845104793E+03 -0.18170340435E+03  0.30949020838E+03  0.44895611770E+03  0.17120000000E+03 0.  0.
        998    1    1    2    0    0 -0.12056711272E+01  0.26060907568E+00  0.63966392271E+01  0.65152554332E+01  0.10000000000E+00 0. -1.
</event>
<event>
 5    1  0.2022058E-009  0.3829627E+03  0.7957747E-01  0.3438359E+00
         13   -1    0    0    0    0  0.00000000000E+00  0.00000000000E+00  0.14999999963E+04  0.15000000000E+04  0.10566000000E+00 0.  1.
        994   -1    0    0    0    0 -0.00000000000E+00 -0.00000000000E+00  0.11368683772E-12  0.17120000000E+03  0.17120000000E+03 0.  0.
         13    1    1    2    0    0 -0.30325077030E+02 -0.63648814643E+02  0.38347122249E+03  0.38989866830E+03  0.10566000000E+00 0.  1.
        994    1    1    2    0    0  0.50116891515E+01  0.13760398664E+03  0.68175071952E+02  0.23003750695E+03  0.17120000000E+03 0.  0.
        998    1    1    2    0    0  0.25313387878E+02 -0.73955171996E+02  0.10483537018E+04  0.10512638248E+04  0.10000000000E+00 0.  1.
</event>
<event>
 5    1  0.2022058E-009  0.3883002E+03  0.7957747E-01  0.3415795E+00
         13   -1    0    0    0    0  0.00000000000E+00  0.00000000000E+00  0.14999999963E+04  0.15000000000E+04  0.10566000000E+00 0. -1.
        994   -1    0    0    0    0 -0.00000000000E+00 -0.00000000000E+00  0.11368683772E-12  0.17120000000E+03  0.17120000000E+03 0.  0.
         13    1    1    2    0    0  0.13764364392E+03  0.15661316838E+03  0.11081964998E+04  0.11276404349E+04  0.10566000000E+00 0. -1.
        994    1    1    2    0    0 -0.15902131068E+03 -0.18131777335E+03  0.21982535059E+03  0.36850581671E+03  0.17120000000E+03 0.  0.
        998    1    1    2    0    0  0.21377666764E+02  0.24704604969E+02  0.17197814592E+03  0.17505374836E+03  0.10000000000E+00 0. -1.
</event>
<event>
 5    1  0.2022058E-009  0.3882679E+03  0.7957747E-01  0.3415930E+00
         13   -1    0    0    0    0  0.00000000000E+00  0.00000000000E+00  0.14999999963E+04  0.15000000000E+04  0.10566000000E+00 0.  1.
        994   -1    0    0    0    0 -0.00000000000E+00 -0.00000000000E+00  0.11368683772E-12  0.17120000000E+03  0.17120000000E+03 0.  0.
         13    1    1    2    0    0 -0.10825624859E+03 -0.24054700173E+03  0.12173825546E+04  0.12456334014E+04  0.10566000000E+00 0.  1.
        994    1    1    2    0    0  0.10911455861E+03  0.24169869917E+03  0.27761637325E+03  0.42036238982E+03  0.17120000000E+03 0.  0.
        998    1    1    2    0    0 -0.85831001472E+00 -0.11516974385E+01  0.50010684780E+01  0.52042087768E+01  0.10000000000E+00 0. -1.
</event>
<event>
 5    1  0.2022058E-009  0.3800741E+03  0.7957747E-01  0.3450836E+00
         13   -1    0    0    0    0  0.00000000000E+00  0.00000000000E+00  0.14999999963E+04  0.15000000000E+04  0.10566000000E+00 0.  1.
        994   -1    0    0    0    0 -0.00000000000E+00 -0.00000000000E+00  0.11368683772E-12  0.17120000000E+03  0.17120000000E+03 0.  0.
         13    1    1    2    0    0  0.44863531747E+01  0.94773844202E+01  0.99368897790E+01  0.14446491712E+02  0.10566000000E+00 0.  1.
        994    1    1    2    0    0  0.11583406586E+03 -0.10541627399E+03  0.90979944935E+02  0.24923264637E+03  0.17120000000E+03 0.  0.
        998    1    1    2    0    0 -0.12032041903E+03  0.95938889569E+02  0.13990831616E+04  0.14075208619E+04  0.10000000000E+00 0.  1.
</event>
<event>
 5    1  0.2521547E-009  0.3882887E+03  0.7957747E-01  0.3415843E+00
         13   -1    0    0    0    0  0.00000000000E+00  0.00000000000E+00  0.14999999963E+04  0.15000000000E+04  0.10566000000E+00 0. -1.
        994   -1    0    0    0    0 -0.00000000000E+00 -0.00000000000E+00  0.11368683772E-12  0.17120000000E+03  0.17120000000E+03 0.  0.
         13    1    1    2    0    0  0.28931656484E+03  0.79872075913E+02  0.11093720303E+04  0.11492562534E+04  0.10566000000E+00 0. -1.
        994    1    1    2    0    0 -0.28959555154E+03 -0.79916944083E+02  0.38979466833E+03  0.52105817802E+03  0.17120000000E+03 0.  0.
        998    1    1    2    0    0  0.27898670537E+00  0.44868169501E-01  0.83329761947E+00  0.88556855015E+00  0.10000000000E+00 0.  0.
</event>
<event>
 5    1  0.2022058E-009  0.3859657E+03  0.7957747E-01  0.3425587E+00
         13   -1    0    0    0    0  0.00000000000E+00  0.00000000000E+00  0.14999999963E+04  0.15000000000E+04  0.10566000000E+00 0.  1.
        994   -1    0    0    0    0 -0.00000000000E+00 -0.00000000000E+00  0.11368683772E-12  0.17120000000E+03  0.17120000000E+03 0.  0.
         13    1    1    2    0    0 -0.24425809221E+03 -0.19635295548E+03  0.73589992857E+03  0.79985324577E+03  0.10566000000E+00 0.  1.
        994    1    1    2    0    0  0.27252109707E+03  0.20461425276E+03  0.65106670901E+03  0.75454094677E+03  0.17120000000E+03 0.  0.
        998    1    1    2    0    0 -0.28263004856E+02 -0.82612972844E+01  0.11303335870E+03  0.11680580745E+03  0.10000000000E+00 0. -1.
</event>
<event>
 5    1  0.2022058E-009  0.3881354E+03  0.7957747E-01  0.3416482E+00
         13   -1    0    0    0    0  0.00000000000E+00  0.00000000000E+00  0.14999999963E+04  0.15000000000E+04  0.10566000000E+00 0.  1.
        994   -1    0    0    0    0 -0.00000000000E+00 -0.00000000000E+00  0.11368683772E-12  0.17120000000E+03  0.17120000000E+03 0.  0.
         13    1    1    2    0    0  0.76914156089E+02  0.20091432666E+03  0.12694822275E+04  0.12875820328E+04  0.10566000000E+00 0.  1.
        994    1    1    2    0    0 -0.79602686712E+02 -0.21066684523E+03  0.18740341950E+03  0.33933256409E+03  0.17120000000E+03 0.  0.
        998    1    1    2    0    0  0.26885306224E+01  0.97525185726E+01  0.43114349299E+02  0.44285403136E+02  0.10000000000E+00 0.  1.
</event>
<event>
 5    1  0.2022058E-009  0.3882502E+03  0.7957747E-01  0.3416003E+00
         13   -1    0    0    0    0  0.00000000000E+00  0.00000000000E+00  0.14999999963E+04  0.15000000000E+04  0.10566000000E+00 0. -1.
        994   -1    0    0    0    0 -0.00000000000E+00 -0.00000000000E+00  0.11368683772E-12  0.17120000000E+03  0.17120000000E+03 0.  0.
         13    1    1    2    0    0 -0.92818148446E+02  0.10706519215E+03  0.84067661909E+03  0.85253466387E+03  0.10566000000E+00 0. -1.
        994    1    1    2    0    0  0.14137784610E+03 -0.16491978426E+03  0.17238213957E+03  0.32590070980E+03  0.17120000000E+03 0.  0.
        998    1    1    2    0    0 -0.48559697649E+02  0.57854592118E+02  0.48694123762E+03  0.49276462633E+03  0.10000000000E+00 0.  1.
</event>
<event>
 5    1  0.2022058E-009  0.3879690E+03  0.7957747E-01  0.3417177E+00
         13   -1    0    0    0    0  0.00000000000E+00  0.00000000000E+00  0.14999999963E+04  0.15000000000E+04  0.10566000000E+00 0. -1.
        994   -1    0    0    0    0 -0.00000000000E+00 -0.00000000000E+00  0.11368683772E-12  0.17120000000E+03  0.17120000000E+03 0.  0.
         13    1    1    2    0    0  0.16001905015E+03  0.12888224573E+03  0.11626539363E+04  0.11806696899E+04  0.10566000000E+00 0. -1.
        994    1    1    2    0    0 -0.17871656542E+03 -0.13764183661E+03  0.18833315602E+03  0.34009366886E+03  0.17120000000E+03 0.  0.
        998    1    1    2    0    0  0.18697515270E+02  0.87595908824E+01  0.14901290391E+03  0.15043664128E+03  0.10000000000E+00 0.  1.
</event>
<event>
 5    1  0.2022058E-009  0.3882896E+03  0.7957747E-01  0.3415839E+00
         13   -1    0    0    0    0  0.00000000000E+00  0.00000000000E+00  0.14999999963E+04  0.15000000000E+04  0.10566000000E+00 0. -1.
        994   -1    0    0    0    0 -0.00000000000E+00 -0.00000000000E+00  0.11368683772E-12  0.17120000000E+03  0.17120000000E+03 0.  0.
         13    1    1    2    0    0  0.59286159339E+02  0.20669274629E+03  0.10928411869E+04  0.11137946898E+04  0.10566000000E+00 0. -1.
        994    1    1    2    0    0 -0.69709476902E+02 -0.23957973732E+03  0.23860347056E+03  0.38535557330E+03  0.17120000000E+03 0.  0.
        998    1    1    2    0    0  0.10423317563E+02  0.32886991038E+02  0.16855533880E+03  0.17204973690E+03  0.10000000000E+00 0. -1.
</event>
<event>
 5    1  0.2022058E-009  0.3883005E+03  0.7957747E-01  0.3415794E+00
         13   -1    0    0    0    0  0.00000000000E+00  0.00000000000E+00  0.14999999963E+04  0.15000000000E+04  0.10566000000E+00 0. -1.
        994   -1    0    0    0    0 -0.00000000000E+00 -0.00000000000E+00  0.11368683772E-12  0.17120000000E+03  0.17120000000E+03 0.  0.
         13    1    1    2    0    0 -0.96904350437E+02  0.21026213003E+03  0.12237966945E+04  0.12455035034E+04  0.10566000000E+00 0. -1.
        994    1    1    2    0    0  0.10137050538E+03 -0.21961736830E+03  0.22137692040E+03  0.36989856542E+03  0.17120000000E+03 0.  0.
        998    1    1    2    0    0 -0.44661549414E+01  0.93552382733E+01  0.54826381422E+02  0.55797931171E+02  0.10000000000E+00 0. -1.
</event>
<event>
 5    1  0.3741828E-009  0.3882815E+03  0.7957747E-01  0.3415873E+00
         13   -1    0    0    0    0  0.00000000000E+00  0.00000000000E+00  0.14999999963E+04  0.15000000000E+04  0.10566000000E+00 0.  1.
        994   -1    0    0    0    0 -0.00000000000E+00 -0.00000000000E+00  0.11368683772E-12  0.17120000000E+03  0.17120000000E+03 0.  0.
         13    1    1    2    0    0  0.30001017834E+03  0.94889946271E+02  0.10457158392E+04  0.10920310603E+04  0.10566000000E+00 0.  1.
        994    1    1    2    0    0 -0.30033612081E+03 -0.95103572419E+02  0.45245816450E+03  0.57729914738E+03  0.17120000000E+03 0.  0.
        998    1    1    2    0    0  0.32594247005E+00  0.21362614743E+00  0.18259925635E+01  0.18697923592E+01  0.10000000000E+00 0. -1.
</event>
<event>
 5    1  0.2022058E-009  0.3882541E+03  0.7957747E-01  0.3415988E+00
         13   -1    0    0    0    0  0.00000000000E+00  0.00000000000E+00  0.14999999963E+04  0.15000000000E+04  0.10566000000E+00 0. -1.
        994   -1    0    0    0    0 -0.00000000000E+00 -0.00000000000E+00  0.11368683772E-12  0.17120000000E+03  0.17120000000E+03 0.  0.
         13    1    1    2    0    0 -0.19494390255E+02 -0.30272009081E+03  0.10870102590E+04  0.11285436628E+04  0.10566000000E+00 0. -1.
        994    1    1    2    0    0  0.20133682422E+02  0.30407885160E+03  0.40707295915E+03  0.53655115994E+03  0.17120000000E+03 0.  0.
        998    1    1    2    0    0 -0.63929216711E+00 -0.13587607846E+01  0.59167781683E+01  0.61051772486E+01  0.10000000000E+00 0. -1.
</event>
<event>
 5    1  0.2022058E-009  0.3829944E+03  0.7957747E-01  0.3438223E+00
         13   -1    0    0    0    0  0.00000000000E+00  0.00000000000E+00  0.14999999963E+04  0.15000000000E+04  0.10566000000E+00 0.  1.
        994   -1    0    0    0    0 -0.00000000000E+00 -0.00000000000E+00  0.11368683772E-12  0.17120000000E+03  0.17120000000E+03 0.  0.
         13    1    1    2    0    0 -0.11959384184E+03  0.23658264222E+03  0.12059309721E+04  0.12347240802E+04  0.10566000000E+00 0.  1.
        994    1    1    2    0    0  0.11735766273E+03 -0.23871561424E+03  0.29566567403E+03  0.43299606959E+03  0.17120000000E+03 0.  0.
        998    1    1    2    0    0  0.22361791102E+01  0.21329720124E+01 -0.15966498587E+01  0.34798501965E+01  0.10000000000E+00 0. -1.
</event>
<event>
 5    1  0.2022058E-009  0.3882954E+03  0.7957747E-01  0.3415815E+00
         13   -1    0    0    0    0  0.00000000000E+00  0.00000000000E+00  0.14999999963E+04  0.15000000000E+04  0.10566000000E+00 0.  1.
        994   -1    0    0    0    0 -0.00000000000E+00 -0.00000000000E+00  0.11368683772E-12  0.17120000000E+03  0.17120000000E+03 0.  0.
         13    1    1    2    0    0 -0.21981154629E+02 -0.28815822554E+03  0.10771033456E+04  0.11151995168E+04  0.10566000000E+00 0.  1.
        994    1    1    2    0    0  0.23281479694E+02  0.29828525810E+03  0.38507699337E+03  0.51682671498E+03  0.17120000000E+03 0.  0.
        998    1    1    2    0    0 -0.13003250651E+01 -0.10127032557E+02  0.37819657360E+02  0.39173768219E+02  0.10000000000E+00 0.  1.
</event>
<event>
 5    1  0.2022058E-009  0.3873886E+03  0.7957747E-01  0.3419605E+00
         13   -1    0    0    0    0  0.00000000000E+00  0.00000000000E+00  0.14999999963E+04  0.15000000000E+04  0.10566000000E+00 0.  1.
        994   -1    0    0    0    0 -0.00000000000E+00 -0.00000000000E+00  0.11368683772E-12  0.17120000000E+03  0.17120000000E+03 0.  0.
         13    1    1    2    0    0  0.18491467166E+03  0.18232097376E+03  0.11497336739E+04  0.11786950010E+04  0.10566000000E+00 0.  1.
        994    1    1    2    0    0 -0.19813561785E+03 -0.19183341223E+03  0.30908450967E+03  0.44821920444E+03  0.17120000000E+03 0.  0.
        998    1    1    2    0    0  0.13220946190E+02  0.95124384760E+01  0.41181812697E+02  0.44285794572E+02  0.10000000000E+00 0.  1.
</event>
<event>
 5    1  0.2022058E-009  0.3882992E+03  0.7957747E-01  0.3415799E+00
         13   -1    0    0    0    0  0.00000000000E+00  0.00000000000E+00  0.14999999963E+04  0.15000000000E+04  0.10566000000E+00 0.  1.
        994   -1    0    0    0    0 -0.00000000000E+00 -0.00000000000E+00  0.11368683772E-12  0.17120000000E+03  0.17120000000E+03 0.  0.
         13    1    1    2    0    0  0.26286807924E+03 -0.54908820497E+02  0.10640830503E+04  0.10974458323E+04  0.10566000000E+00 0.  1.
        994    1    1    2    0    0 -0.28396507981E+03  0.59027627489E+02  0.35216805371E+03  0.48729067856E+03  0.17120000000E+03 0.  0.
        998    1    1    2    0    0  0.21097000571E+02 -0.41188069922E+01  0.83748892251E+02  0.86463489158E+02  0.10000000000E+00 0.  0.
</event>
<event>
 5    1  0.2022058E-009  0.3882353E+03  0.7957747E-01  0.3416066E+00
         13   -1    0    0    0    0  0.00000000000E+00  0.00000000000E+00  0.14999999963E+04  0.15000000000E+04  0.10566000000E+00 0.  1.
        994   -1    0    0    0    0 -0.00000000000E+00 -0.00000000000E+00  0.11368683772E-12  0.17120000000E+03  0.17120000000E+03 0.  0.
         13    1    1    2    0    0 -0.10764808386E+03  0.23582752797E+03  0.12204588780E+04  0.12476869067E+04  0.10566000000E+00 0.  1.
        994    1    1    2    0    0  0.10880041351E+03 -0.23727556227E+03  0.26681942796E+03  0.41065711922E+03  0.17120000000E+03 0.  0.
        998    1    1    2    0    0 -0.11523296513E+01  0.14480342937E+01  0.12721690269E+02  0.12855974107E+02  0.10000000000E+00 0.  1.
</event>
<event>
 5    1  0.2155065E-009  0.3882953E+03  0.7957747E-01  0.3415816E+00
         13   -1    0    0    0    0  0.00000000000E+00  0.00000000000E+00  0.14999999963E+04  0.15000000000E+04  0.10566000000E+00 0. -1.
        994   -1    0    0    0    0 -0.00000000000E+00 -0.00000000000E+00  0.11368683772E-12  0.17120000000E+03  0.17120000000E+03 0.  0.
         13    1    1    2    0    0 -0.44450148684E+02  0.25851617261E+03  0.12275682135E+04  0.12552809077E+04  0.10566000000E+00 0. -1.
        994    1    1    2    0    0  0.44487403531E+02 -0.25882991558E+03  0.27082873251E+03  0.41428214616E+03  0.17120000000E+03 0.  0.
        998    1    1    2    0    0 -0.37254846587E-01  0.31374297545E+00  0.16030502369E+01  0.16369461323E+01  0.10000000000E+00 0.  0.
</event>
<event>
 5    1  0.2022058E-009  0.3881798E+03  0.7957747E-01  0.3416297E+00
         13   -1    0    0    0    0  0.00000000000E+00  0.00000000000E+00  0.14999999963E+04  0.15000000000E+04  0.10566000000E+00 0.  1.
        994   -1    0    0    0    0 -0.00000000000E+00 -0.00000000000E+00  0.11368683772E-12  0.17120000000E+03  0.17120000000E+03 0.  0.
         13    1    1    2    0    0 -0.17856256279E+03  0.96996870959E+02  0.11189981976E+04  0.11372994150E+04  0.10566000000E+00 0.  1.
        994    1    1    2    0    0  0.20535997983E+03 -0.11705832086E+03  0.20977080161E+03  0.35942815834E+03  0.17120000000E+03 0.  0.
        998    1    1    2    0    0 -0.26797417049E+02  0.20061449897E+02  0.17123099702E+03  0.17447242669E+03  0.10000000000E+00 0.  1.
</event>
<event>
 5    1  0.2748228E-009  0.3882518E+03  0.7957747E-01  0.3415997E+00
         13   -1    0    0    0    0  0.00000000000E+00  0.00000000000E+00  0.14999999963E+04  0.15000000000E+04  0.10566000000E+00 0. -1.
        994   -1    0    0    0    0 -0.00000000000E+00 -0.00000000000E+00  0.11368683772E-12  0.17120000000E+03  0.17120000000E+03 0.  0.
         13    1    1    2    0    0  0.78093591311E+02  0.26562931704E+03  0.11837400906E+04  0.12156883467E+04  0.10566000000E+00 0. -1.
        994    1    1    2    0    0 -0.78207781377E+02 -0.26611477761E+03  0.31194907132E+03  0.45117091553E+03  0.17120000000E+03 0.  0.
        998    1    1    2    0    0  0.11419006609E+00  0.48546057086E+00  0.43108343606E+01  0.43407377508E+01  0.10000000000E+00 0.  1.
</event>
<event>
 5    1  0.2022058E-009  0.3865135E+03  0.7957747E-01  0.3423279E+00
         13   -1    0    0    0    0  0.00000000000E+00  0.00000000000E+00  0.14999999963E+04  0.15000000000E+04  0.10566000000E+00 0. -1.
        994   -1    0    0    0    0 -0.00000000000E+00 -0.00000000000E+00  0.11368683772E-12  0.17120000000E+03  0.17120000000E+03 0.  0.
         13    1    1    2    0    0 -0.30316607958E+02  0.23444543293E+02  0.18967065953E+03  0.19350378182E+03  0.10566000000E+00 0. -1.
        994    1    1    2    0    0  0.10085326663E+03 -0.13010216249E+03  0.95223631027E+02  0.25588070263E+03  0.17120000000E+03 0.  0.
        998    1    1    2    0    0 -0.70536658670E+02  0.10665761920E+03  0.12151057057E+04  0.12218155156E+04  0.10000000000E+00 0. -1.
</event>
<event>
 5    1  0.2022058E-009  0.3881263E+03  0.7957747E-01  0.3416521E+00
         13   -1    0    0    0    0  0.00000000000E+00  0.00000000000E+00  0.14999999963E+04  0.15000000000E+04  0.10566000000E+00 0.  1.
        994   -1    0    0    0    0 -0.00000000000E+00 -0.00000000000E+00  0.11368683772E-12  0.17120000000E+03  0.17120000000E+03 0.  0.
         13    1    1    2    0    0 -0.11538462879E+03  0.84561886657E+02  0.65044080617E+03  0.66598617008E+03  0.10566000000E+00 0.  1.
        994    1    1    2    0    0  0.22264619623E+03 -0.16424214822E+03  0.31014104181E+03  0.44949273383E+03  0.17120000000E+03 0.  0.
        998    1    1    2    0    0 -0.10726156745E+03  0.79680261562E+02  0.53941814829E+03  0.55572109609E+03  0.10000000000E+00 0.  1.
</event>
<event>
 5    1  0.2022058E-009  0.3881265E+03  0.7957747E-01  0.3416520E+00
         13   -1    0    0    0    0  0.00000000000E+00  0.00000000000E+00  0.14999999963E+04  0.15000000000E+04  0.10566000000E+00 0.  1.
        994   -1    0    0    0    0 -0.00000000000E+00 -0.00000000000E+00  0.11368683772E-12  0.17120000000E+03  0.17120000000E+03 0.  0.
         13    1    1    2    0    0 -0.43570973213E+02  0.14349070747E+03  0.84647049156E+03  0.85965127644E+03  0.10566000000E+00 0.  1.
        994    1    1    2    0    0  0.68778609476E+02 -0.21137615914E+03  0.18186374012E+03  0.33435645312E+03  0.17120000000E+03 0.  0.
        998    1    1    2    0    0 -0.25207636262E+02  0.67885451664E+02  0.47166576460E+03  0.47719227044E+03  0.10000000000E+00 0.  1.
</event>
<event>
 5    1  0.2022058E-009  0.3880801E+03  0.7957747E-01  0.3416713E+00
         13   -1    0    0    0    0  0.00000000000E+00  0.00000000000E+00  0.14999999963E+04  0.15000000000E+04  0.10566000000E+00 0.  1.
        994   -1    0    0    0    0 -0.00000000000E+00 -0.00000000000E+00  0.11368683772E-12  0.17120000000E+03  0.17120000000E+03 0.  0.
         13    1    1    2    0    0  0.32199320763E+02  0.28730397116E+01  0.14380500266E+03  0.14739382812E+03  0.10566000000E+00 0.  1.
        994    1    1    2    0    0 -0.24098662307E+03 -0.16370923850E+01  0.21975703268E+03  0.36834742565E+03  0.17120000000E+03 0.  0.
        998    1    1    2    0    0  0.20878730231E+03 -0.12359473267E+01  0.11364379609E+04  0.11554587462E+04  0.10000000000E+00 0.  1.
</event>
<event>
 5    1  0.2022058E-009  0.3881691E+03  0.7957747E-01  0.3416342E+00
         13   -1    0    0    0    0  0.00000000000E+00  0.00000000000E+00  0.14999999963E+04  0.15000000000E+04  0.10566000000E+00 0. -1.
        994   -1    0    0    0    0 -0.00000000000E+00 -0.00000000000E+00  0.11368683772E-12  0.17120000000E+03  0.17120000000E+03 0.  0.
         13    1    1    2    0    0  0.21371329892E+03 -0.17357743716E+03  0.11781686459E+04  0.12099106868E+04  0.10566000000E+00 0. -1.
        994    1    1    2    0    0 -0.21448785638E+03  0.17485936501E+03  0.31023234477E+03  0.44959357848E+03  0.17120000000E+03 0.  0.
        998    1    1    2    0    0  0.77455745851E+00 -0.12819278495E+01  0.11599005621E+02  0.11695734678E+02  0.10000000000E+00 0. -1.
</event>
<event>
 5    1  0.2022058E-009  0.3878657E+03  0.7957747E-01  0.3417609E+00
         13   -1    0    0    0    0  0.00000000000E+00  0.00000000000E+00  0.14999999963E+04  0.15000000000E+04  0.10566000000E+00 0. -1.
        994   -1    0    0    0    0 -0.00000000000E+00 -0.00000000000E+00  0.11368683772E-12  0.17120000000E+03  0.17120000000E+03 0.  0.
         13    1    1    2    0    0  0.36179405353E+01 -0.20375939368E+03  0.93626498943E+03  0.95818741466E+03  0.10566000000E+00 0. -1.
        994    1    1    2    0    0  0.84951826047E+01  0.26235229632E+03  0.27125392739E+03  0.41447440046E+03  0.17120000000E+03 0.  0.
        998    1    1    2    0    0 -0.12113123140E+02 -0.58592902642E+02  0.29248107946E+03  0.29853818488E+03  0.10000000000E+00 0. -1.
</event>
<event>
 5    1  0.2022058E-009  0.3883002E+03  0.7957747E-01  0.3415795E+00
         13   -1    0    0    0    0  0.00000000000E+00  0.00000000000E+00  0.14999999963E+04  0.15000000000E+04  0.10566000000E+00 0.  1.
        994   -1    0    0    0    0 -0.00000000000E+00 -0.00000000000E+00  0.11368683772E-12  0.17120000000E+03  0.17120000000E+03 0.  0.
         13    1    1    2    0    0  0.24109593905E+03  0.80698062342E+02  0.12096011690E+04  0.12360317263E+04  0.10566000000E+00 0.  1.
        994    1    1    2    0    0 -0.24636480843E+03 -0.82586578416E+02  0.26366290729E+03  0.40785258421E+03  0.17120000000E+03 0.  0.
        998    1    1    2    0    0  0.52688693739E+01  0.18885160740E+01  0.26735919934E+02  0.27315689487E+02  0.10000000000E+00 0.  1.
</event>
<event>
 5    1  0.2022058E-009  0.3882989E+03  0.7957747E-01  0.3415800E+00
         13   -1    0    0    0    0  0.00000000000E+00  0.00000000000E+00  0.14999999963E+04  0.15000000000E+04  0.10566000000E+00 0.  1.
        994   -1    0    0    0    0 -0.00000000000E+00 -0.00000000000E+00  0.11368683772E-12  0.17120000000E+03  0.17120000000E+03 0.  0.
         13    1    1    2    0    0  0.19977193344E+03  0.11522654964E+03  0.12911134061E+04  0.13115486349E+04  0.10566000000E+00 0.  1.
        994    1    1    2    0    0 -0.20096322574E+03 -0.11592946849E+03  0.20059803923E+03  0.35124759517E+03  0.17120000000E+03 0.  0.
        998    1    1    2    0    0  0.11912923009E+01  0.70291885597E+00  0.82885509773E+01  0.84037699616E+01  0.10000000000E+00 0. -1.
</event>
<event>
 5    1  0.2022058E-009  0.3879961E+03  0.7957747E-01  0.3417064E+00
         13   -1    0    0    0    0  0.00000000000E+00  0.00000000000E+00  0.14999999963E+04  0.15000000000E+04  0.10566000000E+00 0. -1.
        994   -1    0    0    0    0 -0.00000000000E+00 -0.00000000000E+00  0.11368683772E-12  0.17120000000E+03  0.17120000000E+03 0.  0.
         13    1    1    2    0    0 -0.15911844333E+02 -0.23198147343E+03  0.12437450020E+04  0.12652945238E+04  0.10566000000E+00 0. -1.
        994    1    1    2    0    0  0.14334016538E+02  0.23684130331E+03  0.21191248196E+03  0.36126943822E+03  0.17120000000E+03 0.  0.
        998    1    1    2    0    0  0.15778277948E+01 -0.48598298840E+01  0.44342512350E+02  0.44636038002E+02  0.10000000000E+00 0.  1.
</event>
<event>
 5    1  0.2022058E-009  0.3882997E+03  0.7957747E-01  0.3415797E+00
         13   -1    0    0    0    0  0.00000000000E+00  0.00000000000E+00  0.14999999963E+04  0.15000000000E+04  0.10566000000E+00 0.  1.
        994   -1    0    0    0    0 -0.00000000000E+00 -0.00000000000E+00  0.11368683772E-12  0.17120000000E+03  0.17120000000E+03 0.  0.
         13    1    1    2    0    0 -0.19648124701E+03 -0.10954284746E+03  0.12935174564E+04  0.13129325714E+04  0.10566000000E+00 0.  1.
        994    1    1    2    0    0  0.19875533234E+03  0.11087892326E+03  0.19181914228E+03  0.34336837522E+03  0.17120000000E+03 0.  0.
        998    1    1    2    0    0 -0.22740853294E+01 -0.13360757992E+01  0.14663397599E+02  0.14899053385E+02  0.10000000000E+00 0. -1.
</event>
<event>
 5    1  0.2022058E-009  0.3883005E+03  0.7957747E-01  0.3415794E+00
         13   -1    0    0    0    0  0.00000000000E+00  0.00000000000E+00  0.14999999963E+04  0.15000000000E+04  0.10566000000E+00 0.  1.
        994   -1    0    0    0    0 -0.00000000000E+00 -0.00000000000E+00  0.11368683772E-12  0.17120000000E+03  0.17120000000E+03 0.  0.
         13    1    1    2    0    0  0.34748454445E+02 -0.21192615062E+03  0.12759184415E+04  0.12938655374E+04  0.10566000000E+00 0.  1.
        994    1    1    2    0    0 -0.35945575308E+02  0.21914597195E+03  0.18125274485E+03  0.33388476893E+03  0.17120000000E+03 0.  0.
        998    1    1    2    0    0  0.11971208635E+01 -0.72198213355E+01  0.42828809905E+02  0.43449693628E+02  0.10000000000E+00 0.  0.
</event>
<event>
 5    1  0.2022058E-009  0.3883005E+03  0.7957747E-01  0.3415794E+00
         13   -1    0    0    0    0  0.00000000000E+00  0.00000000000E+00  0.14999999963E+04  0.15000000000E+04  0.10566000000E+00 0.  1.
        994   -1    0    0    0    0 -0.00000000000E+00 -0.00000000000E+00  0.11368683772E-12  0.17120000000E+03  0.17120000000E+03 0.  0.
         13    1    1    2    0    0 -0.15945665557E+03  0.15638259979E+03  0.12071074879E+04  0.12275953898E+04  0.10566000000E+00 0.  1.
        994    1    1    2    0    0  0.17013770607E+03 -0.16672789624E+03  0.21346507030E+03  0.36279719769E+03  0.17120000000E+03 0.  0.
        998    1    1    2    0    0 -0.10681050501E+02  0.10345296456E+02  0.79427438084E+02  0.80807412526E+02  0.10000000000E+00 0.  0.
</event>
<event>
 5    1  0.2022058E-009  0.3941153E+03  0.7957747E-01  0.3391910E+00
         13   -1    0    0    0    0  0.00000000000E+00  0.00000000000E+00  0.14999999963E+04  0.15000000000E+04  0.10566000000E+00 0.  1.
        994   -1    0    0    0    0 -0.00000000000E+00 -0.00000000000E+00  0.11368683772E-12  0.17120000000E+03  0.17120000000E+03 0.  0.
         13    1    1    2    0    0  0.88387102838E+02  0.10836728734E+03  0.23852343732E+03  0.27649446691E+03  0.10566000000E+00 0.  1.
        994    1    1    2    0    0 -0.18816016323E+03 -0.93640581803E+02  0.22208942378E+03  0.35043680992E+03  0.17120000000E+03 0.  0.
        998    1    1    2    0    0  0.99773060397E+02 -0.14726705541E+02  0.10393871352E+04  0.10442687232E+04  0.10000000000E+00 0.  1.
</event>
<event>
 5    1  0.2022058E-009  0.3880640E+03  0.7957747E-01  0.3416780E+00
         13   -1    0    0    0    0  0.00000000000E+00  0.00000000000E+00  0.14999999963E+04  0.15000000000E+04  0.10566000000E+00 0.  1.
        994   -1    0    0    0    0 -0.00000000000E+00 -0.00000000000E+00  0.11368683772E-12  0.17120000000E+03  0.17120000000E+03 0.  0.
         13    1    1    2    0    0  0.19804946912E+03 -0.26724958633E+03  0.87704318466E+03  0.93800356745E+03  0.10566000000E+00 0.  1.
        994    1    1    2    0    0 -0.20153293215E+03  0.27143961333E+03  0.60038847882E+03  0.70997940247E+03  0.17120000000E+03 0.  0.
        998    1    1    2    0    0  0.34834630286E+01 -0.41900270070E+01  0.22568332795E+02  0.23217030088E+02  0.10000000000E+00 0.  1.
</event>
<event>
 5    1  0.2022058E-009  0.3807954E+03  0.7957747E-01  0.3447702E+00
         13   -1    0    0    0    0  0.00000000000E+00  0.00000000000E+00  0.14999999963E+04  0.15000000000E+04  0.10566000000E+00 0.  1.
        994   -1    0    0    0    0 -0.00000000000E+00 -0.00000000000E+00  0.11368683772E-12  0.17120000000E+03  0.17120000000E+03 0.  0.
         13    1    1    2    0    0 -0.97477705993E+02 -0.17126414594E+02  0.18761065959E+03  0.21211550627E+03  0.10566000000E+00 0.  1.
        994    1    1    2    0    0  0.12413694127E+03  0.18908426754E+03  0.23683479299E+03  0.36954431343E+03  0.17120000000E+03 0.  0.
        998    1    1    2    0    0 -0.26659235280E+02 -0.17195785295E+03  0.10755545437E+04  0.10895401803E+04  0.10000000000E+00 0.  1.
</event>
<event>
 5    1  0.2022058E-009  0.3882405E+03  0.7957747E-01  0.3416044E+00
         13   -1    0    0    0    0  0.00000000000E+00  0.00000000000E+00  0.14999999963E+04  0.15000000000E+04  0.10566000000E+00 0. -1.
        994   -1    0    0    0    0 -0.00000000000E+00 -0.00000000000E+00  0.11368683772E-12  0.17120000000E+03  0.17120000000E+03 0.  0.
         13    1    1    2    0    0 -0.15681042547E+03  0.94801216097E+02  0.71084680745E+03  0.73408444673E+03  0.10566000000E+00 0. -1.
        994    1    1    2    0    0  0.25551404809E+03 -0.15042646037E+03  0.37519805311E+03  0.50793559415E+03  0.17120000000E+03 0.  0.
        998    1    1    2    0    0 -0.98703622621E+02  0.55625244275E+02  0.41395513572E+03  0.42917995911E+03  0.10000000000E+00 0. -1.
</event>
<event>
 5    1  0.2022058E-009  0.3881245E+03  0.7957747E-01  0.3416528E+00
         13   -1    0    0    0    0  0.00000000000E+00  0.00000000000E+00  0.14999999963E+04  0.15000000000E+04  0.10566000000E+00 0.  1.
        994   -1    0    0    0    0 -0.00000000000E+00 -0.00000000000E+00  0.11368683772E-12  0.17120000000E+03  0.17120000000E+03 0.  0.
         13    1    1    2    0    0  0.21948780383E+03 -0.68411752036E+02  0.12591672090E+04  0.12799832559E+04  0.10566000000E+00 0.  1.
        994    1    1    2    0    0 -0.22621869505E+03  0.67898254770E+02  0.20944828283E+03  0.35911431909E+03  0.17120000000E+03 0.  0.
        998    1    1    2    0    0  0.67308912198E+01  0.51349726570E+00  0.31384504402E+02  0.32102425027E+02  0.10000000000E+00 0.  1.
</event>
<event>
 5    1  0.2022058E-009  0.3878358E+03  0.7957747E-01  0.3417733E+00
         13   -1    0    0    0    0  0.00000000000E+00  0.00000000000E+00  0.14999999963E+04  0.15000000000E+04  0.10566000000E+00 0.  1.
        994   -1    0    0    0    0 -0.00000000000E+00 -0.00000000000E+00  0.11368683772E-12  0.17120000000E+03  0.17120000000E+03 0.  0.
         13    1    1    2    0    0 -0.11466936501E+03 -0.18214094722E+03  0.12558921376E+04  0.12742014991E+04  0.10566000000E+00 0.  1.
        994    1    1    2    0    0  0.12491917142E+03  0.18942387725E+03  0.19108286702E+03  0.34250300251E+03  0.17120000000E+03 0.  0.
        998    1    1    2    0    0 -0.10249806419E+02 -0.72829300329E+01  0.53024991645E+02  0.54495498350E+02  0.10000000000E+00 0.  1.
</event>
<event>
 5    1  0.2022058E-009  0.3882828E+03  0.7957747E-01  0.3415868E+00
         13   -1    0    0    0    0  0.00000000000E+00  0.00000000000E+00  0.14999999963E+04  0.15000000000E+04  0.10566000000E+00 0.  1.
        994   -1    0    0    0    0 -0.00000000000E+00 -0.00000000000E+00  0.11368683772E-12  0.17120000000E+03  0.17120000000E+03 0.  0.
         13    1    1    2    0    0  0.27137038392E+03  0.44424679310E+02  0.11886344928E+04  0.12200276251E+04  0.10566000000E+00 0.  1.
        994    1    1    2    0    0 -0.27208227183E+03 -0.44520533998E+02  0.30694903145E+03  0.44669675228E+03  0.17120000000E+03 0.  0.
        998    1    1    2    0    0  0.71188790846E+00  0.95854688318E-01  0.44164720680E+01  0.44756226430E+01  0.10000000000E+00 0.  1.
</event>
<event>
 5    1  0.2022058E-009  0.3882724E+03  0.7957747E-01  0.3415911E+00
         13   -1    0    0    0    0  0.00000000000E+00  0.00000000000E+00  0.14999999963E+04  0.15000000000E+04  0.10566000000E+00 0.  1.
        994   -1    0    0    0    0 -0.00000000000E+00 -0.00000000000E+00  0.11368683772E-12  0.17120000000E+03  0.17120000000E+03 0.  0.
         13    1    1    2    0    0 -0.19874295391E+03 -0.21133189917E+02  0.11384395746E+04  0.11558503578E+04  0.10566000000E+00 0.  1.
        994    1    1    2    0    0  0.22594656519E+03  0.24551696068E+02  0.19123978592E+03  0.34283630470E+03  0.17120000000E+03 0.  0.
        998    1    1    2    0    0 -0.27203611277E+02 -0.34185061513E+01  0.17032063575E+03  0.17251333750E+03  0.10000000000E+00 0. -1.
</event>
<event>
 5    1  0.2022058E-009  0.3882909E+03  0.7957747E-01  0.3415834E+00
         13   -1    0    0    0    0  0.00000000000E+00  0.00000000000E+00  0.14999999963E+04  0.15000000000E+04  0.10566000000E+00 0.  1.
        994   -1    0    0    0    0 -0.00000000000E+00 -0.00000000000E+00  0.11368683772E-12  0.17120000000E+03  0.17120000000E+03 0.  0.
         13    1    1    2    0    0  0.23910774972E+02 -0.10687076916E+03  0.61287889853E+03  0.62258625257E+03  0.10566000000E+00 0.  1.
        994    1    1    2    0    0 -0.51719214594E+02  0.22345016811E+03  0.19530828818E+03  0.34649620808E+03  0.17120000000E+03 0.  0.
        998    1    1    2    0    0  0.27808439621E+02 -0.11657939895E+03  0.69181280957E+03  0.70211753935E+03  0.10000000000E+00 0.  1.
</event>
<event>
 5    1  0.2022058E-009  0.3856954E+03  0.7957747E-01  0.3426728E+00
         13   -1    0    0    0    0  0.00000000000E+00  0.00000000000E+00  0.14999999963E+04  0.15000000000E+04  0.10566000000E+00 0. -1.
        994   -1    0    0    0    0 -0.00000000000E+00 -0.00000000000E+00  0.11368683772E-12  0.17120000000E+03  0.17120000000E+03 0.  0.
         13    1    1    2    0    0  0.34513398798E+02  0.17680801655E+02  0.16954162151E+03  0.17391997594E+03  0.10566000000E+00 0. -1.
        994    1    1    2    0    0 -0.16101349244E+03 -0.32414848125E+02  0.95456945736E+02  0.25572941875E+03  0.17120000000E+03 0.  0.
        998    1    1    2    0    0  0.12650009364E+03  0.14734046470E+02  0.12350014290E+04  0.12415506053E+04  0.10000000000E+00 0. -1.
</event>
<event>
 5    1  0.2022058E-009  0.3882877E+03  0.7957747E-01  0.3415847E+00
         13   -1    0    0    0    0  0.00000000000E+00  0.00000000000E+00  0.14999999963E+04  0.15000000000E+04  0.10566000000E+00 0. -1.
        994   -1    0    0    0    0 -0.00000000000E+00 -0.00000000000E+00  0.11368683772E-12  0.17120000000E+03  0.17120000000E+03 0.  0.
         13    1    1    2    0    0  0.22725743362E+03  0.23135734002E+02  0.12687527305E+04  0.12891527084E+04  0.10566000000E+00 0. -1.
        994    1    1    2    0    0 -0.23193743978E+03 -0.24187595684E+02  0.20303472417E+03  0.35342970302E+03  0.17120000000E+03 0.  0.
        998    1    1    2    0    0  0.46800061567E+01  0.10518616817E+01  0.28212541651E+02  0.28617588595E+02  0.10000000000E+00 0. -1.
</event>
<event>
 5    1  0.2022058E-009  0.3882970E+03  0.7957747E-01  0.3415809E+00
         13   -1    0    0    0    0  0.00000000000E+00  0.00000000000E+00  0.14999999963E+04  0.15000000000E+04  0.10566000000E+00 0.  1.
        994   -1    0    0    0    0 -0.00000000000E+00 -0.00000000000E+00  0.11368683772E-12  0.17120000000E+03  0.17120000000E+03 0.  0.
         13    1    1    2    0    0  0.95792790481E+02  0.19094198775E+03  0.12455599915E+04  0.12637463373E+04  0.10566000000E+00 0.  1.
        994    1    1    2    0    0 -0.10047251174E+03 -0.20118901796E+03  0.18657782254E+03  0.33866276800E+03  0.17120000000E+03 0.  0.
        998    1    1    2    0    0  0.46797212561E+01  0.10247030207E+02  0.67862182226E+02  0.68790894714E+02  0.10000000000E+00 0.  1.
</event>
<event>
 5    1  0.2022058E-009  0.3858594E+03  0.7957747E-01  0.3426036E+00
         13   -1    0    0    0    0  0.00000000000E+00  0.00000000000E+00  0.14999999963E+04  0.15000000000E+04  0.10566000000E+00 0. -1.
        994   -1    0    0    0    0 -0.00000000000E+00 -0.00000000000E+00  0.11368683772E-12  0.17120000000E+03  0.17120000000E+03 0.  0.
         13    1    1    2    0    0  0.90779592560E+02  0.10649559175E+03  0.66711915499E+03  0.68163789772E+03  0.10566000000E+00 0. -1.
        994    1    1    2    0    0 -0.13932269101E+03 -0.16702688950E+03  0.17578346455E+03  0.32789946700E+03  0.17120000000E+03 0.  0.
        998    1    1    2    0    0  0.48543098450E+02  0.60531297753E+02  0.65709737673E+03  0.66166263528E+03  0.10000000000E+00 0. -1.
</event>
<event>
 5    1  0.2022058E-009  0.3878600E+03  0.7957747E-01  0.3417632E+00
         13   -1    0    0    0    0  0.00000000000E+00  0.00000000000E+00  0.14999999963E+04  0.15000000000E+04  0.10566000000E+00 0. -1.
        994   -1    0    0    0    0 -0.00000000000E+00 -0.00000000000E+00  0.11368683772E-12  0.17120000000E+03  0.17120000000E+03 0.  0.
         13    1    1    2    0    0 -0.17534246079E+02 -0.13611443443E+03  0.73819333496E+03  0.75084219380E+03  0.10566000000E+00 0. -1.
        994    1    1    2    0    0  0.18019711090E+02  0.22370974041E+03  0.18627699698E+03  0.33820011464E+03  0.17120000000E+03 0.  0.
        998    1    1    2    0    0 -0.48546501066E+00 -0.87595305978E+02  0.57552966433E+03  0.58215769155E+03  0.10000000000E+00 0. -1.
</event>
<event>
 5    1  0.2022058E-009  0.3882977E+03  0.7957747E-01  0.3415806E+00
         13   -1    0    0    0    0  0.00000000000E+00  0.00000000000E+00  0.14999999963E+04  0.15000000000E+04  0.10566000000E+00 0.  1.
        994   -1    0    0    0    0 -0.00000000000E+00 -0.00000000000E+00  0.11368683772E-12  0.17120000000E+03  0.17120000000E+03 0.  0.
         13    1    1    2    0    0 -0.20289865891E+03 -0.32299722590E+02  0.11097014114E+04  0.11285603092E+04  0.10566000000E+00 0.  1.
        994    1    1    2    0    0  0.23572892635E+03  0.36828274856E+02  0.21426941831E+03  0.36351791176E+03  0.17120000000E+03 0.  0.
        998    1    1    2    0    0 -0.32830267442E+02 -0.45285522661E+01  0.17602916661E+03  0.17912177909E+03  0.10000000000E+00 0. -1.
</event>
<event>
 5    1  0.2022058E-009  0.3882951E+03  0.7957747E-01  0.3415816E+00
         13   -1    0    0    0    0  0.00000000000E+00  0.00000000000E+00  0.14999999963E+04  0.15000000000E+04  0.10566000000E+00 0. -1.
        994   -1    0    0    0    0 -0.00000000000E+00 -0.00000000000E+00  0.11368683772E-12  0.17120000000E+03  0.17120000000E+03 0.  0.
         13    1    1    2    0    0 -0.73029008876E+02  0.20719991127E+03  0.12878096666E+04  0.13064144779E+04  0.10566000000E+00 0. -1.
        994    1    1    2    0    0  0.74807981864E+02 -0.21122707922E+03  0.18505455407E+03  0.33729473925E+03  0.17120000000E+03 0.  0.
        998    1    1    2    0    0 -0.17789729881E+01  0.40271679544E+01  0.27135775578E+02  0.27490782871E+02  0.10000000000E+00 0.  1.
</event>
<event>
 5    1  0.2022058E-009  0.3879366E+03  0.7957747E-01  0.3417312E+00
         13   -1    0    0    0    0  0.00000000000E+00  0.00000000000E+00  0.14999999963E+04  0.15000000000E+04  0.10566000000E+00 0.  1.
        994   -1    0    0    0    0 -0.00000000000E+00 -0.00000000000E+00  0.11368683772E-12  0.17120000000E+03  0.17120000000E+03 0.  0.
         13    1    1    2    0    0  0.16080251265E+03  0.94280567099E+02  0.64533369363E+03  0.67171560999E+03  0.10566000000E+00 0.  1.
        994    1    1    2    0    0 -0.27478911959E+03 -0.13952135603E+03  0.42255066666E+03  0.55030334810E+03  0.17120000000E+03 0.  0.
        998    1    1    2    0    0  0.11398660695E+03  0.45240788932E+02  0.43211563599E+03  0.44918104191E+03  0.10000000000E+00 0. -1.
</event>
<event>
 5    1  0.2022058E-009  0.3882765E+03  0.7957747E-01  0.3415894E+00
         13   -1    0    0    0    0  0.00000000000E+00  0.00000000000E+00  0.14999999963E+04  0.15000000000E+04  0.10566000000E+00 0.  1.
        994   -1    0    0    0    0 -0.00000000000E+00 -0.00000000000E+00  0.11368683772E-12  0.17120000000E+03  0.17120000000E+03 0.  0.
         13    1    1    2    0    0 -0.17544067224E+03  0.68639330737E+02  0.11193071105E+04  0.11350503099E+04  0.10566000000E+00 0.  1.
        994    1    1    2    0    0  0.20714957880E+03 -0.78407015283E+02  0.18019240447E+03  0.33292243942E+03  0.17120000000E+03 0.  0.
        998    1    1    2    0    0 -0.31708906562E+02  0.97676845458E+01  0.20050048135E+03  0.20322725073E+03  0.10000000000E+00 0. -1.
</event>
<event>
 5    1  0.2022058E-009  0.3881334E+03  0.7957747E-01  0.3416491E+00
         13   -1    0    0    0    0  0.00000000000E+00  0.00000000000E+00  0.14999999963E+04  0.15000000000E+04  0.10566000000E+00 0.  1.
        994   -1    0    0    0    0 -0.00000000000E+00 -0.00000000000E+00  0.11368683772E-12  0.17120000000E+03  0.17120000000E+03 0.  0.
         13    1    1    2    0    0  0.21613313755E+03  0.37324526736E+02  0.13157114483E+04  0.13338677894E+04  0.10566000000E+00 0.  1.
        994    1    1    2    0    0 -0.21733489307E+03 -0.36455590946E+02  0.17828445899E+03  0.33114687704E+03  0.17120000000E+03 0.  0.
        998    1    1    2    0    0  0.12017555196E+01 -0.86893579001E+00  0.60040890248E+01  0.61853335200E+01  0.10000000000E+00 0.  1.
</event>
<event>
 5    1  0.2022058E-009  0.3881590E+03  0.7957747E-01  0.3416384E+00
         13   -1    0    0    0    0  0.00000000000E+00  0.00000000000E+00  0.14999999963E+04  0.15000000000E+04  0.10566000000E+00 0.  1.
        994   -1    0    0    0    0 -0.00000000000E+00 -0.00000000000E+00  0.11368683772E-12  0.17120000000E+03  0.17120000000E+03 0.  0.
         13    1    1    2    0    0 -0.13464278945E+03 -0.31709826676E+03  0.80747662468E+03  0.87789435703E+03  0.10566000000E+00 0.  1.
        994    1    1    2    0    0  0.13459590739E+03  0.31832139985E+03  0.69098674096E+03  0.79133854201E+03  0.17120000000E+03 0.  0.
        998    1    1    2    0    0  0.46882061218E-01 -0.12231330899E+01  0.15366306388E+01  0.19671009642E+01  0.10000000000E+00 0.  1.
</event>
<event>
 5    1  0.2022058E-009  0.3847217E+03  0.7957747E-01  0.3430853E+00
         13   -1    0    0    0    0  0.00000000000E+00  0.00000000000E+00  0.14999999963E+04  0.15000000000E+04  0.10566000000E+00 0. -1.
        994   -1    0    0    0    0 -0.00000000000E+00 -0.00000000000E+00  0.11368683772E-12  0.17120000000E+03  0.17120000000E+03 0.  0.
         13    1    1    2    0    0  0.14752832072E+01 -0.22580020595E+02  0.13381734842E+03  0.13571708696E+03  0.10566000000E+00 0. -1.
        994    1    1    2    0    0 -0.87585796223E+02  0.29310750722E+02  0.30370423901E+02  0.19688116836E+03  0.17120000000E+03 0.  0.
        998    1    1    2    0    0  0.86110513015E+02 -0.67307301264E+01  0.13358122240E+04  0.13386017447E+04  0.10000000000E+00 0. -1.
</event>
<event>
 5    1  0.2022058E-009  0.3882965E+03  0.7957747E-01  0.3415811E+00
         13   -1    0    0    0    0  0.00000000000E+00  0.00000000000E+00  0.14999999963E+04  0.15000000000E+04  0.10566000000E+00 0.  1.
        994   -1    0    0    0    0 -0.00000000000E+00 -0.00000000000E+00  0.11368683772E-12  0.17120000000E+03  0.17120000000E+03 0.  0.
         13    1    1    2    0    0 -0.32054015428E+02 -0.24977253767E+03  0.12511949873E+04  0.12762847205E+04  0.10566000000E+00 0.  1.
        994    1    1    2    0    0  0.32131822845E+02  0.25047678145E+03  0.24569074191E+03  0.39171986514E+03  0.17120000000E+03 0.  0.
        998    1    1    2    0    0 -0.77807417366E-01 -0.70424377880E+00  0.31142670781E+01  0.31954143280E+01  0.10000000000E+00 0.  0.
</event>
<event>
 5    1  0.2022058E-009  0.3882821E+03  0.7957747E-01  0.3415871E+00
         13   -1    0    0    0    0  0.00000000000E+00  0.00000000000E+00  0.14999999963E+04  0.15000000000E+04  0.10566000000E+00 0.  1.
        994   -1    0    0    0    0 -0.00000000000E+00 -0.00000000000E+00  0.11368683772E-12  0.17120000000E+03  0.17120000000E+03 0.  0.
         13    1    1    2    0    0 -0.59026237845E+01  0.23417074390E+03  0.11983047482E+04  0.12209852820E+04  0.10566000000E+00 0.  1.
        994    1    1    2    0    0  0.57884473303E+01 -0.24658170768E+03  0.23202739076E+03  0.37944985801E+03  0.17120000000E+03 0.  0.
        998    1    1    2    0    0  0.11417645420E+00  0.12410963779E+02  0.69667857334E+02  0.70764859949E+02  0.10000000000E+00 0. -1.
</event>
<event>
 5    1  0.2022058E-009  0.3882447E+03  0.7957747E-01  0.3416026E+00
         13   -1    0    0    0    0  0.00000000000E+00  0.00000000000E+00  0.14999999963E+04  0.15000000000E+04  0.10566000000E+00 0. -1.
        994   -1    0    0    0    0 -0.00000000000E+00 -0.00000000000E+00  0.11368683772E-12  0.17120000000E+03  0.17120000000E+03 0.  0.
         13    1    1    2    0    0 -0.16235993924E+02 -0.24716382309E+03  0.12580282867E+04  0.12821812447E+04  0.10566000000E+00 0. -1.
        994    1    1    2    0    0  0.15825357563E+02  0.24838960331E+03  0.23723097614E+03  0.38410390914E+03  0.17120000000E+03 0.  0.
        998    1    1    2    0    0  0.41063636102E+00 -0.12257802144E+01  0.47407334367E+01  0.49148461698E+01  0.10000000000E+00 0. -1.
</event>
<event>
 5    1  0.2022058E-009  0.3880061E+03  0.7957747E-01  0.3417022E+00
         13   -1    0    0    0    0  0.00000000000E+00  0.00000000000E+00  0.14999999963E+04  0.15000000000E+04  0.10566000000E+00 0. -1.
        994   -1    0    0    0    0 -0.00000000000E+00 -0.00000000000E+00  0.11368683772E-12  0.17120000000E+03  0.17120000000E+03 0.  0.
         13    1    1    2    0    0 -0.12543244589E+03  0.18507302011E+03  0.12517151455E+04  0.12715251228E+04  0.10566000000E+00 0. -1.
        994    1    1    2    0    0  0.12634500742E+03 -0.19231516333E+03  0.19717284549E+03  0.34804418390E+03  0.17120000000E+03 0.  0.
        998    1    1    2    0    0 -0.91256152428E+00  0.72421432185E+01  0.51112005290E+02  0.51630693310E+02  0.10000000000E+00 0. -1.
</event>
<event>
 5    1  0.2022058E-009  0.3873310E+03  0.7957747E-01  0.3419846E+00
         13   -1    0    0    0    0  0.00000000000E+00  0.00000000000E+00  0.14999999963E+04  0.15000000000E+04  0.10566000000E+00 0.  1.
        994   -1    0    0    0    0 -0.00000000000E+00 -0.00000000000E+00  0.11368683772E-12  0.17120000000E+03  0.17120000000E+03 0.  0.
         13    1    1    2    0    0  0.20762898447E+03 -0.20076876719E+03  0.11045833299E+04  0.11417189833E+04  0.10566000000E+00 0.  1.
        994    1    1    2    0    0 -0.21459979622E+03  0.20569343715E+03  0.38055047269E+03  0.51233872086E+03  0.17120000000E+03 0.  0.
        998    1    1    2    0    0  0.69708117468E+01 -0.49246699589E+01  0.14866193712E+02  0.17142295823E+02  0.10000000000E+00 0. -1.
</event>
<event>
 5    1  0.2022058E-009  0.3883008E+03  0.7957747E-01  0.3415792E+00
         13   -1    0    0    0    0  0.00000000000E+00  0.00000000000E+00  0.14999999963E+04  0.15000000000E+04  0.10566000000E+00 0. -1.
        994   -1    0    0    0    0 -0.00000000000E+00 -0.00000000000E+00  0.11368683772E-12  0.17120000000E+03  0.17120000000E+03 0.  0.
         13    1    1    2    0    0 -0.16176886810E+03  0.25866324921E+03  0.75885263048E+03  0.81788334690E+03  0.10566000000E+00 0. -1.
        994    1    1    2    0    0  0.18172328336E+03 -0.29065205084E+03  0.64764946519E+03  0.75250331303E+03  0.17120000000E+03 0.  0.
        998    1    1    2    0    0 -0.19954415254E+02  0.31988801630E+02  0.93497900607E+02  0.10081334007E+03  0.10000000000E+00 0.  0.
</event>
<event>
 5    1  0.2022058E-009  0.3860565E+03  0.7957747E-01  0.3425204E+00
         13   -1    0    0    0    0  0.00000000000E+00  0.00000000000E+00  0.14999999963E+04  0.15000000000E+04  0.10566000000E+00 0. -1.
        994   -1    0    0    0    0 -0.00000000000E+00 -0.00000000000E+00  0.11368683772E-12  0.17120000000E+03  0.17120000000E+03 0.  0.
         13    1    1    2    0    0 -0.13368048354E+01 -0.52016998457E+02  0.28754401787E+03  0.29221418267E+03  0.10566000000E+00 0. -1.
        994    1    1    2    0    0 -0.12209103664E+02  0.14425593047E+03  0.73099633331E+02  0.23582161072E+03  0.17120000000E+03 0.  0.
        998    1    1    2    0    0  0.13545908500E+02 -0.92238932014E+02  0.11393563451E+04  0.11431642066E+04  0.10000000000E+00 0. -1.
</event>
<event>
 5    1  0.3083387E-009  0.3882981E+03  0.7957747E-01  0.3415804E+00
         13   -1    0    0    0    0  0.00000000000E+00  0.00000000000E+00  0.14999999963E+04  0.15000000000E+04  0.10566000000E+00 0. -1.
        994   -1    0    0    0    0 -0.00000000000E+00 -0.00000000000E+00  0.11368683772E-12  0.17120000000E+03  0.17120000000E+03 0.  0.
         13    1    1    2    0    0 -0.22892033739E+03 -0.25738357365E+03  0.61111724613E+03  0.70150917638E+03  0.10566000000E+00 0. -1.
        994    1    1    2    0    0  0.22987669575E+03  0.25854818904E+03  0.88605419946E+03  0.96648432253E+03  0.17120000000E+03 0.  0.
        998    1    1    2    0    0 -0.95635835368E+00 -0.11646153867E+01  0.28285506818E+01  0.32065010930E+01  0.10000000000E+00 0.  0.
</event>
<event>
 5    1  0.2022058E-009  0.3882988E+03  0.7957747E-01  0.3415801E+00
         13   -1    0    0    0    0  0.00000000000E+00  0.00000000000E+00  0.14999999963E+04  0.15000000000E+04  0.10566000000E+00 0. -1.
        994   -1    0    0    0    0 -0.00000000000E+00 -0.00000000000E+00  0.11368683772E-12  0.17120000000E+03  0.17120000000E+03 0.  0.
         13    1    1    2    0    0  0.81357823782E+01  0.21077449502E+03  0.12409596265E+04  0.12587584695E+04  0.10566000000E+00 0. -1.
        994    1    1    2    0    0 -0.89761818685E+01 -0.22328857326E+03  0.18388374934E+03  0.33624549374E+03  0.17120000000E+03 0.  0.
        998    1    1    2    0    0  0.84039949026E+00  0.12514078244E+02  0.75156620447E+02  0.76196036791E+02  0.10000000000E+00 0. -1.
</event>
<event>
 5    1  0.2022058E-009  0.3882986E+03  0.7957747E-01  0.3415802E+00
         13   -1    0    0    0    0  0.00000000000E+00  0.00000000000E+00  0.14999999963E+04  0.15000000000E+04  0.10566000000E+00 0. -1.
        994   -1    0    0    0    0 -0.00000000000E+00 -0.00000000000E+00  0.11368683772E-12  0.17120000000E+03  0.17120000000E+03 0.  0.
         13    1    1    2    0    0 -0.18001121386E+03  0.22380846078E+03  0.11140047174E+04  0.11504350420E+04  0.10566000000E+00 0. -1.
        994    1    1    2    0    0  0.18388779924E+03 -0.22825126271E+03  0.36282035123E+03  0.49685149582E+03  0.17120000000E+03 0.  0.
        998    1    1    2    0    0 -0.38765853792E+01  0.44428019327E+01  0.23174927646E+02  0.23913462205E+02  0.10000000000E+00 0.  0.
</event>
<event>
 5    1  0.2022058E-009  0.3882928E+03  0.7957747E-01  0.3415826E+00
         13   -1    0    0    0    0  0.00000000000E+00  0.00000000000E+00  0.14999999963E+04  0.15000000000E+04  0.10566000000E+00 0. -1.
        994   -1    0    0    0    0 -0.00000000000E+00 -0.00000000000E+00  0.11368683772E-12  0.17120000000E+03  0.17120000000E+03 0.  0.
         13    1    1    2    0    0  0.38227191794E+02 -0.19531390659E+03  0.11964208910E+04  0.12128609978E+04  0.10566000000E+00 0. -1.
        994    1    1    2    0    0 -0.42350183218E+02  0.21677150348E+03  0.17901349748E+03  0.33187150378E+03  0.17120000000E+03 0.  0.
        998    1    1    2    0    0  0.41229914241E+01 -0.21457596886E+02  0.12456560778E+03  0.12646749845E+03  0.10000000000E+00 0. -1.
</event>
<event>
 5    1  0.2022058E-009  0.3883007E+03  0.7957747E-01  0.3415793E+00
         13   -1    0    0    0    0  0.00000000000E+00  0.00000000000E+00  0.14999999963E+04  0.15000000000E+04  0.10566000000E+00 0.  1.
        994   -1    0    0    0    0 -0.00000000000E+00 -0.00000000000E+00  0.11368683772E-12  0.17120000000E+03  0.17120000000E+03 0.  0.
         13    1    1    2    0    0 -0.11292723666E+03  0.43891732639E+01  0.65884860092E+03  0.66847087874E+03  0.10566000000E+00 0.  1.
        994    1    1    2    0    0  0.22478577101E+03 -0.82782214614E+01  0.18668132559E+03  0.33875733073E+03  0.17120000000E+03 0.  0.
        998    1    1    2    0    0 -0.11185853435E+03  0.38890481975E+01  0.65447006977E+03  0.66397179053E+03  0.10000000000E+00 0.  1.
</event>
<event>
 5    1  0.2022058E-009  0.3883009E+03  0.7957747E-01  0.3415792E+00
         13   -1    0    0    0    0  0.00000000000E+00  0.00000000000E+00  0.14999999963E+04  0.15000000000E+04  0.10566000000E+00 0.  1.
        994   -1    0    0    0    0 -0.00000000000E+00 -0.00000000000E+00  0.11368683772E-12  0.17120000000E+03  0.17120000000E+03 0.  0.
         13    1    1    2    0    0  0.25119416241E+03  0.87963910105E+02  0.95683924606E+03  0.99316539946E+03  0.10566000000E+00 0.  1.
        994    1    1    2    0    0 -0.28734510376E+03 -0.10053453750E+03  0.40561946866E+03  0.53526721853E+03  0.17120000000E+03 0.  0.
        998    1    1    2    0    0  0.36150941344E+02  0.12570627391E+02  0.13754128156E+03  0.14276738201E+03  0.10000000000E+00 0.  0.
</event>
<event>
 5    1  0.2022058E-009  0.3882215E+03  0.7957747E-01  0.3416123E+00
         13   -1    0    0    0    0  0.00000000000E+00  0.00000000000E+00  0.14999999963E+04  0.15000000000E+04  0.10566000000E+00 0. -1.
        994   -1    0    0    0    0 -0.00000000000E+00 -0.00000000000E+00  0.11368683772E-12  0.17120000000E+03  0.17120000000E+03 0.  0.
         13    1    1    2    0    0  0.50620120878E+02 -0.21869938129E+03  0.13137926136E+04  0.13328326447E+04  0.10566000000E+00 0. -1.
        994    1    1    2    0    0 -0.50497598549E+02  0.21874302604E+03  0.18594677612E+03  0.33805940669E+03  0.17120000000E+03 0.  0.
        998    1    1    2    0    0 -0.12252232900E+00 -0.43644751437E-01  0.26060657538E+00  0.30794865248E+00  0.10000000000E+00 0.  1.
</event>
<event>
 5    1  0.2469671E-009  0.3882720E+03  0.7957747E-01  0.3415913E+00
         13   -1    0    0    0    0  0.00000000000E+00  0.00000000000E+00  0.14999999963E+04  0.15000000000E+04  0.10566000000E+00 0. -1.
        994   -1    0    0    0    0 -0.00000000000E+00 -0.00000000000E+00  0.11368683772E-12  0.17120000000E+03  0.17120000000E+03 0.  0.
         13    1    1    2    0    0  0.34580023213E+02 -0.23087548674E+03  0.12957709148E+04  0.13166326531E+04  0.10566000000E+00 0. -1.
        994    1    1    2    0    0 -0.34667620970E+02  0.23092422527E+03  0.20370384164E+03  0.35402335638E+03  0.17120000000E+03 0.  0.
        998    1    1    2    0    0  0.87597756979E-01 -0.48738526749E-01  0.52523981099E+00  0.54399050550E+00  0.10000000000E+00 0.  1.
</event>
<event>
 5    1  0.2022058E-009  0.3883008E+03  0.7957747E-01  0.3415792E+00
         13   -1    0    0    0    0  0.00000000000E+00  0.00000000000E+00  0.14999999963E+04  0.15000000000E+04  0.10566000000E+00 0. -1.
        994   -1    0    0    0    0 -0.00000000000E+00 -0.00000000000E+00  0.11368683772E-12  0.17120000000E+03  0.17120000000E+03 0.  0.
         13    1    1    2    0    0 -0.19168356443E+03 -0.12293549945E+03  0.11647344072E+04  0.11867864073E+04  0.10566000000E+00 0. -1.
        994    1    1    2    0    0  0.20837658936E+03  0.13368060930E+03  0.23409917882E+03  0.38131768097E+03  0.17120000000E+03 0.  0.
        998    1    1    2    0    0 -0.16693024927E+02 -0.10745109850E+02  0.10116641021E+03  0.10309591176E+03  0.10000000000E+00 0.  0.
</event>
<event>
 5    1  0.2022058E-009  0.3883007E+03  0.7957747E-01  0.3415793E+00
         13   -1    0    0    0    0  0.00000000000E+00  0.00000000000E+00  0.14999999963E+04  0.15000000000E+04  0.10566000000E+00 0.  1.
        994   -1    0    0    0    0 -0.00000000000E+00 -0.00000000000E+00  0.11368683772E-12  0.17120000000E+03  0.17120000000E+03 0.  0.
         13    1    1    2    0    0 -0.39164582558E+02 -0.14424999540E+03  0.70516558986E+03  0.72083316099E+03  0.10566000000E+00 0.  1.
        994    1    1    2    0    0  0.68016491591E+02  0.25204769522E+03  0.26678685896E+03  0.41065673245E+03  0.17120000000E+03 0.  0.
        998    1    1    2    0    0 -0.28851909033E+02 -0.10779769982E+03  0.52804754745E+03  0.53971010655E+03  0.10000000000E+00 0.  1.
</event>
<event>
 5    1  0.2022058E-009  0.3882639E+03  0.7957747E-01  0.3415947E+00
         13   -1    0    0    0    0  0.00000000000E+00  0.00000000000E+00  0.14999999963E+04  0.15000000000E+04  0.10566000000E+00 0. -1.
        994   -1    0    0    0    0 -0.00000000000E+00 -0.00000000000E+00  0.11368683772E-12  0.17120000000E+03  0.17120000000E+03 0.  0.
         13    1    1    2    0    0  0.25275630739E+03 -0.15195185353E+02  0.12444028896E+04  0.12699036213E+04  0.10566000000E+00 0. -1.
        994    1    1    2    0    0 -0.25371352816E+03  0.15707453436E+02  0.24975486055E+03  0.39535327093E+03  0.17120000000E+03 0.  0.
        998    1    1    2    0    0  0.95722076244E+00 -0.51226808366E+00  0.58422461052E+01  0.59431077502E+01  0.10000000000E+00 0.  1.
</event>
<event>
 5    1  0.2022058E-009  0.3882810E+03  0.7957747E-01  0.3415875E+00
         13   -1    0    0    0    0  0.00000000000E+00  0.00000000000E+00  0.14999999963E+04  0.15000000000E+04  0.10566000000E+00 0. -1.
        994   -1    0    0    0    0 -0.00000000000E+00 -0.00000000000E+00  0.11368683772E-12  0.17120000000E+03  0.17120000000E+03 0.  0.
         13    1    1    2    0    0 -0.93716632333E+02  0.23989900780E+03  0.11917129757E+04  0.12192268733E+04  0.10566000000E+00 0. -1.
        994    1    1    2    0    0  0.95574388133E+02 -0.24691071711E+03  0.27646539319E+03  0.41933509217E+03  0.17120000000E+03 0.  0.
        998    1    1    2    0    0 -0.18577558004E+01  0.70117093112E+01  0.31821627425E+02  0.32638034501E+02  0.10000000000E+00 0. -1.
</event>
<event>
 5    1  0.2022058E-009  0.3834217E+03  0.7957747E-01  0.3436394E+00
         13   -1    0    0    0    0  0.00000000000E+00  0.00000000000E+00  0.14999999963E+04  0.15000000000E+04  0.10566000000E+00 0.  1.
        994   -1    0    0    0    0 -0.00000000000E+00 -0.00000000000E+00  0.11368683772E-12  0.17120000000E+03  0.17120000000E+03 0.  0.
         13    1    1    2    0    0 -0.49774613116E+02  0.15165501412E+03  0.71671126531E+03  0.73426957203E+03  0.10566000000E+00 0.  1.
        994    1    1    2    0    0  0.25869242292E+02 -0.23128216104E+03  0.20882034052E+03  0.35647725079E+03  0.17120000000E+03 0.  0.
        998    1    1    2    0    0  0.23905370824E+02  0.79627146922E+02  0.57446839045E+03  0.58045317719E+03  0.10000000000E+00 0.  1.
</event>
<event>
 5    1  0.2022058E-009  0.3883005E+03  0.7957747E-01  0.3415794E+00
         13   -1    0    0    0    0  0.00000000000E+00  0.00000000000E+00  0.14999999963E+04  0.15000000000E+04  0.10566000000E+00 0.  1.
        994   -1    0    0    0    0 -0.00000000000E+00 -0.00000000000E+00  0.11368683772E-12  0.17120000000E+03  0.17120000000E+03 0.  0.
         13    1    1    2    0    0  0.24762262180E+03  0.99818533245E+02  0.11733129351E+04  0.12033054297E+04  0.10566000000E+00 0.  1.
        994    1    1    2    0    0 -0.25330313028E+03 -0.10210325565E+03  0.29939985664E+03  0.43992870420E+03  0.17120000000E+03 0.  0.
        998    1    1    2    0    0  0.56805084785E+01  0.22847224065E+01  0.27287204550E+02  0.27965866073E+02  0.10000000000E+00 0.  0.
</event>
<event>
 5    1  0.2022058E-009  0.3882232E+03  0.7957747E-01  0.3416116E+00
         13   -1    0    0    0    0  0.00000000000E+00  0.00000000000E+00  0.14999999963E+04  0.15000000000E+04  0.10566000000E+00 0. -1.
        994   -1    0    0    0    0 -0.00000000000E+00 -0.00000000000E+00  0.11368683772E-12  0.17120000000E+03  0.17120000000E+03 0.  0.
         13    1    1    2    0    0  0.15265864035E+03  0.22521115476E+03  0.11199114879E+04  0.11524870831E+04  0.10566000000E+00 0. -1.
        994    1    1    2    0    0 -0.16116882525E+03 -0.23392590432E+03  0.33269409921E+03  0.46977816317E+03  0.17120000000E+03 0.  0.
        998    1    1    2    0    0  0.85101848973E+01  0.87147495589E+01  0.47394409123E+02  0.48934753734E+02  0.10000000000E+00 0.  1.
</event>
<event>
 5    1  0.2022058E-009  0.3882295E+03  0.7957747E-01  0.3416090E+00
         13   -1    0    0    0    0  0.00000000000E+00  0.00000000000E+00  0.14999999963E+04  0.15000000000E+04  0.10566000000E+00 0. -1.
        994   -1    0    0    0    0 -0.00000000000E+00 -0.00000000000E+00  0.11368683772E-12  0.17120000000E+03  0.17120000000E+03 0.  0.
         13    1    1    2    0    0  0.50321433121E+02  0.13131718249E+03  0.77988662454E+03  0.79246426251E+03  0.10566000000E+00 0. -1.
        994    1    1    2    0    0 -0.87771989976E+02 -0.22289173667E+03  0.21642580717E+03  0.36542334150E+03  0.17120000000E+03 0.  0.
        998    1    1    2    0    0  0.37450556855E+02  0.91574554184E+02  0.50368756456E+03  0.51331239599E+03  0.10000000000E+00 0.  1.
</event>
<event>
 5    1  0.2022058E-009  0.3882893E+03  0.7957747E-01  0.3415841E+00
         13   -1    0    0    0    0  0.00000000000E+00  0.00000000000E+00  0.14999999963E+04  0.15000000000E+04  0.10566000000E+00 0.  1.
        994   -1    0    0    0    0 -0.00000000000E+00 -0.00000000000E+00  0.11368683772E-12  0.17120000000E+03  0.17120000000E+03 0.  0.
         13    1    1    2    0    0 -0.29980521296E+03 -0.11456664773E+03  0.98197967584E+03  0.10330986291E+04  0.10566000000E+00 0.  1.
        994    1    1    2    0    0  0.30362931926E+03  0.11638636859E+03  0.50606765547E+03  0.62542022851E+03  0.17120000000E+03 0.  0.
        998    1    1    2    0    0 -0.38241062954E+01 -0.18197208683E+01  0.11952664963E+02  0.12681142406E+02  0.10000000000E+00 0. -1.
</event>
<event>
 5    1  0.2022058E-009  0.3883009E+03  0.7957747E-01  0.3415792E+00
         13   -1    0    0    0    0  0.00000000000E+00  0.00000000000E+00  0.14999999963E+04  0.15000000000E+04  0.10566000000E+00 0. -1.
        994   -1    0    0    0    0 -0.00000000000E+00 -0.00000000000E+00  0.11368683772E-12  0.17120000000E+03  0.17120000000E+03 0.  0.
         13    1    1    2    0    0 -0.26542771416E+02  0.10442857415E+03  0.49875636262E+03  0.51026244838E+03  0.10566000000E+00 0. -1.
        994    1    1    2    0    0  0.64889484443E+02 -0.25649464069E+03  0.27593233336E+03  0.41886541811E+03  0.17120000000E+03 0.  0.
        998    1    1    2    0    0 -0.38346713027E+02  0.15206606654E+03  0.72531130030E+03  0.74207213351E+03  0.10000000000E+00 0. -1.
</event>
<event>
 5    1  0.2022058E-009  0.3882954E+03  0.7957747E-01  0.3415815E+00
         13   -1    0    0    0    0  0.00000000000E+00  0.00000000000E+00  0.14999999963E+04  0.15000000000E+04  0.10566000000E+00 0. -1.
        994   -1    0    0    0    0 -0.00000000000E+00 -0.00000000000E+00  0.11368683772E-12  0.17120000000E+03  0.17120000000E+03 0.  0.
         13    1    1    2    0    0 -0.12699555311E+03  0.18394224432E+03  0.13066065617E+04  0.13255879217E+04  0.10566000000E+00 0. -1.
        994    1    1    2    0    0  0.12768562672E+03 -0.18509039521E+03  0.18653863233E+03  0.33862689648E+03  0.17120000000E+03 0.  0.
        998    1    1    2    0    0 -0.69007361187E+00  0.11481508867E+01  0.68548022268E+01  0.69851818600E+01  0.10000000000E+00 0.  1.
</event>
<event>
 5    1  0.2465829E-009  0.3882823E+03  0.7957747E-01  0.3415870E+00
         13   -1    0    0    0    0  0.00000000000E+00  0.00000000000E+00  0.14999999963E+04  0.15000000000E+04  0.10566000000E+00 0.  1.
        994   -1    0    0    0    0 -0.00000000000E+00 -0.00000000000E+00  0.11368683772E-12  0.17120000000E+03  0.17120000000E+03 0.  0.
         13    1    1    2    0    0  0.17268481037E+03  0.16730225815E+03  0.12781269766E+04  0.13005455274E+04  0.10566000000E+00 0.  1.
        994    1    1    2    0    0 -0.17293394767E+03 -0.16750378795E+03  0.21894972553E+03  0.36771196818E+03  0.17120000000E+03 0.  0.
        998    1    1    2    0    0  0.24913730038E+00  0.20152980596E+00  0.29232941350E+01  0.29425044192E+01  0.10000000000E+00 0. -1.
</event>
<event>
 5    1  0.2022058E-009  0.3881005E+03  0.7957747E-01  0.3416628E+00
         13   -1    0    0    0    0  0.00000000000E+00  0.00000000000E+00  0.14999999963E+04  0.15000000000E+04  0.10566000000E+00 0. -1.
        994   -1    0    0    0    0 -0.00000000000E+00 -0.00000000000E+00  0.11368683772E-12  0.17120000000E+03  0.17120000000E+03 0.  0.
         13    1    1    2    0    0  0.95659773782E+01  0.27569074493E+03  0.10250166359E+04  0.10614876400E+04  0.10566000000E+00 0. -1.
        994    1    1    2    0    0 -0.55171191602E+01 -0.30001133256E+03  0.38896933237E+03  0.52023438928E+03  0.17120000000E+03 0.  0.
        998    1    1    2    0    0 -0.40488582180E+01  0.24320587632E+02  0.86014027974E+02  0.89477970719E+02  0.10000000000E+00 0. -1.
</event>
<event>
 5    1  0.2022058E-009  0.3882970E+03  0.7957747E-01  0.3415808E+00
         13   -1    0    0    0    0  0.00000000000E+00  0.00000000000E+00  0.14999999963E+04  0.15000000000E+04  0.10566000000E+00 0.  1.
        994   -1    0    0    0    0 -0.00000000000E+00 -0.00000000000E+00  0.11368683772E-12  0.17120000000E+03  0.17120000000E+03 0.  0.
         13    1    1    2    0    0  0.21976776237E+02 -0.10420847080E+03  0.39685738612E+03  0.41089923358E+03  0.10566000000E+00 0.  1.
        994    1    1    2    0    0 -0.62740563755E+02  0.29099143352E+03  0.37937836160E+03  0.51171258922E+03  0.17120000000E+03 0.  0.
        998    1    1    2    0    0  0.40763787518E+02 -0.18678296271E+03  0.72376424857E+03  0.74858817719E+03  0.10000000000E+00 0.  1.
</event>
<event>
 5    1  0.2022058E-009  0.3875822E+03  0.7957747E-01  0.3418794E+00
         13   -1    0    0    0    0  0.00000000000E+00  0.00000000000E+00  0.14999999963E+04  0.15000000000E+04  0.10566000000E+00 0.  1.
        994   -1    0    0    0    0 -0.00000000000E+00 -0.00000000000E+00  0.11368683772E-12  0.17120000000E+03  0.17120000000E+03 0.  0.
         13    1    1    2    0    0  0.18240724151E+03  0.98294877966E+02  0.12148571348E+04  0.12324009713E+04  0.10566000000E+00 0.  1.
        994    1    1    2    0    0 -0.19220953261E+03 -0.10040443312E+03  0.17251235335E+03  0.32572305211E+03  0.17120000000E+03 0.  0.
        998    1    1    2    0    0  0.98022910996E+01  0.21095551565E+01  0.11263050808E+03  0.11307597660E+03  0.10000000000E+00 0. -1.
</event>
<event>
 5    1  0.2022058E-009  0.3882992E+03  0.7957747E-01  0.3415799E+00
         13   -1    0    0    0    0  0.00000000000E+00  0.00000000000E+00  0.14999999963E+04  0.15000000000E+04  0.10566000000E+00 0.  1.
        994   -1    0    0    0    0 -0.00000000000E+00 -0.00000000000E+00  0.11368683772E-12  0.17120000000E+03  0.17120000000E+03 0.  0.
         13    1    1    2    0    0  0.15118006521E+03 -0.25878710973E+03  0.99524373835E+03  0.10393922696E+04  0.10566000000E+00 0.  1.
        994    1    1    2    0    0 -0.15919247632E+03  0.27222542282E+03  0.45393345484E+03  0.57863109730E+03  0.17120000000E+03 0.  0.
        998    1    1    2    0    0  0.80124111067E+01 -0.13438313086E+02  0.50822803094E+02  0.53176633070E+02  0.10000000000E+00 0.  1.
</event>
<event>
 5    1  0.2022058E-009  0.3882969E+03  0.7957747E-01  0.3415809E+00
         13   -1    0    0    0    0  0.00000000000E+00  0.00000000000E+00  0.14999999963E+04  0.15000000000E+04  0.10566000000E+00 0. -1.
        994   -1    0    0    0    0 -0.00000000000E+00 -0.00000000000E+00  0.11368683772E-12  0.17120000000E+03  0.17120000000E+03 0.  0.
         13    1    1    2    0    0 -0.22390275566E+03  0.14672550457E+03  0.12106938060E+04  0.12399356115E+04  0.10566000000E+00 0. -1.
        994    1    1    2    0    0  0.22446229948E+03 -0.14704957888E+03  0.28607112865E+03  0.42796382228E+03  0.17120000000E+03 0.  0.
        998    1    1    2    0    0 -0.55954382082E+00  0.32407431075E+00  0.32350616241E+01  0.33005661875E+01  0.10000000000E+00 0.  0.
</event>
<event>
 5    1  0.2022058E-009  0.3883008E+03  0.7957747E-01  0.3415792E+00
         13   -1    0    0    0    0  0.00000000000E+00  0.00000000000E+00  0.14999999963E+04  0.15000000000E+04  0.10566000000E+00 0.  1.
        994   -1    0    0    0    0 -0.00000000000E+00 -0.00000000000E+00  0.11368683772E-12  0.17120000000E+03  0.17120000000E+03 0.  0.
         13    1    1    2    0    0  0.27761565190E+03 -0.17235393142E+03  0.69768187907E+03  0.77041309918E+03  0.10566000000E+00 0.  1.
        994    1    1    2    0    0 -0.29580383693E+03  0.18369850801E+03  0.75661510388E+03  0.85030636080E+03  0.17120000000E+03 0.  0.
        998    1    1    2    0    0  0.18188185038E+02 -0.11344576596E+02  0.45703013331E+02  0.50480540020E+02  0.10000000000E+00 0.  0.
</event>
<event>
 5    1  0.2022058E-009  0.3883007E+03  0.7957747E-01  0.3415793E+00
         13   -1    0    0    0    0  0.00000000000E+00  0.00000000000E+00  0.14999999963E+04  0.15000000000E+04  0.10566000000E+00 0.  1.
        994   -1    0    0    0    0 -0.00000000000E+00 -0.00000000000E+00  0.11368683772E-12  0.17120000000E+03  0.17120000000E+03 0.  0.
         13    1    1    2    0    0 -0.18361360116E+03  0.11536411503E+03  0.12695927696E+04  0.12879785112E+04  0.10566000000E+00 0.  1.
        994    1    1    2    0    0  0.19011276598E+03 -0.11939591710E+03  0.18583455050E+03  0.33799729136E+03  0.17120000000E+03 0.  0.
        998    1    1    2    0    0 -0.64991648132E+01  0.40318020664E+01  0.44572676153E+02  0.45224197402E+02  0.10000000000E+00 0.  0.
</event>
<event>
 5    1  0.2022058E-009  0.3882569E+03  0.7957747E-01  0.3415976E+00
         13   -1    0    0    0    0  0.00000000000E+00  0.00000000000E+00  0.14999999963E+04  0.15000000000E+04  0.10566000000E+00 0. -1.
        994   -1    0    0    0    0 -0.00000000000E+00 -0.00000000000E+00  0.11368683772E-12  0.17120000000E+03  0.17120000000E+03 0.  0.
         13    1    1    2    0    0 -0.19233262914E+01  0.22109751601E+03  0.10113648357E+04  0.10352519756E+04  0.10566000000E+00 0. -1.
        994    1    1    2    0    0  0.40496753979E+01 -0.26434803838E+03  0.27549457851E+03  0.41845308943E+03  0.17120000000E+03 0.  0.
        998    1    1    2    0    0 -0.21263491065E+01  0.43250522371E+02  0.21314058202E+03  0.21749493500E+03  0.10000000000E+00 0.  1.
</event>
<event>
 5    1  0.2022058E-009  0.3883009E+03  0.7957747E-01  0.3415792E+00
         13   -1    0    0    0    0  0.00000000000E+00  0.00000000000E+00  0.14999999963E+04  0.15000000000E+04  0.10566000000E+00 0.  1.
        994   -1    0    0    0    0 -0.00000000000E+00 -0.00000000000E+00  0.11368683772E-12  0.17120000000E+03  0.17120000000E+03 0.  0.
         13    1    1    2    0    0  0.16593585698E+03 -0.18051287392E+03  0.11450796637E+04  0.11710367431E+04  0.10566000000E+00 0.  1.
        994    1    1    2    0    0 -0.17797457185E+03  0.19362684489E+03  0.27178092198E+03  0.41513926920E+03  0.17120000000E+03 0.  0.
        998    1    1    2    0    0  0.12038714865E+02 -0.13113970969E+02  0.83139410573E+02  0.85023987677E+02  0.10000000000E+00 0.  0.
</event>
<event>
 5    1  0.2022058E-009  0.3881002E+03  0.7957747E-01  0.3416629E+00
         13   -1    0    0    0    0  0.00000000000E+00  0.00000000000E+00  0.14999999963E+04  0.15000000000E+04  0.10566000000E+00 0.  1.
        994   -1    0    0    0    0 -0.00000000000E+00 -0.00000000000E+00  0.11368683772E-12  0.17120000000E+03  0.17120000000E+03 0.  0.
         13    1    1    2    0    0 -0.29290770087E+03  0.70043022697E+02  0.10587748187E+04  0.11007747609E+04  0.10566000000E+00 0.  1.
        994    1    1    2    0    0  0.30004557599E+03 -0.71903091331E+02  0.42355105146E+03  0.55127337629E+03  0.17120000000E+03 0.  0.
        998    1    1    2    0    0 -0.71378751289E+01  0.18600686343E+01  0.17674126113E+02  0.19151862848E+02  0.10000000000E+00 0. -1.
</event>
<event>
 5    1  0.2022058E-009  0.3882611E+03  0.7957747E-01  0.3415958E+00
         13   -1    0    0    0    0  0.00000000000E+00  0.00000000000E+00  0.14999999963E+04  0.15000000000E+04  0.10566000000E+00 0.  1.
        994   -1    0    0    0    0 -0.00000000000E+00 -0.00000000000E+00  0.11368683772E-12  0.17120000000E+03  0.17120000000E+03 0.  0.
         13    1    1    2    0    0 -0.14822047279E+03 -0.13670560202E+03  0.11871270129E+04  0.12041296800E+04  0.10566000000E+00 0.  1.
        994    1    1    2    0    0  0.16216180573E+03  0.15273329222E+03  0.18259896965E+03  0.33507571310E+03  0.17120000000E+03 0.  0.
        998    1    1    2    0    0 -0.13941332935E+02 -0.16027690194E+02  0.13027401369E+03  0.13199460694E+03  0.10000000000E+00 0.  1.
</event>
<event>
 5    1  0.2022058E-009  0.3882839E+03  0.7957747E-01  0.3415863E+00
         13   -1    0    0    0    0  0.00000000000E+00  0.00000000000E+00  0.14999999963E+04  0.15000000000E+04  0.10566000000E+00 0.  1.
        994   -1    0    0    0    0 -0.00000000000E+00 -0.00000000000E+00  0.11368683772E-12  0.17120000000E+03  0.17120000000E+03 0.  0.
         13    1    1    2    0    0 -0.21424590726E+03  0.34700183554E+02  0.12714914129E+04  0.12898821015E+04  0.10566000000E+00 0.  1.
        994    1    1    2    0    0  0.22181261700E+03 -0.35041473365E+02  0.18598556725E+03  0.33812543995E+03  0.17120000000E+03 0.  0.
        998    1    1    2    0    0 -0.75667097470E+01  0.34128981142E+00  0.42523016170E+02  0.43192458593E+02  0.10000000000E+00 0. -1.
</event>
<event>
 5    1  0.2022058E-009  0.3883000E+03  0.7957747E-01  0.3415796E+00
         13   -1    0    0    0    0  0.00000000000E+00  0.00000000000E+00  0.14999999963E+04  0.15000000000E+04  0.10566000000E+00 0. -1.
        994   -1    0    0    0    0 -0.00000000000E+00 -0.00000000000E+00  0.11368683772E-12  0.17120000000E+03  0.17120000000E+03 0.  0.
         13    1    1    2    0    0 -0.52171574600E+02  0.38366952215E+02  0.33872681413E+03  0.34486194629E+03  0.10566000000E+00 0. -1.
        994    1    1    2    0    0  0.19772688979E+03 -0.14313016887E+03  0.22625441395E+03  0.37427619217E+03  0.17120000000E+03 0.  0.
        998    1    1    2    0    0 -0.14555531519E+03  0.10476321666E+03  0.93501876819E+03  0.95206186155E+03  0.10000000000E+00 0. -1.
</event>
<event>
 5    1  0.2022058E-009  0.3882903E+03  0.7957747E-01  0.3415836E+00
         13   -1    0    0    0    0  0.00000000000E+00  0.00000000000E+00  0.14999999963E+04  0.15000000000E+04  0.10566000000E+00 0.  1.
        994   -1    0    0    0    0 -0.00000000000E+00 -0.00000000000E+00  0.11368683772E-12  0.17120000000E+03  0.17120000000E+03 0.  0.
         13    1    1    2    0    0  0.25513569833E+03 -0.34943611526E+01  0.12263389363E+04  0.12526027435E+04  0.10566000000E+00 0.  1.
        994    1    1    2    0    0 -0.25787025443E+03  0.33026982995E+01  0.25878038372E+03  0.40346586341E+03  0.17120000000E+03 0.  0.
        998    1    1    2    0    0  0.27345560952E+01  0.19166285314E+00  0.14880676282E+02  0.15131393138E+02  0.10000000000E+00 0.  1.
</event>
<event>
 5    1  0.2022058E-009  0.3882762E+03  0.7957747E-01  0.3415895E+00
         13   -1    0    0    0    0  0.00000000000E+00  0.00000000000E+00  0.14999999963E+04  0.15000000000E+04  0.10566000000E+00 0.  1.
        994   -1    0    0    0    0 -0.00000000000E+00 -0.00000000000E+00  0.11368683772E-12  0.17120000000E+03  0.17120000000E+03 0.  0.
         13    1    1    2    0    0  0.27877824586E+03 -0.46642483461E+02  0.10577358479E+04  0.10948506596E+04  0.10566000000E+00 0.  1.
        994    1    1    2    0    0 -0.29368841557E+03  0.49464214443E+02  0.37998324611E+03  0.51224632871E+03  0.17120000000E+03 0.  0.
        998    1    1    2    0    0  0.14910169710E+02 -0.28217309821E+01  0.62280902264E+02  0.64103011734E+02  0.10000000000E+00 0. -1.
</event>
<event>
 5    1  0.2022058E-009  0.3881659E+03  0.7957747E-01  0.3416355E+00
         13   -1    0    0    0    0  0.00000000000E+00  0.00000000000E+00  0.14999999963E+04  0.15000000000E+04  0.10566000000E+00 0. -1.
        994   -1    0    0    0    0 -0.00000000000E+00 -0.00000000000E+00  0.11368683772E-12  0.17120000000E+03  0.17120000000E+03 0.  0.
         13    1    1    2    0    0  0.77796322675E+02 -0.15683747109E+03  0.98316684705E+03  0.99863272551E+03  0.10566000000E+00 0. -1.
        994    1    1    2    0    0 -0.10061145309E+03  0.21371187401E+03  0.20943616251E+03  0.35912167263E+03  0.17120000000E+03 0.  0.
        998    1    1    2    0    0  0.22815130411E+02 -0.56874402913E+02  0.30739698672E+03  0.31344560186E+03  0.10000000000E+00 0.  1.
</event>
<event>
 5    1  0.2022058E-009  0.3882679E+03  0.7957747E-01  0.3415930E+00
         13   -1    0    0    0    0  0.00000000000E+00  0.00000000000E+00  0.14999999963E+04  0.15000000000E+04  0.10566000000E+00 0. -1.
        994   -1    0    0    0    0 -0.00000000000E+00 -0.00000000000E+00  0.11368683772E-12  0.17120000000E+03  0.17120000000E+03 0.  0.
         13    1    1    2    0    0 -0.77793022982E+02 -0.22571218527E+03  0.12388552001E+04  0.12616496989E+04  0.10566000000E+00 0. -1.
        994    1    1    2    0    0  0.78842093954E+02  0.23215952070E+03  0.22873344884E+03  0.37648711724E+03  0.17120000000E+03 0.  0.
        998    1    1    2    0    0 -0.10490709725E+01 -0.64473354339E+01  0.32411347385E+02  0.33063183806E+02  0.10000000000E+00 0. -1.
</event>
<event>
 5    1  0.2022058E-009  0.3882952E+03  0.7957747E-01  0.3415816E+00
         13   -1    0    0    0    0  0.00000000000E+00  0.00000000000E+00  0.14999999963E+04  0.15000000000E+04  0.10566000000E+00 0.  1.
        994   -1    0    0    0    0 -0.00000000000E+00 -0.00000000000E+00  0.11368683772E-12  0.17120000000E+03  0.17120000000E+03 0.  0.
         13    1    1    2    0    0 -0.13698878948E+03 -0.29942056367E+03  0.90840461651E+03  0.96623887360E+03  0.10566000000E+00 0.  1.
        994    1    1    2    0    0  0.13919427470E+03  0.30509373319E+03  0.57522803621E+03  0.68749833875E+03  0.17120000000E+03 0.  0.
        998    1    1    2    0    0 -0.22054852166E+01 -0.56731695241E+01  0.16367343556E+02  0.17462787652E+02  0.10000000000E+00 0.  1.
</event>
<event>
 5    1  0.2022058E-009  0.3882993E+03  0.7957747E-01  0.3415799E+00
         13   -1    0    0    0    0  0.00000000000E+00  0.00000000000E+00  0.14999999963E+04  0.15000000000E+04  0.10566000000E+00 0. -1.
        994   -1    0    0    0    0 -0.00000000000E+00 -0.00000000000E+00  0.11368683772E-12  0.17120000000E+03  0.17120000000E+03 0.  0.
         13    1    1    2    0    0  0.67419558961E+02 -0.21482681832E+03  0.11374978600E+04  0.11595677434E+04  0.10566000000E+00 0. -1.
        994    1    1    2    0    0 -0.74652527117E+02  0.23783285033E+03  0.23802724914E+03  0.38484266374E+03  0.17120000000E+03 0.  0.
        998    1    1    2    0    0  0.72329681562E+01 -0.23006032008E+02  0.12447488710E+03  0.12678959285E+03  0.10000000000E+00 0. -1.
</event>
<event>
 5    1  0.2022058E-009  0.3867606E+03  0.7957747E-01  0.3422239E+00
         13   -1    0    0    0    0  0.00000000000E+00  0.00000000000E+00  0.14999999963E+04  0.15000000000E+04  0.10566000000E+00 0.  1.
        994   -1    0    0    0    0 -0.00000000000E+00 -0.00000000000E+00  0.11368683772E-12  0.17120000000E+03  0.17120000000E+03 0.  0.
         13    1    1    2    0    0 -0.12705692501E+02  0.25966372058E+01  0.76468825557E+02  0.77560747759E+02  0.10566000000E+00 0.  1.
        994    1    1    2    0    0  0.43117462538E+02 -0.27854602291E+02  0.94226729370E+01  0.17897827022E+03  0.17120000000E+03 0.  0.
        998    1    1    2    0    0 -0.30411770037E+02  0.25257965085E+02  0.14141084978E+04  0.14146609820E+04  0.10000000000E+00 0.  1.
</event>
<event>
 5    1  0.2022058E-009  0.3883009E+03  0.7957747E-01  0.3415792E+00
         13   -1    0    0    0    0  0.00000000000E+00  0.00000000000E+00  0.14999999963E+04  0.15000000000E+04  0.10566000000E+00 0. -1.
        994   -1    0    0    0    0 -0.00000000000E+00 -0.00000000000E+00  0.11368683772E-12  0.17120000000E+03  0.17120000000E+03 0.  0.
         13    1    1    2    0    0  0.98101651462E+02 -0.60574698925E+02  0.56518344793E+03  0.57682368983E+03  0.10566000000E+00 0. -1.
        994    1    1    2    0    0 -0.21671896438E+03  0.13423609997E+03  0.25145221227E+03  0.39689305249E+03  0.17120000000E+03 0.  0.
        998    1    1    2    0    0  0.11861731292E+03 -0.73661401047E+02  0.68336433608E+03  0.69748325768E+03  0.10000000000E+00 0. -1.
</event>
<event>
 5    1  0.2022058E-009  0.3882946E+03  0.7957747E-01  0.3415819E+00
         13   -1    0    0    0    0  0.00000000000E+00  0.00000000000E+00  0.14999999963E+04  0.15000000000E+04  0.10566000000E+00 0.  1.
        994   -1    0    0    0    0 -0.00000000000E+00 -0.00000000000E+00  0.11368683772E-12  0.17120000000E+03  0.17120000000E+03 0.  0.
         13    1    1    2    0    0  0.21048271958E+02  0.23449221443E+03  0.12688591541E+04  0.12905166378E+04  0.10566000000E+00 0.  1.
        994    1    1    2    0    0 -0.21021061698E+02 -0.23752051288E+03  0.21397674512E+03  0.36325385961E+03  0.17120000000E+03 0.  0.
        998    1    1    2    0    0 -0.27210260403E-01  0.30282984463E+01  0.17164097069E+02  0.17429502577E+02  0.10000000000E+00 0. -1.
</event>
<event>
 5    1  0.2022058E-009  0.3882860E+03  0.7957747E-01  0.3415854E+00
         13   -1    0    0    0    0  0.00000000000E+00  0.00000000000E+00  0.14999999963E+04  0.15000000000E+04  0.10566000000E+00 0.  1.
        994   -1    0    0    0    0 -0.00000000000E+00 -0.00000000000E+00  0.11368683772E-12  0.17120000000E+03  0.17120000000E+03 0.  0.
         13    1    1    2    0    0  0.14852895040E+02 -0.16695982050E+03  0.84505892481E+03  0.86152236634E+03  0.10566000000E+00 0.  1.
        994    1    1    2    0    0 -0.25231108121E+02  0.24804383405E+03  0.23816413758E+03  0.38495967172E+03  0.17120000000E+03 0.  0.
        998    1    1    2    0    0  0.10378213081E+02 -0.81084013549E+02  0.41677693390E+03  0.42471796193E+03  0.10000000000E+00 0. -1.
</event>
<event>
 5    1  0.2022058E-009  0.3883003E+03  0.7957747E-01  0.3415795E+00
         13   -1    0    0    0    0  0.00000000000E+00  0.00000000000E+00  0.14999999963E+04  0.15000000000E+04  0.10566000000E+00 0.  1.
        994   -1    0    0    0    0 -0.00000000000E+00 -0.00000000000E+00  0.11368683772E-12  0.17120000000E+03  0.17120000000E+03 0.  0.
         13    1    1    2    0    0 -0.18644030457E+03  0.98109601070E+02  0.12731122519E+04  0.12904264016E+04  0.10566000000E+00 0.  1.
        994    1    1    2    0    0  0.19381411071E+03 -0.10218549954E+03  0.17574191891E+03  0.32893836488E+03  0.17120000000E+03 0.  0.
        998    1    1    2    0    0 -0.73738061436E+01  0.40758984730E+01  0.51145825490E+02  0.51835233485E+02  0.10000000000E+00 0.  1.
</event>
<event>
 5    1  0.2022058E-009  0.3861618E+03  0.7957747E-01  0.3424760E+00
         13   -1    0    0    0    0  0.00000000000E+00  0.00000000000E+00  0.14999999963E+04  0.15000000000E+04  0.10566000000E+00 0. -1.
        994   -1    0    0    0    0 -0.00000000000E+00 -0.00000000000E+00  0.11368683772E-12  0.17120000000E+03  0.17120000000E+03 0.  0.
         13    1    1    2    0    0 -0.64751960475E+01 -0.16731938650E+02  0.86905361352E+02  0.88738035422E+02  0.10566000000E+00 0. -1.
        994    1    1    2    0    0  0.17685559220E+02  0.77904704342E+02  0.22249681581E+02  0.19022725960E+03  0.17120000000E+03 0.  0.
        998    1    1    2    0    0 -0.11210363173E+02 -0.61172765693E+02  0.13908449533E+04  0.13922347050E+04  0.10000000000E+00 0. -1.
</event>
<event>
 5    1  0.2022058E-009  0.3875547E+03  0.7957747E-01  0.3418909E+00
         13   -1    0    0    0    0  0.00000000000E+00  0.00000000000E+00  0.14999999963E+04  0.15000000000E+04  0.10566000000E+00 0.  1.
        994   -1    0    0    0    0 -0.00000000000E+00 -0.00000000000E+00  0.11368683772E-12  0.17120000000E+03  0.17120000000E+03 0.  0.
         13    1    1    2    0    0  0.86374624823E+02  0.23746374490E+03  0.12518470687E+04  0.12770946325E+04  0.10566000000E+00 0.  1.
        994    1    1    2    0    0 -0.85496674966E+02 -0.23771596443E+03  0.24784883819E+03  0.39313744132E+03  0.17120000000E+03 0.  0.
        998    1    1    2    0    0 -0.87794985764E+00  0.25221953118E+00  0.30408941275E+00  0.96792614150E+00  0.10000000000E+00 0. -1.
</event>
<event>
 5    1  0.2022058E-009  0.3883009E+03  0.7957747E-01  0.3415792E+00
         13   -1    0    0    0    0  0.00000000000E+00  0.00000000000E+00  0.14999999963E+04  0.15000000000E+04  0.10566000000E+00 0. -1.
        994   -1    0    0    0    0 -0.00000000000E+00 -0.00000000000E+00  0.11368683772E-12  0.17120000000E+03  0.17120000000E+03 0.  0.
         13    1    1    2    0    0 -0.18222203920E+03 -0.94513388872E+02  0.10090973036E+04  0.10297645515E+04  0.10566000000E+00 0. -1.
        994    1    1    2    0    0  0.22567480389E+03  0.11720379757E+03  0.24992452640E+03  0.39552187825E+03  0.17120000000E+03 0.  0.
        998    1    1    2    0    0 -0.43452764692E+02 -0.22690408697E+02  0.24097816624E+03  0.24591357021E+03  0.10000000000E+00 0. -1.
</event>
<event>
 5    1  0.2022058E-009  0.3877561E+03  0.7957747E-01  0.3418067E+00
         13   -1    0    0    0    0  0.00000000000E+00  0.00000000000E+00  0.14999999963E+04  0.15000000000E+04  0.10566000000E+00 0. -1.
        994   -1    0    0    0    0 -0.00000000000E+00 -0.00000000000E+00  0.11368683772E-12  0.17120000000E+03  0.17120000000E+03 0.  0.
         13    1    1    2    0    0  0.86037439865E+02 -0.30159894786E+03  0.10488473408E+04  0.10947351835E+04  0.10566000000E+00 0. -1.
        994    1    1    2    0    0 -0.87178249611E+02  0.30155687988E+03  0.44856336579E+03  0.57363327321E+03  0.17120000000E+03 0.  0.
        998    1    1    2    0    0  0.11408097459E+01  0.42067974433E-01  0.25892896677E+01  0.28315433202E+01  0.10000000000E+00 0.  1.
</event>
<event>
 5    1  0.2022058E-009  0.3882981E+03  0.7957747E-01  0.3415804E+00
         13   -1    0    0    0    0  0.00000000000E+00  0.00000000000E+00  0.14999999963E+04  0.15000000000E+04  0.10566000000E+00 0. -1.
        994   -1    0    0    0    0 -0.00000000000E+00 -0.00000000000E+00  0.11368683772E-12  0.17120000000E+03  0.17120000000E+03 0.  0.
         13    1    1    2    0    0 -0.10303160756E+03 -0.99649154492E+02  0.83669696082E+03  0.84888590609E+03  0.10566000000E+00 0. -1.
        994    1    1    2    0    0  0.16040322538E+03  0.15636737066E+03  0.18490990432E+03  0.33716622315E+03  0.17120000000E+03 0.  0.
        998    1    1    2    0    0 -0.57371617826E+02 -0.56718216170E+02  0.47839313114E+03  0.48514787075E+03  0.10000000000E+00 0.  1.
</event>
<event>
 5    1  0.2022058E-009  0.3876565E+03  0.7957747E-01  0.3418483E+00
         13   -1    0    0    0    0  0.00000000000E+00  0.00000000000E+00  0.14999999963E+04  0.15000000000E+04  0.10566000000E+00 0.  1.
        994   -1    0    0    0    0 -0.00000000000E+00 -0.00000000000E+00  0.11368683772E-12  0.17120000000E+03  0.17120000000E+03 0.  0.
         13    1    1    2    0    0 -0.19121732238E+03 -0.96308195131E+02  0.85872589014E+03  0.88501384079E+03  0.10566000000E+00 0.  1.
        994    1    1    2    0    0  0.24885130239E+03  0.12160181500E+03  0.31204193657E+03  0.45099177630E+03  0.17120000000E+03 0.  0.
        998    1    1    2    0    0 -0.57633980007E+02 -0.25293619871E+02  0.32923216957E+03  0.33519438291E+03  0.10000000000E+00 0.  1.
</event>
<event>
 5    1  0.2022058E-009  0.3881713E+03  0.7957747E-01  0.3416333E+00
         13   -1    0    0    0    0  0.00000000000E+00  0.00000000000E+00  0.14999999963E+04  0.15000000000E+04  0.10566000000E+00 0. -1.
        994   -1    0    0    0    0 -0.00000000000E+00 -0.00000000000E+00  0.11368683772E-12  0.17120000000E+03  0.17120000000E+03 0.  0.
         13    1    1    2    0    0 -0.52931083978E+02  0.22153737833E+03  0.12439883839E+04  0.12646689765E+04  0.10566000000E+00 0. -1.
        994    1    1    2    0    0  0.57390759666E+02 -0.23009362207E+03  0.21138645397E+03  0.36087455872E+03  0.17120000000E+03 0.  0.
        998    1    1    2    0    0 -0.44596756885E+01  0.85562437387E+01  0.44625158399E+02  0.45656464781E+02  0.10000000000E+00 0. -1.
</event>
<event>
 5    1  0.2022058E-009  0.3882994E+03  0.7957747E-01  0.3415798E+00
         13   -1    0    0    0    0  0.00000000000E+00  0.00000000000E+00  0.14999999963E+04  0.15000000000E+04  0.10566000000E+00 0.  1.
        994   -1    0    0    0    0 -0.00000000000E+00 -0.00000000000E+00  0.11368683772E-12  0.17120000000E+03  0.17120000000E+03 0.  0.
         13    1    1    2    0    0 -0.59435535970E+02  0.40020901541E+02  0.36483569779E+03  0.37180553122E+03  0.10566000000E+00 0.  1.
        994    1    1    2    0    0  0.20772082508E+03 -0.13725912401E+03  0.23733163887E+03  0.38421836903E+03  0.17120000000E+03 0.  0.
        998    1    1    2    0    0 -0.14828528911E+03  0.97238222467E+02  0.89783265962E+03  0.91517609975E+03  0.10000000000E+00 0.  1.
</event>
<event>
 5    1  0.2022058E-009  0.3827066E+03  0.7957747E-01  0.3439458E+00
         13   -1    0    0    0    0  0.00000000000E+00  0.00000000000E+00  0.14999999963E+04  0.15000000000E+04  0.10566000000E+00 0. -1.
        994   -1    0    0    0    0 -0.00000000000E+00 -0.00000000000E+00  0.11368683772E-12  0.17120000000E+03  0.17120000000E+03 0.  0.
         13    1    1    2    0    0  0.14673547009E+01  0.17297287373E+02  0.84135092711E+02  0.85907358647E+02  0.10566000000E+00 0. -1.
        994    1    1    2    0    0  0.44832853272E+02  0.59824618631E+02  0.21517039423E+02  0.18804625152E+03  0.17120000000E+03 0.  0.
        998    1    1    2    0    0 -0.46300207973E+02 -0.77121906003E+02  0.13943478641E+04  0.13972463898E+04  0.10000000000E+00 0. -1.
</event>
<event>
 5    1  0.2022058E-009  0.3775523E+03  0.7957747E-01  0.3461886E+00
         13   -1    0    0    0    0  0.00000000000E+00  0.00000000000E+00  0.14999999963E+04  0.15000000000E+04  0.10566000000E+00 0.  1.
        994   -1    0    0    0    0 -0.00000000000E+00 -0.00000000000E+00  0.11368683772E-12  0.17120000000E+03  0.17120000000E+03 0.  0.
         13    1    1    2    0    0  0.20687023953E+03 -0.85889290576E+02  0.71199350157E+03  0.74639602335E+03  0.10566000000E+00 0.  1.
        994    1    1    2    0    0 -0.30576100681E+03  0.40159396577E+02  0.46318017873E+03  0.58219231220E+03  0.17120000000E+03 0.  0.
        998    1    1    2    0    0  0.98890767282E+02  0.45729893999E+02  0.32482631599E+03  0.34261166445E+03  0.10000000000E+00 0.  1.
</event>
<event>
 5    1  0.2022058E-009  0.3883007E+03  0.7957747E-01  0.3415793E+00
         13   -1    0    0    0    0  0.00000000000E+00  0.00000000000E+00  0.14999999963E+04  0.15000000000E+04  0.10566000000E+00 0. -1.
        994   -1    0    0    0    0 -0.00000000000E+00 -0.00000000000E+00  0.11368683772E-12  0.17120000000E+03  0.17120000000E+03 0.  0.
         13    1    1    2    0    0  0.30376427414E+03  0.57374085542E+02  0.93401862472E+03  0.98384720481E+03  0.10566000000E+00 0. -1.
        994    1    1    2    0    0 -0.32080479277E+03 -0.60467486133E+02  0.51366800524E+03  0.63224701783E+03  0.17120000000E+03 0.  0.
        998    1    1    2    0    0  0.17040518634E+02  0.30934005910E+01  0.52313366317E+02  0.55105777356E+02  0.10000000000E+00 0.  1.
</event>
<event>
 5    1  0.2022058E-009  0.3883009E+03  0.7957747E-01  0.3415792E+00
         13   -1    0    0    0    0  0.00000000000E+00  0.00000000000E+00  0.14999999963E+04  0.15000000000E+04  0.10566000000E+00 0.  1.
        994   -1    0    0    0    0 -0.00000000000E+00 -0.00000000000E+00  0.11368683772E-12  0.17120000000E+03  0.17120000000E+03 0.  0.
         13    1    1    2    0    0 -0.97116257042E+01  0.21359999809E+03  0.11547405960E+04  0.11743700993E+04  0.10566000000E+00 0.  1.
        994    1    1    2    0    0  0.10796647016E+02 -0.23797154931E+03  0.21347335399E+03  0.36280482181E+03  0.17120000000E+03 0.  0.
        998    1    1    2    0    0 -0.10850213113E+01  0.24371551217E+02  0.13178604627E+03  0.13402507889E+03  0.10000000000E+00 0.  0.
</event>
<event>
 5    1  0.2022058E-009  0.3882715E+03  0.7957747E-01  0.3415915E+00
         13   -1    0    0    0    0  0.00000000000E+00  0.00000000000E+00  0.14999999963E+04  0.15000000000E+04  0.10566000000E+00 0. -1.
        994   -1    0    0    0    0 -0.00000000000E+00 -0.00000000000E+00  0.11368683772E-12  0.17120000000E+03  0.17120000000E+03 0.  0.
         13    1    1    2    0    0 -0.10744094563E+03 -0.25361140590E+03  0.11857605203E+04  0.12173291768E+04  0.10566000000E+00 0. -1.
        994    1    1    2    0    0  0.10771552567E+03  0.25441654514E+03  0.30867605620E+03  0.44824185501E+03  0.17120000000E+03 0.  0.
        998    1    1    2    0    0 -0.27458004568E+00 -0.80513923261E+00  0.55634197854E+01  0.56289682087E+01  0.10000000000E+00 0.  0.
</event>
<event>
 5    1  0.2022058E-009  0.3882355E+03  0.7957747E-01  0.3416065E+00
         13   -1    0    0    0    0  0.00000000000E+00  0.00000000000E+00  0.14999999963E+04  0.15000000000E+04  0.10566000000E+00 0.  1.
        994   -1    0    0    0    0 -0.00000000000E+00 -0.00000000000E+00  0.11368683772E-12  0.17120000000E+03  0.17120000000E+03 0.  0.
         13    1    1    2    0    0  0.53244528123E+02 -0.22283266546E+03  0.12944895992E+04  0.13146074357E+04  0.10566000000E+00 0.  1.
        994    1    1    2    0    0 -0.53463973342E+02  0.22358552402E+03  0.19643745485E+03  0.34748524668E+03  0.17120000000E+03 0.  0.
        998    1    1    2    0    0  0.21944521921E+00 -0.75285855579E+00  0.90729422492E+01  0.91073175670E+01  0.10000000000E+00 0.  1.
</event>
<event>
 5    1  0.2022058E-009  0.3882997E+03  0.7957747E-01  0.3415797E+00
         13   -1    0    0    0    0  0.00000000000E+00  0.00000000000E+00  0.14999999963E+04  0.15000000000E+04  0.10566000000E+00 0.  1.
        994   -1    0    0    0    0 -0.00000000000E+00 -0.00000000000E+00  0.11368683772E-12  0.17120000000E+03  0.17120000000E+03 0.  0.
         13    1    1    2    0    0 -0.23817284050E+03  0.14150514605E+03  0.11564651145E+04  0.11891852591E+04  0.10566000000E+00 0.  1.
        994    1    1    2    0    0  0.24198431434E+03 -0.14379449856E+03  0.32436903669E+03  0.46233967834E+03  0.17120000000E+03 0.  0.
        998    1    1    2    0    0 -0.38114738386E+01  0.22893525159E+01  0.19165845080E+02  0.19675062526E+02  0.10000000000E+00 0.  1.
</event>
<event>
 5    1  0.2022058E-009  0.3882940E+03  0.7957747E-01  0.3415821E+00
         13   -1    0    0    0    0  0.00000000000E+00  0.00000000000E+00  0.14999999963E+04  0.15000000000E+04  0.10566000000E+00 0. -1.
        994   -1    0    0    0    0 -0.00000000000E+00 -0.00000000000E+00  0.11368683772E-12  0.17120000000E+03  0.17120000000E+03 0.  0.
         13    1    1    2    0    0 -0.23506639410E+03 -0.21895787924E+03  0.99475259582E+03  0.10453379839E+04  0.10566000000E+00 0. -1.
        994    1    1    2    0    0  0.23670333026E+03  0.22083634547E+03  0.49767190581E+03  0.61788665940E+03  0.17120000000E+03 0.  0.
        998    1    1    2    0    0 -0.16369361589E+01 -0.18784662244E+01  0.75754946462E+01  0.79753566991E+01  0.10000000000E+00 0. -1.
</event>
<event>
 5    1  0.2022058E-009  0.3879832E+03  0.7957747E-01  0.3417118E+00
         13   -1    0    0    0    0  0.00000000000E+00  0.00000000000E+00  0.14999999963E+04  0.15000000000E+04  0.10566000000E+00 0. -1.
        994   -1    0    0    0    0 -0.00000000000E+00 -0.00000000000E+00  0.11368683772E-12  0.17120000000E+03  0.17120000000E+03 0.  0.
         13    1    1    2    0    0  0.16799938891E+03  0.31724548477E+02  0.10262682667E+04  0.10404118454E+04  0.10566000000E+00 0. -1.
        994    1    1    2    0    0 -0.20975218377E+03 -0.49792180219E+02  0.16974557679E+03  0.32341651264E+03  0.17120000000E+03 0.  0.
        998    1    1    2    0    0  0.41752794863E+02  0.18067631742E+02  0.30398615274E+03  0.30737164192E+03  0.10000000000E+00 0. -1.
</event>
<event>
 5    1  0.2022058E-009  0.3874434E+03  0.7957747E-01  0.3419375E+00
         13   -1    0    0    0    0  0.00000000000E+00  0.00000000000E+00  0.14999999963E+04  0.15000000000E+04  0.10566000000E+00 0. -1.
        994   -1    0    0    0    0 -0.00000000000E+00 -0.00000000000E+00  0.11368683772E-12  0.17120000000E+03  0.17120000000E+03 0.  0.
         13    1    1    2    0    0 -0.14242197369E+02 -0.21550214990E+03  0.12158772527E+04  0.12349095196E+04  0.10566000000E+00 0. -1.
        994    1    1    2    0    0  0.59275363164E+01  0.22906728659E+03  0.19600612602E+03  0.34674889893E+03  0.17120000000E+03 0.  0.
        998    1    1    2    0    0  0.83146610528E+01 -0.13565136688E+02  0.88116617537E+02  0.89541581447E+02  0.10000000000E+00 0. -1.
</event>
<event>
 5    1  0.2022058E-009  0.3882876E+03  0.7957747E-01  0.3415848E+00
         13   -1    0    0    0    0  0.00000000000E+00  0.00000000000E+00  0.14999999963E+04  0.15000000000E+04  0.10566000000E+00 0.  1.
        994   -1    0    0    0    0 -0.00000000000E+00 -0.00000000000E+00  0.11368683772E-12  0.17120000000E+03  0.17120000000E+03 0.  0.
         13    1    1    2    0    0  0.13949561222E+03  0.31511514827E+02  0.75556580900E+03  0.76898095184E+03  0.10566000000E+00 0.  1.
        994    1    1    2    0    0 -0.23332272762E+03 -0.53274274390E+02  0.21586270675E+03  0.36494354591E+03  0.17120000000E+03 0.  0.
        998    1    1    2    0    0  0.93827115406E+02  0.21762759563E+02  0.52857148053E+03  0.53727550225E+03  0.10000000000E+00 0. -1.
</event>
<event>
 5    1  0.2022058E-009  0.3882830E+03  0.7957747E-01  0.3415867E+00
         13   -1    0    0    0    0  0.00000000000E+00  0.00000000000E+00  0.14999999963E+04  0.15000000000E+04  0.10566000000E+00 0. -1.
        994   -1    0    0    0    0 -0.00000000000E+00 -0.00000000000E+00  0.11368683772E-12  0.17120000000E+03  0.17120000000E+03 0.  0.
         13    1    1    2    0    0  0.16983238511E+03  0.12170277903E+03  0.11615966106E+04  0.11802378160E+04  0.10566000000E+00 0. -1.
        994    1    1    2    0    0 -0.19106185390E+03 -0.13551800625E+03  0.20518956436E+03  0.35536173029E+03  0.17120000000E+03 0.  0.
        998    1    1    2    0    0  0.21229468783E+02  0.13815227227E+02  0.13321382133E+03  0.13560045369E+03  0.10000000000E+00 0.  1.
</event>
<event>
 5    1  0.2022058E-009  0.3882938E+03  0.7957747E-01  0.3415822E+00
         13   -1    0    0    0    0  0.00000000000E+00  0.00000000000E+00  0.14999999963E+04  0.15000000000E+04  0.10566000000E+00 0. -1.
        994   -1    0    0    0    0 -0.00000000000E+00 -0.00000000000E+00  0.11368683772E-12  0.17120000000E+03  0.17120000000E+03 0.  0.
         13    1    1    2    0    0  0.26953684452E+03 -0.59043228704E+02  0.11383408718E+04  0.11713053252E+04  0.10566000000E+00 0. -1.
        994    1    1    2    0    0 -0.27708534372E+03  0.60178094823E+02  0.33085334008E+03  0.46815709270E+03  0.17120000000E+03 0.  0.
        998    1    1    2    0    0  0.75484992060E+01 -0.11348661193E+01  0.30805784413E+02  0.31737582055E+02  0.10000000000E+00 0.  1.
</event>
<event>
 5    1  0.2022058E-009  0.3883008E+03  0.7957747E-01  0.3415793E+00
         13   -1    0    0    0    0  0.00000000000E+00  0.00000000000E+00  0.14999999963E+04  0.15000000000E+04  0.10566000000E+00 0. -1.
        994   -1    0    0    0    0 -0.00000000000E+00 -0.00000000000E+00  0.11368683772E-12  0.17120000000E+03  0.17120000000E+03 0.  0.
         13    1    1    2    0    0  0.54323357639E+02 -0.20790043012E+03  0.12581727324E+04  0.12763903211E+04  0.10566000000E+00 0. -1.
        994    1    1    2    0    0 -0.56683869330E+02  0.21715766991E+03  0.18571653244E+03  0.33789138057E+03  0.17120000000E+03 0.  0.
        998    1    1    2    0    0  0.23605116908E+01 -0.92572397961E+01  0.56110731418E+02  0.56918298326E+02  0.10000000000E+00 0.  0.
</event>
<event>
 5    1  0.2022058E-009  0.3837613E+03  0.7957747E-01  0.3434943E+00
         13   -1    0    0    0    0  0.00000000000E+00  0.00000000000E+00  0.14999999963E+04  0.15000000000E+04  0.10566000000E+00 0.  1.
        994   -1    0    0    0    0 -0.00000000000E+00 -0.00000000000E+00  0.11368683772E-12  0.17120000000E+03  0.17120000000E+03 0.  0.
         13    1    1    2    0    0  0.93723407189E+01  0.12279852391E+02  0.38959882712E+02  0.41910847883E+02  0.10566000000E+00 0.  1.
        994    1    1    2    0    0 -0.10016053611E+03 -0.22598933519E+02  0.37872200686E+02  0.20319101450E+03  0.17120000000E+03 0.  0.
        998    1    1    2    0    0  0.90788195388E+02  0.10319081129E+02  0.14231679129E+04  0.14260981376E+04  0.10000000000E+00 0.  1.
</event>
<event>
 5    1  0.2022058E-009  0.3883005E+03  0.7957747E-01  0.3415794E+00
         13   -1    0    0    0    0  0.00000000000E+00  0.00000000000E+00  0.14999999963E+04  0.15000000000E+04  0.10566000000E+00 0. -1.
        994   -1    0    0    0    0 -0.00000000000E+00 -0.00000000000E+00  0.11368683772E-12  0.17120000000E+03  0.17120000000E+03 0.  0.
         13    1    1    2    0    0  0.21826228875E+03  0.71964900433E+02  0.12451633933E+04  0.12661947958E+04  0.10566000000E+00 0. -1.
        994    1    1    2    0    0 -0.22578682474E+03 -0.74480628024E+02  0.21249422615E+03  0.36192580776E+03  0.17120000000E+03 0.  0.
        998    1    1    2    0    0  0.75245359870E+01  0.25157275912E+01  0.42342376807E+02  0.43079396476E+02  0.10000000000E+00 0.  1.
</event>
<event>
 5    1  0.2022058E-009  0.3881093E+03  0.7957747E-01  0.3416591E+00
         13   -1    0    0    0    0  0.00000000000E+00  0.00000000000E+00  0.14999999963E+04  0.15000000000E+04  0.10566000000E+00 0. -1.
        994   -1    0    0    0    0 -0.00000000000E+00 -0.00000000000E+00  0.11368683772E-12  0.17120000000E+03  0.17120000000E+03 0.  0.
         13    1    1    2    0    0  0.27082269002E+03  0.14382943954E+03  0.10350045808E+04  0.10794750254E+04  0.10566000000E+00 0. -1.
        994    1    1    2    0    0 -0.27525006158E+03 -0.14655733735E+03  0.43815582637E+03  0.56438605379E+03  0.17120000000E+03 0.  0.
        998    1    1    2    0    0  0.44273715611E+01  0.27278978079E+01  0.26839589144E+02  0.27338920806E+02  0.10000000000E+00 0. -1.
</event>
<event>
 5    1  0.2022058E-009  0.3873276E+03  0.7957747E-01  0.3419860E+00
         13   -1    0    0    0    0  0.00000000000E+00  0.00000000000E+00  0.14999999963E+04  0.15000000000E+04  0.10566000000E+00 0.  1.
        994   -1    0    0    0    0 -0.00000000000E+00 -0.00000000000E+00  0.11368683772E-12  0.17120000000E+03  0.17120000000E+03 0.  0.
         13    1    1    2    0    0 -0.11357461000E+03 -0.11751476691E+01  0.32255049882E+03  0.34196404557E+03  0.10566000000E+00 0.  1.
        994    1    1    2    0    0  0.31289821367E+03  0.19656031652E+02  0.44888438146E+03  0.57367088092E+03  0.17120000000E+03 0.  0.
        998    1    1    2    0    0 -0.19932360367E+03 -0.18480883983E+02  0.72856511600E+03  0.75556507351E+03  0.10000000000E+00 0.  1.
</event>
<event>
 5    1  0.2022058E-009  0.3880526E+03  0.7957747E-01  0.3416828E+00
         13   -1    0    0    0    0  0.00000000000E+00  0.00000000000E+00  0.14999999963E+04  0.15000000000E+04  0.10566000000E+00 0. -1.
        994   -1    0    0    0    0 -0.00000000000E+00 -0.00000000000E+00  0.11368683772E-12  0.17120000000E+03  0.17120000000E+03 0.  0.
         13    1    1    2    0    0  0.11346378646E+03  0.46364809702E+02  0.39805208985E+03  0.41649634310E+03  0.10566000000E+00 0. -1.
        994    1    1    2    0    0 -0.30298565467E+03 -0.97765406269E+02  0.46989016926E+03  0.59284449290E+03  0.17120000000E+03 0.  0.
        998    1    1    2    0    0  0.18952186820E+03  0.51400596568E+02  0.63205773718E+03  0.66185916401E+03  0.10000000000E+00 0.  1.
</event>
<event>
 5    1  0.2022058E-009  0.3882427E+03  0.7957747E-01  0.3416035E+00
         13   -1    0    0    0    0  0.00000000000E+00  0.00000000000E+00  0.14999999963E+04  0.15000000000E+04  0.10566000000E+00 0.  1.
        994   -1    0    0    0    0 -0.00000000000E+00 -0.00000000000E+00  0.11368683772E-12  0.17120000000E+03  0.17120000000E+03 0.  0.
         13    1    1    2    0    0 -0.13002070108E+03  0.22779761191E+03  0.12036779938E+04  0.12319244533E+04  0.10566000000E+00 0.  1.
        994    1    1    2    0    0  0.13168427054E+03 -0.23171334301E+03  0.28122538748E+03  0.42359057945E+03  0.17120000000E+03 0.  0.
        998    1    1    2    0    0 -0.16635694583E+01  0.39157311001E+01  0.15096614986E+02  0.15684967244E+02  0.10000000000E+00 0.  1.
</event>
<event>
 5    1  0.2022058E-009  0.3882792E+03  0.7957747E-01  0.3415883E+00
         13   -1    0    0    0    0  0.00000000000E+00  0.00000000000E+00  0.14999999963E+04  0.15000000000E+04  0.10566000000E+00 0.  1.
        994   -1    0    0    0    0 -0.00000000000E+00 -0.00000000000E+00  0.11368683772E-12  0.17120000000E+03  0.17120000000E+03 0.  0.
         13    1    1    2    0    0  0.70148743480E+02 -0.44184994866E+02  0.38830373312E+03  0.39705536176E+03  0.10566000000E+00 0.  1.
        994    1    1    2    0    0 -0.21774146767E+03  0.13640665525E+03  0.25643485648E+03  0.40135570005E+03  0.17120000000E+03 0.  0.
        998    1    1    2    0    0  0.14759272419E+03 -0.92221660387E+02  0.85526140668E+03  0.87278893819E+03  0.10000000000E+00 0.  1.
</event>
<event>
 5    1  0.2022058E-009  0.3882067E+03  0.7957747E-01  0.3416185E+00
         13   -1    0    0    0    0  0.00000000000E+00  0.00000000000E+00  0.14999999963E+04  0.15000000000E+04  0.10566000000E+00 0.  1.
        994   -1    0    0    0    0 -0.00000000000E+00 -0.00000000000E+00  0.11368683772E-12  0.17120000000E+03  0.17120000000E+03 0.  0.
         13    1    1    2    0    0 -0.23437163456E+03 -0.24041257424E+03  0.88076284937E+03  0.94258764947E+03  0.10566000000E+00 0.  1.
        994    1    1    2    0    0  0.23710995972E+03  0.24224629772E+03  0.60756818687E+03  0.71648652705E+03  0.17120000000E+03 0.  0.
        998    1    1    2    0    0 -0.27383251624E+01 -0.18337234786E+01  0.11668960047E+02  0.12125823480E+02  0.10000000000E+00 0. -1.
</event>
<event>
 5    1  0.2022058E-009  0.3882947E+03  0.7957747E-01  0.3415818E+00
         13   -1    0    0    0    0  0.00000000000E+00  0.00000000000E+00  0.14999999963E+04  0.15000000000E+04  0.10566000000E+00 0. -1.
        994   -1    0    0    0    0 -0.00000000000E+00 -0.00000000000E+00  0.11368683772E-12  0.17120000000E+03  0.17120000000E+03 0.  0.
         13    1    1    2    0    0 -0.78462862824E+02 -0.21474036148E+03  0.13034383043E+04  0.13233371710E+04  0.10566000000E+00 0. -1.
        994    1    1    2    0    0  0.78638783440E+02  0.21503588559E+03  0.19452432957E+03  0.34579422371E+03  0.17120000000E+03 0.  0.
        998    1    1    2    0    0 -0.17592061662E+00 -0.29552410790E+00  0.20373623874E+01  0.20686053416E+01  0.10000000000E+00 0.  0.
</event>
<event>
 5    1  0.2022058E-009  0.3882965E+03  0.7957747E-01  0.3415810E+00
         13   -1    0    0    0    0  0.00000000000E+00  0.00000000000E+00  0.14999999963E+04  0.15000000000E+04  0.10566000000E+00 0.  1.
        994   -1    0    0    0    0 -0.00000000000E+00 -0.00000000000E+00  0.11368683772E-12  0.17120000000E+03  0.17120000000E+03 0.  0.
         13    1    1    2    0    0  0.12269687548E+03 -0.21012596757E+03  0.99584115131E+03  0.10251375787E+04  0.10566000000E+00 0.  1.
        994    1    1    2    0    0 -0.14415505038E+03  0.24621555080E+03  0.33650639367E+03  0.47323225691E+03  0.17120000000E+03 0.  0.
        998    1    1    2    0    0  0.21458174902E+02 -0.36089583223E+02  0.16765245131E+03  0.17283016437E+03  0.10000000000E+00 0.  1.
</event>
<event>
 5    1  0.2022058E-009  0.3844421E+03  0.7957747E-01  0.3432042E+00
         13   -1    0    0    0    0  0.00000000000E+00  0.00000000000E+00  0.14999999963E+04  0.15000000000E+04  0.10566000000E+00 0. -1.
        994   -1    0    0    0    0 -0.00000000000E+00 -0.00000000000E+00  0.11368683772E-12  0.17120000000E+03  0.17120000000E+03 0.  0.
         13    1    1    2    0    0 -0.46746228310E+00  0.14925758447E+02  0.75005994432E+02  0.76478148193E+02  0.10566000000E+00 0. -1.
        994    1    1    2    0    0  0.62883305790E+02  0.28245535199E+02  0.17723841307E+02  0.18540683633E+03  0.17120000000E+03 0.  0.
        998    1    1    2    0    0 -0.62415843507E+02 -0.43171293647E+02  0.14072701605E+04  0.14093150155E+04  0.10000000000E+00 0. -1.
</event>
<event>
 5    1  0.2022058E-009  0.3802999E+03  0.7957747E-01  0.3449854E+00
         13   -1    0    0    0    0  0.00000000000E+00  0.00000000000E+00  0.14999999963E+04  0.15000000000E+04  0.10566000000E+00 0.  1.
        994   -1    0    0    0    0 -0.00000000000E+00 -0.00000000000E+00  0.11368683772E-12  0.17120000000E+03  0.17120000000E+03 0.  0.
         13    1    1    2    0    0  0.48836925709E+02  0.59535125677E+02  0.37781855840E+03  0.38558572424E+03  0.10566000000E+00 0.  1.
        994    1    1    2    0    0 -0.82731716107E+01 -0.17047246994E+03  0.10832817636E+03  0.26490326946E+03  0.17120000000E+03 0.  0.
        998    1    1    2    0    0 -0.40563754098E+02  0.11093734426E+03  0.10138532615E+04  0.10207110063E+04  0.10000000000E+00 0.  1.
</event>
<event>
 5    1  0.2022058E-009  0.3882923E+03  0.7957747E-01  0.3415828E+00
         13   -1    0    0    0    0  0.00000000000E+00  0.00000000000E+00  0.14999999963E+04  0.15000000000E+04  0.10566000000E+00 0.  1.
        994   -1    0    0    0    0 -0.00000000000E+00 -0.00000000000E+00  0.11368683772E-12  0.17120000000E+03  0.17120000000E+03 0.  0.
         13    1    1    2    0    0 -0.19735580507E+03  0.11609107744E+03  0.12910348864E+04  0.13111817345E+04  0.10566000000E+00 0.  1.
        994    1    1    2    0    0  0.19909379082E+03 -0.11726927831E+03  0.19871129136E+03  0.34955119581E+03  0.17120000000E+03 0.  0.
        998    1    1    2    0    0 -0.17379857445E+01  0.11782008773E+01  0.10253818565E+02  0.10467069644E+02  0.10000000000E+00 0.  1.
</event>
<event>
 5    1  0.2022058E-009  0.3881523E+03  0.7957747E-01  0.3416412E+00
         13   -1    0    0    0    0  0.00000000000E+00  0.00000000000E+00  0.14999999963E+04  0.15000000000E+04  0.10566000000E+00 0. -1.
        994   -1    0    0    0    0 -0.00000000000E+00 -0.00000000000E+00  0.11368683772E-12  0.17120000000E+03  0.17120000000E+03 0.  0.
         13    1    1    2    0    0 -0.23100807221E+03 -0.85939410149E+02  0.92402759262E+03  0.95633535683E+03  0.10566000000E+00 0. -1.
        994    1    1    2    0    0  0.28344349843E+03  0.10132858457E+03  0.39248962364E+03  0.52341689266E+03  0.17120000000E+03 0.  0.
        998    1    1    2    0    0 -0.52435426222E+02 -0.15389174417E+02  0.18348278002E+03  0.19144775051E+03  0.10000000000E+00 0. -1.
</event>
<event>
 5    1  0.2919474E-009  0.3882943E+03  0.7957747E-01  0.3415820E+00
         13   -1    0    0    0    0  0.00000000000E+00  0.00000000000E+00  0.14999999963E+04  0.15000000000E+04  0.10566000000E+00 0.  1.
        994   -1    0    0    0    0 -0.00000000000E+00 -0.00000000000E+00  0.11368683772E-12  0.17120000000E+03  0.17120000000E+03 0.  0.
         13    1    1    2    0    0  0.15111789635E+03 -0.19601983612E+03  0.12635640619E+04  0.12875770053E+04  0.10566000000E+00 0.  1.
        994    1    1    2    0    0 -0.15129431140E+03  0.19624911629E+03  0.23462915836E+03  0.38179047429E+03  0.17120000000E+03 0.  0.
        998    1    1    2    0    0  0.17641504837E+00 -0.22928017593E+00  0.18067760076E+01  0.18325204528E+01  0.10000000000E+00 0. -1.
</event>
<event>
 5    1  0.2022058E-009  0.3974585E+03  0.7957747E-01  0.3378494E+00
         13   -1    0    0    0    0  0.00000000000E+00  0.00000000000E+00  0.14999999963E+04  0.15000000000E+04  0.10566000000E+00 0. -1.
        994   -1    0    0    0    0 -0.00000000000E+00 -0.00000000000E+00  0.11368683772E-12  0.17120000000E+03  0.17120000000E+03 0.  0.
         13    1    1    2    0    0 -0.80615497388E+01 -0.82211341637E+02  0.14213677230E+03  0.16439758660E+03  0.10566000000E+00 0. -1.
        994    1    1    2    0    0  0.15833474600E+03 -0.13541016988E+02  0.13249658554E+03  0.26854801454E+03  0.17120000000E+03 0.  0.
        998    1    1    2    0    0 -0.15027319626E+03  0.95752358625E+02  0.12253666384E+04  0.12382543989E+04  0.10000000000E+00 0. -1.
</event>
<event>
 5    1  0.2022058E-009  0.3882629E+03  0.7957747E-01  0.3415951E+00
         13   -1    0    0    0    0  0.00000000000E+00  0.00000000000E+00  0.14999999963E+04  0.15000000000E+04  0.10566000000E+00 0.  1.
        994   -1    0    0    0    0 -0.00000000000E+00 -0.00000000000E+00  0.11368683772E-12  0.17120000000E+03  0.17120000000E+03 0.  0.
         13    1    1    2    0    0  0.16822957562E+03  0.23179332897E+03  0.32919377367E+03  0.43634606593E+03  0.10566000000E+00 0.  1.
        994    1    1    2    0    0 -0.18501217239E+03 -0.25128305161E+03  0.11422691318E+04  0.11964367453E+04  0.17120000000E+03 0.  0.
        998    1    1    2    0    0  0.16782596774E+02  0.19489722638E+02  0.28537090772E+02  0.38417188766E+02  0.10000000000E+00 0. -1.
</event>
<event>
 5    1  0.2022058E-009  0.3882838E+03  0.7957747E-01  0.3415864E+00
         13   -1    0    0    0    0  0.00000000000E+00  0.00000000000E+00  0.14999999963E+04  0.15000000000E+04  0.10566000000E+00 0. -1.
        994   -1    0    0    0    0 -0.00000000000E+00 -0.00000000000E+00  0.11368683772E-12  0.17120000000E+03  0.17120000000E+03 0.  0.
         13    1    1    2    0    0 -0.23600645151E+03  0.19060960985E+02  0.12833145655E+04  0.13049745785E+04  0.10566000000E+00 0. -1.
        994    1    1    2    0    0  0.23662225914E+03 -0.19070532537E+02  0.21174730027E+03  0.36124802824E+03  0.17120000000E+03 0.  0.
        998    1    1    2    0    0 -0.61580762461E+00  0.95715519988E-02  0.49381305223E+01  0.49773932636E+01  0.10000000000E+00 0. -1.
</event>
<event>
 5    1  0.2022058E-009  0.3882980E+03  0.7957747E-01  0.3415804E+00
         13   -1    0    0    0    0  0.00000000000E+00  0.00000000000E+00  0.14999999963E+04  0.15000000000E+04  0.10566000000E+00 0. -1.
        994   -1    0    0    0    0 -0.00000000000E+00 -0.00000000000E+00  0.11368683772E-12  0.17120000000E+03  0.17120000000E+03 0.  0.
         13    1    1    2    0    0  0.23291063857E+03 -0.40707450015E+01  0.12590055768E+04  0.12803745507E+04  0.10566000000E+00 0. -1.
        994    1    1    2    0    0 -0.23821451868E+03  0.39717658796E+01  0.21354390415E+03  0.36286687757E+03  0.17120000000E+03 0.  0.
        998    1    1    2    0    0  0.53038801128E+01  0.98979121929E-01  0.27450515295E+02  0.27958571693E+02  0.10000000000E+00 0.  0.
</event>
<event>
 5    1  0.2022058E-009  0.3883002E+03  0.7957747E-01  0.3415795E+00
         13   -1    0    0    0    0  0.00000000000E+00  0.00000000000E+00  0.14999999963E+04  0.15000000000E+04  0.10566000000E+00 0. -1.
        994   -1    0    0    0    0 -0.00000000000E+00 -0.00000000000E+00  0.11368683772E-12  0.17120000000E+03  0.17120000000E+03 0.  0.
         13    1    1    2    0    0  0.17160089859E+03 -0.22840585610E+03  0.11362171260E+04  0.11715824649E+04  0.10566000000E+00 0. -1.
        994    1    1    2    0    0 -0.17380124555E+03  0.23125595348E+03  0.34962454578E+03  0.48500819786E+03  0.17120000000E+03 0.  0.
        998    1    1    2    0    0  0.22003469573E+01 -0.28500973876E+01  0.14158324480E+02  0.14609337218E+02  0.10000000000E+00 0.  0.
</event>
<event>
 5    1  0.2022058E-009  0.3883009E+03  0.7957747E-01  0.3415792E+00
         13   -1    0    0    0    0  0.00000000000E+00  0.00000000000E+00  0.14999999963E+04  0.15000000000E+04  0.10566000000E+00 0.  1.
        994   -1    0    0    0    0 -0.00000000000E+00 -0.00000000000E+00  0.11368683772E-12  0.17120000000E+03  0.17120000000E+03 0.  0.
         13    1    1    2    0    0  0.96312230392E+02 -0.13459021982E+03  0.74503930411E+03  0.76319994027E+03  0.10566000000E+00 0.  1.
        994    1    1    2    0    0 -0.15677995895E+03  0.21879784830E+03  0.28834051387E+03  0.43000249522E+03  0.17120000000E+03 0.  0.
        998    1    1    2    0    0  0.60467728560E+02 -0.84207628483E+02  0.46662017830E+03  0.47799756452E+03  0.10000000000E+00 0.  1.
</event>
<event>
 5    1  0.2022058E-009  0.3883006E+03  0.7957747E-01  0.3415793E+00
         13   -1    0    0    0    0  0.00000000000E+00  0.00000000000E+00  0.14999999963E+04  0.15000000000E+04  0.10566000000E+00 0.  1.
        994   -1    0    0    0    0 -0.00000000000E+00 -0.00000000000E+00  0.11368683772E-12  0.17120000000E+03  0.17120000000E+03 0.  0.
         13    1    1    2    0    0 -0.15179356210E+03 -0.15964885619E+03  0.12128449505E+04  0.12326889015E+04  0.10566000000E+00 0.  1.
        994    1    1    2    0    0  0.16201138751E+03  0.17023445588E+03  0.20673925311E+03  0.35676044964E+03  0.17120000000E+03 0.  0.
        998    1    1    2    0    0 -0.10217825412E+02 -0.10585599697E+02  0.80415792712E+02  0.81750648894E+02  0.10000000000E+00 0.  0.
</event>
<event>
 5    1  0.2022058E-009  0.3877773E+03  0.7957747E-01  0.3417978E+00
         13   -1    0    0    0    0  0.00000000000E+00  0.00000000000E+00  0.14999999963E+04  0.15000000000E+04  0.10566000000E+00 0. -1.
        994   -1    0    0    0    0 -0.00000000000E+00 -0.00000000000E+00  0.11368683772E-12  0.17120000000E+03  0.17120000000E+03 0.  0.
         13    1    1    2    0    0 -0.27497920560E+03 -0.65403485041E+02  0.11404414102E+04  0.11749458714E+04  0.10566000000E+00 0. -1.
        994    1    1    2    0    0  0.28060765492E+03  0.64173986345E+02  0.34610829876E+03  0.48162158485E+03  0.17120000000E+03 0.  0.
        998    1    1    2    0    0 -0.56284493183E+01  0.12294986961E+01  0.13450287284E+02  0.14632543757E+02  0.10000000000E+00 0.  1.
</event>
<event>
 5    1  0.2022058E-009  0.3882928E+03  0.7957747E-01  0.3415826E+00
         13   -1    0    0    0    0  0.00000000000E+00  0.00000000000E+00  0.14999999963E+04  0.15000000000E+04  0.10566000000E+00 0.  1.
        994   -1    0    0    0    0 -0.00000000000E+00 -0.00000000000E+00  0.11368683772E-12  0.17120000000E+03  0.17120000000E+03 0.  0.
         13    1    1    2    0    0  0.81185819363E+02 -0.23004217447E+03  0.10706674188E+04  0.10981071315E+04  0.10566000000E+00 0.  1.
        994    1    1    2    0    0 -0.90180914332E+02  0.25851164029E+03  0.30137479188E+03  0.44169794052E+03  0.17120000000E+03 0.  0.
        998    1    1    2    0    0  0.89950949693E+01 -0.28469465823E+02  0.12795778559E+03  0.13139492803E+03  0.10000000000E+00 0.  1.
</event>
<event>
 5    1  0.2022058E-009  0.3882998E+03  0.7957747E-01  0.3415797E+00
         13   -1    0    0    0    0  0.00000000000E+00  0.00000000000E+00  0.14999999963E+04  0.15000000000E+04  0.10566000000E+00 0.  1.
        994   -1    0    0    0    0 -0.00000000000E+00 -0.00000000000E+00  0.11368683772E-12  0.17120000000E+03  0.17120000000E+03 0.  0.
         13    1    1    2    0    0  0.13082140004E+03 -0.19002850729E+03  0.12895191454E+04  0.13099941640E+04  0.10566000000E+00 0.  1.
        994    1    1    2    0    0 -0.13179254740E+03  0.19135075000E+03  0.20128852211E+03  0.35186772260E+03  0.17120000000E+03 0.  0.
        998    1    1    2    0    0  0.97114735500E+00 -0.13222427096E+01  0.91923287918E+01  0.93381133846E+01  0.10000000000E+00 0.  0.
</event>
<event>
 5    1  0.2022058E-009  0.3882739E+03  0.7957747E-01  0.3415905E+00
         13   -1    0    0    0    0  0.00000000000E+00  0.00000000000E+00  0.14999999963E+04  0.15000000000E+04  0.10566000000E+00 0. -1.
        994   -1    0    0    0    0 -0.00000000000E+00 -0.00000000000E+00  0.11368683772E-12  0.17120000000E+03  0.17120000000E+03 0.  0.
         13    1    1    2    0    0 -0.99457809571E+02 -0.17917299647E+03  0.12221088059E+04  0.12391709983E+04  0.10566000000E+00 0. -1.
        994    1    1    2    0    0  0.10604597448E+03  0.19462986567E+03  0.18048194574E+03  0.33318119103E+03  0.17120000000E+03 0.  0.
        998    1    1    2    0    0 -0.65881649109E+01 -0.15456869206E+02  0.97409244649E+02  0.98847810626E+02  0.10000000000E+00 0. -1.
</event>
<event>
 5    1  0.2022058E-009  0.2930020E+03  0.7957747E-01  0.3947281E+00
         13   -1    0    0    0    0  0.00000000000E+00  0.00000000000E+00  0.14999999963E+04  0.15000000000E+04  0.10566000000E+00 0. -1.
        994   -1    0    0    0    0 -0.00000000000E+00 -0.00000000000E+00  0.11368683772E-12  0.17120000000E+03  0.17120000000E+03 0.  0.
         13    1    1    2    0    0  0.14135738050E+02  0.14796572322E+03  0.75354662049E+03  0.76806653016E+03  0.10566000000E+00 0. -1.
        994    1    1    2    0    0 -0.18001702350E+03 -0.13783018825E+03  0.24598927099E+03  0.37579708751E+03  0.17120000000E+03 0.  0.
        998    1    1    2    0    0  0.16588128545E+03 -0.10135534973E+02  0.50046410480E+03  0.52733638232E+03  0.10000000000E+00 0.  1.
</event>
<event>
 5    1  0.2022058E-009  0.3882371E+03  0.7957747E-01  0.3416058E+00
         13   -1    0    0    0    0  0.00000000000E+00  0.00000000000E+00  0.14999999963E+04  0.15000000000E+04  0.10566000000E+00 0. -1.
        994   -1    0    0    0    0 -0.00000000000E+00 -0.00000000000E+00  0.11368683772E-12  0.17120000000E+03  0.17120000000E+03 0.  0.
         13    1    1    2    0    0 -0.11255393938E+03 -0.26464908116E+03  0.11454608715E+04  0.11810114922E+04  0.10566000000E+00 0. -1.
        994    1    1    2    0    0  0.11372794638E+03  0.26582615726E+03  0.34926507569E+03  0.48465773982E+03  0.17120000000E+03 0.  0.
        998    1    1    2    0    0 -0.11740070019E+01 -0.11770761003E+01  0.52740490828E+01  0.55307679678E+01  0.10000000000E+00 0.  0.
</event>
<event>
 5    1  0.2022058E-009  0.3881943E+03  0.7957747E-01  0.3416237E+00
         13   -1    0    0    0    0  0.00000000000E+00  0.00000000000E+00  0.14999999963E+04  0.15000000000E+04  0.10566000000E+00 0. -1.
        994   -1    0    0    0    0 -0.00000000000E+00 -0.00000000000E+00  0.11368683772E-12  0.17120000000E+03  0.17120000000E+03 0.  0.
         13    1    1    2    0    0 -0.24189892625E+03 -0.48492269744E+02  0.12443568882E+04  0.12685782070E+04  0.10566000000E+00 0. -1.
        994    1    1    2    0    0  0.24575306484E+03  0.48097758496E+02  0.24085758758E+03  0.38733677949E+03  0.17120000000E+03 0.  0.
        998    1    1    2    0    0 -0.38541385919E+01  0.39451124756E+00  0.14785520468E+02  0.15285013540E+02  0.10000000000E+00 0.  1.
</event>
<event>
 5    1  0.2022058E-009  0.3878833E+03  0.7957747E-01  0.3417535E+00
         13   -1    0    0    0    0  0.00000000000E+00  0.00000000000E+00  0.14999999963E+04  0.15000000000E+04  0.10566000000E+00 0.  1.
        994   -1    0    0    0    0 -0.00000000000E+00 -0.00000000000E+00  0.11368683772E-12  0.17120000000E+03  0.17120000000E+03 0.  0.
         13    1    1    2    0    0 -0.44320537063E+02  0.21849320505E+03  0.10417868904E+04  0.10653748292E+04  0.10566000000E+00 0.  1.
        994    1    1    2    0    0  0.51776358436E+02 -0.25027029848E+03  0.25373036660E+03  0.39875374924E+03  0.17120000000E+03 0.  0.
        998    1    1    2    0    0 -0.74558213734E+01  0.31777093432E+02  0.20448273929E+03  0.20707142151E+03  0.10000000000E+00 0. -1.
</event>
<event>
 5    1  0.2022058E-009  0.3882876E+03  0.7957747E-01  0.3415848E+00
         13   -1    0    0    0    0  0.00000000000E+00  0.00000000000E+00  0.14999999963E+04  0.15000000000E+04  0.10566000000E+00 0. -1.
        994   -1    0    0    0    0 -0.00000000000E+00 -0.00000000000E+00  0.11368683772E-12  0.17120000000E+03  0.17120000000E+03 0.  0.
         13    1    1    2    0    0 -0.48868681003E+02  0.26659685025E+03  0.11261413114E+04  0.11582988789E+04  0.10566000000E+00 0. -1.
        994    1    1    2    0    0  0.51739923762E+02 -0.27776333391E+03  0.32769862138E+03  0.46532280820E+03  0.17120000000E+03 0.  0.
        998    1    1    2    0    0 -0.28712427595E+01  0.11166483661E+02  0.46160063493E+02  0.47578312854E+02  0.10000000000E+00 0. -1.
</event>
<event>
 5    1  0.2022058E-009  0.3878487E+03  0.7957747E-01  0.3417680E+00
         13   -1    0    0    0    0  0.00000000000E+00  0.00000000000E+00  0.14999999963E+04  0.15000000000E+04  0.10566000000E+00 0.  1.
        994   -1    0    0    0    0 -0.00000000000E+00 -0.00000000000E+00  0.11368683772E-12  0.17120000000E+03  0.17120000000E+03 0.  0.
         13    1    1    2    0    0 -0.22975117078E+03 -0.11804255912E+03  0.11865776608E+04  0.12143665849E+04  0.10566000000E+00 0.  1.
        994    1    1    2    0    0  0.23907154608E+03  0.11866533246E+03  0.28300954296E+03  0.42501824276E+03  0.17120000000E+03 0.  0.
        998    1    1    2    0    0 -0.93203753031E+01 -0.62277334497E+00  0.30412792548E+02  0.31815172371E+02  0.10000000000E+00 0. -1.
</event>
<event>
 5    1  0.2022058E-009  0.3882957E+03  0.7957747E-01  0.3415814E+00
         13   -1    0    0    0    0  0.00000000000E+00  0.00000000000E+00  0.14999999963E+04  0.15000000000E+04  0.10566000000E+00 0.  1.
        994   -1    0    0    0    0 -0.00000000000E+00 -0.00000000000E+00  0.11368683772E-12  0.17120000000E+03  0.17120000000E+03 0.  0.
         13    1    1    2    0    0  0.11332036971E+03  0.19846992239E+03  0.12698509770E+04  0.12902532043E+04  0.10566000000E+00 0.  1.
        994    1    1    2    0    0 -0.11607830891E+03 -0.20259174976E+03  0.20362645304E+03  0.35396435308E+03  0.17120000000E+03 0.  0.
        998    1    1    2    0    0  0.27579391935E+01  0.41218273780E+01  0.26522566244E+02  0.26982442619E+02  0.10000000000E+00 0. -1.
</event>
<event>
 5    1  0.2022058E-009  0.3882985E+03  0.7957747E-01  0.3415802E+00
         13   -1    0    0    0    0  0.00000000000E+00  0.00000000000E+00  0.14999999963E+04  0.15000000000E+04  0.10566000000E+00 0. -1.
        994   -1    0    0    0    0 -0.00000000000E+00 -0.00000000000E+00  0.11368683772E-12  0.17120000000E+03  0.17120000000E+03 0.  0.
         13    1    1    2    0    0  0.24140282046E+03  0.56600094303E+02  0.12472195847E+04  0.12716271451E+04  0.10566000000E+00 0. -1.
        994    1    1    2    0    0 -0.24380336576E+03 -0.56997057675E+02  0.24060122893E+03  0.38715260182E+03  0.17120000000E+03 0.  0.
        998    1    1    2    0    0  0.24005452954E+01  0.39696337228E+00  0.12179182649E+02  0.12420253122E+02  0.10000000000E+00 0.  0.
</event>
<event>
 5    1  0.2022058E-009  0.3882893E+03  0.7957747E-01  0.3415840E+00
         13   -1    0    0    0    0  0.00000000000E+00  0.00000000000E+00  0.14999999963E+04  0.15000000000E+04  0.10566000000E+00 0. -1.
        994   -1    0    0    0    0 -0.00000000000E+00 -0.00000000000E+00  0.11368683772E-12  0.17120000000E+03  0.17120000000E+03 0.  0.
         13    1    1    2    0    0 -0.48628239002E+02  0.67512024680E+02  0.41219373790E+03  0.42050715551E+03  0.10566000000E+00 0. -1.
        994    1    1    2    0    0  0.14510374243E+03 -0.20219577306E+03  0.23711604233E+03  0.38402042165E+03  0.17120000000E+03 0.  0.
        998    1    1    2    0    0 -0.96475503429E+02  0.13468374838E+03  0.85069021605E+03  0.86667242284E+03  0.10000000000E+00 0. -1.
</event>
<event>
 5    1  0.2022058E-009  0.3874126E+03  0.7957747E-01  0.3419504E+00
         13   -1    0    0    0    0  0.00000000000E+00  0.00000000000E+00  0.14999999963E+04  0.15000000000E+04  0.10566000000E+00 0. -1.
        994   -1    0    0    0    0 -0.00000000000E+00 -0.00000000000E+00  0.11368683772E-12  0.17120000000E+03  0.17120000000E+03 0.  0.
         13    1    1    2    0    0  0.74903169793E+02 -0.12961213531E+03  0.87040281392E+03  0.88318223494E+03  0.10566000000E+00 0. -1.
        994    1    1    2    0    0 -0.11980368786E+03  0.17305238080E+03  0.16143776098E+03  0.31570815763E+03  0.17120000000E+03 0.  0.
        998    1    1    2    0    0  0.44900518063E+02 -0.43440245486E+02  0.46815942138E+03  0.47230960744E+03  0.10000000000E+00 0. -1.
</event>
<event>
 5    1  0.2022058E-009  0.3881189E+03  0.7957747E-01  0.3416551E+00
         13   -1    0    0    0    0  0.00000000000E+00  0.00000000000E+00  0.14999999963E+04  0.15000000000E+04  0.10566000000E+00 0. -1.
        994   -1    0    0    0    0 -0.00000000000E+00 -0.00000000000E+00  0.11368683772E-12  0.17120000000E+03  0.17120000000E+03 0.  0.
         13    1    1    2    0    0  0.59109558219E+02 -0.12700465906E+03  0.67203121034E+03  0.68647657071E+03  0.10566000000E+00 0. -1.
        994    1    1    2    0    0 -0.94682246288E+02  0.23844980221E+03  0.25576839941E+03  0.40068684790E+03  0.17120000000E+03 0.  0.
        998    1    1    2    0    0  0.35572688070E+02 -0.11144514315E+03  0.57220038653E+03  0.58403658140E+03  0.10000000000E+00 0.  1.
</event>
<event>
 5    1  0.2022058E-009  0.3882795E+03  0.7957747E-01  0.3415881E+00
         13   -1    0    0    0    0  0.00000000000E+00  0.00000000000E+00  0.14999999963E+04  0.15000000000E+04  0.10566000000E+00 0.  1.
        994   -1    0    0    0    0 -0.00000000000E+00 -0.00000000000E+00  0.11368683772E-12  0.17120000000E+03  0.17120000000E+03 0.  0.
         13    1    1    2    0    0 -0.26344367951E+03 -0.76386282691E+02  0.11699211838E+04  0.12016459645E+04  0.10566000000E+00 0.  1.
        994    1    1    2    0    0  0.26673495585E+03  0.77171946978E+02  0.31280182568E+03  0.45194852386E+03  0.17120000000E+03 0.  0.
        998    1    1    2    0    0 -0.32912763397E+01 -0.78566428695E+00  0.17276986778E+02  0.17605511649E+02  0.10000000000E+00 0. -1.
</event>
<event>
 5    1  0.2022058E-009  0.3882988E+03  0.7957747E-01  0.3415801E+00
         13   -1    0    0    0    0  0.00000000000E+00  0.00000000000E+00  0.14999999963E+04  0.15000000000E+04  0.10566000000E+00 0.  1.
        994   -1    0    0    0    0 -0.00000000000E+00 -0.00000000000E+00  0.11368683772E-12  0.17120000000E+03  0.17120000000E+03 0.  0.
         13    1    1    2    0    0  0.12031331372E+03  0.19574972262E+03  0.12955581657E+04  0.13157751401E+04  0.10566000000E+00 0.  1.
        994    1    1    2    0    0 -0.12093228947E+03 -0.19662702491E+03  0.19825234942E+03  0.34914214815E+03  0.17120000000E+03 0.  0.
        998    1    1    2    0    0  0.61897574700E+00  0.87730229212E+00  0.61894811738E+01  0.62827117941E+01  0.10000000000E+00 0.  0.
</event>
<event>
 5    1  0.2022058E-009  0.3882974E+03  0.7957747E-01  0.3415807E+00
         13   -1    0    0    0    0  0.00000000000E+00  0.00000000000E+00  0.14999999963E+04  0.15000000000E+04  0.10566000000E+00 0.  1.
        994   -1    0    0    0    0 -0.00000000000E+00 -0.00000000000E+00  0.11368683772E-12  0.17120000000E+03  0.17120000000E+03 0.  0.
         13    1    1    2    0    0  0.55771382459E+02  0.25019782522E+03  0.12052000088E+04  0.12321592718E+04  0.10566000000E+00 0.  1.
        994    1    1    2    0    0 -0.57100980478E+02 -0.25576442499E+03  0.26936129849E+03  0.41296599398E+03  0.17120000000E+03 0.  0.
        998    1    1    2    0    0  0.13295980185E+01  0.55665997712E+01  0.25438689019E+02  0.26074734187E+02  0.10000000000E+00 0.  1.
</event>
<event>
 5    1  0.2022058E-009  0.3882855E+03  0.7957747E-01  0.3415857E+00
         13   -1    0    0    0    0  0.00000000000E+00  0.00000000000E+00  0.14999999963E+04  0.15000000000E+04  0.10566000000E+00 0.  1.
        994   -1    0    0    0    0 -0.00000000000E+00 -0.00000000000E+00  0.11368683772E-12  0.17120000000E+03  0.17120000000E+03 0.  0.
         13    1    1    2    0    0  0.32587611937E+02 -0.35287175643E+02  0.24226616595E+03  0.24698186886E+03  0.10566000000E+00 0.  1.
        994    1    1    2    0    0 -0.16339429162E+03  0.19104714062E+03  0.24300340652E+03  0.38930296692E+03  0.17120000000E+03 0.  0.
        998    1    1    2    0    0  0.13080667968E+03 -0.15575996497E+03  0.10147304238E+04  0.10349151642E+04  0.10000000000E+00 0.  1.
</event>
<event>
 5    1  0.2022058E-009  0.3736678E+03  0.7957747E-01  0.3479202E+00
         13   -1    0    0    0    0  0.00000000000E+00  0.00000000000E+00  0.14999999963E+04  0.15000000000E+04  0.10566000000E+00 0.  1.
        994   -1    0    0    0    0 -0.00000000000E+00 -0.00000000000E+00  0.11368683772E-12  0.17120000000E+03  0.17120000000E+03 0.  0.
         13    1    1    2    0    0 -0.23309554273E+02 -0.53565475625E+02  0.68731602286E+02  0.90203324862E+02  0.10566000000E+00 0.  1.
        994    1    1    2    0    0 -0.57749209953E+01  0.22550549338E+03  0.22365079990E+03  0.36085342946E+03  0.17120000000E+03 0.  0.
        998    1    1    2    0    0  0.29084475269E+02 -0.17194001775E+03  0.12076175941E+04  0.12201432457E+04  0.10000000000E+00 0.  1.
</event>
<event>
 5    1  0.2022058E-009  0.3882499E+03  0.7957747E-01  0.3416005E+00
         13   -1    0    0    0    0  0.00000000000E+00  0.00000000000E+00  0.14999999963E+04  0.15000000000E+04  0.10566000000E+00 0.  1.
        994   -1    0    0    0    0 -0.00000000000E+00 -0.00000000000E+00  0.11368683772E-12  0.17120000000E+03  0.17120000000E+03 0.  0.
         13    1    1    2    0    0  0.22410307517E+03  0.85338841229E+01  0.12890211631E+04  0.13083847238E+04  0.10566000000E+00 0.  1.
        994    1    1    2    0    0 -0.22668505121E+03 -0.91612091822E+01  0.19047700281E+03  0.34214173787E+03  0.17120000000E+03 0.  0.
        998    1    1    2    0    0  0.25819760410E+01  0.62732505926E+00  0.20501830355E+02  0.20673538277E+02  0.10000000000E+00 0. -1.
</event>
<event>
 5    1  0.2022058E-009  0.3883009E+03  0.7957747E-01  0.3415792E+00
         13   -1    0    0    0    0  0.00000000000E+00  0.00000000000E+00  0.14999999963E+04  0.15000000000E+04  0.10566000000E+00 0. -1.
        994   -1    0    0    0    0 -0.00000000000E+00 -0.00000000000E+00  0.11368683772E-12  0.17120000000E+03  0.17120000000E+03 0.  0.
         13    1    1    2    0    0 -0.45348586922E+01  0.71288267957E+02  0.37398169161E+03  0.38074256252E+03  0.10566000000E+00 0. -1.
        994    1    1    2    0    0  0.15091135496E+02 -0.24337341553E+03  0.22568908409E+03  0.37376913253E+03  0.17120000000E+03 0.  0.
        998    1    1    2    0    0 -0.10556276804E+02  0.17208514757E+03  0.90032922058E+03  0.91668830495E+03  0.10000000000E+00 0. -1.
</event>
<event>
 5    1  0.2022058E-009  0.3880367E+03  0.7957747E-01  0.3416895E+00
         13   -1    0    0    0    0  0.00000000000E+00  0.00000000000E+00  0.14999999963E+04  0.15000000000E+04  0.10566000000E+00 0. -1.
        994   -1    0    0    0    0 -0.00000000000E+00 -0.00000000000E+00  0.11368683772E-12  0.17120000000E+03  0.17120000000E+03 0.  0.
         13    1    1    2    0    0  0.12088072326E+03 -0.18813221369E+03  0.12727330613E+04  0.12922288248E+04  0.10566000000E+00 0. -1.
        994    1    1    2    0    0 -0.12122165505E+03  0.19214653612E+03  0.19137550894E+03  0.34285420578E+03  0.17120000000E+03 0.  0.
        998    1    1    2    0    0  0.34093179486E+00 -0.40143224289E+01  0.35891426028E+02  0.36116969438E+02  0.10000000000E+00 0.  1.
</event>
<event>
 5    1  0.2022058E-009  0.3841446E+03  0.7957747E-01  0.3433308E+00
         13   -1    0    0    0    0  0.00000000000E+00  0.00000000000E+00  0.14999999963E+04  0.15000000000E+04  0.10566000000E+00 0. -1.
        994   -1    0    0    0    0 -0.00000000000E+00 -0.00000000000E+00  0.11368683772E-12  0.17120000000E+03  0.17120000000E+03 0.  0.
         13    1    1    2    0    0 -0.22523380517E+02 -0.48526394185E+01  0.97563853033E+02  0.10024753045E+03  0.10566000000E+00 0. -1.
        994    1    1    2    0    0  0.76491735665E+02 -0.63474608867E+02  0.35347954070E+02  0.20109432974E+03  0.17120000000E+03 0.  0.
        998    1    1    2    0    0 -0.53968355148E+02  0.68327248286E+02  0.13670881892E+04  0.13698581398E+04  0.10000000000E+00 0. -1.
</event>
<event>
 5    1  0.2022058E-009  0.3882610E+03  0.7957747E-01  0.3415958E+00
         13   -1    0    0    0    0  0.00000000000E+00  0.00000000000E+00  0.14999999963E+04  0.15000000000E+04  0.10566000000E+00 0. -1.
        994   -1    0    0    0    0 -0.00000000000E+00 -0.00000000000E+00  0.11368683772E-12  0.17120000000E+03  0.17120000000E+03 0.  0.
         13    1    1    2    0    0  0.21801983039E+03  0.81733734331E+02  0.12488769678E+04  0.12703962932E+04  0.10566000000E+00 0. -1.
        994    1    1    2    0    0 -0.22506526894E+03 -0.83419623180E+02  0.21740537901E+03  0.36631645832E+03  0.17120000000E+03 0.  0.
        998    1    1    2    0    0  0.70454385528E+01  0.16858888488E+01  0.33717649441E+02  0.34487248505E+02  0.10000000000E+00 0. -1.
</event>
<event>
 5    1  0.2022058E-009  0.3846461E+03  0.7957747E-01  0.3431174E+00
         13   -1    0    0    0    0  0.00000000000E+00  0.00000000000E+00  0.14999999963E+04  0.15000000000E+04  0.10566000000E+00 0. -1.
        994   -1    0    0    0    0 -0.00000000000E+00 -0.00000000000E+00  0.11368683772E-12  0.17120000000E+03  0.17120000000E+03 0.  0.
         13    1    1    2    0    0 -0.85133605978E+01 -0.76260182467E+02  0.41953741216E+03  0.42649706224E+03  0.10566000000E+00 0. -1.
        994    1    1    2    0    0 -0.30527592751E+02  0.15906872073E+03  0.93570879320E+02  0.25357393654E+03  0.17120000000E+03 0.  0.
        998    1    1    2    0    0  0.39040953349E+02 -0.82808538267E+02  0.98689170480E+03  0.99112900122E+03  0.10000000000E+00 0. -1.
</event>
<event>
 5    1  0.2022058E-009  0.3883007E+03  0.7957747E-01  0.3415793E+00
         13   -1    0    0    0    0  0.00000000000E+00  0.00000000000E+00  0.14999999963E+04  0.15000000000E+04  0.10566000000E+00 0. -1.
        994   -1    0    0    0    0 -0.00000000000E+00 -0.00000000000E+00  0.11368683772E-12  0.17120000000E+03  0.17120000000E+03 0.  0.
         13    1    1    2    0    0  0.21646061483E+02 -0.19529154015E+03  0.10812316368E+04  0.10989400353E+04  0.10566000000E+00 0. -1.
        994    1    1    2    0    0 -0.25639756619E+02  0.23356232960E+03  0.20665675055E+03  0.35668643299E+03  0.17120000000E+03 0.  0.
        998    1    1    2    0    0  0.39936951366E+01 -0.38270789457E+02  0.21211160893E+03  0.21557353170E+03  0.10000000000E+00 0. -1.
</event>
<event>
 5    1  0.2022058E-009  0.3882993E+03  0.7957747E-01  0.3415799E+00
         13   -1    0    0    0    0  0.00000000000E+00  0.00000000000E+00  0.14999999963E+04  0.15000000000E+04  0.10566000000E+00 0.  1.
        994   -1    0    0    0    0 -0.00000000000E+00 -0.00000000000E+00  0.11368683772E-12  0.17120000000E+03  0.17120000000E+03 0.  0.
         13    1    1    2    0    0  0.12904556175E+03  0.14315443429E+03  0.11587704772E+04  0.11746893117E+04  0.10566000000E+00 0.  1.
        994    1    1    2    0    0 -0.14731449310E+03 -0.16289560654E+03  0.17670934504E+03  0.32980626303E+03  0.17120000000E+03 0.  0.
        998    1    1    2    0    0  0.18268931357E+02  0.19741172250E+02  0.16452017408E+03  0.16670442530E+03  0.10000000000E+00 0. -1.
</event>
<event>
 5    1  0.2022058E-009  0.3882869E+03  0.7957747E-01  0.3415850E+00
         13   -1    0    0    0    0  0.00000000000E+00  0.00000000000E+00  0.14999999963E+04  0.15000000000E+04  0.10566000000E+00 0. -1.
        994   -1    0    0    0    0 -0.00000000000E+00 -0.00000000000E+00  0.11368683772E-12  0.17120000000E+03  0.17120000000E+03 0.  0.
         13    1    1    2    0    0  0.15135307475E+03  0.32116247418E+02  0.89070942683E+03  0.90404784210E+03  0.10566000000E+00 0. -1.
        994    1    1    2    0    0 -0.22303617507E+03 -0.50024781648E+02  0.19377158689E+03  0.34511517216E+03  0.17120000000E+03 0.  0.
        998    1    1    2    0    0  0.71683100322E+02  0.17908534230E+02  0.41551898255E+03  0.42203698574E+03  0.10000000000E+00 0. -1.
</event>
<event>
 5    1  0.2022058E-009  0.3828222E+03  0.7957747E-01  0.3438962E+00
         13   -1    0    0    0    0  0.00000000000E+00  0.00000000000E+00  0.14999999963E+04  0.15000000000E+04  0.10566000000E+00 0. -1.
        994   -1    0    0    0    0 -0.00000000000E+00 -0.00000000000E+00  0.11368683772E-12  0.17120000000E+03  0.17120000000E+03 0.  0.
         13    1    1    2    0    0 -0.83514091950E+02  0.82641061397E+02  0.37532635392E+03  0.39328619566E+03  0.10566000000E+00 0. -1.
        994    1    1    2    0    0  0.14134757568E+03 -0.22233210362E+03  0.28328402776E+03  0.42304843911E+03  0.17120000000E+03 0.  0.
        998    1    1    2    0    0 -0.57833483734E+02  0.13969104222E+03  0.84138961460E+03  0.85486536523E+03  0.10000000000E+00 0. -1.
</event>
<event>
 5    1  0.2022058E-009  0.3883007E+03  0.7957747E-01  0.3415793E+00
         13   -1    0    0    0    0  0.00000000000E+00  0.00000000000E+00  0.14999999963E+04  0.15000000000E+04  0.10566000000E+00 0.  1.
        994   -1    0    0    0    0 -0.00000000000E+00 -0.00000000000E+00  0.11368683772E-12  0.17120000000E+03  0.17120000000E+03 0.  0.
         13    1    1    2    0    0 -0.92543770937E+02 -0.15280833295E+03  0.94249656188E+03  0.95927812259E+03  0.10566000000E+00 0.  1.
        994    1    1    2    0    0  0.12574384751E+03  0.20691864041E+03  0.22191512188E+03  0.37038169536E+03  0.17120000000E+03 0.  0.
        998    1    1    2    0    0 -0.33200076574E+02 -0.54110307460E+02  0.33558831251E+03  0.34154018205E+03  0.10000000000E+00 0.  1.
</event>
<event>
 5    1  0.2022058E-009  0.3881534E+03  0.7957747E-01  0.3416407E+00
         13   -1    0    0    0    0  0.00000000000E+00  0.00000000000E+00  0.14999999963E+04  0.15000000000E+04  0.10566000000E+00 0. -1.
        994   -1    0    0    0    0 -0.00000000000E+00 -0.00000000000E+00  0.11368683772E-12  0.17120000000E+03  0.17120000000E+03 0.  0.
         13    1    1    2    0    0  0.23506472722E+03 -0.95293587446E+01  0.11398880109E+04  0.11639119053E+04  0.10566000000E+00 0. -1.
        994    1    1    2    0    0 -0.25809501503E+03  0.13997520143E+02  0.26047562884E+03  0.40492710525E+03  0.17120000000E+03 0.  0.
        998    1    1    2    0    0  0.23030287803E+02 -0.44681613980E+01  0.99636356526E+02  0.10236098947E+03  0.10000000000E+00 0. -1.
</event>
<event>
 5    1  0.2022058E-009  0.3882845E+03  0.7957747E-01  0.3415861E+00
         13   -1    0    0    0    0  0.00000000000E+00  0.00000000000E+00  0.14999999963E+04  0.15000000000E+04  0.10566000000E+00 0.  1.
        994   -1    0    0    0    0 -0.00000000000E+00 -0.00000000000E+00  0.11368683772E-12  0.17120000000E+03  0.17120000000E+03 0.  0.
         13    1    1    2    0    0 -0.18826272446E+03 -0.10595147828E+03  0.12726989921E+04  0.12909032902E+04  0.10566000000E+00 0.  1.
        994    1    1    2    0    0  0.19500283571E+03  0.11024966848E+03  0.18493197116E+03  0.33718002505E+03  0.17120000000E+03 0.  0.
        998    1    1    2    0    0 -0.67401112487E+01 -0.42981901973E+01  0.42369033065E+02  0.43116684723E+02  0.10000000000E+00 0. -1.
</event>
<event>
 5    1  0.2022058E-009  0.3876666E+03  0.7957747E-01  0.3418441E+00
         13   -1    0    0    0    0  0.00000000000E+00  0.00000000000E+00  0.14999999963E+04  0.15000000000E+04  0.10566000000E+00 0. -1.
        994   -1    0    0    0    0 -0.00000000000E+00 -0.00000000000E+00  0.11368683772E-12  0.17120000000E+03  0.17120000000E+03 0.  0.
         13    1    1    2    0    0  0.14287793075E+02 -0.24277556813E+03  0.12237290922E+04  0.12476606189E+04  0.10566000000E+00 0. -1.
        994    1    1    2    0    0 -0.19304503045E+02  0.25087344412E+03  0.24453996252E+03  0.39040924947E+03  0.17120000000E+03 0.  0.
        998    1    1    2    0    0  0.50167099701E+01 -0.80978759900E+01  0.31730941533E+02  0.33130131678E+02  0.10000000000E+00 0. -1.
</event>
<event>
 5    1  0.2022058E-009  0.3849859E+03  0.7957747E-01  0.3429732E+00
         13   -1    0    0    0    0  0.00000000000E+00  0.00000000000E+00  0.14999999963E+04  0.15000000000E+04  0.10566000000E+00 0. -1.
        994   -1    0    0    0    0 -0.00000000000E+00 -0.00000000000E+00  0.11368683772E-12  0.17120000000E+03  0.17120000000E+03 0.  0.
         13    1    1    2    0    0 -0.17296268479E+01  0.18559001814E+02  0.61304569598E+02  0.64075655088E+02  0.10566000000E+00 0. -1.
        994    1    1    2    0    0  0.19580886516E+02 -0.10355674345E+03  0.39062467362E+02  0.20479923483E+03  0.17120000000E+03 0.  0.
        998    1    1    2    0    0 -0.17851259669E+02  0.84997741636E+02  0.13996329593E+04  0.14023251101E+04  0.10000000000E+00 0. -1.
</event>
<event>
 5    1  0.2022058E-009  0.3860279E+03  0.7957747E-01  0.3425325E+00
         13   -1    0    0    0    0  0.00000000000E+00  0.00000000000E+00  0.14999999963E+04  0.15000000000E+04  0.10566000000E+00 0.  1.
        994   -1    0    0    0    0 -0.00000000000E+00 -0.00000000000E+00  0.11368683772E-12  0.17120000000E+03  0.17120000000E+03 0.  0.
         13    1    1    2    0    0  0.60716754290E+02  0.11831774703E+03  0.75907855293E+03  0.77063991215E+03  0.10566000000E+00 0.  1.
        994    1    1    2    0    0 -0.11808633851E+03 -0.16066275581E+03  0.14453837941E+03  0.29992947099E+03  0.17120000000E+03 0.  0.
        998    1    1    2    0    0  0.57369584217E+02  0.42345008779E+02  0.59638306393E+03  0.60063061686E+03  0.10000000000E+00 0.  1.
</event>
<event>
 5    1  0.2022058E-009  0.3882668E+03  0.7957747E-01  0.3415934E+00
         13   -1    0    0    0    0  0.00000000000E+00  0.00000000000E+00  0.14999999963E+04  0.15000000000E+04  0.10566000000E+00 0. -1.
        994   -1    0    0    0    0 -0.00000000000E+00 -0.00000000000E+00  0.11368683772E-12  0.17120000000E+03  0.17120000000E+03 0.  0.
         13    1    1    2    0    0 -0.33034894927E+01  0.25301772711E+03  0.10453570294E+04  0.10755464720E+04  0.10566000000E+00 0. -1.
        994    1    1    2    0    0  0.12743071536E+01 -0.28298847669E+03  0.32916365442E+03  0.46662860305E+03  0.17120000000E+03 0.  0.
        998    1    1    2    0    0  0.20291823392E+01  0.29970749578E+02  0.12547931245E+03  0.12902492498E+03  0.10000000000E+00 0. -1.
</event>
<event>
 5    1  0.2022058E-009  0.3850395E+03  0.7957747E-01  0.3429505E+00
         13   -1    0    0    0    0  0.00000000000E+00  0.00000000000E+00  0.14999999963E+04  0.15000000000E+04  0.10566000000E+00 0. -1.
        994   -1    0    0    0    0 -0.00000000000E+00 -0.00000000000E+00  0.11368683772E-12  0.17120000000E+03  0.17120000000E+03 0.  0.
         13    1    1    2    0    0  0.83074563579E+02 -0.20584667347E+03  0.11289318786E+04  0.11505483188E+04  0.10566000000E+00 0. -1.
        994    1    1    2    0    0 -0.11303496853E+03  0.21695814785E+03  0.23246859276E+03  0.37841621087E+03  0.17120000000E+03 0.  0.
        998    1    1    2    0    0  0.29960404948E+02 -0.11111474385E+02  0.13859952487E+03  0.14223547034E+03  0.10000000000E+00 0.  1.
</event>
<event>
 5    1  0.2022058E-009  0.3882986E+03  0.7957747E-01  0.3415802E+00
         13   -1    0    0    0    0  0.00000000000E+00  0.00000000000E+00  0.14999999963E+04  0.15000000000E+04  0.10566000000E+00 0.  1.
        994   -1    0    0    0    0 -0.00000000000E+00 -0.00000000000E+00  0.11368683772E-12  0.17120000000E+03  0.17120000000E+03 0.  0.
         13    1    1    2    0    0 -0.26355550210E+03 -0.76799125784E+02  0.98816388518E+03  0.10255864096E+04  0.10566000000E+00 0.  1.
        994    1    1    2    0    0  0.29176860671E+03  0.85190940544E+02  0.40370664119E+03  0.53354934950E+03  0.17120000000E+03 0.  0.
        998    1    1    2    0    0 -0.28213104613E+02 -0.83918147595E+01  0.10812946991E+03  0.11206424090E+03  0.10000000000E+00 0.  1.
</event>
<event>
 5    1  0.2022058E-009  0.3766926E+03  0.7957747E-01  0.3465687E+00
         13   -1    0    0    0    0  0.00000000000E+00  0.00000000000E+00  0.14999999963E+04  0.15000000000E+04  0.10566000000E+00 0. -1.
        994   -1    0    0    0    0 -0.00000000000E+00 -0.00000000000E+00  0.11368683772E-12  0.17120000000E+03  0.17120000000E+03 0.  0.
         13    1    1    2    0    0 -0.29459755236E+02  0.71490443416E+02  0.41303975404E+03  0.42021495720E+03  0.10566000000E+00 0. -1.
        994    1    1    2    0    0  0.13348172519E+01  0.54639300439E+02  0.25295411444E+02  0.18148424926E+03  0.17120000000E+03 0.  0.
        998    1    1    2    0    0  0.28124937984E+02 -0.12612974385E+03  0.10616648308E+04  0.10695007935E+04  0.10000000000E+00 0. -1.
</event>
<event>
 5    1  0.2022058E-009  0.3883002E+03  0.7957747E-01  0.3415795E+00
         13   -1    0    0    0    0  0.00000000000E+00  0.00000000000E+00  0.14999999963E+04  0.15000000000E+04  0.10566000000E+00 0. -1.
        994   -1    0    0    0    0 -0.00000000000E+00 -0.00000000000E+00  0.11368683772E-12  0.17120000000E+03  0.17120000000E+03 0.  0.
         13    1    1    2    0    0 -0.14047503673E+03 -0.16910588559E+03  0.12688078883E+04  0.12877125087E+04  0.10566000000E+00 0. -1.
        994    1    1    2    0    0  0.14498156897E+03  0.17467107454E+03  0.19066742077E+03  0.34233484334E+03  0.17120000000E+03 0.  0.
        998    1    1    2    0    0 -0.45065322420E+01 -0.55651889522E+01  0.40524687234E+02  0.41152647987E+02  0.10000000000E+00 0. -1.
</event>
<event>
 5    1  0.2022058E-009  0.3828309E+03  0.7957747E-01  0.3438924E+00
         13   -1    0    0    0    0  0.00000000000E+00  0.00000000000E+00  0.14999999963E+04  0.15000000000E+04  0.10566000000E+00 0.  1.
        994   -1    0    0    0    0 -0.00000000000E+00 -0.00000000000E+00  0.11368683772E-12  0.17120000000E+03  0.17120000000E+03 0.  0.
         13    1    1    2    0    0 -0.12481279937E+02 -0.54079324225E+02  0.21265791995E+03  0.21978115874E+03  0.10566000000E+00 0.  1.
        994    1    1    2    0    0  0.80414880424E+01  0.15615813728E+03  0.88416034921E+02  0.24814686095E+03  0.17120000000E+03 0.  0.
        998    1    1    2    0    0  0.44397918946E+01 -0.10207881305E+03  0.11989260414E+04  0.12032719803E+04  0.10000000000E+00 0.  1.
</event>
<event>
 5    1  0.2022058E-009  0.3876043E+03  0.7957747E-01  0.3418702E+00
         13   -1    0    0    0    0  0.00000000000E+00  0.00000000000E+00  0.14999999963E+04  0.15000000000E+04  0.10566000000E+00 0.  1.
        994   -1    0    0    0    0 -0.00000000000E+00 -0.00000000000E+00  0.11368683772E-12  0.17120000000E+03  0.17120000000E+03 0.  0.
         13    1    1    2    0    0  0.44659073930E+02 -0.14888108410E+03  0.89040791935E+03  0.90387293582E+03  0.10566000000E+00 0.  1.
        994    1    1    2    0    0 -0.54857459308E+02  0.20417583315E+03  0.16284780930E+03  0.31705829224E+03  0.17120000000E+03 0.  0.
        998    1    1    2    0    0  0.10198385378E+02 -0.55294749049E+02  0.44674426762E+03  0.45026877195E+03  0.10000000000E+00 0.  1.
</event>
<event>
 5    1  0.2022058E-009  0.3883001E+03  0.7957747E-01  0.3415796E+00
         13   -1    0    0    0    0  0.00000000000E+00  0.00000000000E+00  0.14999999963E+04  0.15000000000E+04  0.10566000000E+00 0. -1.
        994   -1    0    0    0    0 -0.00000000000E+00 -0.00000000000E+00  0.11368683772E-12  0.17120000000E+03  0.17120000000E+03 0.  0.
         13    1    1    2    0    0  0.17813303568E+03 -0.85522570959E+02  0.11890595081E+04  0.12053663400E+04  0.10566000000E+00 0. -1.
        994    1    1    2    0    0 -0.19788012792E+03  0.95162773953E+02  0.17660767880E+03  0.32971534812E+03  0.17120000000E+03 0.  0.
        998    1    1    2    0    0  0.19747092235E+02 -0.96402029942E+01  0.13433280933E+03  0.13611831188E+03  0.10000000000E+00 0. -1.
</event>
<event>
 5    1  0.2022058E-009  0.3880105E+03  0.7957747E-01  0.3417004E+00
         13   -1    0    0    0    0  0.00000000000E+00  0.00000000000E+00  0.14999999963E+04  0.15000000000E+04  0.10566000000E+00 0. -1.
        994   -1    0    0    0    0 -0.00000000000E+00 -0.00000000000E+00  0.11368683772E-12  0.17120000000E+03  0.17120000000E+03 0.  0.
         13    1    1    2    0    0  0.76526427382E+01  0.15350583339E+02  0.68541656926E+02  0.70655312949E+02  0.10566000000E+00 0. -1.
        994    1    1    2    0    0 -0.76919094423E+02 -0.30415218464E+03  0.44728832073E+03  0.57253941382E+03  0.17120000000E+03 0.  0.
        998    1    1    2    0    0  0.69266451685E+02  0.28880160130E+03  0.98417001862E+03  0.10280052732E+04  0.10000000000E+00 0. -1.
</event>
<event>
 5    1  0.2022058E-009  0.3883009E+03  0.7957747E-01  0.3415792E+00
         13   -1    0    0    0    0  0.00000000000E+00  0.00000000000E+00  0.14999999963E+04  0.15000000000E+04  0.10566000000E+00 0.  1.
        994   -1    0    0    0    0 -0.00000000000E+00 -0.00000000000E+00  0.11368683772E-12  0.17120000000E+03  0.17120000000E+03 0.  0.
         13    1    1    2    0    0  0.10269782028E+03  0.17347218807E+03  0.12066865526E+04  0.12234099435E+04  0.10566000000E+00 0.  1.
        994    1    1    2    0    0 -0.11248176389E+03 -0.18992150233E+03  0.17874658458E+03  0.33163550135E+03  0.17120000000E+03 0.  0.
        998    1    1    2    0    0  0.97839436094E+01  0.16449314258E+02  0.11456685905E+03  0.11615455516E+03  0.10000000000E+00 0.  0.
</event>
<event>
 5    1  0.2022058E-009  0.3805380E+03  0.7957747E-01  0.3448819E+00
         13   -1    0    0    0    0  0.00000000000E+00  0.00000000000E+00  0.14999999963E+04  0.15000000000E+04  0.10566000000E+00 0. -1.
        994   -1    0    0    0    0 -0.00000000000E+00 -0.00000000000E+00  0.11368683772E-12  0.17120000000E+03  0.17120000000E+03 0.  0.
         13    1    1    2    0    0  0.44554845491E+01 -0.14922825218E+02  0.38612973224E+02  0.41635500721E+02  0.10566000000E+00 0. -1.
        994    1    1    2    0    0  0.50109984461E+01 -0.66857657178E+02  0.19010257957E+02  0.18484016429E+03  0.17120000000E+03 0.  0.
        998    1    1    2    0    0 -0.94664829953E+01  0.81780482397E+02  0.14423767651E+04  0.14447243350E+04  0.10000000000E+00 0. -1.
</event>
<event>
 5    1  0.2022058E-009  0.3882936E+03  0.7957747E-01  0.3415823E+00
         13   -1    0    0    0    0  0.00000000000E+00  0.00000000000E+00  0.14999999963E+04  0.15000000000E+04  0.10566000000E+00 0.  1.
        994   -1    0    0    0    0 -0.00000000000E+00 -0.00000000000E+00  0.11368683772E-12  0.17120000000E+03  0.17120000000E+03 0.  0.
         13    1    1    2    0    0 -0.24672489297E+03 -0.44337533445E+02  0.12482316451E+04  0.12731540522E+04  0.10566000000E+00 0.  1.
        994    1    1    2    0    0  0.24796278324E+03  0.44633418727E+02  0.24431198815E+03  0.39048107700E+03  0.17120000000E+03 0.  0.
        998    1    1    2    0    0 -0.12378902661E+01 -0.29588528218E+00  0.74563630310E+01  0.75648707895E+01  0.10000000000E+00 0. -1.
</event>
<event>
 5    1  0.2022058E-009  0.3883006E+03  0.7957747E-01  0.3415794E+00
         13   -1    0    0    0    0  0.00000000000E+00  0.00000000000E+00  0.14999999963E+04  0.15000000000E+04  0.10566000000E+00 0.  1.
        994   -1    0    0    0    0 -0.00000000000E+00 -0.00000000000E+00  0.11368683772E-12  0.17120000000E+03  0.17120000000E+03 0.  0.
         13    1    1    2    0    0  0.13658621673E+03  0.20434613444E+03  0.12277986972E+04  0.12521592508E+04  0.10566000000E+00 0.  1.
        994    1    1    2    0    0 -0.13973646565E+03 -0.20913827233E+03  0.24330046665E+03  0.38957624910E+03  0.17120000000E+03 0.  0.
        998    1    1    2    0    0  0.31502489248E+01  0.47921378873E+01  0.28900832405E+02  0.29464500124E+02  0.10000000000E+00 0.  1.
</event>
<event>
 5    1  0.2022058E-009  0.3882855E+03  0.7957747E-01  0.3415856E+00
         13   -1    0    0    0    0  0.00000000000E+00  0.00000000000E+00  0.14999999963E+04  0.15000000000E+04  0.10566000000E+00 0. -1.
        994   -1    0    0    0    0 -0.00000000000E+00 -0.00000000000E+00  0.11368683772E-12  0.17120000000E+03  0.17120000000E+03 0.  0.
         13    1    1    2    0    0 -0.68206362783E+02 -0.25300164816E+03  0.12129201785E+04  0.12409018142E+04  0.10566000000E+00 0. -1.
        994    1    1    2    0    0  0.68466494588E+02  0.25525965246E+03  0.27518644195E+03  0.41818915444E+03  0.17120000000E+03 0.  0.
        998    1    1    2    0    0 -0.26013180516E+00 -0.22580043047E+01  0.11893375825E+02  0.12109031361E+02  0.10000000000E+00 0. -1.
</event>
<event>
 5    1  0.2022058E-009  0.3881610E+03  0.7957747E-01  0.3416376E+00
         13   -1    0    0    0    0  0.00000000000E+00  0.00000000000E+00  0.14999999963E+04  0.15000000000E+04  0.10566000000E+00 0. -1.
        994   -1    0    0    0    0 -0.00000000000E+00 -0.00000000000E+00  0.11368683772E-12  0.17120000000E+03  0.17120000000E+03 0.  0.
         13    1    1    2    0    0  0.76083242183E+02  0.21579688776E+03  0.10326138644E+04  0.10576617421E+04  0.10566000000E+00 0. -1.
        994    1    1    2    0    0 -0.83534850676E+02 -0.25410569194E+03  0.28399448759E+03  0.42604000157E+03  0.17120000000E+03 0.  0.
        998    1    1    2    0    0  0.74516084925E+01  0.38308804185E+02  0.18339164428E+03  0.18749825637E+03  0.10000000000E+00 0. -1.
</event>
<event>
 5    1  0.2022058E-009  0.3883009E+03  0.7957747E-01  0.3415792E+00
         13   -1    0    0    0    0  0.00000000000E+00  0.00000000000E+00  0.14999999963E+04  0.15000000000E+04  0.10566000000E+00 0. -1.
        994   -1    0    0    0    0 -0.00000000000E+00 -0.00000000000E+00  0.11368683772E-12  0.17120000000E+03  0.17120000000E+03 0.  0.
         13    1    1    2    0    0 -0.72920529295E+02  0.19116733892E+03  0.11772097294E+04  0.11948577795E+04  0.10566000000E+00 0. -1.
        994    1    1    2    0    0  0.81054995911E+02 -0.21251043519E+03  0.19152886607E+03  0.34310835601E+03  0.17120000000E+03 0.  0.
        998    1    1    2    0    0 -0.81344666159E+01  0.21343096272E+02  0.13126140084E+03  0.13323386453E+03  0.10000000000E+00 0.  0.
</event>
<event>
 5    1  0.2022058E-009  0.3870335E+03  0.7957747E-01  0.3421093E+00
         13   -1    0    0    0    0  0.00000000000E+00  0.00000000000E+00  0.14999999963E+04  0.15000000000E+04  0.10566000000E+00 0.  1.
        994   -1    0    0    0    0 -0.00000000000E+00 -0.00000000000E+00  0.11368683772E-12  0.17120000000E+03  0.17120000000E+03 0.  0.
         13    1    1    2    0    0 -0.76535953466E+00 -0.11213135852E+02  0.62578164637E+02  0.63579541082E+02  0.10566000000E+00 0.  1.
        994    1    1    2    0    0 -0.19236480397E+02  0.62356805077E+02  0.14661847258E+02  0.18380104211E+03  0.17120000000E+03 0.  0.
        998    1    1    2    0    0  0.20001839931E+02 -0.51143669225E+02  0.14227599844E+04  0.14238194168E+04  0.10000000000E+00 0.  1.
</event>
<event>
 5    1  0.2022058E-009  0.3846525E+03  0.7957747E-01  0.3431147E+00
         13   -1    0    0    0    0  0.00000000000E+00  0.00000000000E+00  0.14999999963E+04  0.15000000000E+04  0.10566000000E+00 0.  1.
        994   -1    0    0    0    0 -0.00000000000E+00 -0.00000000000E+00  0.11368683772E-12  0.17120000000E+03  0.17120000000E+03 0.  0.
         13    1    1    2    0    0 -0.41265284460E+02  0.43468370484E+02  0.25749705876E+03  0.26438053894E+03  0.10566000000E+00 0.  1.
        994    1    1    2    0    0  0.14231884949E+03 -0.10139159449E+03  0.10979820960E+03  0.26814174831E+03  0.17120000000E+03 0.  0.
        998    1    1    2    0    0 -0.10105356503E+03  0.57923224003E+02  0.11327047279E+04  0.11386777128E+04  0.10000000000E+00 0.  1.
</event>
<event>
 5    1  0.2022058E-009  0.3882997E+03  0.7957747E-01  0.3415797E+00
         13   -1    0    0    0    0  0.00000000000E+00  0.00000000000E+00  0.14999999963E+04  0.15000000000E+04  0.10566000000E+00 0. -1.
        994   -1    0    0    0    0 -0.00000000000E+00 -0.00000000000E+00  0.11368683772E-12  0.17120000000E+03  0.17120000000E+03 0.  0.
         13    1    1    2    0    0  0.46845414381E+02  0.24361625143E+03  0.10200868568E+04  0.10498193070E+04  0.10566000000E+00 0. -1.
        994    1    1    2    0    0 -0.53137349724E+02 -0.27900978978E+03  0.33236619632E+03  0.46951759199E+03  0.17120000000E+03 0.  0.
        998    1    1    2    0    0  0.62919353425E+01  0.35393538350E+02  0.14754694313E+03  0.15186310097E+03  0.10000000000E+00 0.  1.
</event>
<event>
 5    1  0.2022058E-009  0.3882976E+03  0.7957747E-01  0.3415806E+00
         13   -1    0    0    0    0  0.00000000000E+00  0.00000000000E+00  0.14999999963E+04  0.15000000000E+04  0.10566000000E+00 0. -1.
        994   -1    0    0    0    0 -0.00000000000E+00 -0.00000000000E+00  0.11368683772E-12  0.17120000000E+03  0.17120000000E+03 0.  0.
         13    1    1    2    0    0  0.17972409868E+03 -0.10701235570E+03  0.12057772760E+04  0.12237856210E+04  0.10566000000E+00 0. -1.
        994    1    1    2    0    0 -0.19560129956E+03  0.11577926024E+03  0.19125027281E+03  0.34285683943E+03  0.17120000000E+03 0.  0.
        998    1    1    2    0    0  0.15877200887E+02 -0.87669045402E+01  0.10297244752E+03  0.10455753953E+03  0.10000000000E+00 0. -1.
</event>
<event>
 5    1  0.2022058E-009  0.3878536E+03  0.7957747E-01  0.3417659E+00
         13   -1    0    0    0    0  0.00000000000E+00  0.00000000000E+00  0.14999999963E+04  0.15000000000E+04  0.10566000000E+00 0. -1.
        994   -1    0    0    0    0 -0.00000000000E+00 -0.00000000000E+00  0.11368683772E-12  0.17120000000E+03  0.17120000000E+03 0.  0.
         13    1    1    2    0    0 -0.22162810669E+03 -0.24910856515E+02  0.13034101591E+04  0.13223530627E+04  0.10566000000E+00 0. -1.
        994    1    1    2    0    0  0.22258391172E+03  0.27275474734E+02  0.18593055456E+03  0.33788631283E+03  0.17120000000E+03 0.  0.
        998    1    1    2    0    0 -0.95580503603E+00 -0.23646182195E+01  0.10659282625E+02  0.10960624466E+02  0.10000000000E+00 0.  1.
</event>
<event>
 5    1  0.2022058E-009  0.3881414E+03  0.7957747E-01  0.3416457E+00
         13   -1    0    0    0    0  0.00000000000E+00  0.00000000000E+00  0.14999999963E+04  0.15000000000E+04  0.10566000000E+00 0. -1.
        994   -1    0    0    0    0 -0.00000000000E+00 -0.00000000000E+00  0.11368683772E-12  0.17120000000E+03  0.17120000000E+03 0.  0.
         13    1    1    2    0    0  0.11529392111E+02  0.29507143900E+03  0.10502370282E+04  0.10909619185E+04  0.10566000000E+00 0. -1.
        994    1    1    2    0    0 -0.14055243355E+02 -0.30643945343E+03  0.41581156629E+03  0.54434491560E+03  0.17120000000E+03 0.  0.
        998    1    1    2    0    0  0.25258512441E+01  0.11368014425E+02  0.33951401751E+02  0.35893165886E+02  0.10000000000E+00 0. -1.
</event>
<event>
 5    1  0.2022058E-009  0.3883009E+03  0.7957747E-01  0.3415792E+00
         13   -1    0    0    0    0  0.00000000000E+00  0.00000000000E+00  0.14999999963E+04  0.15000000000E+04  0.10566000000E+00 0.  1.
        994   -1    0    0    0    0 -0.00000000000E+00 -0.00000000000E+00  0.11368683772E-12  0.17120000000E+03  0.17120000000E+03 0.  0.
         13    1    1    2    0    0 -0.11698996653E+03  0.12655986111E+03  0.10403828637E+04  0.10545617881E+04  0.10566000000E+00 0.  1.
        994    1    1    2    0    0  0.14889198697E+03 -0.16099883294E+03  0.17609125932E+03  0.32925221275E+03  0.17120000000E+03 0.  0.
        998    1    1    2    0    0 -0.31902020448E+02  0.34438971829E+02  0.28352587326E+03  0.28738599914E+03  0.10000000000E+00 0.  0.
</event>
<event>
 5    1  0.2022058E-009  0.3882985E+03  0.7957747E-01  0.3415802E+00
         13   -1    0    0    0    0  0.00000000000E+00  0.00000000000E+00  0.14999999963E+04  0.15000000000E+04  0.10566000000E+00 0. -1.
        994   -1    0    0    0    0 -0.00000000000E+00 -0.00000000000E+00  0.11368683772E-12  0.17120000000E+03  0.17120000000E+03 0.  0.
         13    1    1    2    0    0 -0.21908991617E+03 -0.89099553843E+02  0.12735036469E+04  0.12952801518E+04  0.10566000000E+00 0. -1.
        994    1    1    2    0    0  0.22107138508E+03  0.90072475375E+02  0.21454132557E+03  0.36376232419E+03  0.17120000000E+03 0.  0.
        998    1    1    2    0    0 -0.19814689108E+01 -0.97292153219E+00  0.11955023795E+02  0.12157523979E+02  0.10000000000E+00 0.  0.
</event>
<event>
 5    1  0.2022058E-009  0.3869497E+03  0.7957747E-01  0.3421445E+00
         13   -1    0    0    0    0  0.00000000000E+00  0.00000000000E+00  0.14999999963E+04  0.15000000000E+04  0.10566000000E+00 0.  1.
        994   -1    0    0    0    0 -0.00000000000E+00 -0.00000000000E+00  0.11368683772E-12  0.17120000000E+03  0.17120000000E+03 0.  0.
         13    1    1    2    0    0 -0.16482940408E+03 -0.28004797377E+03  0.93039152815E+03  0.98550697962E+03  0.10566000000E+00 0.  1.
        994    1    1    2    0    0  0.17216053948E+03  0.28107597682E+03  0.54159150112E+03  0.65671435966E+03  0.17120000000E+03 0.  0.
        998    1    1    2    0    0 -0.73311354055E+01 -0.10280030550E+01  0.28016967007E+02  0.28978660716E+02  0.10000000000E+00 0. -1.
</event>
<event>
 5    1  0.2022058E-009  0.3883009E+03  0.7957747E-01  0.3415792E+00
         13   -1    0    0    0    0  0.00000000000E+00  0.00000000000E+00  0.14999999963E+04  0.15000000000E+04  0.10566000000E+00 0.  1.
        994   -1    0    0    0    0 -0.00000000000E+00 -0.00000000000E+00  0.11368683772E-12  0.17120000000E+03  0.17120000000E+03 0.  0.
         13    1    1    2    0    0  0.64956118075E+02  0.14576398589E+03  0.96237886435E+03  0.97552013130E+03  0.10566000000E+00 0.  1.
        994    1    1    2    0    0 -0.89322417570E+02 -0.20041870002E+03  0.17632867976E+03  0.32946531366E+03  0.17120000000E+03 0.  0.
        998    1    1    2    0    0  0.24366299495E+02  0.54654714132E+02  0.36129245217E+03  0.36621455504E+03  0.10000000000E+00 0.  0.
</event>
<event>
 5    1  0.2022058E-009  0.3882494E+03  0.7957747E-01  0.3416007E+00
         13   -1    0    0    0    0  0.00000000000E+00  0.00000000000E+00  0.14999999963E+04  0.15000000000E+04  0.10566000000E+00 0.  1.
        994   -1    0    0    0    0 -0.00000000000E+00 -0.00000000000E+00  0.11368683772E-12  0.17120000000E+03  0.17120000000E+03 0.  0.
         13    1    1    2    0    0 -0.21032609030E+03  0.72748305640E+02  0.12057136019E+04  0.12260810255E+04  0.10566000000E+00 0.  1.
        994    1    1    2    0    0  0.22599230827E+03 -0.78593150644E+02  0.21579130161E+03  0.36486262151E+03  0.17120000000E+03 0.  0.
        998    1    1    2    0    0 -0.15666217973E+02  0.58448450034E+01  0.78495092814E+02  0.80256352986E+02  0.10000000000E+00 0. -1.
</event>
<event>
 5    1  0.2022058E-009  0.3880622E+03  0.7957747E-01  0.3416788E+00
         13   -1    0    0    0    0  0.00000000000E+00  0.00000000000E+00  0.14999999963E+04  0.15000000000E+04  0.10566000000E+00 0.  1.
        994   -1    0    0    0    0 -0.00000000000E+00 -0.00000000000E+00  0.11368683772E-12  0.17120000000E+03  0.17120000000E+03 0.  0.
         13    1    1    2    0    0  0.12197549266E+02  0.75080950765E+02  0.40039313294E+03  0.40755441531E+03  0.10566000000E+00 0.  1.
        994    1    1    2    0    0 -0.66284278052E+02 -0.23578149239E+03  0.22846166254E+03  0.37615248094E+03  0.17120000000E+03 0.  0.
        998    1    1    2    0    0  0.54086728786E+02  0.16070054162E+03  0.87114520080E+03  0.88749310374E+03  0.10000000000E+00 0.  1.
</event>
<event>
 5    1  0.2022058E-009  0.3882959E+03  0.7957747E-01  0.3415813E+00
         13   -1    0    0    0    0  0.00000000000E+00  0.00000000000E+00  0.14999999963E+04  0.15000000000E+04  0.10566000000E+00 0. -1.
        994   -1    0    0    0    0 -0.00000000000E+00 -0.00000000000E+00  0.11368683772E-12  0.17120000000E+03  0.17120000000E+03 0.  0.
         13    1    1    2    0    0 -0.18993039344E+03 -0.18079512272E+03  0.11961927367E+04  0.12245968746E+04  0.10566000000E+00 0. -1.
        994    1    1    2    0    0  0.19336423171E+03  0.18376785816E+03  0.28177454466E+03  0.42410692733E+03  0.17120000000E+03 0.  0.
        998    1    1    2    0    0 -0.34338382647E+01 -0.29727354326E+01  0.22032714918E+02  0.22496198075E+02  0.10000000000E+00 0.  1.
</event>
<event>
 5    1  0.2022058E-009  0.3882798E+03  0.7957747E-01  0.3415880E+00
         13   -1    0    0    0    0  0.00000000000E+00  0.00000000000E+00  0.14999999963E+04  0.15000000000E+04  0.10566000000E+00 0.  1.
        994   -1    0    0    0    0 -0.00000000000E+00 -0.00000000000E+00  0.11368683772E-12  0.17120000000E+03  0.17120000000E+03 0.  0.
         13    1    1    2    0    0  0.11713859442E+03 -0.17225079442E+03  0.11111409728E+04  0.11304981464E+04  0.10566000000E+00 0.  1.
        994    1    1    2    0    0 -0.13710291810E+03  0.19858862347E+03  0.22017423224E+03  0.36880995657E+03  0.17120000000E+03 0.  0.
        998    1    1    2    0    0  0.19964323689E+02 -0.26337829049E+02  0.16868479122E+03  0.17189189698E+03  0.10000000000E+00 0. -1.
</event>
<event>
 5    1  0.2022058E-009  0.3860874E+03  0.7957747E-01  0.3425073E+00
         13   -1    0    0    0    0  0.00000000000E+00  0.00000000000E+00  0.14999999963E+04  0.15000000000E+04  0.10566000000E+00 0. -1.
        994   -1    0    0    0    0 -0.00000000000E+00 -0.00000000000E+00  0.11368683772E-12  0.17120000000E+03  0.17120000000E+03 0.  0.
         13    1    1    2    0    0  0.13363446190E+03  0.20605365790E+03  0.10862597087E+04  0.11136769932E+04  0.10566000000E+00 0. -1.
        994    1    1    2    0    0 -0.13475312144E+03 -0.22139955881E+03  0.26590769745E+03  0.40889180958E+03  0.17120000000E+03 0.  0.
        998    1    1    2    0    0  0.11186595450E+01  0.15345900908E+02  0.14783259016E+03  0.14863119722E+03  0.10000000000E+00 0. -1.
</event>
<event>
 5    1  0.2022058E-009  0.3882778E+03  0.7957747E-01  0.3415889E+00
         13   -1    0    0    0    0  0.00000000000E+00  0.00000000000E+00  0.14999999963E+04  0.15000000000E+04  0.10566000000E+00 0. -1.
        994   -1    0    0    0    0 -0.00000000000E+00 -0.00000000000E+00  0.11368683772E-12  0.17120000000E+03  0.17120000000E+03 0.  0.
         13    1    1    2    0    0  0.23993419905E+03 -0.24220677550E+02  0.91457141790E+03  0.94583082563E+03  0.10566000000E+00 0. -1.
        994    1    1    2    0    0 -0.29383964559E+03  0.31729773779E+02  0.37159780666E+03  0.50472060170E+03  0.17120000000E+03 0.  0.
        998    1    1    2    0    0  0.53905446534E+02 -0.75090962291E+01  0.21383077171E+03  0.22064857268E+03  0.10000000000E+00 0. -1.
</event>
<event>
 5    1  0.2022058E-009  0.3882979E+03  0.7957747E-01  0.3415805E+00
         13   -1    0    0    0    0  0.00000000000E+00  0.00000000000E+00  0.14999999963E+04  0.15000000000E+04  0.10566000000E+00 0. -1.
        994   -1    0    0    0    0 -0.00000000000E+00 -0.00000000000E+00  0.11368683772E-12  0.17120000000E+03  0.17120000000E+03 0.  0.
         13    1    1    2    0    0  0.22009155610E+03  0.12757334471E+03  0.86796873675E+03  0.90448050863E+03  0.10566000000E+00 0. -1.
        994    1    1    2    0    0 -0.27016703729E+03 -0.15545075786E+03  0.43684163083E+03  0.56328963827E+03  0.17120000000E+03 0.  0.
        998    1    1    2    0    0  0.50075481189E+02  0.27877413149E+02  0.19518962870E+03  0.20342985310E+03  0.10000000000E+00 0. -1.
</event>
<event>
 5    1  0.2022058E-009  0.3878767E+03  0.7957747E-01  0.3417563E+00
         13   -1    0    0    0    0  0.00000000000E+00  0.00000000000E+00  0.14999999963E+04  0.15000000000E+04  0.10566000000E+00 0. -1.
        994   -1    0    0    0    0 -0.00000000000E+00 -0.00000000000E+00  0.11368683772E-12  0.17120000000E+03  0.17120000000E+03 0.  0.
         13    1    1    2    0    0  0.14526410957E+03  0.18042017189E+02  0.87595564380E+03  0.88810217711E+03  0.10566000000E+00 0. -1.
        994    1    1    2    0    0 -0.20895422536E+03 -0.40737165486E+02  0.16510119295E+03  0.31920092240E+03  0.17120000000E+03 0.  0.
        998    1    1    2    0    0  0.63690115791E+02  0.22695148297E+02  0.45894315953E+03  0.46389690049E+03  0.10000000000E+00 0. -1.
</event>
<event>
 5    1  0.2022058E-009  0.3858084E+03  0.7957747E-01  0.3426251E+00
         13   -1    0    0    0    0  0.00000000000E+00  0.00000000000E+00  0.14999999963E+04  0.15000000000E+04  0.10566000000E+00 0. -1.
        994   -1    0    0    0    0 -0.00000000000E+00 -0.00000000000E+00  0.11368683772E-12  0.17120000000E+03  0.17120000000E+03 0.  0.
         13    1    1    2    0    0  0.33261604367E+02  0.11428633243E+03  0.68444087890E+03  0.69471363020E+03  0.10566000000E+00 0. -1.
        994    1    1    2    0    0 -0.24938915380E+02 -0.18487916464E+03  0.12517819870E+03  0.28245579556E+03  0.17120000000E+03 0.  0.
        998    1    1    2    0    0 -0.83226889867E+01  0.70592832209E+02  0.69038091867E+03  0.69403057424E+03  0.10000000000E+00 0. -1.
</event>
<event>
 5    1  0.2022058E-009  0.3883002E+03  0.7957747E-01  0.3415795E+00
         13   -1    0    0    0    0  0.00000000000E+00  0.00000000000E+00  0.14999999963E+04  0.15000000000E+04  0.10566000000E+00 0. -1.
        994   -1    0    0    0    0 -0.00000000000E+00 -0.00000000000E+00  0.11368683772E-12  0.17120000000E+03  0.17120000000E+03 0.  0.
         13    1    1    2    0    0  0.13564145006E+03 -0.15945251580E+03  0.10099421725E+04  0.10314101564E+04  0.10566000000E+00 0. -1.
        994    1    1    2    0    0 -0.16647928400E+03  0.19648132221E+03  0.25785611003E+03  0.40264062818E+03  0.17120000000E+03 0.  0.
        998    1    1    2    0    0  0.30837833941E+02 -0.37028806414E+02  0.23220171371E+03  0.23714921538E+03  0.10000000000E+00 0. -1.
</event>
<event>
 5    1  0.2022058E-009  0.3879040E+03  0.7957747E-01  0.3417448E+00
         13   -1    0    0    0    0  0.00000000000E+00  0.00000000000E+00  0.14999999963E+04  0.15000000000E+04  0.10566000000E+00 0.  1.
        994   -1    0    0    0    0 -0.00000000000E+00 -0.00000000000E+00  0.11368683772E-12  0.17120000000E+03  0.17120000000E+03 0.  0.
         13    1    1    2    0    0 -0.68744478482E+02 -0.23491145203E+03  0.12124477807E+04  0.12369069592E+04  0.10566000000E+00 0.  1.
        994    1    1    2    0    0  0.66653951648E+02  0.24276986213E+03  0.24448355399E+03  0.39046331889E+03  0.17120000000E+03 0.  0.
        998    1    1    2    0    0  0.20905268343E+01 -0.78584101005E+01  0.43068661577E+02  0.43829721900E+02  0.10000000000E+00 0.  1.
</event>
<event>
 5    1  0.2022058E-009  0.3882983E+03  0.7957747E-01  0.3415803E+00
         13   -1    0    0    0    0  0.00000000000E+00  0.00000000000E+00  0.14999999963E+04  0.15000000000E+04  0.10566000000E+00 0. -1.
        994   -1    0    0    0    0 -0.00000000000E+00 -0.00000000000E+00  0.11368683772E-12  0.17120000000E+03  0.17120000000E+03 0.  0.
         13    1    1    2    0    0  0.21547662176E+03 -0.12903599133E+03  0.11644167555E+04  0.11911955563E+04  0.10566000000E+00 0. -1.
        994    1    1    2    0    0 -0.22648916515E+03  0.13613999817E+03  0.27509447018E+03  0.41811224397E+03  0.17120000000E+03 0.  0.
        998    1    1    2    0    0  0.11012543394E+02 -0.71040068391E+01  0.60488770569E+02  0.61892199752E+02  0.10000000000E+00 0.  1.
</event>
<event>
 5    1  0.2022058E-009  0.3847403E+03  0.7957747E-01  0.3430775E+00
         13   -1    0    0    0    0  0.00000000000E+00  0.00000000000E+00  0.14999999963E+04  0.15000000000E+04  0.10566000000E+00 0.  1.
        994   -1    0    0    0    0 -0.00000000000E+00 -0.00000000000E+00  0.11368683772E-12  0.17120000000E+03  0.17120000000E+03 0.  0.
         13    1    1    2    0    0 -0.12753608406E+03 -0.16860244577E+03  0.75907298648E+03  0.78796195811E+03  0.10566000000E+00 0.  1.
        994    1    1    2    0    0  0.17868338888E+03  0.21121991803E+03  0.31745375918E+03  0.45456345702E+03  0.17120000000E+03 0.  0.
        998    1    1    2    0    0 -0.51147304817E+02 -0.42617472255E+02  0.42347325061E+03  0.42867458487E+03  0.10000000000E+00 0.  1.
</event>
<event>
 5    1  0.2022058E-009  0.3879071E+03  0.7957747E-01  0.3417436E+00
         13   -1    0    0    0    0  0.00000000000E+00  0.00000000000E+00  0.14999999963E+04  0.15000000000E+04  0.10566000000E+00 0.  1.
        994   -1    0    0    0    0 -0.00000000000E+00 -0.00000000000E+00  0.11368683772E-12  0.17120000000E+03  0.17120000000E+03 0.  0.
         13    1    1    2    0    0  0.16469210687E+03 -0.25549140743E+03  0.10435466595E+04  0.10869171960E+04  0.10566000000E+00 0.  1.
        994    1    1    2    0    0 -0.16546046205E+03  0.26125398668E+03  0.42727410573E+03  0.55452990134E+03  0.17120000000E+03 0.  0.
        998    1    1    2    0    0  0.76835518240E+00 -0.57625792558E+01  0.29179231050E+02  0.29752902615E+02  0.10000000000E+00 0.  1.
</event>
<event>
 5    1  0.2022058E-009  0.3809929E+03  0.7957747E-01  0.3446847E+00
         13   -1    0    0    0    0  0.00000000000E+00  0.00000000000E+00  0.14999999963E+04  0.15000000000E+04  0.10566000000E+00 0. -1.
        994   -1    0    0    0    0 -0.00000000000E+00 -0.00000000000E+00  0.11368683772E-12  0.17120000000E+03  0.17120000000E+03 0.  0.
         13    1    1    2    0    0 -0.14301554673E+00  0.14861010150E+02  0.39531101856E+02  0.42232561539E+02  0.10566000000E+00 0. -1.
        994    1    1    2    0    0  0.17805654465E+02  0.77926188259E+02  0.25224098746E+02  0.19061801411E+03  0.17120000000E+03 0.  0.
        998    1    1    2    0    0 -0.17662638918E+02 -0.92787198409E+02  0.14352447957E+04  0.14383494243E+04  0.10000000000E+00 0. -1.
</event>
<event>
 5    1  0.2022058E-009  0.3714852E+03  0.7957747E-01  0.3489093E+00
         13   -1    0    0    0    0  0.00000000000E+00  0.00000000000E+00  0.14999999963E+04  0.15000000000E+04  0.10566000000E+00 0. -1.
        994   -1    0    0    0    0 -0.00000000000E+00 -0.00000000000E+00  0.11368683772E-12  0.17120000000E+03  0.17120000000E+03 0.  0.
         13    1    1    2    0    0 -0.42846623214E+02 -0.36927539673E+01  0.12660775690E+03  0.13371239592E+03  0.10566000000E+00 0. -1.
        994    1    1    2    0    0 -0.10630782325E+03 -0.18481882189E+01  0.52589680062E+02  0.20827837990E+03  0.17120000000E+03 0.  0.
        998    1    1    2    0    0  0.14915444646E+03  0.55409421862E+01  0.13208025593E+04  0.13292092242E+04  0.10000000000E+00 0. -1.
</event>
<event>
 5    1  0.2022058E-009  0.3882178E+03  0.7957747E-01  0.3416139E+00
         13   -1    0    0    0    0  0.00000000000E+00  0.00000000000E+00  0.14999999963E+04  0.15000000000E+04  0.10566000000E+00 0. -1.
        994   -1    0    0    0    0 -0.00000000000E+00 -0.00000000000E+00  0.11368683772E-12  0.17120000000E+03  0.17120000000E+03 0.  0.
         13    1    1    2    0    0  0.14327857786E+03  0.98350544148E+02  0.98281911748E+03  0.99806563374E+03  0.10566000000E+00 0. -1.
        994    1    1    2    0    0 -0.19333509863E+03 -0.13353061638E+03  0.20677222322E+03  0.35675352580E+03  0.17120000000E+03 0.  0.
        998    1    1    2    0    0  0.50056520775E+02  0.35180072231E+02  0.31040865557E+03  0.31638084046E+03  0.10000000000E+00 0.  1.
</event>
<event>
 5    1  0.2022058E-009  0.3799545E+03  0.7957747E-01  0.3451357E+00
         13   -1    0    0    0    0  0.00000000000E+00  0.00000000000E+00  0.14999999963E+04  0.15000000000E+04  0.10566000000E+00 0.  1.
        994   -1    0    0    0    0 -0.00000000000E+00 -0.00000000000E+00  0.11368683772E-12  0.17120000000E+03  0.17120000000E+03 0.  0.
         13    1    1    2    0    0 -0.14204824769E+03  0.23939342455E+03  0.11172278843E+04  0.11513839816E+04  0.10566000000E+00 0.  1.
        994    1    1    2    0    0  0.15900224304E+03 -0.23873800507E+03  0.35656077641E+03  0.48859244328E+03  0.17120000000E+03 0.  0.
        998    1    1    2    0    0 -0.16953995351E+02 -0.65541947092E+00  0.26211335570E+02  0.31223575154E+02  0.10000000000E+00 0.  1.
</event>
<event>
 5    1  0.2022058E-009  0.3879583E+03  0.7957747E-01  0.3417222E+00
         13   -1    0    0    0    0  0.00000000000E+00  0.00000000000E+00  0.14999999963E+04  0.15000000000E+04  0.10566000000E+00 0.  1.
        994   -1    0    0    0    0 -0.00000000000E+00 -0.00000000000E+00  0.11368683772E-12  0.17120000000E+03  0.17120000000E+03 0.  0.
         13    1    1    2    0    0  0.26137290383E+03 -0.29276679019E+02  0.11629144367E+04  0.11922847466E+04  0.10566000000E+00 0.  1.
        994    1    1    2    0    0 -0.26838156727E+03  0.27470830431E+02  0.29070953191E+03  0.43197775882E+03  0.17120000000E+03 0.  0.
        998    1    1    2    0    0  0.70086634416E+01  0.18058485881E+01  0.46376027660E+02  0.46937494542E+02  0.10000000000E+00 0. -1.
</event>
<event>
 5    1  0.2022058E-009  0.3882693E+03  0.7957747E-01  0.3415924E+00
         13   -1    0    0    0    0  0.00000000000E+00  0.00000000000E+00  0.14999999963E+04  0.15000000000E+04  0.10566000000E+00 0. -1.
        994   -1    0    0    0    0 -0.00000000000E+00 -0.00000000000E+00  0.11368683772E-12  0.17120000000E+03  0.17120000000E+03 0.  0.
         13    1    1    2    0    0  0.97221404536E+02  0.19527889686E+03  0.10501237521E+04  0.10725417264E+04  0.10566000000E+00 0. -1.
        994    1    1    2    0    0 -0.11630258859E+03 -0.23224783893E+03  0.26346909656E+03  0.40766500419E+03  0.17120000000E+03 0.  0.
        998    1    1    2    0    0  0.19081184051E+02  0.36968942070E+02  0.18640714766E+03  0.19099326941E+03  0.10000000000E+00 0.  1.
</event>
<event>
 5    1  0.2022058E-009  0.3880737E+03  0.7957747E-01  0.3416740E+00
         13   -1    0    0    0    0  0.00000000000E+00  0.00000000000E+00  0.14999999963E+04  0.15000000000E+04  0.10566000000E+00 0. -1.
        994   -1    0    0    0    0 -0.00000000000E+00 -0.00000000000E+00  0.11368683772E-12  0.17120000000E+03  0.17120000000E+03 0.  0.
         13    1    1    2    0    0  0.20854908247E+03 -0.70259743106E+02  0.12657755997E+04  0.12847634145E+04  0.10566000000E+00 0. -1.
        994    1    1    2    0    0 -0.21472557859E+03  0.69587921233E+02  0.18847531014E+03  0.34026744689E+03  0.17120000000E+03 0.  0.
        998    1    1    2    0    0  0.61764961195E+01  0.67182187237E+00  0.45749086410E+02  0.46169138570E+02  0.10000000000E+00 0. -1.
</event>
<event>
 5    1  0.2022058E-009  0.3883003E+03  0.7957747E-01  0.3415795E+00
         13   -1    0    0    0    0  0.00000000000E+00  0.00000000000E+00  0.14999999963E+04  0.15000000000E+04  0.10566000000E+00 0. -1.
        994   -1    0    0    0    0 -0.00000000000E+00 -0.00000000000E+00  0.11368683772E-12  0.17120000000E+03  0.17120000000E+03 0.  0.
         13    1    1    2    0    0 -0.16855951188E+03  0.13660382358E+03  0.12437231922E+04  0.12625055658E+04  0.10566000000E+00 0. -1.
        994    1    1    2    0    0  0.17725153908E+03 -0.14371532435E+03  0.19299840983E+03  0.34442710224E+03  0.17120000000E+03 0.  0.
        998    1    1    2    0    0 -0.86920271971E+01  0.71115007695E+01  0.63278394271E+02  0.64267331993E+02  0.10000000000E+00 0.  1.
</event>
<event>
 5    1  0.2022058E-009  0.2991044E+03  0.7957747E-01  0.3902434E+00
         13   -1    0    0    0    0  0.00000000000E+00  0.00000000000E+00  0.14999999963E+04  0.15000000000E+04  0.10566000000E+00 0. -1.
        994   -1    0    0    0    0 -0.00000000000E+00 -0.00000000000E+00  0.11368683772E-12  0.17120000000E+03  0.17120000000E+03 0.  0.
         13    1    1    2    0    0  0.12445121762E+03 -0.93791059183E+02  0.72716392082E+03  0.74367482629E+03  0.10566000000E+00 0. -1.
        994    1    1    2    0    0 -0.52742321258E+02  0.18198613603E+03  0.15371885224E+03  0.29805977872E+03  0.17120000000E+03 0.  0.
        998    1    1    2    0    0 -0.71708896358E+02 -0.88195076850E+02  0.61911722322E+03  0.62946539499E+03  0.10000000000E+00 0. -1.
</event>
<event>
 5    1  0.2022058E-009  0.3841339E+03  0.7957747E-01  0.3433354E+00
         13   -1    0    0    0    0  0.00000000000E+00  0.00000000000E+00  0.14999999963E+04  0.15000000000E+04  0.10566000000E+00 0.  1.
        994   -1    0    0    0    0 -0.00000000000E+00 -0.00000000000E+00  0.11368683772E-12  0.17120000000E+03  0.17120000000E+03 0.  0.
         13    1    1    2    0    0 -0.64166910161E+02 -0.25295418401E+02  0.33400849488E+03  0.34105562064E+03  0.10566000000E+00 0.  1.
        994    1    1    2    0    0  0.12905083155E+03  0.13976353446E+03  0.13227406079E+03  0.28808649716E+03  0.17120000000E+03 0.  0.
        998    1    1    2    0    0 -0.64883921393E+02 -0.11446811605E+03  0.10337174406E+04  0.10420578822E+04  0.10000000000E+00 0.  1.
</event>
<event>
 5    1  0.2022058E-009  0.3877758E+03  0.7957747E-01  0.3417984E+00
         13   -1    0    0    0    0  0.00000000000E+00  0.00000000000E+00  0.14999999963E+04  0.15000000000E+04  0.10566000000E+00 0.  1.
        994   -1    0    0    0    0 -0.00000000000E+00 -0.00000000000E+00  0.11368683772E-12  0.17120000000E+03  0.17120000000E+03 0.  0.
         13    1    1    2    0    0  0.38032903980E+02  0.20475408222E+03  0.12549203582E+04  0.12720832726E+04  0.10566000000E+00 0.  1.
        994    1    1    2    0    0 -0.45087733945E+02 -0.21201096453E+03  0.17209713329E+03  0.32543573270E+03  0.17120000000E+03 0.  0.
        998    1    1    2    0    0  0.70548299652E+01  0.72568823152E+01  0.72982504829E+02  0.73680994686E+02  0.10000000000E+00 0.  1.
</event>
<event>
 5    1  0.2022058E-009  0.3882981E+03  0.7957747E-01  0.3415804E+00
         13   -1    0    0    0    0  0.00000000000E+00  0.00000000000E+00  0.14999999963E+04  0.15000000000E+04  0.10566000000E+00 0.  1.
        994   -1    0    0    0    0 -0.00000000000E+00 -0.00000000000E+00  0.11368683772E-12  0.17120000000E+03  0.17120000000E+03 0.  0.
         13    1    1    2    0    0 -0.77207399038E+02  0.13875750029E+03  0.90310381335E+03  0.91695754275E+03  0.10566000000E+00 0.  1.
        994    1    1    2    0    0  0.11024932022E+03 -0.20076171016E+03  0.19467383714E+03  0.34592993473E+03  0.17120000000E+03 0.  0.
        998    1    1    2    0    0 -0.33041921186E+02  0.62004209868E+02  0.40222234579E+03  0.40831252252E+03  0.10000000000E+00 0.  1.
</event>
<event>
 5    1  0.2022058E-009  0.3878149E+03  0.7957747E-01  0.3417821E+00
         13   -1    0    0    0    0  0.00000000000E+00  0.00000000000E+00  0.14999999963E+04  0.15000000000E+04  0.10566000000E+00 0.  1.
        994   -1    0    0    0    0 -0.00000000000E+00 -0.00000000000E+00  0.11368683772E-12  0.17120000000E+03  0.17120000000E+03 0.  0.
         13    1    1    2    0    0  0.27193035046E+03 -0.51238103054E+02  0.10793986298E+04  0.11143037611E+04  0.10566000000E+00 0.  1.
        994    1    1    2    0    0 -0.28696441863E+03  0.47852323060E+02  0.35645928500E+03  0.49092879753E+03  0.17120000000E+03 0.  0.
        998    1    1    2    0    0  0.15034068166E+02  0.33857799946E+01  0.64142081439E+02  0.65967441387E+02  0.10000000000E+00 0.  1.
</event>
<event>
 5    1  0.2022058E-009  0.3879244E+03  0.7957747E-01  0.3417363E+00
         13   -1    0    0    0    0  0.00000000000E+00  0.00000000000E+00  0.14999999963E+04  0.15000000000E+04  0.10566000000E+00 0. -1.
        994   -1    0    0    0    0 -0.00000000000E+00 -0.00000000000E+00  0.11368683772E-12  0.17120000000E+03  0.17120000000E+03 0.  0.
         13    1    1    2    0    0  0.21433256387E+03  0.79933395573E+02  0.12968232794E+04  0.13168441156E+04  0.10566000000E+00 0. -1.
        994    1    1    2    0    0 -0.21613066620E+03 -0.81152525464E+02  0.19880325394E+03  0.34947155970E+03  0.17120000000E+03 0.  0.
        998    1    1    2    0    0  0.17981023239E+01  0.12191298910E+01  0.43734629660E+01  0.48843247203E+01  0.10000000000E+00 0.  1.
</event>
<event>
 5    1  0.2022058E-009  0.3881611E+03  0.7957747E-01  0.3416375E+00
         13   -1    0    0    0    0  0.00000000000E+00  0.00000000000E+00  0.14999999963E+04  0.15000000000E+04  0.10566000000E+00 0.  1.
        994   -1    0    0    0    0 -0.00000000000E+00 -0.00000000000E+00  0.11368683772E-12  0.17120000000E+03  0.17120000000E+03 0.  0.
         13    1    1    2    0    0 -0.23786211347E+02  0.22898411829E+03  0.12928267824E+04  0.13131643502E+04  0.10566000000E+00 0.  1.
        994    1    1    2    0    0  0.24956052371E+02 -0.22993867301E+03  0.19934046914E+03  0.35005808166E+03  0.17120000000E+03 0.  0.
        998    1    1    2    0    0 -0.11698410238E+01  0.95455472821E+00  0.78327447757E+01  0.79775681427E+01  0.10000000000E+00 0.  1.
</event>
<event>
 5    1  0.2022058E-009  0.3843883E+03  0.7957747E-01  0.3432271E+00
         13   -1    0    0    0    0  0.00000000000E+00  0.00000000000E+00  0.14999999963E+04  0.15000000000E+04  0.10566000000E+00 0.  1.
        994   -1    0    0    0    0 -0.00000000000E+00 -0.00000000000E+00  0.11368683772E-12  0.17120000000E+03  0.17120000000E+03 0.  0.
         13    1    1    2    0    0  0.75170029071E+02 -0.59979041019E+02  0.22837167259E+03  0.24779356456E+03  0.10566000000E+00 0.  1.
        994    1    1    2    0    0 -0.18204888662E+03  0.29184534471E+03  0.75672290342E+03  0.84867808674E+03  0.17120000000E+03 0.  0.
        998    1    1    2    0    0  0.10687885755E+03 -0.23186630369E+03  0.51490542027E+03  0.57472834870E+03  0.10000000000E+00 0.  1.
</event>
<event>
 5    1  0.3450715E-009  0.3882942E+03  0.7957747E-01  0.3415820E+00
         13   -1    0    0    0    0  0.00000000000E+00  0.00000000000E+00  0.14999999963E+04  0.15000000000E+04  0.10566000000E+00 0. -1.
        994   -1    0    0    0    0 -0.00000000000E+00 -0.00000000000E+00  0.11368683772E-12  0.17120000000E+03  0.17120000000E+03 0.  0.
         13    1    1    2    0    0 -0.24617629859E+03  0.55714914719E+01  0.12663448564E+04  0.12900632225E+04  0.10566000000E+00 0. -1.
        994    1    1    2    0    0  0.24647854409E+03 -0.56069073391E+01  0.23176497957E+03  0.37921966703E+03  0.17120000000E+03 0.  0.
        998    1    1    2    0    0 -0.30224550313E+00  0.35415867189E-01  0.18901602900E+01  0.19171104688E+01  0.10000000000E+00 0. -1.
</event>
<event>
 5    1  0.2022058E-009  0.3875727E+03  0.7957747E-01  0.3418834E+00
         13   -1    0    0    0    0  0.00000000000E+00  0.00000000000E+00  0.14999999963E+04  0.15000000000E+04  0.10566000000E+00 0.  1.
        994   -1    0    0    0    0 -0.00000000000E+00 -0.00000000000E+00  0.11368683772E-12  0.17120000000E+03  0.17120000000E+03 0.  0.
         13    1    1    2    0    0  0.26354220114E+02 -0.12330068751E+03  0.72009487621E+03  0.73105009840E+03  0.10566000000E+00 0.  1.
        994    1    1    2    0    0 -0.53854091304E+02  0.19980926833E+03  0.15523588078E+03  0.31021222662E+03  0.17120000000E+03 0.  0.
        998    1    1    2    0    0  0.27499871190E+02 -0.76508580824E+02  0.62466923928E+03  0.62993767498E+03  0.10000000000E+00 0.  1.
</event>
<event>
 5    1  0.2022058E-009  0.3881473E+03  0.7957747E-01  0.3416433E+00
         13   -1    0    0    0    0  0.00000000000E+00  0.00000000000E+00  0.14999999963E+04  0.15000000000E+04  0.10566000000E+00 0. -1.
        994   -1    0    0    0    0 -0.00000000000E+00 -0.00000000000E+00  0.11368683772E-12  0.17120000000E+03  0.17120000000E+03 0.  0.
         13    1    1    2    0    0  0.31279821423E+03  0.55330115025E+01  0.94153161433E+03  0.99214672755E+03  0.10566000000E+00 0. -1.
        994    1    1    2    0    0 -0.32731547067E+03 -0.31500652734E+01  0.51986593666E+03  0.63774240282E+03  0.17120000000E+03 0.  0.
        998    1    1    2    0    0  0.14517256444E+02 -0.23829462291E+01  0.38602445281E+02  0.41310869624E+02  0.10000000000E+00 0.  1.
</event>
<event>
 5    1  0.2022058E-009  0.3882993E+03  0.7957747E-01  0.3415799E+00
         13   -1    0    0    0    0  0.00000000000E+00  0.00000000000E+00  0.14999999963E+04  0.15000000000E+04  0.10566000000E+00 0.  1.
        994   -1    0    0    0    0 -0.00000000000E+00 -0.00000000000E+00  0.11368683772E-12  0.17120000000E+03  0.17120000000E+03 0.  0.
         13    1    1    2    0    0  0.30289131693E+03 -0.14695532528E+03  0.89784219762E+03  0.95888458142E+03  0.10566000000E+00 0.  1.
        994    1    1    2    0    0 -0.30415937426E+03  0.14758135868E+03  0.59838131333E+03  0.70828159550E+03  0.17120000000E+03 0.  0.
        998    1    1    2    0    0  0.12680573289E+01 -0.62603340080E+00  0.37764853306E+01  0.40338230825E+01  0.10000000000E+00 0.  0.
</event>
<event>
 5    1  0.2291611E-009  0.3882942E+03  0.7957747E-01  0.3415820E+00
         13   -1    0    0    0    0  0.00000000000E+00  0.00000000000E+00  0.14999999963E+04  0.15000000000E+04  0.10566000000E+00 0.  1.
        994   -1    0    0    0    0 -0.00000000000E+00 -0.00000000000E+00  0.11368683772E-12  0.17120000000E+03  0.17120000000E+03 0.  0.
         13    1    1    2    0    0 -0.24895198448E+03 -0.31333642116E+02  0.12555240445E+04  0.12803513288E+04  0.10566000000E+00 0.  1.
        994    1    1    2    0    0  0.24930029264E+03  0.31312936739E+02  0.24268141746E+03  0.38901779689E+03  0.17120000000E+03 0.  0.
        998    1    1    2    0    0 -0.34830815726E+00  0.20705376436E-01  0.17945343494E+01  0.18308743311E+01  0.10000000000E+00 0.  0.
</event>
<event>
 5    1  0.2022058E-009  0.3852943E+03  0.7957747E-01  0.3428425E+00
         13   -1    0    0    0    0  0.00000000000E+00  0.00000000000E+00  0.14999999963E+04  0.15000000000E+04  0.10566000000E+00 0.  1.
        994   -1    0    0    0    0 -0.00000000000E+00 -0.00000000000E+00  0.11368683772E-12  0.17120000000E+03  0.17120000000E+03 0.  0.
         13    1    1    2    0    0 -0.12918079134E+03  0.11690075157E+03  0.92433345096E+03  0.94060927186E+03  0.10566000000E+00 0.  1.
        994    1    1    2    0    0  0.16411830932E+03 -0.13053090781E+03  0.16252016648E+03  0.31574575509E+03  0.17120000000E+03 0.  0.
        998    1    1    2    0    0 -0.34937517976E+02  0.13630156240E+02  0.41314637883E+03  0.41484497305E+03  0.10000000000E+00 0.  1.
</event>
<event>
 5    1  0.2022058E-009  0.3823807E+03  0.7957747E-01  0.3440857E+00
         13   -1    0    0    0    0  0.00000000000E+00  0.00000000000E+00  0.14999999963E+04  0.15000000000E+04  0.10566000000E+00 0.  1.
        994   -1    0    0    0    0 -0.00000000000E+00 -0.00000000000E+00  0.11368683772E-12  0.17120000000E+03  0.17120000000E+03 0.  0.
         13    1    1    2    0    0 -0.21782252547E+02 -0.99091381835E+02  0.47470037442E+03  0.48542149223E+03  0.10566000000E+00 0.  1.
        994    1    1    2    0    0  0.65572069590E+01  0.17256991142E+03  0.10912389424E+03  0.26653486748E+03  0.17120000000E+03 0.  0.
        998    1    1    2    0    0  0.15225045588E+02 -0.73478529586E+02  0.91617572762E+03  0.91924364028E+03  0.10000000000E+00 0.  1.
</event>
<event>
 5    1  0.2022058E-009  0.3883002E+03  0.7957747E-01  0.3415795E+00
         13   -1    0    0    0    0  0.00000000000E+00  0.00000000000E+00  0.14999999963E+04  0.15000000000E+04  0.10566000000E+00 0.  1.
        994   -1    0    0    0    0 -0.00000000000E+00 -0.00000000000E+00  0.11368683772E-12  0.17120000000E+03  0.17120000000E+03 0.  0.
         13    1    1    2    0    0 -0.17389041170E+03  0.21329830455E+03  0.10756152988E+04  0.11102622772E+04  0.10566000000E+00 0.  1.
        994    1    1    2    0    0  0.18468417785E+03 -0.22624058342E+03  0.35910141634E+03  0.49351424939E+03  0.17120000000E+03 0.  0.
        998    1    1    2    0    0 -0.10793766150E+02  0.12942278876E+02  0.65283281095E+02  0.67423473366E+02  0.10000000000E+00 0.  1.
</event>
<event>
 5    1  0.2022058E-009  0.3882873E+03  0.7957747E-01  0.3415849E+00
         13   -1    0    0    0    0  0.00000000000E+00  0.00000000000E+00  0.14999999963E+04  0.15000000000E+04  0.10566000000E+00 0. -1.
        994   -1    0    0    0    0 -0.00000000000E+00 -0.00000000000E+00  0.11368683772E-12  0.17120000000E+03  0.17120000000E+03 0.  0.
         13    1    1    2    0    0  0.20916388123E+03 -0.63358666910E+02  0.12720279633E+04  0.12906661072E+04  0.10566000000E+00 0. -1.
        994    1    1    2    0    0 -0.21592739374E+03  0.64586013350E+02  0.18754607734E+03  0.33952755943E+03  0.17120000000E+03 0.  0.
        998    1    1    2    0    0  0.67635125146E+01 -0.12273464400E+01  0.40425955669E+02  0.41006333322E+02  0.10000000000E+00 0.  1.
</event>
<event>
 5    1  0.2022058E-009  0.3882561E+03  0.7957747E-01  0.3415979E+00
         13   -1    0    0    0    0  0.00000000000E+00  0.00000000000E+00  0.14999999963E+04  0.15000000000E+04  0.10566000000E+00 0. -1.
        994   -1    0    0    0    0 -0.00000000000E+00 -0.00000000000E+00  0.11368683772E-12  0.17120000000E+03  0.17120000000E+03 0.  0.
         13    1    1    2    0    0  0.18772593189E+03  0.23747803784E+03  0.10346354929E+04  0.10780108804E+04  0.10566000000E+00 0. -1.
        994    1    1    2    0    0 -0.19319311264E+03 -0.24348067026E+03  0.43302116183E+03  0.55984210466E+03  0.17120000000E+03 0.  0.
        998    1    1    2    0    0  0.54671807510E+01  0.60026324206E+01  0.32343341539E+02  0.33347014908E+02  0.10000000000E+00 0. -1.
</event>
<event>
 5    1  0.2022058E-009  0.3877750E+03  0.7957747E-01  0.3417988E+00
         13   -1    0    0    0    0  0.00000000000E+00  0.00000000000E+00  0.14999999963E+04  0.15000000000E+04  0.10566000000E+00 0.  1.
        994   -1    0    0    0    0 -0.00000000000E+00 -0.00000000000E+00  0.11368683772E-12  0.17120000000E+03  0.17120000000E+03 0.  0.
         13    1    1    2    0    0  0.15183951839E+03 -0.26070034857E+02  0.82866436218E+03  0.84286388129E+03  0.10566000000E+00 0.  1.
        994    1    1    2    0    0 -0.23080289729E+03  0.21133124608E+02  0.20082934938E+03  0.35122422173E+03  0.17120000000E+03 0.  0.
        998    1    1    2    0    0  0.78963378902E+02  0.49369102490E+01  0.47050628471E+03  0.47711189698E+03  0.10000000000E+00 0.  1.
</event>
<event>
 5    1  0.2022058E-009  0.3882921E+03  0.7957747E-01  0.3415829E+00
         13   -1    0    0    0    0  0.00000000000E+00  0.00000000000E+00  0.14999999963E+04  0.15000000000E+04  0.10566000000E+00 0.  1.
        994   -1    0    0    0    0 -0.00000000000E+00 -0.00000000000E+00  0.11368683772E-12  0.17120000000E+03  0.17120000000E+03 0.  0.
         13    1    1    2    0    0 -0.22103493577E+03  0.15493605354E+02  0.13070365974E+04  0.13256851710E+04  0.10566000000E+00 0.  1.
        994    1    1    2    0    0  0.22287526799E+03 -0.15578404112E+02  0.18379773507E+03  0.33616531525E+03  0.17120000000E+03 0.  0.
        998    1    1    2    0    0 -0.18403322224E+01  0.84798757606E-01  0.91656638136E+01  0.93495137126E+01  0.10000000000E+00 0.  0.
</event>
<event>
 5    1  0.2022058E-009  0.3882931E+03  0.7957747E-01  0.3415825E+00
         13   -1    0    0    0    0  0.00000000000E+00  0.00000000000E+00  0.14999999963E+04  0.15000000000E+04  0.10566000000E+00 0.  1.
        994   -1    0    0    0    0 -0.00000000000E+00 -0.00000000000E+00  0.11368683772E-12  0.17120000000E+03  0.17120000000E+03 0.  0.
         13    1    1    2    0    0 -0.18842859489E+03 -0.11252755199E+03  0.12859219095E+04  0.13045163678E+04  0.10566000000E+00 0.  1.
        994    1    1    2    0    0  0.19280754580E+03  0.11536695997E+03  0.18621032385E+03  0.33833121328E+03  0.17120000000E+03 0.  0.
        998    1    1    2    0    0 -0.43789509145E+01 -0.28394079770E+01  0.27867762878E+02  0.28352418884E+02  0.10000000000E+00 0.  0.
</event>
<event>
 5    1  0.2022058E-009  0.3882988E+03  0.7957747E-01  0.3415801E+00
         13   -1    0    0    0    0  0.00000000000E+00  0.00000000000E+00  0.14999999963E+04  0.15000000000E+04  0.10566000000E+00 0.  1.
        994   -1    0    0    0    0 -0.00000000000E+00 -0.00000000000E+00  0.11368683772E-12  0.17120000000E+03  0.17120000000E+03 0.  0.
         13    1    1    2    0    0  0.24096223748E+03 -0.89080961104E+02  0.11030066174E+04  0.11325289518E+04  0.10566000000E+00 0.  1.
        994    1    1    2    0    0 -0.26012620309E+03  0.95791034685E+02  0.31135475624E+03  0.45065817212E+03  0.17120000000E+03 0.  0.
        998    1    1    2    0    0  0.19163965610E+02 -0.67100735809E+01  0.85638622658E+02  0.88012876081E+02  0.10000000000E+00 0.  1.
</event>
<event>
 5    1  0.2022058E-009  0.3883001E+03  0.7957747E-01  0.3415795E+00
         13   -1    0    0    0    0  0.00000000000E+00  0.00000000000E+00  0.14999999963E+04  0.15000000000E+04  0.10566000000E+00 0.  1.
        994   -1    0    0    0    0 -0.00000000000E+00 -0.00000000000E+00  0.11368683772E-12  0.17120000000E+03  0.17120000000E+03 0.  0.
         13    1    1    2    0    0 -0.21305600874E+03  0.13940242943E+03  0.11204016606E+04  0.11489672722E+04  0.10566000000E+00 0.  1.
        994    1    1    2    0    0  0.22844285446E+03 -0.14919287744E+03  0.29865262825E+03  0.43925787960E+03  0.17120000000E+03 0.  0.
        998    1    1    2    0    0 -0.15386845717E+02  0.97904480104E+01  0.80945707406E+02  0.82974848242E+02  0.10000000000E+00 0.  1.
</event>
<event>
 5    1  0.2022058E-009  0.3852677E+03  0.7957747E-01  0.3428538E+00
         13   -1    0    0    0    0  0.00000000000E+00  0.00000000000E+00  0.14999999963E+04  0.15000000000E+04  0.10566000000E+00 0. -1.
        994   -1    0    0    0    0 -0.00000000000E+00 -0.00000000000E+00  0.11368683772E-12  0.17120000000E+03  0.17120000000E+03 0.  0.
         13    1    1    2    0    0  0.24933929274E+03  0.12555310765E+03  0.10743643352E+04  0.11100416216E+04  0.10566000000E+00 0. -1.
        994    1    1    2    0    0 -0.26195013593E+03 -0.14210414158E+03  0.38943910966E+03  0.51940708592E+03  0.17120000000E+03 0.  0.
        998    1    1    2    0    0  0.12610843196E+02  0.16551033936E+02  0.36196551443E+02  0.41751292517E+02  0.10000000000E+00 0.  1.
</event>
<event>
 5    1  0.2022058E-009  0.3845099E+03  0.7957747E-01  0.3431754E+00
         13   -1    0    0    0    0  0.00000000000E+00  0.00000000000E+00  0.14999999963E+04  0.15000000000E+04  0.10566000000E+00 0. -1.
        994   -1    0    0    0    0 -0.00000000000E+00 -0.00000000000E+00  0.11368683772E-12  0.17120000000E+03  0.17120000000E+03 0.  0.
         13    1    1    2    0    0 -0.22455859424E+03  0.17417478626E+03  0.78271208581E+03  0.83270741491E+03  0.10566000000E+00 0. -1.
        994    1    1    2    0    0  0.24407924635E+03 -0.21241172453E+03  0.51589469958E+03  0.63257426463E+03  0.17120000000E+03 0.  0.
        998    1    1    2    0    0 -0.19520652107E+02  0.38236938268E+02  0.20139321090E+03  0.20591832046E+03  0.10000000000E+00 0. -1.
</event>
<event>
 5    1  0.2022058E-009  0.3881629E+03  0.7957747E-01  0.3416368E+00
         13   -1    0    0    0    0  0.00000000000E+00  0.00000000000E+00  0.14999999963E+04  0.15000000000E+04  0.10566000000E+00 0.  1.
        994   -1    0    0    0    0 -0.00000000000E+00 -0.00000000000E+00  0.11368683772E-12  0.17120000000E+03  0.17120000000E+03 0.  0.
         13    1    1    2    0    0  0.76052121601E+02  0.10995991051E+03  0.52148037826E+03  0.53834645275E+03  0.10566000000E+00 0.  1.
        994    1    1    2    0    0 -0.17580247400E+03 -0.24260114295E+03  0.38702506071E+03  0.51851679051E+03  0.17120000000E+03 0.  0.
        998    1    1    2    0    0  0.99750352403E+02  0.13264123244E+03  0.59149455732E+03  0.61433675674E+03  0.10000000000E+00 0. -1.
</event>
<event>
 5    1  0.2022058E-009  0.3883009E+03  0.7957747E-01  0.3415792E+00
         13   -1    0    0    0    0  0.00000000000E+00  0.00000000000E+00  0.14999999963E+04  0.15000000000E+04  0.10566000000E+00 0. -1.
        994   -1    0    0    0    0 -0.00000000000E+00 -0.00000000000E+00  0.11368683772E-12  0.17120000000E+03  0.17120000000E+03 0.  0.
         13    1    1    2    0    0 -0.13423361830E+03  0.16814052803E+03  0.10963223366E+04  0.11172343435E+04  0.10566000000E+00 0. -1.
        994    1    1    2    0    0  0.15484224888E+03 -0.19389737067E+03  0.23539965966E+03  0.38248496985E+03  0.17120000000E+03 0.  0.
        998    1    1    2    0    0 -0.20608630581E+02  0.25756842640E+02  0.16827800004E+03  0.17148068665E+03  0.10000000000E+00 0.  0.
</event>
<event>
 5    1  0.2022058E-009  0.3882566E+03  0.7957747E-01  0.3415977E+00
         13   -1    0    0    0    0  0.00000000000E+00  0.00000000000E+00  0.14999999963E+04  0.15000000000E+04  0.10566000000E+00 0.  1.
        994   -1    0    0    0    0 -0.00000000000E+00 -0.00000000000E+00  0.11368683772E-12  0.17120000000E+03  0.17120000000E+03 0.  0.
         13    1    1    2    0    0 -0.18494510797E+03  0.20154147943E+03  0.10674099601E+04  0.11019018536E+04  0.10566000000E+00 0.  1.
        994    1    1    2    0    0  0.19859500610E+03 -0.21361614181E+03  0.35789707860E+03  0.49241404465E+03  0.17120000000E+03 0.  0.
        998    1    1    2    0    0 -0.13649898131E+02  0.12074662388E+02  0.74692957617E+02  0.76884101792E+02  0.10000000000E+00 0. -1.
</event>
<event>
 5    1  0.2022058E-009  0.3882977E+03  0.7957747E-01  0.3415805E+00
         13   -1    0    0    0    0  0.00000000000E+00  0.00000000000E+00  0.14999999963E+04  0.15000000000E+04  0.10566000000E+00 0.  1.
        994   -1    0    0    0    0 -0.00000000000E+00 -0.00000000000E+00  0.11368683772E-12  0.17120000000E+03  0.17120000000E+03 0.  0.
         13    1    1    2    0    0  0.15739312186E+03 -0.22090147582E+03  0.11969894439E+04  0.12273360569E+04  0.10566000000E+00 0.  1.
        994    1    1    2    0    0 -0.15803729868E+03  0.22187349041E+03  0.29739863743E+03  0.43813128520E+03  0.17120000000E+03 0.  0.
        998    1    1    2    0    0  0.64417682319E+00 -0.97201458982E+00  0.56119149969E+01  0.57326578544E+01  0.10000000000E+00 0. -1.
</event>
<event>
 5    1  0.2022058E-009  0.3883009E+03  0.7957747E-01  0.3415792E+00
         13   -1    0    0    0    0  0.00000000000E+00  0.00000000000E+00  0.14999999963E+04  0.15000000000E+04  0.10566000000E+00 0. -1.
        994   -1    0    0    0    0 -0.00000000000E+00 -0.00000000000E+00  0.11368683772E-12  0.17120000000E+03  0.17120000000E+03 0.  0.
         13    1    1    2    0    0 -0.15192470464E+03  0.10552850689E+03  0.82140920018E+03  0.84198008703E+03  0.10566000000E+00 0. -1.
        994    1    1    2    0    0  0.22291141568E+03 -0.15498541579E+03  0.29482382390E+03  0.43582164412E+03  0.17120000000E+03 0.  0.
        998    1    1    2    0    0 -0.70986711034E+02  0.49456908898E+02  0.38376697220E+03  0.39339826885E+03  0.10000000000E+00 0. -1.
</event>
<event>
 5    1  0.2022058E-009  0.3859770E+03  0.7957747E-01  0.3425539E+00
         13   -1    0    0    0    0  0.00000000000E+00  0.00000000000E+00  0.14999999963E+04  0.15000000000E+04  0.10566000000E+00 0.  1.
        994   -1    0    0    0    0 -0.00000000000E+00 -0.00000000000E+00  0.11368683772E-12  0.17120000000E+03  0.17120000000E+03 0.  0.
         13    1    1    2    0    0  0.73512651778E+02 -0.14677292281E+03  0.82876287454E+03  0.84486348851E+03  0.10566000000E+00 0.  1.
        994    1    1    2    0    0 -0.78724829445E+02  0.20828106145E+03  0.18528539460E+03  0.33647989060E+03  0.17120000000E+03 0.  0.
        998    1    1    2    0    0  0.52121776671E+01 -0.61508138640E+02  0.48595172715E+03  0.48985662089E+03  0.10000000000E+00 0.  1.
</event>
<event>
 5    1  0.2065338E-009  0.3882763E+03  0.7957747E-01  0.3415895E+00
         13   -1    0    0    0    0  0.00000000000E+00  0.00000000000E+00  0.14999999963E+04  0.15000000000E+04  0.10566000000E+00 0. -1.
        994   -1    0    0    0    0 -0.00000000000E+00 -0.00000000000E+00  0.11368683772E-12  0.17120000000E+03  0.17120000000E+03 0.  0.
         13    1    1    2    0    0 -0.22990593800E+02  0.25220996946E+03  0.12516751705E+04  0.12770392240E+04  0.10566000000E+00 0. -1.
        994    1    1    2    0    0  0.23049635571E+02 -0.25235923716E+03  0.24783093009E+03  0.39363190952E+03  0.17120000000E+03 0.  0.
        998    1    1    2    0    0 -0.59041770549E-01  0.14926770069E+00  0.49389572020E+00  0.52886648558E+00  0.10000000000E+00 0. -1.
</event>
<event>
 5    1  0.2022058E-009  0.3873154E+03  0.7957747E-01  0.3419911E+00
         13   -1    0    0    0    0  0.00000000000E+00  0.00000000000E+00  0.14999999963E+04  0.15000000000E+04  0.10566000000E+00 0.  1.
        994   -1    0    0    0    0 -0.00000000000E+00 -0.00000000000E+00  0.11368683772E-12  0.17120000000E+03  0.17120000000E+03 0.  0.
         13    1    1    2    0    0  0.13907665074E+03  0.97373246650E+02  0.91194739275E+03  0.92761625807E+03  0.10566000000E+00 0.  1.
        994    1    1    2    0    0 -0.19895607062E+03 -0.11413539496E+03  0.19662543574E+03  0.34724833822E+03  0.17120000000E+03 0.  0.
        998    1    1    2    0    0  0.59879419878E+02  0.16762148311E+02  0.39142716779E+03  0.39633540370E+03  0.10000000000E+00 0.  1.
</event>
<event>
 5    1  0.2022058E-009  0.3882765E+03  0.7957747E-01  0.3415894E+00
         13   -1    0    0    0    0  0.00000000000E+00  0.00000000000E+00  0.14999999963E+04  0.15000000000E+04  0.10566000000E+00 0.  1.
        994   -1    0    0    0    0 -0.00000000000E+00 -0.00000000000E+00  0.11368683772E-12  0.17120000000E+03  0.17120000000E+03 0.  0.
         13    1    1    2    0    0  0.25683081948E+02  0.10313422594E+03  0.63303094005E+03  0.64189132374E+03  0.10566000000E+00 0.  1.
        994    1    1    2    0    0 -0.52201651472E+02 -0.21984862906E+03  0.18868051987E+03  0.34054105581E+03  0.17120000000E+03 0.  0.
        998    1    1    2    0    0  0.26518569525E+02  0.11671440313E+03  0.67828853636E+03  0.68876762045E+03  0.10000000000E+00 0. -1.
</event>
<event>
 5    1  0.2022058E-009  0.3882619E+03  0.7957747E-01  0.3415955E+00
         13   -1    0    0    0    0  0.00000000000E+00  0.00000000000E+00  0.14999999963E+04  0.15000000000E+04  0.10566000000E+00 0. -1.
        994   -1    0    0    0    0 -0.00000000000E+00 -0.00000000000E+00  0.11368683772E-12  0.17120000000E+03  0.17120000000E+03 0.  0.
         13    1    1    2    0    0  0.26644497361E+03 -0.13625628610E+03  0.10941968040E+04  0.11343832494E+04  0.10566000000E+00 0. -1.
        994    1    1    2    0    0 -0.26856397197E+03  0.13722693744E+03  0.39443066956E+03  0.52520741854E+03  0.17120000000E+03 0.  0.
        998    1    1    2    0    0  0.21189983570E+01 -0.97065133322E+00  0.11372522743E+02  0.11609332091E+02  0.10000000000E+00 0. -1.
</event>
<event>
 5    1  0.2022058E-009  0.3882953E+03  0.7957747E-01  0.3415816E+00
         13   -1    0    0    0    0  0.00000000000E+00  0.00000000000E+00  0.14999999963E+04  0.15000000000E+04  0.10566000000E+00 0.  1.
        994   -1    0    0    0    0 -0.00000000000E+00 -0.00000000000E+00  0.11368683772E-12  0.17120000000E+03  0.17120000000E+03 0.  0.
         13    1    1    2    0    0 -0.25595421868E+03 -0.60983616532E+02  0.10720160354E+04  0.11038342063E+04  0.10566000000E+00 0.  1.
        994    1    1    2    0    0  0.27718985907E+03  0.66158268899E+02  0.33542479148E+03  0.47226090803E+03  0.17120000000E+03 0.  0.
        998    1    1    2    0    0 -0.21235640391E+02 -0.51746523670E+01  0.92559169374E+02  0.95104885706E+02  0.10000000000E+00 0.  1.
</event>
<event>
 5    1  0.2022058E-009  0.3883007E+03  0.7957747E-01  0.3415793E+00
         13   -1    0    0    0    0  0.00000000000E+00  0.00000000000E+00  0.14999999963E+04  0.15000000000E+04  0.10566000000E+00 0.  1.
        994   -1    0    0    0    0 -0.00000000000E+00 -0.00000000000E+00  0.11368683772E-12  0.17120000000E+03  0.17120000000E+03 0.  0.
         13    1    1    2    0    0  0.69398715722E+02  0.25035516422E+03  0.66628368373E+03  0.71514183794E+03  0.10566000000E+00 0.  1.
        994    1    1    2    0    0 -0.91046124652E+02 -0.32855647869E+03  0.62647333751E+03  0.73349644793E+03  0.17120000000E+03 0.  0.
        998    1    1    2    0    0  0.21647408930E+02  0.78201314478E+02  0.20724297503E+03  0.22256171414E+03  0.10000000000E+00 0.  1.
</event>
<event>
 5    1  0.2022058E-009  0.3882737E+03  0.7957747E-01  0.3415906E+00
         13   -1    0    0    0    0  0.00000000000E+00  0.00000000000E+00  0.14999999963E+04  0.15000000000E+04  0.10566000000E+00 0. -1.
        994   -1    0    0    0    0 -0.00000000000E+00 -0.00000000000E+00  0.11368683772E-12  0.17120000000E+03  0.17120000000E+03 0.  0.
         13    1    1    2    0    0  0.26305292476E+03  0.97634595866E+02  0.11424859318E+04  0.11764367689E+04  0.10566000000E+00 0. -1.
        994    1    1    2    0    0 -0.26725674594E+03 -0.10003214829E+03  0.33672937520E+03  0.47342233900E+03  0.17120000000E+03 0.  0.
        998    1    1    2    0    0  0.42038211766E+01  0.23975524219E+01  0.20784689234E+02  0.21340892124E+02  0.10000000000E+00 0.  1.
</event>
<event>
 5    1  0.2022058E-009  0.3821168E+03  0.7957747E-01  0.3441993E+00
         13   -1    0    0    0    0  0.00000000000E+00  0.00000000000E+00  0.14999999963E+04  0.15000000000E+04  0.10566000000E+00 0.  1.
        994   -1    0    0    0    0 -0.00000000000E+00 -0.00000000000E+00  0.11368683772E-12  0.17120000000E+03  0.17120000000E+03 0.  0.
         13    1    1    2    0    0 -0.22832364814E+01 -0.23146210197E+02  0.10196023612E+03  0.10457944888E+03  0.10566000000E+00 0.  1.
        994    1    1    2    0    0  0.43944046616E+02 -0.15534445038E+02  0.10313889445E+02  0.17773073603E+03  0.17120000000E+03 0.  0.
        998    1    1    2    0    0 -0.41660810135E+02  0.38680655235E+02  0.13877258707E+04  0.13888898151E+04  0.10000000000E+00 0.  1.
</event>
<event>
 5    1  0.2022058E-009  0.3882008E+03  0.7957747E-01  0.3416210E+00
         13   -1    0    0    0    0  0.00000000000E+00  0.00000000000E+00  0.14999999963E+04  0.15000000000E+04  0.10566000000E+00 0. -1.
        994   -1    0    0    0    0 -0.00000000000E+00 -0.00000000000E+00  0.11368683772E-12  0.17120000000E+03  0.17120000000E+03 0.  0.
         13    1    1    2    0    0 -0.24293673293E+03  0.43065021842E+02  0.10578015305E+04  0.10861937863E+04  0.10566000000E+00 0. -1.
        994    1    1    2    0    0  0.27538745334E+03 -0.46367602942E+02  0.31776501712E+03  0.45636854642E+03  0.17120000000E+03 0.  0.
        998    1    1    2    0    0 -0.32450720402E+02  0.33025811003E+01  0.12443344869E+03  0.12863766731E+03  0.10000000000E+00 0.  1.
</event>
<event>
 5    1  0.2022058E-009  0.3882668E+03  0.7957747E-01  0.3415935E+00
         13   -1    0    0    0    0  0.00000000000E+00  0.00000000000E+00  0.14999999963E+04  0.15000000000E+04  0.10566000000E+00 0. -1.
        994   -1    0    0    0    0 -0.00000000000E+00 -0.00000000000E+00  0.11368683772E-12  0.17120000000E+03  0.17120000000E+03 0.  0.
         13    1    1    2    0    0 -0.23790180970E+03  0.78427629689E+02  0.12178815180E+04  0.12433758753E+04  0.10566000000E+00 0. -1.
        994    1    1    2    0    0  0.24274018951E+03 -0.81089244795E+02  0.25395761218E+03  0.39912676433E+03  0.17120000000E+03 0.  0.
        998    1    1    2    0    0 -0.48383798066E+01  0.26616151053E+01  0.28160866113E+02  0.28697360408E+02  0.10000000000E+00 0. -1.
</event>
<event>
 5    1  0.2022058E-009  0.3880651E+03  0.7957747E-01  0.3416776E+00
         13   -1    0    0    0    0  0.00000000000E+00  0.00000000000E+00  0.14999999963E+04  0.15000000000E+04  0.10566000000E+00 0.  1.
        994   -1    0    0    0    0 -0.00000000000E+00 -0.00000000000E+00  0.11368683772E-12  0.17120000000E+03  0.17120000000E+03 0.  0.
         13    1    1    2    0    0 -0.31196016219E+02  0.89888809180E+02  0.49883729431E+03  0.50783052961E+03  0.10566000000E+00 0.  1.
        994    1    1    2    0    0  0.61549841180E+02 -0.22164547901E+03  0.19695085841E+03  0.34787092713E+03  0.17120000000E+03 0.  0.
        998    1    1    2    0    0 -0.30353824961E+02  0.13175666983E+03  0.80421184356E+03  0.81549854326E+03  0.10000000000E+00 0.  1.
</event>
<event>
 5    1  0.2022058E-009  0.3882596E+03  0.7957747E-01  0.3415964E+00
         13   -1    0    0    0    0  0.00000000000E+00  0.00000000000E+00  0.14999999963E+04  0.15000000000E+04  0.10566000000E+00 0.  1.
        994   -1    0    0    0    0 -0.00000000000E+00 -0.00000000000E+00  0.11368683772E-12  0.17120000000E+03  0.17120000000E+03 0.  0.
         13    1    1    2    0    0  0.37685124001E+02 -0.32100284557E+03  0.63385891514E+03  0.71150553821E+03  0.10566000000E+00 0.  1.
        994    1    1    2    0    0 -0.39870163930E+02  0.34605555387E+03  0.81216112765E+03  0.90014399604E+03  0.17120000000E+03 0.  0.
        998    1    1    2    0    0  0.21850399290E+01 -0.25052708300E+02  0.53979953491E+02  0.59550465754E+02  0.10000000000E+00 0.  1.
</event>
<event>
 5    1  0.2022058E-009  0.3882841E+03  0.7957747E-01  0.3415862E+00
         13   -1    0    0    0    0  0.00000000000E+00  0.00000000000E+00  0.14999999963E+04  0.15000000000E+04  0.10566000000E+00 0.  1.
        994   -1    0    0    0    0 -0.00000000000E+00 -0.00000000000E+00  0.11368683772E-12  0.17120000000E+03  0.17120000000E+03 0.  0.
         13    1    1    2    0    0 -0.18642170125E+03 -0.11360362153E+03  0.13202950467E+04  0.13382219006E+04  0.10566000000E+00 0.  1.
        994    1    1    2    0    0  0.18678127824E+03  0.11405081658E+03  0.17529749378E+03  0.32853232107E+03  0.17120000000E+03 0.  0.
        998    1    1    2    0    0 -0.35957699652E+00 -0.44719504873E+00  0.44074557642E+01  0.44457783729E+01  0.10000000000E+00 0. -1.
</event>
<event>
 5    1  0.2022058E-009  0.3744662E+03  0.7957747E-01  0.3475614E+00
         13   -1    0    0    0    0  0.00000000000E+00  0.00000000000E+00  0.14999999963E+04  0.15000000000E+04  0.10566000000E+00 0. -1.
        994   -1    0    0    0    0 -0.00000000000E+00 -0.00000000000E+00  0.11368683772E-12  0.17120000000E+03  0.17120000000E+03 0.  0.
         13    1    1    2    0    0  0.45840917683E+02 -0.96610870809E+02  0.42609711693E+03  0.43931061256E+03  0.10566000000E+00 0. -1.
        994    1    1    2    0    0 -0.22220147594E+03  0.26557463817E+02  0.22088909534E+03  0.35802266302E+03  0.17120000000E+03 0.  0.
        998    1    1    2    0    0  0.17636055825E+03  0.70053406992E+02  0.85301378401E+03  0.87386672442E+03  0.10000000000E+00 0.  1.
</event>
<event>
 5    1  0.2022058E-009  0.3882608E+03  0.7957747E-01  0.3415959E+00
         13   -1    0    0    0    0  0.00000000000E+00  0.00000000000E+00  0.14999999963E+04  0.15000000000E+04  0.10566000000E+00 0.  1.
        994   -1    0    0    0    0 -0.00000000000E+00 -0.00000000000E+00  0.11368683772E-12  0.17120000000E+03  0.17120000000E+03 0.  0.
         13    1    1    2    0    0  0.25304266554E+02 -0.31578199037E+03  0.75273240033E+03  0.81667903672E+03  0.10566000000E+00 0.  1.
        994    1    1    2    0    0 -0.28633598685E+02  0.34414808931E+03  0.68452748062E+03  0.78558583368E+03  0.17120000000E+03 0.  0.
        998    1    1    2    0    0  0.33293321306E+01 -0.28366098944E+02  0.62740115329E+02  0.68935129602E+02  0.10000000000E+00 0.  1.
</event>
<event>
 5    1  0.2022058E-009  0.3881407E+03  0.7957747E-01  0.3416460E+00
         13   -1    0    0    0    0  0.00000000000E+00  0.00000000000E+00  0.14999999963E+04  0.15000000000E+04  0.10566000000E+00 0. -1.
        994   -1    0    0    0    0 -0.00000000000E+00 -0.00000000000E+00  0.11368683772E-12  0.17120000000E+03  0.17120000000E+03 0.  0.
         13    1    1    2    0    0  0.41004515109E+02 -0.21803114801E+03  0.12301957009E+04  0.12500401695E+04  0.10566000000E+00 0. -1.
        994    1    1    2    0    0 -0.43265454523E+02  0.22689171592E+03  0.19874630954E+03  0.34951578772E+03  0.17120000000E+03 0.  0.
        998    1    1    2    0    0  0.22609394143E+01 -0.88605679111E+01  0.71057985864E+02  0.71644042780E+02  0.10000000000E+00 0. -1.
</event>
<event>
 5    1  0.2022058E-009  0.3882737E+03  0.7957747E-01  0.3415906E+00
         13   -1    0    0    0    0  0.00000000000E+00  0.00000000000E+00  0.14999999963E+04  0.15000000000E+04  0.10566000000E+00 0. -1.
        994   -1    0    0    0    0 -0.00000000000E+00 -0.00000000000E+00  0.11368683772E-12  0.17120000000E+03  0.17120000000E+03 0.  0.
         13    1    1    2    0    0  0.21796050529E+03  0.57001153495E+02  0.12900024268E+04  0.13095274666E+04  0.10566000000E+00 0. -1.
        994    1    1    2    0    0 -0.22037929713E+03 -0.57352191733E+02  0.19210441249E+03  0.34361294183E+03  0.17120000000E+03 0.  0.
        998    1    1    2    0    0  0.24187918413E+01  0.35103823800E+00  0.17893156976E+02  0.18059591590E+02  0.10000000000E+00 0.  1.
</event>
<event>
 5    1  0.2022058E-009  0.3882922E+03  0.7957747E-01  0.3415829E+00
         13   -1    0    0    0    0  0.00000000000E+00  0.00000000000E+00  0.14999999963E+04  0.15000000000E+04  0.10566000000E+00 0. -1.
        994   -1    0    0    0    0 -0.00000000000E+00 -0.00000000000E+00  0.11368683772E-12  0.17120000000E+03  0.17120000000E+03 0.  0.
         13    1    1    2    0    0  0.19944769023E+03 -0.99989687681E+02  0.13129032982E+04  0.13317253472E+04  0.10566000000E+00 0. -1.
        994    1    1    2    0    0 -0.19982512631E+03  0.10033362938E+03  0.18414048551E+03  0.33647299548E+03  0.17120000000E+03 0.  0.
        998    1    1    2    0    0  0.37743607624E+00 -0.34394169664E+00  0.29562126044E+01  0.30016573497E+01  0.10000000000E+00 0. -1.
</event>
<event>
 5    1  0.2022058E-009  0.3882350E+03  0.7957747E-01  0.3416067E+00
         13   -1    0    0    0    0  0.00000000000E+00  0.00000000000E+00  0.14999999963E+04  0.15000000000E+04  0.10566000000E+00 0. -1.
        994   -1    0    0    0    0 -0.00000000000E+00 -0.00000000000E+00  0.11368683772E-12  0.17120000000E+03  0.17120000000E+03 0.  0.
         13    1    1    2    0    0  0.18524368977E+03 -0.14421372899E+03  0.12766123205E+04  0.12980184329E+04  0.10566000000E+00 0. -1.
        994    1    1    2    0    0 -0.18679121380E+03  0.14483920126E+03  0.20966659938E+03  0.35935897745E+03  0.17120000000E+03 0.  0.
        998    1    1    2    0    0  0.15475240345E+01 -0.62547227188E+00  0.13721076433E+02  0.13822589652E+02  0.10000000000E+00 0.  1.
</event>
<event>
 5    1  0.2022058E-009  0.3800137E+03  0.7957747E-01  0.3451099E+00
         13   -1    0    0    0    0  0.00000000000E+00  0.00000000000E+00  0.14999999963E+04  0.15000000000E+04  0.10566000000E+00 0.  1.
        994   -1    0    0    0    0 -0.00000000000E+00 -0.00000000000E+00  0.11368683772E-12  0.17120000000E+03  0.17120000000E+03 0.  0.
         13    1    1    2    0    0 -0.11067374191E+03 -0.89416273946E+02  0.50579337980E+03  0.52542449639E+03  0.10566000000E+00 0.  1.
        994    1    1    2    0    0  0.27349795704E+03  0.80206083809E+02  0.35621902725E+03  0.48727362309E+03  0.17120000000E+03 0.  0.
        998    1    1    2    0    0 -0.16282421513E+03  0.92101901373E+01  0.63798758922E+03  0.65850188051E+03  0.10000000000E+00 0.  1.
</event>
<event>
 5    1  0.2022058E-009  0.3882977E+03  0.7957747E-01  0.3415806E+00
         13   -1    0    0    0    0  0.00000000000E+00  0.00000000000E+00  0.14999999963E+04  0.15000000000E+04  0.10566000000E+00 0.  1.
        994   -1    0    0    0    0 -0.00000000000E+00 -0.00000000000E+00  0.11368683772E-12  0.17120000000E+03  0.17120000000E+03 0.  0.
         13    1    1    2    0    0  0.33184682099E+03 -0.52576619576E+02  0.64837892676E+03  0.73026149929E+03  0.10566000000E+00 0.  1.
        994    1    1    2    0    0 -0.34389388027E+03  0.54178307227E+02  0.82756763868E+03  0.91398901878E+03  0.17120000000E+03 0.  0.
        998    1    1    2    0    0  0.12047059283E+02 -0.16016876515E+01  0.24053430839E+02  0.26949481921E+02  0.10000000000E+00 0. -1.
</event>
<event>
 5    1  0.2022058E-009  0.3838577E+03  0.7957747E-01  0.3434531E+00
         13   -1    0    0    0    0  0.00000000000E+00  0.00000000000E+00  0.14999999963E+04  0.15000000000E+04  0.10566000000E+00 0.  1.
        994   -1    0    0    0    0 -0.00000000000E+00 -0.00000000000E+00  0.11368683772E-12  0.17120000000E+03  0.17120000000E+03 0.  0.
         13    1    1    2    0    0 -0.92829179286E+02 -0.16522400267E+03  0.79935134708E+03  0.82151008200E+03  0.10566000000E+00 0.  1.
        994    1    1    2    0    0  0.12441744252E+03  0.20508552896E+03  0.22357319529E+03  0.36991105397E+03  0.17120000000E+03 0.  0.
        998    1    1    2    0    0 -0.31588263234E+02 -0.39861526290E+02  0.47707545391E+03  0.47977886404E+03  0.10000000000E+00 0. -1.
</event>
<event>
 5    1  0.2022058E-009  0.3874766E+03  0.7957747E-01  0.3419236E+00
         13   -1    0    0    0    0  0.00000000000E+00  0.00000000000E+00  0.14999999963E+04  0.15000000000E+04  0.10566000000E+00 0.  1.
        994   -1    0    0    0    0 -0.00000000000E+00 -0.00000000000E+00  0.11368683772E-12  0.17120000000E+03  0.17120000000E+03 0.  0.
         13    1    1    2    0    0 -0.19002146028E+03 -0.88880792134E+01  0.10721660076E+04  0.10889109754E+04  0.10566000000E+00 0.  1.
        994    1    1    2    0    0  0.21921965410E+03  0.34743531907E+01  0.17701161684E+03  0.32971484706E+03  0.17120000000E+03 0.  0.
        998    1    1    2    0    0 -0.29198193812E+02  0.54137260227E+01  0.25082237184E+03  0.25257417755E+03  0.10000000000E+00 0. -1.
</event>
<event>
 5    1  0.2022058E-009  0.3875469E+03  0.7957747E-01  0.3418942E+00
         13   -1    0    0    0    0  0.00000000000E+00  0.00000000000E+00  0.14999999963E+04  0.15000000000E+04  0.10566000000E+00 0.  1.
        994   -1    0    0    0    0 -0.00000000000E+00 -0.00000000000E+00  0.11368683772E-12  0.17120000000E+03  0.17120000000E+03 0.  0.
         13    1    1    2    0    0 -0.19487703838E+03 -0.11156636022E+03  0.98289354997E+03  0.10082181582E+04  0.10566000000E+00 0.  1.
        994    1    1    2    0    0  0.22820313315E+03  0.13123947967E+03  0.27382444994E+03  0.41664102101E+03  0.17120000000E+03 0.  0.
        998    1    1    2    0    0 -0.33326094774E+02 -0.19673119451E+02  0.24328199637E+03  0.24634082077E+03  0.10000000000E+00 0. -1.
</event>
<event>
 5    1  0.2022058E-009  0.3862312E+03  0.7957747E-01  0.3424467E+00
         13   -1    0    0    0    0  0.00000000000E+00  0.00000000000E+00  0.14999999963E+04  0.15000000000E+04  0.10566000000E+00 0. -1.
        994   -1    0    0    0    0 -0.00000000000E+00 -0.00000000000E+00  0.11368683772E-12  0.17120000000E+03  0.17120000000E+03 0.  0.
         13    1    1    2    0    0 -0.25045388384E+03 -0.11658724344E+03  0.11144424947E+04  0.11481732528E+04  0.10566000000E+00 0. -1.
        994    1    1    2    0    0  0.25328484732E+03  0.12978303842E+03  0.33911663652E+03  0.47466449636E+03  0.17120000000E+03 0.  0.
        998    1    1    2    0    0 -0.28309634835E+01 -0.13195794984E+02  0.46440865036E+02  0.48362250824E+02  0.10000000000E+00 0.  1.
</event>
<event>
 5    1  0.2022058E-009  0.3882864E+03  0.7957747E-01  0.3415853E+00
         13   -1    0    0    0    0  0.00000000000E+00  0.00000000000E+00  0.14999999963E+04  0.15000000000E+04  0.10566000000E+00 0. -1.
        994   -1    0    0    0    0 -0.00000000000E+00 -0.00000000000E+00  0.11368683772E-12  0.17120000000E+03  0.17120000000E+03 0.  0.
         13    1    1    2    0    0  0.71522303669E+02  0.86011588357E+02  0.41293220699E+03  0.42781590900E+03  0.10566000000E+00 0. -1.
        994    1    1    2    0    0 -0.18785126609E+03 -0.23522520607E+03  0.39216275646E+03  0.52318262901E+03  0.17120000000E+03 0.  0.
        998    1    1    2    0    0  0.11632896242E+03  0.14921361772E+03  0.69490503283E+03  0.72020146199E+03  0.10000000000E+00 0. -1.
</event>
<event>
 5    1  0.2064804E-009  0.3882791E+03  0.7957747E-01  0.3415883E+00
         13   -1    0    0    0    0  0.00000000000E+00  0.00000000000E+00  0.14999999963E+04  0.15000000000E+04  0.10566000000E+00 0.  1.
        994   -1    0    0    0    0 -0.00000000000E+00 -0.00000000000E+00  0.11368683772E-12  0.17120000000E+03  0.17120000000E+03 0.  0.
         13    1    1    2    0    0  0.17754759949E+03  0.20699834335E+03  0.12009250556E+04  0.12315000872E+04  0.10566000000E+00 0.  1.
        994    1    1    2    0    0 -0.17764243618E+03 -0.20708105526E+03  0.29866788750E+03  0.43926227427E+03  0.17120000000E+03 0.  0.
        998    1    1    2    0    0  0.94836696430E-01  0.82711902708E-01  0.40705313801E+00  0.43763856664E+00  0.10000000000E+00 0.  0.
</event>
<event>
 5    1  0.2022058E-009  0.3882609E+03  0.7957747E-01  0.3415959E+00
         13   -1    0    0    0    0  0.00000000000E+00  0.00000000000E+00  0.14999999963E+04  0.15000000000E+04  0.10566000000E+00 0.  1.
        994   -1    0    0    0    0 -0.00000000000E+00 -0.00000000000E+00  0.11368683772E-12  0.17120000000E+03  0.17120000000E+03 0.  0.
         13    1    1    2    0    0 -0.20203065275E+03 -0.15708385122E+03  0.12403491481E+04  0.12664745324E+04  0.10566000000E+00 0.  1.
        994    1    1    2    0    0  0.20266255605E+03  0.15787935087E+03  0.25636913269E+03  0.40128864082E+03  0.17120000000E+03 0.  0.
        998    1    1    2    0    0 -0.63190330232E+00 -0.79549964903E+00  0.32817155338E+01  0.34368267806E+01  0.10000000000E+00 0.  1.
</event>
<event>
 5    1  0.2022058E-009  0.3881883E+03  0.7957747E-01  0.3416262E+00
         13   -1    0    0    0    0  0.00000000000E+00  0.00000000000E+00  0.14999999963E+04  0.15000000000E+04  0.10566000000E+00 0.  1.
        994   -1    0    0    0    0 -0.00000000000E+00 -0.00000000000E+00  0.11368683772E-12  0.17120000000E+03  0.17120000000E+03 0.  0.
         13    1    1    2    0    0  0.68258665524E+01  0.20807657063E+03  0.11959851809E+04  0.12139699403E+04  0.10566000000E+00 0.  1.
        994    1    1    2    0    0 -0.71683856823E+01 -0.22449521853E+03  0.18619532315E+03  0.33827152889E+03  0.17120000000E+03 0.  0.
        998    1    1    2    0    0  0.34251912990E+00  0.16418647898E+02  0.11781949218E+03  0.11895853083E+03  0.10000000000E+00 0. -1.
</event>
<event>
 5    1  0.2022058E-009  0.3836020E+03  0.7957747E-01  0.3435623E+00
         13   -1    0    0    0    0  0.00000000000E+00  0.00000000000E+00  0.14999999963E+04  0.15000000000E+04  0.10566000000E+00 0.  1.
        994   -1    0    0    0    0 -0.00000000000E+00 -0.00000000000E+00  0.11368683772E-12  0.17120000000E+03  0.17120000000E+03 0.  0.
         13    1    1    2    0    0  0.12620805403E+03  0.13216607399E+03  0.71515475183E+03  0.73813459087E+03  0.10566000000E+00 0.  1.
        994    1    1    2    0    0 -0.14340313444E+03 -0.22831732255E+03  0.29899449697E+03  0.43749332333E+03  0.17120000000E+03 0.  0.
        998    1    1    2    0    0  0.17195080401E+02  0.96151248561E+02  0.48585074749E+03  0.49557208580E+03  0.10000000000E+00 0.  1.
</event>
<event>
 5    1  0.2022058E-009  0.3882985E+03  0.7957747E-01  0.3415802E+00
         13   -1    0    0    0    0  0.00000000000E+00  0.00000000000E+00  0.14999999963E+04  0.15000000000E+04  0.10566000000E+00 0. -1.
        994   -1    0    0    0    0 -0.00000000000E+00 -0.00000000000E+00  0.11368683772E-12  0.17120000000E+03  0.17120000000E+03 0.  0.
         13    1    1    2    0    0 -0.36492747996E+01 -0.33221145431E+03  0.92432718024E+03  0.98222121483E+03  0.10566000000E+00 0. -1.
        994    1    1    2    0    0  0.37208553977E+01  0.33458985088E+03  0.56939206283E+03  0.68226166116E+03  0.17120000000E+03 0.  0.
        998    1    1    2    0    0 -0.71580598061E-01 -0.23783965710E+01  0.62807532133E+01  0.67171240094E+01  0.10000000000E+00 0. -1.
</event>
<event>
 5    1  0.2022058E-009  0.3881347E+03  0.7957747E-01  0.3416485E+00
         13   -1    0    0    0    0  0.00000000000E+00  0.00000000000E+00  0.14999999963E+04  0.15000000000E+04  0.10566000000E+00 0. -1.
        994   -1    0    0    0    0 -0.00000000000E+00 -0.00000000000E+00  0.11368683772E-12  0.17120000000E+03  0.17120000000E+03 0.  0.
         13    1    1    2    0    0  0.18789072687E+03  0.16134013227E+03  0.12425370233E+04  0.12669774382E+04  0.10566000000E+00 0. -1.
        994    1    1    2    0    0 -0.19121273502E+03 -0.16188634413E+03  0.24124117857E+03  0.38765480093E+03  0.17120000000E+03 0.  0.
        998    1    1    2    0    0  0.33220081550E+01  0.54621185681E+00  0.16221794432E+02  0.16567760868E+02  0.10000000000E+00 0. -1.
</event>
<event>
 5    1  0.2527771E-009  0.3882763E+03  0.7957747E-01  0.3415895E+00
         13   -1    0    0    0    0  0.00000000000E+00  0.00000000000E+00  0.14999999963E+04  0.15000000000E+04  0.10566000000E+00 0.  1.
        994   -1    0    0    0    0 -0.00000000000E+00 -0.00000000000E+00  0.11368683772E-12  0.17120000000E+03  0.17120000000E+03 0.  0.
         13    1    1    2    0    0  0.17688122895E+03  0.15832237532E+03  0.12857895418E+04  0.13075196750E+04  0.10566000000E+00 0.  1.
        994    1    1    2    0    0 -0.17694483455E+03 -0.15854402468E+03  0.21216655696E+03  0.36162103109E+03  0.17120000000E+03 0.  0.
        998    1    1    2    0    0  0.63605599805E-01  0.22164936008E+00  0.20438975525E+01  0.20592938877E+01  0.10000000000E+00 0.  1.
</event>
<event>
 5    1  0.2022058E-009  0.3878556E+03  0.7957747E-01  0.3417651E+00
         13   -1    0    0    0    0  0.00000000000E+00  0.00000000000E+00  0.14999999963E+04  0.15000000000E+04  0.10566000000E+00 0.  1.
        994   -1    0    0    0    0 -0.00000000000E+00 -0.00000000000E+00  0.11368683772E-12  0.17120000000E+03  0.17120000000E+03 0.  0.
         13    1    1    2    0    0  0.47411670623E+00 -0.24215536582E+02  0.13381498310E+03  0.13598925643E+03  0.10566000000E+00 0.  1.
        994    1    1    2    0    0  0.29471077832E+02  0.17929372731E+03  0.11633981462E+03  0.27542544826E+03  0.17120000000E+03 0.  0.
        998    1    1    2    0    0 -0.29945194538E+02 -0.15507819073E+03  0.12498451986E+04  0.12597852953E+04  0.10000000000E+00 0.  1.
</event>
<event>
 5    1  0.2022058E-009  0.3882299E+03  0.7957747E-01  0.3416088E+00
         13   -1    0    0    0    0  0.00000000000E+00  0.00000000000E+00  0.14999999963E+04  0.15000000000E+04  0.10566000000E+00 0. -1.
        994   -1    0    0    0    0 -0.00000000000E+00 -0.00000000000E+00  0.11368683772E-12  0.17120000000E+03  0.17120000000E+03 0.  0.
         13    1    1    2    0    0  0.80763553509E+02 -0.20797778104E+03  0.12810843976E+04  0.13003671611E+04  0.10566000000E+00 0. -1.
        994    1    1    2    0    0 -0.82627678049E+02  0.21110305723E+03  0.19016749031E+03  0.34185515694E+03  0.17120000000E+03 0.  0.
        998    1    1    2    0    0  0.18641245404E+01 -0.31252761972E+01  0.28748108417E+02  0.28977681915E+02  0.10000000000E+00 0. -1.
</event>
<event>
 5    1  0.2022058E-009  0.3882810E+03  0.7957747E-01  0.3415875E+00
         13   -1    0    0    0    0  0.00000000000E+00  0.00000000000E+00  0.14999999963E+04  0.15000000000E+04  0.10566000000E+00 0. -1.
        994   -1    0    0    0    0 -0.00000000000E+00 -0.00000000000E+00  0.11368683772E-12  0.17120000000E+03  0.17120000000E+03 0.  0.
         13    1    1    2    0    0  0.88802750736E+02 -0.20616545532E+03  0.12954323726E+04  0.13147376798E+04  0.10566000000E+00 0. -1.
        994    1    1    2    0    0 -0.89491620855E+02  0.20805703457E+03  0.18969317671E+03  0.34145193092E+03  0.17120000000E+03 0.  0.
        998    1    1    2    0    0  0.68887011908E+00 -0.18915792566E+01  0.14874446955E+02  0.15010389280E+02  0.10000000000E+00 0. -1.
</event>
<event>
 5    1  0.2022058E-009  0.3882513E+03  0.7957747E-01  0.3415999E+00
         13   -1    0    0    0    0  0.00000000000E+00  0.00000000000E+00  0.14999999963E+04  0.15000000000E+04  0.10566000000E+00 0.  1.
        994   -1    0    0    0    0 -0.00000000000E+00 -0.00000000000E+00  0.11368683772E-12  0.17120000000E+03  0.17120000000E+03 0.  0.
         13    1    1    2    0    0  0.60863305178E+02 -0.23721337835E+03  0.12682901676E+04  0.12917176507E+04  0.10566000000E+00 0.  1.
        994    1    1    2    0    0 -0.60628531311E+02  0.23761696121E+03  0.22886647199E+03  0.37659917826E+03  0.17120000000E+03 0.  0.
        998    1    1    2    0    0 -0.23477386684E+00 -0.40358286058E+00  0.28433566638E+01  0.28831709993E+01  0.10000000000E+00 0. -1.
</event>
<event>
 5    1  0.2022058E-009  0.3882997E+03  0.7957747E-01  0.3415797E+00
         13   -1    0    0    0    0  0.00000000000E+00  0.00000000000E+00  0.14999999963E+04  0.15000000000E+04  0.10566000000E+00 0. -1.
        994   -1    0    0    0    0 -0.00000000000E+00 -0.00000000000E+00  0.11368683772E-12  0.17120000000E+03  0.17120000000E+03 0.  0.
         13    1    1    2    0    0  0.44839286275E+02 -0.24409261676E+03  0.10431353093E+04  0.10722513939E+04  0.10566000000E+00 0. -1.
        994    1    1    2    0    0 -0.51152566795E+02  0.27579944659E+03  0.32133652183E+03  0.45961779784E+03  0.17120000000E+03 0.  0.
        998    1    1    2    0    0  0.63132805201E+01 -0.31706829827E+02  0.13552816518E+03  0.13933080824E+03  0.10000000000E+00 0. -1.
</event>
<event>
 5    1  0.2022058E-009  0.3877747E+03  0.7957747E-01  0.3417989E+00
         13   -1    0    0    0    0  0.00000000000E+00  0.00000000000E+00  0.14999999963E+04  0.15000000000E+04  0.10566000000E+00 0. -1.
        994   -1    0    0    0    0 -0.00000000000E+00 -0.00000000000E+00  0.11368683772E-12  0.17120000000E+03  0.17120000000E+03 0.  0.
         13    1    1    2    0    0  0.31508410402E+03 -0.59989767949E+02  0.98731527331E+03  0.10381080025E+04  0.10566000000E+00 0. -1.
        994    1    1    2    0    0 -0.31854568731E+03  0.57661862705E+02  0.50016863719E+03  0.61989866183E+03  0.17120000000E+03 0.  0.
        998    1    1    2    0    0  0.34615832862E+01  0.23279052436E+01  0.12516085781E+02  0.13193335626E+02  0.10000000000E+00 0. -1.
</event>
<event>
 5    1  0.2022058E-009  0.3879801E+03  0.7957747E-01  0.3417131E+00
         13   -1    0    0    0    0  0.00000000000E+00  0.00000000000E+00  0.14999999963E+04  0.15000000000E+04  0.10566000000E+00 0. -1.
        994   -1    0    0    0    0 -0.00000000000E+00 -0.00000000000E+00  0.11368683772E-12  0.17120000000E+03  0.17120000000E+03 0.  0.
         13    1    1    2    0    0  0.50123502895E+02  0.40725372586E+02  0.35313477514E+03  0.35899178555E+03  0.10566000000E+00 0. -1.
        994    1    1    2    0    0 -0.15972704158E+03 -0.13446423673E+03  0.15790802179E+03  0.31279025259E+03  0.17120000000E+03 0.  0.
        998    1    1    2    0    0  0.10960353869E+03  0.93738864139E+02  0.98895719935E+03  0.99941796186E+03  0.10000000000E+00 0. -1.
</event>
<event>
 5    1  0.2022058E-009  0.3866300E+03  0.7957747E-01  0.3422788E+00
         13   -1    0    0    0    0  0.00000000000E+00  0.00000000000E+00  0.14999999963E+04  0.15000000000E+04  0.10566000000E+00 0. -1.
        994   -1    0    0    0    0 -0.00000000000E+00 -0.00000000000E+00  0.11368683772E-12  0.17120000000E+03  0.17120000000E+03 0.  0.
         13    1    1    2    0    0 -0.22472624122E+03  0.18125478909E+03  0.11368178743E+04  0.11729066768E+04  0.10566000000E+00 0. -1.
        994    1    1    2    0    0  0.22325352571E+03 -0.18394546910E+03  0.35207191749E+03  0.48676703610E+03  0.17120000000E+03 0.  0.
        998    1    1    2    0    0  0.14727155106E+01  0.26906800080E+01  0.11110204528E+02  0.11526287109E+02  0.10000000000E+00 0. -1.
</event>
<event>
 5    1  0.2022058E-009  0.3883009E+03  0.7957747E-01  0.3415792E+00
         13   -1    0    0    0    0  0.00000000000E+00  0.00000000000E+00  0.14999999963E+04  0.15000000000E+04  0.10566000000E+00 0.  1.
        994   -1    0    0    0    0 -0.00000000000E+00 -0.00000000000E+00  0.11368683772E-12  0.17120000000E+03  0.17120000000E+03 0.  0.
         13    1    1    2    0    0 -0.11747574559E+03  0.15391472831E+03  0.11678538935E+04  0.11837960222E+04  0.10566000000E+00 0.  1.
        994    1    1    2    0    0  0.13308114816E+03 -0.17448384062E+03  0.17636665815E+03  0.32949937897E+03  0.17120000000E+03 0.  0.
        998    1    1    2    0    0 -0.15605402568E+02  0.20569112310E+02  0.15577944462E+03  0.15790459885E+03  0.10000000000E+00 0.  0.
</event>
<event>
 5    1  0.2022058E-009  0.3882561E+03  0.7957747E-01  0.3415979E+00
         13   -1    0    0    0    0  0.00000000000E+00  0.00000000000E+00  0.14999999963E+04  0.15000000000E+04  0.10566000000E+00 0. -1.
        994   -1    0    0    0    0 -0.00000000000E+00 -0.00000000000E+00  0.11368683772E-12  0.17120000000E+03  0.17120000000E+03 0.  0.
         13    1    1    2    0    0 -0.18776597761E+03  0.12840365801E+03  0.13035777015E+04  0.13232756315E+04  0.10566000000E+00 0. -1.
        994    1    1    2    0    0  0.18792975895E+03 -0.12895999102E+03  0.19252282935E+03  0.34398074569E+03  0.17120000000E+03 0.  0.
        998    1    1    2    0    0 -0.16378134901E+00  0.55633301244E+00  0.38994653978E+01  0.39436228445E+01  0.10000000000E+00 0.  1.
</event>
<event>
 5    1  0.2022058E-009  0.3822640E+03  0.7957747E-01  0.3441359E+00
         13   -1    0    0    0    0  0.00000000000E+00  0.00000000000E+00  0.14999999963E+04  0.15000000000E+04  0.10566000000E+00 0.  1.
        994   -1    0    0    0    0 -0.00000000000E+00 -0.00000000000E+00  0.11368683772E-12  0.17120000000E+03  0.17120000000E+03 0.  0.
         13    1    1    2    0    0  0.36103115893E+02  0.36358955716E+02  0.21241677279E+03  0.21850927935E+03  0.10566000000E+00 0.  1.
        994    1    1    2    0    0 -0.15289969305E+03 -0.33037253753E+02  0.88952245528E+02  0.24837817588E+03  0.17120000000E+03 0.  0.
        998    1    1    2    0    0  0.11679657716E+03 -0.33217019623E+01  0.11986309780E+04  0.12043125448E+04  0.10000000000E+00 0.  1.
</event>
<event>
 5    1  0.2022058E-009  0.3883004E+03  0.7957747E-01  0.3415794E+00
         13   -1    0    0    0    0  0.00000000000E+00  0.00000000000E+00  0.14999999963E+04  0.15000000000E+04  0.10566000000E+00 0.  1.
        994   -1    0    0    0    0 -0.00000000000E+00 -0.00000000000E+00  0.11368683772E-12  0.17120000000E+03  0.17120000000E+03 0.  0.
         13    1    1    2    0    0 -0.17550410811E+03  0.75820425646E+02  0.11378955360E+04  0.11538443096E+04  0.10566000000E+00 0.  1.
        994    1    1    2    0    0  0.20347913403E+03 -0.88268201221E+02  0.18073804761E+03  0.33342272746E+03  0.17120000000E+03 0.  0.
        998    1    1    2    0    0 -0.27975025923E+02  0.12447775576E+02  0.18136641271E+03  0.18393296293E+03  0.10000000000E+00 0.  1.
</event>
<event>
 5    1  0.2022058E-009  0.3880223E+03  0.7957747E-01  0.3416954E+00
         13   -1    0    0    0    0  0.00000000000E+00  0.00000000000E+00  0.14999999963E+04  0.15000000000E+04  0.10566000000E+00 0. -1.
        994   -1    0    0    0    0 -0.00000000000E+00 -0.00000000000E+00  0.11368683772E-12  0.17120000000E+03  0.17120000000E+03 0.  0.
         13    1    1    2    0    0  0.12066022044E+02  0.10798119014E+03  0.62086483218E+03  0.63030046590E+03  0.10566000000E+00 0. -1.
        994    1    1    2    0    0 -0.32052912560E+02 -0.24149481555E+03  0.22560043029E+03  0.37356676684E+03  0.17120000000E+03 0.  0.
        998    1    1    2    0    0  0.19986890516E+02  0.13351362541E+03  0.65353473381E+03  0.66733276726E+03  0.10000000000E+00 0. -1.
</event>
<event>
 5    1  0.2022058E-009  0.3882442E+03  0.7957747E-01  0.3416029E+00
         13   -1    0    0    0    0  0.00000000000E+00  0.00000000000E+00  0.14999999963E+04  0.15000000000E+04  0.10566000000E+00 0. -1.
        994   -1    0    0    0    0 -0.00000000000E+00 -0.00000000000E+00  0.11368683772E-12  0.17120000000E+03  0.17120000000E+03 0.  0.
         13    1    1    2    0    0  0.17806709531E+02 -0.76665193468E+02  0.34145158875E+03  0.35040523600E+03  0.10566000000E+00 0. -1.
        994    1    1    2    0    0 -0.65785146489E+02  0.27608157420E+03  0.33181422673E+03  0.46899769954E+03  0.17120000000E+03 0.  0.
        998    1    1    2    0    0  0.47978436957E+02 -0.19941638074E+03  0.82673418080E+03  0.85179706445E+03  0.10000000000E+00 0. -1.
</event>
<event>
 5    1  0.2022058E-009  0.3882746E+03  0.7957747E-01  0.3415902E+00
         13   -1    0    0    0    0  0.00000000000E+00  0.00000000000E+00  0.14999999963E+04  0.15000000000E+04  0.10566000000E+00 0. -1.
        994   -1    0    0    0    0 -0.00000000000E+00 -0.00000000000E+00  0.11368683772E-12  0.17120000000E+03  0.17120000000E+03 0.  0.
         13    1    1    2    0    0 -0.12373648985E+03 -0.22971207633E+03  0.12181591983E+04  0.12457889872E+04  0.10566000000E+00 0. -1.
        994    1    1    2    0    0  0.12431537587E+03  0.23145153846E+03  0.27112388426E+03  0.41453796925E+03  0.17120000000E+03 0.  0.
        998    1    1    2    0    0 -0.57888601753E+00 -0.17394621337E+01  0.10716913702E+02  0.10873043586E+02  0.10000000000E+00 0.  1.
</event>
<event>
 5    1  0.2022058E-009  0.3880981E+03  0.7957747E-01  0.3416638E+00
         13   -1    0    0    0    0  0.00000000000E+00  0.00000000000E+00  0.14999999963E+04  0.15000000000E+04  0.10566000000E+00 0. -1.
        994   -1    0    0    0    0 -0.00000000000E+00 -0.00000000000E+00  0.11368683772E-12  0.17120000000E+03  0.17120000000E+03 0.  0.
         13    1    1    2    0    0  0.29015951429E+03  0.84783897302E+02  0.87612090809E+03  0.92680564831E+03  0.10566000000E+00 0. -1.
        994    1    1    2    0    0 -0.31513331946E+03 -0.94641061756E+02  0.53102717734E+03  0.64773856044E+03  0.17120000000E+03 0.  0.
        998    1    1    2    0    0  0.24973805170E+02  0.98571644546E+01  0.92851910842E+02  0.96655791254E+02  0.10000000000E+00 0. -1.
</event>
<event>
 5    1  0.2022058E-009  0.3882997E+03  0.7957747E-01  0.3415797E+00
         13   -1    0    0    0    0  0.00000000000E+00  0.00000000000E+00  0.14999999963E+04  0.15000000000E+04  0.10566000000E+00 0. -1.
        994   -1    0    0    0    0 -0.00000000000E+00 -0.00000000000E+00  0.11368683772E-12  0.17120000000E+03  0.17120000000E+03 0.  0.
         13    1    1    2    0    0 -0.15851678468E+03  0.30127944864E+02  0.89681575116E+03  0.91121554353E+03  0.10566000000E+00 0. -1.
        994    1    1    2    0    0  0.22945425613E+03 -0.42684388541E+02  0.20341777388E+03  0.35377880577E+03  0.17120000000E+03 0.  0.
        998    1    1    2    0    0 -0.70937471448E+02  0.12556443677E+02  0.39976647124E+03  0.40620565070E+03  0.10000000000E+00 0.  1.
</event>
<event>
 5    1  0.2022058E-009  0.3882969E+03  0.7957747E-01  0.3415809E+00
         13   -1    0    0    0    0  0.00000000000E+00  0.00000000000E+00  0.14999999963E+04  0.15000000000E+04  0.10566000000E+00 0.  1.
        994   -1    0    0    0    0 -0.00000000000E+00 -0.00000000000E+00  0.11368683772E-12  0.17120000000E+03  0.17120000000E+03 0.  0.
         13    1    1    2    0    0 -0.12957131200E+03 -0.10461734546E+03  0.98984725193E+03  0.10037584905E+04  0.10566000000E+00 0.  1.
        994    1    1    2    0    0  0.17387678236E+03  0.13901818195E+03  0.18228044436E+03  0.33480560144E+03  0.17120000000E+03 0.  0.
        998    1    1    2    0    0 -0.44305470366E+02 -0.34400836495E+02  0.32787229998E+03  0.33263590809E+03  0.10000000000E+00 0.  1.
</event>
<event>
 5    1  0.2022058E-009  0.3882247E+03  0.7957747E-01  0.3416110E+00
         13   -1    0    0    0    0  0.00000000000E+00  0.00000000000E+00  0.14999999963E+04  0.15000000000E+04  0.10566000000E+00 0.  1.
        994   -1    0    0    0    0 -0.00000000000E+00 -0.00000000000E+00  0.11368683772E-12  0.17120000000E+03  0.17120000000E+03 0.  0.
         13    1    1    2    0    0  0.13895457426E+03  0.21663230378E+03  0.11301430619E+04  0.11590777715E+04  0.10566000000E+00 0.  1.
        994    1    1    2    0    0 -0.14580441590E+03 -0.22929464097E+03  0.29562529379E+03  0.43650740475E+03  0.17120000000E+03 0.  0.
        998    1    1    2    0    0  0.68498416379E+01  0.12662337183E+02  0.74231640583E+02  0.75614823791E+02  0.10000000000E+00 0. -1.
</event>
<event>
 5    1  0.2022058E-009  0.3879553E+03  0.7957747E-01  0.3417234E+00
         13   -1    0    0    0    0  0.00000000000E+00  0.00000000000E+00  0.14999999963E+04  0.15000000000E+04  0.10566000000E+00 0.  1.
        994   -1    0    0    0    0 -0.00000000000E+00 -0.00000000000E+00  0.11368683772E-12  0.17120000000E+03  0.17120000000E+03 0.  0.
         13    1    1    2    0    0 -0.79624773260E+02 -0.20864576768E+03  0.12179299611E+04  0.12382352613E+04  0.10566000000E+00 0.  1.
        994    1    1    2    0    0  0.80989901494E+02  0.21796771269E+03  0.20212727542E+03  0.35246867008E+03  0.17120000000E+03 0.  0.
        998    1    1    2    0    0 -0.13651282344E+01 -0.93219450040E+01  0.79942759752E+02  0.80496068665E+02  0.10000000000E+00 0. -1.
</event>
<event>
 5    1  0.2022058E-009  0.3882839E+03  0.7957747E-01  0.3415863E+00
         13   -1    0    0    0    0  0.00000000000E+00  0.00000000000E+00  0.14999999963E+04  0.15000000000E+04  0.10566000000E+00 0.  1.
        994   -1    0    0    0    0 -0.00000000000E+00 -0.00000000000E+00  0.11368683772E-12  0.17120000000E+03  0.17120000000E+03 0.  0.
         13    1    1    2    0    0  0.21567349555E+03 -0.38089788892E+02  0.13149880287E+04  0.13331014273E+04  0.10566000000E+00 0.  1.
        994    1    1    2    0    0 -0.21686651797E+03  0.38647867284E+02  0.17793717803E+03  0.33090153156E+03  0.17120000000E+03 0.  0.
        998    1    1    2    0    0  0.11930224138E+01 -0.55807839232E+00  0.70747895377E+01  0.71970411264E+01  0.10000000000E+00 0.  1.
</event>
<event>
 5    1  0.2022058E-009  0.3882966E+03  0.7957747E-01  0.3415810E+00
         13   -1    0    0    0    0  0.00000000000E+00  0.00000000000E+00  0.14999999963E+04  0.15000000000E+04  0.10566000000E+00 0.  1.
        994   -1    0    0    0    0 -0.00000000000E+00 -0.00000000000E+00  0.11368683772E-12  0.17120000000E+03  0.17120000000E+03 0.  0.
         13    1    1    2    0    0 -0.37063667220E+02 -0.24765771084E+03  0.12407488707E+04  0.12657668934E+04  0.10566000000E+00 0.  1.
        994    1    1    2    0    0  0.37470094936E+02  0.25031998278E+03  0.24707582289E+03  0.39296310774E+03  0.17120000000E+03 0.  0.
        998    1    1    2    0    0 -0.40642771599E+00 -0.26622719392E+01  0.12175302712E+02  0.12469998857E+02  0.10000000000E+00 0. -1.
</event>
<event>
 5    1  0.2022058E-009  0.3882589E+03  0.7957747E-01  0.3415967E+00
         13   -1    0    0    0    0  0.00000000000E+00  0.00000000000E+00  0.14999999963E+04  0.15000000000E+04  0.10566000000E+00 0. -1.
        994   -1    0    0    0    0 -0.00000000000E+00 -0.00000000000E+00  0.11368683772E-12  0.17120000000E+03  0.17120000000E+03 0.  0.
         13    1    1    2    0    0  0.18243971627E+03 -0.72854755581E+02  0.60543564524E+03  0.63650954210E+03  0.10566000000E+00 0. -1.
        994    1    1    2    0    0 -0.29868195989E+03  0.11987192733E+03  0.48732970384E+03  0.60858842609E+03  0.17120000000E+03 0.  0.
        998    1    1    2    0    0  0.11624224362E+03 -0.47017171752E+02  0.40723464720E+03  0.42610203182E+03  0.10000000000E+00 0.  1.
</event>
<event>
 5    1  0.2022058E-009  0.3881672E+03  0.7957747E-01  0.3416350E+00
         13   -1    0    0    0    0  0.00000000000E+00  0.00000000000E+00  0.14999999963E+04  0.15000000000E+04  0.10566000000E+00 0.  1.
        994   -1    0    0    0    0 -0.00000000000E+00 -0.00000000000E+00  0.11368683772E-12  0.17120000000E+03  0.17120000000E+03 0.  0.
         13    1    1    2    0    0 -0.19364543655E+03 -0.11589223966E+03  0.12489589047E+04  0.12691839595E+04  0.10566000000E+00 0.  1.
        994    1    1    2    0    0  0.19892939891E+03  0.11925461376E+03  0.20063955717E+03  0.35122676514E+03  0.17120000000E+03 0.  0.
        998    1    1    2    0    0 -0.52839623590E+01 -0.33623740958E+01  0.50401534440E+02  0.50789275361E+02  0.10000000000E+00 0.  1.
</event>
<event>
 5    1  0.2022058E-009  0.3882206E+03  0.7957747E-01  0.3416127E+00
         13   -1    0    0    0    0  0.00000000000E+00  0.00000000000E+00  0.14999999963E+04  0.15000000000E+04  0.10566000000E+00 0. -1.
        994   -1    0    0    0    0 -0.00000000000E+00 -0.00000000000E+00  0.11368683772E-12  0.17120000000E+03  0.17120000000E+03 0.  0.
         13    1    1    2    0    0  0.15720836490E+03  0.17366907071E+03  0.11466921374E+04  0.11703752754E+04  0.10566000000E+00 0. -1.
        994    1    1    2    0    0 -0.17390281906E+03 -0.18782060022E+03  0.25413393733E+03  0.39926465715E+03  0.17120000000E+03 0.  0.
        998    1    1    2    0    0  0.16694454153E+02  0.14151529510E+02  0.99173921501E+02  0.10156006741E+03  0.10000000000E+00 0. -1.
</event>
<event>
 5    1  0.2022058E-009  0.3743442E+03  0.7957747E-01  0.3476161E+00
         13   -1    0    0    0    0  0.00000000000E+00  0.00000000000E+00  0.14999999963E+04  0.15000000000E+04  0.10566000000E+00 0. -1.
        994   -1    0    0    0    0 -0.00000000000E+00 -0.00000000000E+00  0.11368683772E-12  0.17120000000E+03  0.17120000000E+03 0.  0.
         13    1    1    2    0    0  0.28629692110E+02 -0.44941357360E+01  0.94607379242E+01  0.30485623701E+02  0.10566000000E+00 0. -1.
        994    1    1    2    0    0 -0.32562649111E+03  0.53849404265E+02  0.66342701895E+03  0.76051115674E+03  0.17120000000E+03 0.  0.
        998    1    1    2    0    0  0.29699679900E+03 -0.49355268529E+02  0.82711223941E+03  0.88020321956E+03  0.10000000000E+00 0. -1.
</event>
<event>
 5    1  0.2022058E-009  0.3882954E+03  0.7957747E-01  0.3415815E+00
         13   -1    0    0    0    0  0.00000000000E+00  0.00000000000E+00  0.14999999963E+04  0.15000000000E+04  0.10566000000E+00 0.  1.
        994   -1    0    0    0    0 -0.00000000000E+00 -0.00000000000E+00  0.11368683772E-12  0.17120000000E+03  0.17120000000E+03 0.  0.
         13    1    1    2    0    0 -0.10778920096E+03 -0.28284860112E+03  0.10556266186E+04  0.10981663863E+04  0.10566000000E+00 0.  1.
        994    1    1    2    0    0  0.10985308431E+03  0.28827360225E+03  0.42269027010E+03  0.55058684539E+03  0.17120000000E+03 0.  0.
        998    1    1    2    0    0 -0.20638833468E+01 -0.54250011294E+01  0.21683107579E+02  0.22446768275E+02  0.10000000000E+00 0. -1.
</event>
<event>
 5    1  0.2022058E-009  0.3874494E+03  0.7957747E-01  0.3419350E+00
         13   -1    0    0    0    0  0.00000000000E+00  0.00000000000E+00  0.14999999963E+04  0.15000000000E+04  0.10566000000E+00 0.  1.
        994   -1    0    0    0    0 -0.00000000000E+00 -0.00000000000E+00  0.11368683772E-12  0.17120000000E+03  0.17120000000E+03 0.  0.
         13    1    1    2    0    0  0.16358590541E+03  0.12417232654E+03  0.83562695678E+03  0.86049493734E+03  0.10566000000E+00 0.  1.
        994    1    1    2    0    0 -0.23565382621E+03 -0.15274447601E+03  0.32424097326E+03  0.46184981271E+03  0.17120000000E+03 0.  0.
        998    1    1    2    0    0  0.72067920803E+02  0.28572149463E+02  0.34013206625E+03  0.34885524996E+03  0.10000000000E+00 0.  1.
</event>
<event>
 5    1  0.2022058E-009  0.3882190E+03  0.7957747E-01  0.3416134E+00
         13   -1    0    0    0    0  0.00000000000E+00  0.00000000000E+00  0.14999999963E+04  0.15000000000E+04  0.10566000000E+00 0.  1.
        994   -1    0    0    0    0 -0.00000000000E+00 -0.00000000000E+00  0.11368683772E-12  0.17120000000E+03  0.17120000000E+03 0.  0.
         13    1    1    2    0    0  0.25908233853E+03  0.11382693142E+03  0.83765923928E+03  0.88416810662E+03  0.10566000000E+00 0.  1.
        994    1    1    2    0    0 -0.30140200468E+03 -0.12853461665E+03  0.52157051561E+03  0.63930396437E+03  0.17120000000E+03 0.  0.
        998    1    1    2    0    0  0.42319666151E+02  0.14707685225E+02  0.14077024139E+03  0.14772792901E+03  0.10000000000E+00 0. -1.
</event>
<event>
 5    1  0.2022058E-009  0.3863121E+03  0.7957747E-01  0.3424127E+00
         13   -1    0    0    0    0  0.00000000000E+00  0.00000000000E+00  0.14999999963E+04  0.15000000000E+04  0.10566000000E+00 0. -1.
        994   -1    0    0    0    0 -0.00000000000E+00 -0.00000000000E+00  0.11368683772E-12  0.17120000000E+03  0.17120000000E+03 0.  0.
         13    1    1    2    0    0  0.21810369036E+03 -0.61380942323E+02  0.12940249423E+04  0.13137113086E+04  0.10566000000E+00 0. -1.
        994    1    1    2    0    0 -0.21969010805E+03  0.58178730768E+02  0.19246182317E+03  0.34351055539E+03  0.17120000000E+03 0.  0.
        998    1    1    2    0    0  0.15864176929E+01  0.32022115543E+01  0.13513230792E+02  0.13978136013E+02  0.10000000000E+00 0. -1.
</event>
<event>
 5    1  0.2022058E-009  0.3881683E+03  0.7957747E-01  0.3416345E+00
         13   -1    0    0    0    0  0.00000000000E+00  0.00000000000E+00  0.14999999963E+04  0.15000000000E+04  0.10566000000E+00 0. -1.
        994   -1    0    0    0    0 -0.00000000000E+00 -0.00000000000E+00  0.11368683772E-12  0.17120000000E+03  0.17120000000E+03 0.  0.
         13    1    1    2    0    0  0.20000576876E+03  0.27322692766E+03  0.87690280191E+03  0.94000733864E+03  0.10566000000E+00 0. -1.
        994    1    1    2    0    0 -0.20135313758E+03 -0.27387893325E+03  0.61729945257E+03  0.72520397836E+03  0.17120000000E+03 0.  0.
        998    1    1    2    0    0  0.13473688151E+01  0.65200559168E+00  0.57977418060E+01  0.59886829992E+01  0.10000000000E+00 0. -1.
</event>
<event>
 5    1  0.2022058E-009  0.3882998E+03  0.7957747E-01  0.3415797E+00
         13   -1    0    0    0    0  0.00000000000E+00  0.00000000000E+00  0.14999999963E+04  0.15000000000E+04  0.10566000000E+00 0. -1.
        994   -1    0    0    0    0 -0.00000000000E+00 -0.00000000000E+00  0.11368683772E-12  0.17120000000E+03  0.17120000000E+03 0.  0.
         13    1    1    2    0    0  0.23294940196E+03  0.11582255362E+03  0.11923441405E+04  0.12203953656E+04  0.10566000000E+00 0. -1.
        994    1    1    2    0    0 -0.23824543676E+03 -0.11840361778E+03  0.27984924306E+03  0.42238056736E+03  0.17120000000E+03 0.  0.
        998    1    1    2    0    0  0.52960348082E+01  0.25810641644E+01  0.27806612730E+02  0.28424067064E+02  0.10000000000E+00 0. -1.
</event>
<event>
 5    1  0.2022058E-009  0.3882827E+03  0.7957747E-01  0.3415868E+00
         13   -1    0    0    0    0  0.00000000000E+00  0.00000000000E+00  0.14999999963E+04  0.15000000000E+04  0.10566000000E+00 0.  1.
        994   -1    0    0    0    0 -0.00000000000E+00 -0.00000000000E+00  0.11368683772E-12  0.17120000000E+03  0.17120000000E+03 0.  0.
         13    1    1    2    0    0  0.88927426643E+02 -0.26346114404E+03  0.11147353429E+04  0.11488928398E+04  0.10566000000E+00 0.  1.
        994    1    1    2    0    0 -0.91804977502E+02  0.27239898236E+03  0.34354382421E+03  0.47954265570E+03  0.17120000000E+03 0.  0.
        998    1    1    2    0    0  0.28775508591E+01 -0.89378383130E+01  0.41720829195E+02  0.42764504456E+02  0.10000000000E+00 0.  1.
</event>
<event>
 5    1  0.2022058E-009  0.3882206E+03  0.7957747E-01  0.3416127E+00
         13   -1    0    0    0    0  0.00000000000E+00  0.00000000000E+00  0.14999999963E+04  0.15000000000E+04  0.10566000000E+00 0.  1.
        994   -1    0    0    0    0 -0.00000000000E+00 -0.00000000000E+00  0.11368683772E-12  0.17120000000E+03  0.17120000000E+03 0.  0.
         13    1    1    2    0    0  0.18220782339E+03  0.19974597678E+03  0.11492133153E+04  0.11805885826E+04  0.10566000000E+00 0.  1.
        994    1    1    2    0    0 -0.18779654420E+03 -0.20712218509E+03  0.31869653214E+03  0.45721336504E+03  0.17120000000E+03 0.  0.
        998    1    1    2    0    0  0.55887208104E+01  0.73762083065E+01  0.32090148858E+02  0.33398052384E+02  0.10000000000E+00 0.  1.
</event>
<event>
 5    1  0.2022058E-009  0.3882953E+03  0.7957747E-01  0.3415816E+00
         13   -1    0    0    0    0  0.00000000000E+00  0.00000000000E+00  0.14999999963E+04  0.15000000000E+04  0.10566000000E+00 0. -1.
        994   -1    0    0    0    0 -0.00000000000E+00 -0.00000000000E+00  0.11368683772E-12  0.17120000000E+03  0.17120000000E+03 0.  0.
         13    1    1    2    0    0 -0.26330693337E+03  0.79148556475E+01  0.11574143804E+04  0.11870135826E+04  0.10566000000E+00 0. -1.
        994    1    1    2    0    0  0.27324270527E+03 -0.86706788782E+01  0.30019254891E+03  0.44063790472E+03  0.17120000000E+03 0.  0.
        998    1    1    2    0    0 -0.99357718923E+01  0.75582323066E+00  0.42393066917E+02  0.43548512655E+02  0.10000000000E+00 0. -1.
</event>
<event>
 5    1  0.2022058E-009  0.3883009E+03  0.7957747E-01  0.3415792E+00
         13   -1    0    0    0    0  0.00000000000E+00  0.00000000000E+00  0.14999999963E+04  0.15000000000E+04  0.10566000000E+00 0. -1.
        994   -1    0    0    0    0 -0.00000000000E+00 -0.00000000000E+00  0.11368683772E-12  0.17120000000E+03  0.17120000000E+03 0.  0.
         13    1    1    2    0    0  0.83432113427E+02  0.13228151105E+03  0.74334788534E+03  0.75962188325E+03  0.10566000000E+00 0. -1.
        994    1    1    2    0    0 -0.13858822820E+03 -0.22000759346E+03  0.26412018674E+03  0.40826333563E+03  0.17120000000E+03 0.  0.
        998    1    1    2    0    0  0.55156114773E+02  0.87726082413E+02  0.49253192420E+03  0.50331478112E+03  0.10000000000E+00 0. -1.
</event>
<event>
 5    1  0.2022058E-009  0.3882845E+03  0.7957747E-01  0.3415861E+00
         13   -1    0    0    0    0  0.00000000000E+00  0.00000000000E+00  0.14999999963E+04  0.15000000000E+04  0.10566000000E+00 0. -1.
        994   -1    0    0    0    0 -0.00000000000E+00 -0.00000000000E+00  0.11368683772E-12  0.17120000000E+03  0.17120000000E+03 0.  0.
         13    1    1    2    0    0 -0.16834604478E+03  0.26742389151E+03  0.76891187081E+03  0.83131306064E+03  0.10566000000E+00 0. -1.
        994    1    1    2    0    0  0.18208363357E+03 -0.29166103781E+03  0.66145658032E+03  0.76488878815E+03  0.17120000000E+03 0.  0.
        998    1    1    2    0    0 -0.13737588783E+02  0.24237146300E+02  0.69631545144E+02  0.74998151213E+02  0.10000000000E+00 0. -1.
</event>
<event>
 5    1  0.2022058E-009  0.3882975E+03  0.7957747E-01  0.3415806E+00
         13   -1    0    0    0    0  0.00000000000E+00  0.00000000000E+00  0.14999999963E+04  0.15000000000E+04  0.10566000000E+00 0. -1.
        994   -1    0    0    0    0 -0.00000000000E+00 -0.00000000000E+00  0.11368683772E-12  0.17120000000E+03  0.17120000000E+03 0.  0.
         13    1    1    2    0    0  0.22673480709E+03  0.29129943095E+02  0.12692006329E+04  0.12896230007E+04  0.10566000000E+00 0. -1.
        994    1    1    2    0    0 -0.23176422885E+03 -0.29529377515E+02  0.20392670507E+03  0.35423464392E+03  0.17120000000E+03 0.  0.
        998    1    1    2    0    0  0.50294217572E+01  0.39943442050E+00  0.26872658343E+02  0.27342355376E+02  0.10000000000E+00 0. -1.
</event>
<event>
 5    1  0.2022058E-009  0.3835625E+03  0.7957747E-01  0.3435792E+00
         13   -1    0    0    0    0  0.00000000000E+00  0.00000000000E+00  0.14999999963E+04  0.15000000000E+04  0.10566000000E+00 0. -1.
        994   -1    0    0    0    0 -0.00000000000E+00 -0.00000000000E+00  0.11368683772E-12  0.17120000000E+03  0.17120000000E+03 0.  0.
         13    1    1    2    0    0  0.37161841160E+01  0.13817035041E+02  0.74816161045E+02  0.76172105126E+02  0.10566000000E+00 0. -1.
        994    1    1    2    0    0 -0.53690137008E+02  0.89974541219E+02  0.39503957066E+02  0.20456796304E+03  0.17120000000E+03 0.  0.
        998    1    1    2    0    0  0.49973952892E+02 -0.10379157626E+03  0.13856798782E+04  0.13904599318E+04  0.10000000000E+00 0. -1.
</event>
<event>
 5    1  0.2022058E-009  0.3882940E+03  0.7957747E-01  0.3415821E+00
         13   -1    0    0    0    0  0.00000000000E+00  0.00000000000E+00  0.14999999963E+04  0.15000000000E+04  0.10566000000E+00 0. -1.
        994   -1    0    0    0    0 -0.00000000000E+00 -0.00000000000E+00  0.11368683772E-12  0.17120000000E+03  0.17120000000E+03 0.  0.
         13    1    1    2    0    0 -0.16555134090E+03 -0.29004982564E+02  0.88610449596E+03  0.90190338973E+03  0.10566000000E+00 0. -1.
        994    1    1    2    0    0  0.23800065615E+03  0.43798585003E+02  0.22163448834E+03  0.37012689014E+03  0.17120000000E+03 0.  0.
        998    1    1    2    0    0 -0.72449315258E+02 -0.14793602439E+02  0.39226101198E+03  0.39916972013E+03  0.10000000000E+00 0. -1.
</event>
