<event>
 5    1  0.1146201E-008  0.3710521E+03  0.7957747E-01  0.3491070E+00
         13   -1    0    0    0    0  0.00000000000E+00  0.00000000000E+00  0.14999999963E+04  0.15000000000E+04  0.10566000000E+00 0. -1.
        994   -1    0    0    0    0 -0.00000000000E+00 -0.00000000000E+00  0.11368683772E-12  0.17120000000E+03  0.17120000000E+03 0.  0.
         13    1    1    2    0    0  0.30429490787E+02  0.92497435021E+02  0.30225831149E+03  0.31755602249E+03  0.10566000000E+00 0. -1.
        994    1    1    2    0    0 -0.41793032236E+02 -0.99483665673E+02  0.53554166089E+02  0.20933500898E+03  0.17120000000E+03 0.  0.
        998    1    1    2    0    0  0.11363541450E+02  0.69862306522E+01  0.11441875187E+04  0.11443089685E+04  0.10000000000E+02 0. -1.
</event>
<event>
 5    1  0.1146201E-008  0.3831883E+03  0.7957747E-01  0.3437392E+00
         13   -1    0    0    0    0  0.00000000000E+00  0.00000000000E+00  0.14999999963E+04  0.15000000000E+04  0.10566000000E+00 0.  1.
        994   -1    0    0    0    0 -0.00000000000E+00 -0.00000000000E+00  0.11368683772E-12  0.17120000000E+03  0.17120000000E+03 0.  0.
         13    1    1    2    0    0 -0.22866850516E+02  0.54414962882E+01  0.10523708331E+03  0.10783022583E+03  0.10566000000E+00 0.  1.
        994    1    1    2    0    0  0.20023170113E+02  0.17497806264E+01  0.38698535710E+01  0.17241927050E+03  0.17120000000E+03 0.  0.
        998    1    1    2    0    0  0.28436804034E+01 -0.71912769146E+01  0.13908930594E+04  0.13909505037E+04  0.10000000000E+02 0.  1.
</event>
<event>
 5    1  0.1146201E-008  0.3059164E+03  0.7957747E-01  0.3854666E+00
         13   -1    0    0    0    0  0.00000000000E+00  0.00000000000E+00  0.14999999963E+04  0.15000000000E+04  0.10566000000E+00 0. -1.
        994   -1    0    0    0    0 -0.00000000000E+00 -0.00000000000E+00  0.11368683772E-12  0.17120000000E+03  0.17120000000E+03 0.  0.
         13    1    1    2    0    0 -0.22025095673E+03  0.11492857605E+03  0.45257879856E+03  0.51628155265E+03  0.10566000000E+00 0. -1.
        994    1    1    2    0    0  0.25344384461E+03 -0.53738684168E+02  0.41356244015E+03  0.51717014651E+03  0.17120000000E+03 0.  0.
        998    1    1    2    0    0 -0.33192887882E+02 -0.61189891884E+02  0.63385875757E+03  0.63774830084E+03  0.10000000000E+02 0. -1.
</event>
<event>
 5    1  0.1146201E-008  0.3823553E+03  0.7957747E-01  0.3440967E+00
         13   -1    0    0    0    0  0.00000000000E+00  0.00000000000E+00  0.14999999963E+04  0.15000000000E+04  0.10566000000E+00 0. -1.
        994   -1    0    0    0    0 -0.00000000000E+00 -0.00000000000E+00  0.11368683772E-12  0.17120000000E+03  0.17120000000E+03 0.  0.
         13    1    1    2    0    0  0.44471948116E+01  0.18053254496E+02  0.56759224499E+02  0.59727031312E+02  0.10566000000E+00 0. -1.
        994    1    1    2    0    0 -0.24836893621E+01 -0.15406443358E+02  0.37571260145E+01  0.17195081624E+03  0.17120000000E+03 0.  0.
        998    1    1    2    0    0 -0.19635054495E+01 -0.26468111381E+01  0.14394836458E+04  0.14395221524E+04  0.10000000000E+02 0. -1.
</event>
<event>
 5    1  0.1146201E-008  0.3758167E+03  0.7957747E-01  0.3469578E+00
         13   -1    0    0    0    0  0.00000000000E+00  0.00000000000E+00  0.14999999963E+04  0.15000000000E+04  0.10566000000E+00 0.  1.
        994   -1    0    0    0    0 -0.00000000000E+00 -0.00000000000E+00  0.11368683772E-12  0.17120000000E+03  0.17120000000E+03 0.  0.
         13    1    1    2    0    0  0.23025681881E+02  0.39760713780E+02  0.18332736531E+03  0.18899743496E+03  0.10566000000E+00 0.  1.
        994    1    1    2    0    0  0.52055604111E+01 -0.15457076105E+02  0.71622149296E+01  0.17212424694E+03  0.17120000000E+03 0.  0.
        998    1    1    2    0    0 -0.28231242292E+02 -0.24303637675E+02  0.13095104160E+04  0.13100783181E+04  0.10000000000E+02 0.  1.
</event>
<event>
 5    1  0.1146201E-008  0.3838403E+03  0.7957747E-01  0.3434605E+00
         13   -1    0    0    0    0  0.00000000000E+00  0.00000000000E+00  0.14999999963E+04  0.15000000000E+04  0.10566000000E+00 0.  1.
        994   -1    0    0    0    0 -0.00000000000E+00 -0.00000000000E+00  0.11368683772E-12  0.17120000000E+03  0.17120000000E+03 0.  0.
         13    1    1    2    0    0  0.47001372256E+01  0.17396560363E+02  0.73885434154E+02  0.76051299441E+02  0.10566000000E+00 0.  1.
        994    1    1    2    0    0  0.61044798462E+01 -0.11844398140E+02  0.27933201319E+01  0.17174049342E+03  0.17120000000E+03 0.  0.
        998    1    1    2    0    0 -0.10804617072E+02 -0.55521622228E+01  0.14233212420E+04  0.14234082071E+04  0.10000000000E+02 0.  1.
</event>
<event>
 5    1  0.1146201E-008  0.3852061E+03  0.7957747E-01  0.3428799E+00
         13   -1    0    0    0    0  0.00000000000E+00  0.00000000000E+00  0.14999999963E+04  0.15000000000E+04  0.10566000000E+00 0.  1.
        994   -1    0    0    0    0 -0.00000000000E+00 -0.00000000000E+00  0.11368683772E-12  0.17120000000E+03  0.17120000000E+03 0.  0.
         13    1    1    2    0    0 -0.16827933675E+02  0.16681657248E+01  0.84512841890E+02  0.86188129908E+02  0.10566000000E+00 0.  1.
        994    1    1    2    0    0  0.24489132713E+02 -0.89897648407E+01  0.37675871173E+01  0.17321711291E+03  0.17120000000E+03 0.  0.
        998    1    1    2    0    0 -0.76611990383E+01  0.73215991158E+01  0.14117195673E+04  0.14117947572E+04  0.10000000000E+02 0.  1.
</event>
<event>
 5    1  0.1146201E-008  0.3715800E+03  0.7957747E-01  0.3488661E+00
         13   -1    0    0    0    0  0.00000000000E+00  0.00000000000E+00  0.14999999963E+04  0.15000000000E+04  0.10566000000E+00 0.  1.
        994   -1    0    0    0    0 -0.00000000000E+00 -0.00000000000E+00  0.11368683772E-12  0.17120000000E+03  0.17120000000E+03 0.  0.
         13    1    1    2    0    0  0.22631756854E+02  0.55708857490E+02  0.13670050546E+03  0.14934092733E+03  0.10566000000E+00 0.  1.
        994    1    1    2    0    0 -0.20942776139E+02 -0.56203568000E+02  0.24532853729E+02  0.18305393151E+03  0.17120000000E+03 0.  0.
        998    1    1    2    0    0 -0.16889807151E+01  0.49471051007E+00  0.13387666371E+04  0.13388051412E+04  0.10000000000E+02 0.  1.
</event>
<event>
 5    1  0.1146201E-008  0.4259657E+03  0.7957747E-01  0.3272575E+00
         13   -1    0    0    0    0  0.00000000000E+00  0.00000000000E+00  0.14999999963E+04  0.15000000000E+04  0.10566000000E+00 0. -1.
        994   -1    0    0    0    0 -0.00000000000E+00 -0.00000000000E+00  0.11368683772E-12  0.17120000000E+03  0.17120000000E+03 0.  0.
         13    1    1    2    0    0 -0.74108138050E+02  0.10926708990E+03  0.17773332624E+03  0.22140564464E+03  0.10566000000E+00 0. -1.
        994    1    1    2    0    0  0.74481731746E+02 -0.77725074580E+02  0.97373630761E+02  0.22445440417E+03  0.17120000000E+03 0.  0.
        998    1    1    2    0    0 -0.37359369589E+00 -0.31542015321E+02  0.12248930393E+04  0.12253399512E+04  0.10000000000E+02 0. -1.
</event>
<event>
 5    1  0.1146201E-008  0.3756412E+03  0.7957747E-01  0.3470360E+00
         13   -1    0    0    0    0  0.00000000000E+00  0.00000000000E+00  0.14999999963E+04  0.15000000000E+04  0.10566000000E+00 0. -1.
        994   -1    0    0    0    0 -0.00000000000E+00 -0.00000000000E+00  0.11368683772E-12  0.17120000000E+03  0.17120000000E+03 0.  0.
         13    1    1    2    0    0 -0.11529694985E+03  0.72118765167E+02  0.76478338583E+03  0.77678062626E+03  0.10566000000E+00 0. -1.
        994    1    1    2    0    0  0.10741577433E+03 -0.69122702717E+02  0.63870890171E+02  0.22294624289E+03  0.17120000000E+03 0.  0.
        998    1    1    2    0    0  0.78811755244E+01 -0.29960624494E+01  0.67134572028E+03  0.67147313085E+03  0.10000000000E+02 0.  0.
</event>
<event>
 5    1  0.1146201E-008  0.3791346E+03  0.7957747E-01  0.3454935E+00
         13   -1    0    0    0    0  0.00000000000E+00  0.00000000000E+00  0.14999999963E+04  0.15000000000E+04  0.10566000000E+00 0. -1.
        994   -1    0    0    0    0 -0.00000000000E+00 -0.00000000000E+00  0.11368683772E-12  0.17120000000E+03  0.17120000000E+03 0.  0.
         13    1    1    2    0    0 -0.69795612973E+01 -0.11458965815E+02  0.18394317848E+02  0.22768053640E+02  0.10566000000E+00 0. -1.
        994    1    1    2    0    0 -0.22709427035E+02  0.81859189689E+01  0.65266572683E+01  0.17301665989E+03  0.17120000000E+03 0.  0.
        998    1    1    2    0    0  0.29688988332E+02  0.32730468461E+01  0.14750790212E+04  0.14754152865E+04  0.10000000000E+02 0. -1.
</event>
<event>
 5    1  0.1146201E-008  0.3756751E+03  0.7957747E-01  0.3470209E+00
         13   -1    0    0    0    0  0.00000000000E+00  0.00000000000E+00  0.14999999963E+04  0.15000000000E+04  0.10566000000E+00 0.  1.
        994   -1    0    0    0    0 -0.00000000000E+00 -0.00000000000E+00  0.11368683772E-12  0.17120000000E+03  0.17120000000E+03 0.  0.
         13    1    1    2    0    0  0.10455490331E+02  0.66046827959E+02  0.22769304623E+03  0.23730915538E+03  0.10566000000E+00 0.  1.
        994    1    1    2    0    0 -0.56951046228E+02 -0.10118860079E+03  0.53524467492E+02  0.21367466676E+03  0.17120000000E+03 0.  0.
        998    1    1    2    0    0  0.46495555897E+02  0.35141772830E+02  0.12187824826E+04  0.12202161779E+04  0.10000000000E+02 0.  1.
</event>
<event>
 5    1  0.1146201E-008  0.3721205E+03  0.7957747E-01  0.3486202E+00
         13   -1    0    0    0    0  0.00000000000E+00  0.00000000000E+00  0.14999999963E+04  0.15000000000E+04  0.10566000000E+00 0.  1.
        994   -1    0    0    0    0 -0.00000000000E+00 -0.00000000000E+00  0.11368683772E-12  0.17120000000E+03  0.17120000000E+03 0.  0.
         13    1    1    2    0    0 -0.15849732688E+02  0.13362633293E+02  0.12417093891E+02  0.24165458397E+02  0.10566000000E+00 0.  1.
        994    1    1    2    0    0  0.18582044403E+02 -0.87227021263E+01  0.13549970794E+02  0.17295785503E+03  0.17120000000E+03 0.  0.
        998    1    1    2    0    0 -0.27323117151E+01 -0.46399311666E+01  0.14740329316E+04  0.14740766866E+04  0.10000000000E+02 0.  1.
</event>
<event>
 5    1  0.1146201E-008  0.3830486E+03  0.7957747E-01  0.3437991E+00
         13   -1    0    0    0    0  0.00000000000E+00  0.00000000000E+00  0.14999999963E+04  0.15000000000E+04  0.10566000000E+00 0.  1.
        994   -1    0    0    0    0 -0.00000000000E+00 -0.00000000000E+00  0.11368683772E-12  0.17120000000E+03  0.17120000000E+03 0.  0.
         13    1    1    2    0    0  0.54810115274E+01 -0.18195758915E+02  0.71626339352E+02  0.74104458589E+02  0.10566000000E+00 0.  1.
        994    1    1    2    0    0 -0.89218481927E+01  0.18977778937E+01  0.28774736705E+01  0.17146696705E+03  0.17120000000E+03 0.  0.
        998    1    1    2    0    0  0.34408366653E+01  0.16297981021E+02  0.14254961833E+04  0.14256285744E+04  0.10000000000E+02 0.  1.
</event>
<event>
 5    1  0.1146201E-008  0.3952645E+03  0.7957747E-01  0.3387272E+00
         13   -1    0    0    0    0  0.00000000000E+00  0.00000000000E+00  0.14999999963E+04  0.15000000000E+04  0.10566000000E+00 0. -1.
        994   -1    0    0    0    0 -0.00000000000E+00 -0.00000000000E+00  0.11368683772E-12  0.17120000000E+03  0.17120000000E+03 0.  0.
         13    1    1    2    0    0  0.12517528566E+02  0.30739757271E+02  0.11204386971E+02  0.35030995560E+02  0.10566000000E+00 0. -1.
        994    1    1    2    0    0 -0.32749672307E+02 -0.32238257582E+02  0.33132750757E+02  0.18033043409E+03  0.17120000000E+03 0.  0.
        998    1    1    2    0    0  0.20232143741E+02  0.14985003109E+01  0.14556628586E+04  0.14558385703E+04  0.10000000000E+02 0. -1.
</event>
<event>
 5    1  0.1146201E-008  0.3779229E+03  0.7957747E-01  0.3460253E+00
         13   -1    0    0    0    0  0.00000000000E+00  0.00000000000E+00  0.14999999963E+04  0.15000000000E+04  0.10566000000E+00 0.  1.
        994   -1    0    0    0    0 -0.00000000000E+00 -0.00000000000E+00  0.11368683772E-12  0.17120000000E+03  0.17120000000E+03 0.  0.
         13    1    1    2    0    0 -0.58050275805E+01  0.40533605465E+02  0.20429279051E+03  0.20835601008E+03  0.10566000000E+00 0.  1.
        994    1    1    2    0    0 -0.22987098962E+02  0.71982312072E+01  0.71408183499E+01  0.17303367458E+03  0.17120000000E+03 0.  0.
        998    1    1    2    0    0  0.28792126542E+02 -0.47731836672E+02  0.12885663874E+04  0.12898103153E+04  0.10000000000E+02 0.  1.
</event>
<event>
 5    1  0.1146201E-008  0.3851498E+03  0.7957747E-01  0.3429037E+00
         13   -1    0    0    0    0  0.00000000000E+00  0.00000000000E+00  0.14999999963E+04  0.15000000000E+04  0.10566000000E+00 0. -1.
        994   -1    0    0    0    0 -0.00000000000E+00 -0.00000000000E+00  0.11368683772E-12  0.17120000000E+03  0.17120000000E+03 0.  0.
         13    1    1    2    0    0  0.19924660050E+03 -0.13569502119E+03  0.10808654708E+04  0.11074215655E+04  0.10566000000E+00 0. -1.
        994    1    1    2    0    0 -0.21021964790E+03  0.14157948088E+03  0.25315222343E+03  0.39702964373E+03  0.17120000000E+03 0.  0.
        998    1    1    2    0    0  0.10973047398E+02 -0.58844596868E+01  0.16598230203E+03  0.16674879077E+03  0.10000000000E+02 0. -1.
</event>
<event>
 5    1  0.1146201E-008  0.3765256E+03  0.7957747E-01  0.3466428E+00
         13   -1    0    0    0    0  0.00000000000E+00  0.00000000000E+00  0.14999999963E+04  0.15000000000E+04  0.10566000000E+00 0.  1.
        994   -1    0    0    0    0 -0.00000000000E+00 -0.00000000000E+00  0.11368683772E-12  0.17120000000E+03  0.17120000000E+03 0.  0.
         13    1    1    2    0    0 -0.48251755971E+01 -0.11083841290E+02  0.10004376049E+02  0.15691799178E+02  0.10566000000E+00 0.  1.
        994    1    1    2    0    0 -0.11920101361E+02  0.15967739509E+01  0.63866453692E+01  0.17174069914E+03  0.17120000000E+03 0.  0.
        998    1    1    2    0    0  0.16745276958E+02  0.94870673393E+01  0.14836089749E+04  0.14837675017E+04  0.10000000000E+02 0.  1.
</event>
<event>
 5    1  0.1146201E-008  0.3833978E+03  0.7957747E-01  0.3436496E+00
         13   -1    0    0    0    0  0.00000000000E+00  0.00000000000E+00  0.14999999963E+04  0.15000000000E+04  0.10566000000E+00 0.  1.
        994   -1    0    0    0    0 -0.00000000000E+00 -0.00000000000E+00  0.11368683772E-12  0.17120000000E+03  0.17120000000E+03 0.  0.
         13    1    1    2    0    0 -0.72462643754E+01  0.10929163804E+02  0.37127518225E+02  0.39375357045E+02  0.10566000000E+00 0.  1.
        994    1    1    2    0    0 -0.25328077447E+01  0.75797276204E+01  0.26388534535E+01  0.17140674121E+03  0.17120000000E+03 0.  0.
        998    1    1    2    0    0  0.97790721201E+01 -0.18508891425E+02  0.14602336246E+04  0.14604179017E+04  0.10000000000E+02 0.  1.
</event>
<event>
 5    1  0.1146201E-008  0.3818899E+03  0.7957747E-01  0.3442971E+00
         13   -1    0    0    0    0  0.00000000000E+00  0.00000000000E+00  0.14999999963E+04  0.15000000000E+04  0.10566000000E+00 0.  1.
        994   -1    0    0    0    0 -0.00000000000E+00 -0.00000000000E+00  0.11368683772E-12  0.17120000000E+03  0.17120000000E+03 0.  0.
         13    1    1    2    0    0 -0.20153226152E+02  0.21429225579E+02  0.15381506496E+03  0.15660284035E+03  0.10566000000E+00 0.  1.
        994    1    1    2    0    0 -0.21789655771E+02 -0.22135452255E+02  0.63939093752E+01  0.17411228969E+03  0.17120000000E+03 0.  0.
        998    1    1    2    0    0  0.41942881924E+02  0.70622667584E+00  0.13397910219E+04  0.13404848700E+04  0.10000000000E+02 0.  1.
</event>
<event>
 5    1  0.1146201E-008  0.3842569E+03  0.7957747E-01  0.3432830E+00
         13   -1    0    0    0    0  0.00000000000E+00  0.00000000000E+00  0.14999999963E+04  0.15000000000E+04  0.10566000000E+00 0.  1.
        994   -1    0    0    0    0 -0.00000000000E+00 -0.00000000000E+00  0.11368683772E-12  0.17120000000E+03  0.17120000000E+03 0.  0.
         13    1    1    2    0    0  0.14985589130E+02 -0.14041060594E+02  0.11853115332E+03  0.12029698556E+03  0.10566000000E+00 0.  1.
        994    1    1    2    0    0  0.64490041118E+01  0.37870638791E+01  0.21839136573E+01  0.17137718922E+03  0.17120000000E+03 0.  0.
        998    1    1    2    0    0 -0.21434593242E+02  0.10253996715E+02  0.13792849293E+04  0.13795258252E+04  0.10000000000E+02 0.  1.
</event>
<event>
 5    1  0.1146201E-008  0.3953099E+03  0.7957747E-01  0.3387090E+00
         13   -1    0    0    0    0  0.00000000000E+00  0.00000000000E+00  0.14999999963E+04  0.15000000000E+04  0.10566000000E+00 0. -1.
        994   -1    0    0    0    0 -0.00000000000E+00 -0.00000000000E+00  0.11368683772E-12  0.17120000000E+03  0.17120000000E+03 0.  0.
         13    1    1    2    0    0 -0.13207868146E+02  0.13604191493E+02 -0.45444860688E+01  0.19498341591E+02  0.10566000000E+00 0. -1.
        994    1    1    2    0    0  0.45033095091E+02 -0.42039735430E+02  0.39733667604E+02  0.18623512920E+03  0.17120000000E+03 0.  0.
        998    1    1    2    0    0 -0.31825226945E+02  0.28435543937E+02  0.14648108147E+04  0.14654665292E+04  0.10000000000E+02 0. -1.
</event>
<event>
 5    1  0.1146201E-008  0.3825433E+03  0.7957747E-01  0.3440159E+00
         13   -1    0    0    0    0  0.00000000000E+00  0.00000000000E+00  0.14999999963E+04  0.15000000000E+04  0.10566000000E+00 0.  1.
        994   -1    0    0    0    0 -0.00000000000E+00 -0.00000000000E+00  0.11368683772E-12  0.17120000000E+03  0.17120000000E+03 0.  0.
         13    1    1    2    0    0 -0.15629991347E+01 -0.10833373576E+02  0.19854277383E+02  0.22671754316E+02  0.10566000000E+00 0.  1.
        994    1    1    2    0    0  0.87412116143E+00  0.81648166163E+01  0.30783521768E+01  0.17142445733E+03  0.17120000000E+03 0.  0.
        998    1    1    2    0    0  0.68887797326E+00  0.26685569595E+01  0.14770673667E+04  0.14771037884E+04  0.10000000000E+02 0.  1.
</event>
<event>
 5    1  0.1146201E-008  0.3734805E+03  0.7957747E-01  0.3480047E+00
         13   -1    0    0    0    0  0.00000000000E+00  0.00000000000E+00  0.14999999963E+04  0.15000000000E+04  0.10566000000E+00 0. -1.
        994   -1    0    0    0    0 -0.00000000000E+00 -0.00000000000E+00  0.11368683772E-12  0.17120000000E+03  0.17120000000E+03 0.  0.
         13    1    1    2    0    0 -0.58874897602E+01 -0.24944234205E+02  0.40999875490E+02  0.48351611245E+02  0.10566000000E+00 0. -1.
        994    1    1    2    0    0  0.24592137057E+01  0.17578071916E+02  0.85382298877E+01  0.17232927120E+03  0.17120000000E+03 0.  0.
        998    1    1    2    0    0  0.34282760545E+01  0.73661622891E+01  0.14504618909E+04  0.14505191176E+04  0.10000000000E+02 0. -1.
</event>
<event>
 5    1  0.1146201E-008  0.3784367E+03  0.7957747E-01  0.3457994E+00
         13   -1    0    0    0    0  0.00000000000E+00  0.00000000000E+00  0.14999999963E+04  0.15000000000E+04  0.10566000000E+00 0.  1.
        994   -1    0    0    0    0 -0.00000000000E+00 -0.00000000000E+00  0.11368683772E-12  0.17120000000E+03  0.17120000000E+03 0.  0.
         13    1    1    2    0    0 -0.84415662330E+01 -0.36375171756E+02  0.38719240478E+02  0.53792229066E+02  0.10566000000E+00 0.  1.
        994    1    1    2    0    0  0.13777632823E+01  0.31188768361E+02  0.18990609570E+02  0.17505633595E+03  0.17120000000E+03 0.  0.
        998    1    1    2    0    0  0.70638029506E+01  0.51864033948E+01  0.14422901462E+04  0.14423514350E+04  0.10000000000E+02 0.  1.
</event>
<event>
 5    1  0.1146201E-008  0.3779546E+03  0.7957747E-01  0.3460113E+00
         13   -1    0    0    0    0  0.00000000000E+00  0.00000000000E+00  0.14999999963E+04  0.15000000000E+04  0.10566000000E+00 0.  1.
        994   -1    0    0    0    0 -0.00000000000E+00 -0.00000000000E+00  0.11368683772E-12  0.17120000000E+03  0.17120000000E+03 0.  0.
         13    1    1    2    0    0 -0.64624084446E+02 -0.11569727387E+03  0.71062226559E+03  0.72287353457E+03  0.10566000000E+00 0.  1.
        994    1    1    2    0    0  0.62383000570E+02  0.12807340497E+03  0.76831586313E+02  0.23559916909E+03  0.17120000000E+03 0.  0.
        998    1    1    2    0    0  0.22410838760E+01 -0.12376131103E+02  0.71254614437E+03  0.71272729633E+03  0.10000000000E+02 0.  1.
</event>
<event>
 5    1  0.1146201E-008  0.3805049E+03  0.7957747E-01  0.3448963E+00
         13   -1    0    0    0    0  0.00000000000E+00  0.00000000000E+00  0.14999999963E+04  0.15000000000E+04  0.10566000000E+00 0.  1.
        994   -1    0    0    0    0 -0.00000000000E+00 -0.00000000000E+00  0.11368683772E-12  0.17120000000E+03  0.17120000000E+03 0.  0.
         13    1    1    2    0    0  0.86571536490E+01 -0.11065177807E+02  0.23985571583E+02  0.27797540852E+02  0.10566000000E+00 0.  1.
        994    1    1    2    0    0 -0.14250538096E+02 -0.77972457870E+00  0.45585651610E+01  0.17185431715E+03  0.17120000000E+03 0.  0.
        998    1    1    2    0    0  0.55933844472E+01  0.11844902386E+02  0.14714558595E+04  0.14715481420E+04  0.10000000000E+02 0.  1.
</event>
<event>
 5    1  0.1146201E-008  0.3786617E+03  0.7957747E-01  0.3457007E+00
         13   -1    0    0    0    0  0.00000000000E+00  0.00000000000E+00  0.14999999963E+04  0.15000000000E+04  0.10566000000E+00 0.  1.
        994   -1    0    0    0    0 -0.00000000000E+00 -0.00000000000E+00  0.11368683772E-12  0.17120000000E+03  0.17120000000E+03 0.  0.
         13    1    1    2    0    0 -0.15700068956E+02 -0.38543805096E+02  0.21084371355E+03  0.21491207454E+03  0.10566000000E+00 0.  1.
        994    1    1    2    0    0 -0.15441991180E+02  0.80554594210E+01  0.58294682269E+01  0.17218236907E+03  0.17120000000E+03 0.  0.
        998    1    1    2    0    0  0.31142060136E+02  0.30488345675E+02  0.12833268145E+04  0.12841055564E+04  0.10000000000E+02 0.  1.
</event>
<event>
 5    1  0.1146201E-008  0.3753301E+03  0.7957747E-01  0.3471748E+00
         13   -1    0    0    0    0  0.00000000000E+00  0.00000000000E+00  0.14999999963E+04  0.15000000000E+04  0.10566000000E+00 0.  1.
        994   -1    0    0    0    0 -0.00000000000E+00 -0.00000000000E+00  0.11368683772E-12  0.17120000000E+03  0.17120000000E+03 0.  0.
         13    1    1    2    0    0 -0.75192510886E+02 -0.17604926250E+03  0.85423111916E+03  0.87541879842E+03  0.10566000000E+00 0.  1.
        994    1    1    2    0    0  0.81738091579E+02  0.17938871103E+03  0.15252608374E+03  0.30238232667E+03  0.17120000000E+03 0.  0.
        998    1    1    2    0    0 -0.65455806933E+01 -0.33394485289E+01  0.49324279338E+03  0.49339887491E+03  0.10000000000E+02 0.  1.
</event>
<event>
 5    1  0.1146201E-008  0.3826887E+03  0.7957747E-01  0.3439534E+00
         13   -1    0    0    0    0  0.00000000000E+00  0.00000000000E+00  0.14999999963E+04  0.15000000000E+04  0.10566000000E+00 0. -1.
        994   -1    0    0    0    0 -0.00000000000E+00 -0.00000000000E+00  0.11368683772E-12  0.17120000000E+03  0.17120000000E+03 0.  0.
         13    1    1    2    0    0 -0.31361206016E+02 -0.93067555593E+01  0.19513262070E+03  0.19785573474E+03  0.10566000000E+00 0. -1.
        994    1    1    2    0    0  0.13571108947E+02  0.14525005322E+02  0.40924365691E+01  0.17239877846E+03  0.17120000000E+03 0.  0.
        998    1    1    2    0    0  0.17790097070E+02 -0.52182497623E+01  0.13007749390E+04  0.13009454868E+04  0.10000000000E+02 0.  1.
</event>
<event>
 5    1  0.1146201E-008  0.3782437E+03  0.7957747E-01  0.3458842E+00
         13   -1    0    0    0    0  0.00000000000E+00  0.00000000000E+00  0.14999999963E+04  0.15000000000E+04  0.10566000000E+00 0.  1.
        994   -1    0    0    0    0 -0.00000000000E+00 -0.00000000000E+00  0.11368683772E-12  0.17120000000E+03  0.17120000000E+03 0.  0.
         13    1    1    2    0    0  0.68721183464E+00  0.10107160632E+02  0.79873047993E+01  0.12900975085E+02  0.10566000000E+00 0.  1.
        994    1    1    2    0    0  0.26412083573E+01 -0.50105823241E+01  0.51302327700E+01  0.17137047939E+03  0.17120000000E+03 0.  0.
        998    1    1    2    0    0 -0.33284201919E+01 -0.50965783078E+01  0.14868824587E+04  0.14869285455E+04  0.10000000000E+02 0.  1.
</event>
<event>
 5    1  0.1146201E-008  0.3737500E+03  0.7957747E-01  0.3478832E+00
         13   -1    0    0    0    0  0.00000000000E+00  0.00000000000E+00  0.14999999963E+04  0.15000000000E+04  0.10566000000E+00 0. -1.
        994   -1    0    0    0    0 -0.00000000000E+00 -0.00000000000E+00  0.11368683772E-12  0.17120000000E+03  0.17120000000E+03 0.  0.
         13    1    1    2    0    0 -0.88125630912E+02  0.73546772715E+02  0.49185701847E+03  0.50507285849E+03  0.10566000000E+00 0. -1.
        994    1    1    2    0    0  0.10403465230E+03 -0.79676269392E+02  0.68412000178E+02  0.22618832541E+03  0.17120000000E+03 0.  0.
        998    1    1    2    0    0 -0.15909021391E+02  0.61294966770E+01  0.93973097763E+03  0.93993881610E+03  0.10000000000E+02 0. -1.
</event>
<event>
 5    1  0.1146201E-008  0.4626078E+03  0.7957747E-01  0.3155197E+00
         13   -1    0    0    0    0  0.00000000000E+00  0.00000000000E+00  0.14999999963E+04  0.15000000000E+04  0.10566000000E+00 0. -1.
        994   -1    0    0    0    0 -0.00000000000E+00 -0.00000000000E+00  0.11368683772E-12  0.17120000000E+03  0.17120000000E+03 0.  0.
         13    1    1    2    0    0 -0.13454544323E+02 -0.69104371002E+02  0.10811283532E+02  0.71227339345E+02  0.10566000000E+00 0. -1.
        994    1    1    2    0    0  0.87398234614E+02  0.36422285760E+02  0.12243106908E+03  0.23078960329E+03  0.17120000000E+03 0.  0.
        998    1    1    2    0    0 -0.73943690291E+02  0.32682085242E+02  0.13667576437E+04  0.13691830574E+04  0.10000000000E+02 0. -1.
</event>
<event>
 5    1  0.1146201E-008  0.3806968E+03  0.7957747E-01  0.3448130E+00
         13   -1    0    0    0    0  0.00000000000E+00  0.00000000000E+00  0.14999999963E+04  0.15000000000E+04  0.10566000000E+00 0.  1.
        994   -1    0    0    0    0 -0.00000000000E+00 -0.00000000000E+00  0.11368683772E-12  0.17120000000E+03  0.17120000000E+03 0.  0.
         13    1    1    2    0    0  0.24483350375E+02  0.10478410406E+02  0.90479799431E+02  0.94317743820E+02  0.10566000000E+00 0.  1.
        994    1    1    2    0    0 -0.18585171371E+02 -0.91124629951E+01  0.52121052695E+01  0.17252551005E+03  0.17120000000E+03 0.  0.
        998    1    1    2    0    0 -0.58981790046E+01 -0.13659474111E+01  0.14043080916E+04  0.14043567461E+04  0.10000000000E+02 0.  1.
</event>
<event>
 5    1  0.1146201E-008  0.3836776E+03  0.7957747E-01  0.3435300E+00
         13   -1    0    0    0    0  0.00000000000E+00  0.00000000000E+00  0.14999999963E+04  0.15000000000E+04  0.10566000000E+00 0. -1.
        994   -1    0    0    0    0 -0.00000000000E+00 -0.00000000000E+00  0.11368683772E-12  0.17120000000E+03  0.17120000000E+03 0.  0.
         13    1    1    2    0    0  0.26898152074E+02 -0.11308247919E+02  0.16505190312E+03  0.16761124349E+03  0.10566000000E+00 0. -1.
        994    1    1    2    0    0 -0.29839475476E+02  0.90065050338E+01  0.55034243309E+01  0.17410123236E+03  0.17120000000E+03 0.  0.
        998    1    1    2    0    0  0.29413234020E+01  0.23017428854E+01  0.13294446688E+04  0.13294875242E+04  0.10000000000E+02 0. -1.
</event>
<event>
 5    1  0.1146201E-008  0.3788412E+03  0.7957747E-01  0.3456220E+00
         13   -1    0    0    0    0  0.00000000000E+00  0.00000000000E+00  0.14999999963E+04  0.15000000000E+04  0.10566000000E+00 0.  1.
        994   -1    0    0    0    0 -0.00000000000E+00 -0.00000000000E+00  0.11368683772E-12  0.17120000000E+03  0.17120000000E+03 0.  0.
         13    1    1    2    0    0 -0.49512948108E+02  0.34683990682E+02  0.34731544798E+03  0.35253729279E+03  0.10566000000E+00 0.  1.
        994    1    1    2    0    0  0.44276676819E+02 -0.16396581400E+02  0.12236812421E+02  0.17801250397E+03  0.17120000000E+03 0.  0.
        998    1    1    2    0    0  0.52362712890E+01 -0.18287409282E+02  0.11404477359E+04  0.11406502032E+04  0.10000000000E+02 0.  1.
</event>
<event>
 5    1  0.1146201E-008  0.3808139E+03  0.7957747E-01  0.3447622E+00
         13   -1    0    0    0    0  0.00000000000E+00  0.00000000000E+00  0.14999999963E+04  0.15000000000E+04  0.10566000000E+00 0.  1.
        994   -1    0    0    0    0 -0.00000000000E+00 -0.00000000000E+00  0.11368683772E-12  0.17120000000E+03  0.17120000000E+03 0.  0.
         13    1    1    2    0    0  0.18831763992E+02 -0.18863170674E+02  0.86811782308E+02  0.90811625107E+02  0.10566000000E+00 0.  1.
        994    1    1    2    0    0 -0.40974123575E+02  0.59076376355E+01  0.94576848371E+01  0.17638783061E+03  0.17120000000E+03 0.  0.
        998    1    1    2    0    0  0.22142359583E+02  0.12955533039E+02  0.14037305291E+04  0.14040005443E+04  0.10000000000E+02 0.  1.
</event>
<event>
 5    1  0.1146201E-008  0.3768402E+03  0.7957747E-01  0.3465033E+00
         13   -1    0    0    0    0  0.00000000000E+00  0.00000000000E+00  0.14999999963E+04  0.15000000000E+04  0.10566000000E+00 0. -1.
        994   -1    0    0    0    0 -0.00000000000E+00 -0.00000000000E+00  0.11368683772E-12  0.17120000000E+03  0.17120000000E+03 0.  0.
         13    1    1    2    0    0  0.22627881459E+00  0.13918364820E+02  0.14323675330E+02  0.19973755790E+02  0.10566000000E+00 0. -1.
        994    1    1    2    0    0 -0.33600695713E+01 -0.11376140443E+02  0.62122289692E+01  0.17172285354E+03  0.17120000000E+03 0.  0.
        998    1    1    2    0    0  0.31337907568E+01 -0.25422243772E+01  0.14794640920E+04  0.14795033907E+04  0.10000000000E+02 0. -1.
</event>
<event>
 5    1  0.1146201E-008  0.3865234E+03  0.7957747E-01  0.3423237E+00
         13   -1    0    0    0    0  0.00000000000E+00  0.00000000000E+00  0.14999999963E+04  0.15000000000E+04  0.10566000000E+00 0. -1.
        994   -1    0    0    0    0 -0.00000000000E+00 -0.00000000000E+00  0.11368683772E-12  0.17120000000E+03  0.17120000000E+03 0.  0.
         13    1    1    2    0    0 -0.66595283471E+01  0.77652418099E+01  0.58926014956E+02  0.59807480308E+02  0.10566000000E+00 0. -1.
        994    1    1    2    0    0 -0.24860893321E+01 -0.17485671607E+02  0.18971394646E+01  0.17211905324E+03  0.17120000000E+03 0.  0.
        998    1    1    2    0    0  0.91456176792E+01  0.97204297975E+01  0.14391768419E+04  0.14392734664E+04  0.10000000000E+02 0. -1.
</event>
<event>
 5    1  0.1146201E-008  0.3740982E+03  0.7957747E-01  0.3477266E+00
         13   -1    0    0    0    0  0.00000000000E+00  0.00000000000E+00  0.14999999963E+04  0.15000000000E+04  0.10566000000E+00 0. -1.
        994   -1    0    0    0    0 -0.00000000000E+00 -0.00000000000E+00  0.11368683772E-12  0.17120000000E+03  0.17120000000E+03 0.  0.
         13    1    1    2    0    0 -0.31517740017E+02  0.16064061770E+02  0.81343538726E+02  0.88702900025E+02  0.10566000000E+00 0. -1.
        994    1    1    2    0    0  0.32908414361E+02 -0.10062965509E+02  0.11190944968E+02  0.17498258273E+03  0.17120000000E+03 0.  0.
        998    1    1    2    0    0 -0.13906743441E+01 -0.60010962607E+01  0.14074655126E+04  0.14075145172E+04  0.10000000000E+02 0. -1.
</event>
<event>
 5    1  0.1146201E-008  0.3843555E+03  0.7957747E-01  0.3432410E+00
         13   -1    0    0    0    0  0.00000000000E+00  0.00000000000E+00  0.14999999963E+04  0.15000000000E+04  0.10566000000E+00 0.  1.
        994   -1    0    0    0    0 -0.00000000000E+00 -0.00000000000E+00  0.11368683772E-12  0.17120000000E+03  0.17120000000E+03 0.  0.
         13    1    1    2    0    0 -0.12241389654E+02 -0.52720755153E+01  0.45260198609E+02  0.47182021396E+02  0.10566000000E+00 0. -1.
        994    1    1    2    0    0  0.67096182901E+01  0.60749154166E+01  0.22204717220E+01  0.17145347494E+03  0.17120000000E+03 0.  0.
        998    1    1    2    0    0  0.55317713643E+01 -0.80283990122E+00  0.14525193259E+04  0.14525645037E+04  0.10000000000E+02 0.  1.
</event>
<event>
 5    1  0.1559438E-008  0.3859064E+03  0.7957747E-01  0.3425837E+00
         13   -1    0    0    0    0  0.00000000000E+00  0.00000000000E+00  0.14999999963E+04  0.15000000000E+04  0.10566000000E+00 0.  1.
        994   -1    0    0    0    0 -0.00000000000E+00 -0.00000000000E+00  0.11368683772E-12  0.17120000000E+03  0.17120000000E+03 0.  0.
         13    1    1    2    0    0 -0.71639731865E+01  0.75467388850E+01  0.44615430978E+02  0.45812919848E+02  0.10566000000E+00 0.  1.
        994    1    1    2    0    0  0.91635083491E+01 -0.93648350586E+01  0.17438897094E+01  0.17170949645E+03  0.17120000000E+03 0.  0.
        998    1    1    2    0    0 -0.19995351626E+01  0.18180961736E+01  0.14536406756E+04  0.14536775837E+04  0.10000000000E+02 0.  1.
</event>
<event>
 5    1  0.1146201E-008  0.3807683E+03  0.7957747E-01  0.3447820E+00
         13   -1    0    0    0    0  0.00000000000E+00  0.00000000000E+00  0.14999999963E+04  0.15000000000E+04  0.10566000000E+00 0. -1.
        994   -1    0    0    0    0 -0.00000000000E+00 -0.00000000000E+00  0.11368683772E-12  0.17120000000E+03  0.17120000000E+03 0.  0.
         13    1    1    2    0    0 -0.24667840025E+02  0.18570804563E+02  0.13578121624E+03  0.13924771798E+03  0.10566000000E+00 0. -1.
        994    1    1    2    0    0  0.53876518102E+01 -0.38250717662E+01  0.38914283256E+01  0.17137164637E+03  0.17120000000E+03 0.  0.
        998    1    1    2    0    0  0.19280188215E+02 -0.14745732797E+02  0.13603273517E+04  0.13605806357E+04  0.10000000000E+02 0. -1.
</event>
<event>
 5    1  0.1301650E-008  0.3860162E+03  0.7957747E-01  0.3425374E+00
         13   -1    0    0    0    0  0.00000000000E+00  0.00000000000E+00  0.14999999963E+04  0.15000000000E+04  0.10566000000E+00 0.  1.
        994   -1    0    0    0    0 -0.00000000000E+00 -0.00000000000E+00  0.11368683772E-12  0.17120000000E+03  0.17120000000E+03 0.  0.
         13    1    1    2    0    0  0.37215619451E+01  0.10215526808E+02  0.51217959439E+02  0.52359311917E+02  0.10566000000E+00 0.  1.
        994    1    1    2    0    0 -0.49123580245E+01 -0.11747503340E+02  0.16580797620E+01  0.17168087932E+03  0.17120000000E+03 0.  0.
        998    1    1    2    0    0  0.11907960794E+01  0.15319765323E+01  0.14471239571E+04  0.14471598088E+04  0.10000000000E+02 0.  1.
</event>
<event>
 5    1  0.1146201E-008  0.3799037E+03  0.7957747E-01  0.3451578E+00
         13   -1    0    0    0    0  0.00000000000E+00  0.00000000000E+00  0.14999999963E+04  0.15000000000E+04  0.10566000000E+00 0. -1.
        994   -1    0    0    0    0 -0.00000000000E+00 -0.00000000000E+00  0.11368683772E-12  0.17120000000E+03  0.17120000000E+03 0.  0.
         13    1    1    2    0    0 -0.26136677467E+02 -0.65412132697E+01  0.97553661697E+02  0.10120593587E+03  0.10566000000E+00 0. -1.
        994    1    1    2    0    0 -0.10863784520E+02  0.47284848161E+01  0.46513533192E+01  0.17167252392E+03  0.17120000000E+03 0.  0.
        998    1    1    2    0    0  0.37000461987E+02  0.18127284535E+01  0.13977949813E+04  0.13983215402E+04  0.10000000000E+02 0. -1.
</event>
<event>
 5    1  0.1146201E-008  0.3850405E+03  0.7957747E-01  0.3429500E+00
         13   -1    0    0    0    0  0.00000000000E+00  0.00000000000E+00  0.14999999963E+04  0.15000000000E+04  0.10566000000E+00 0. -1.
        994   -1    0    0    0    0 -0.00000000000E+00 -0.00000000000E+00  0.11368683772E-12  0.17120000000E+03  0.17120000000E+03 0.  0.
         13    1    1    2    0    0  0.13032273332E+02 -0.10217804061E+02  0.87031715095E+02  0.88593308238E+02  0.10566000000E+00 0. -1.
        994    1    1    2    0    0  0.35104857299E+01  0.17955404050E+02  0.27114319778E+01  0.17219614371E+03  0.17120000000E+03 0.  0.
        998    1    1    2    0    0 -0.16542759061E+02 -0.77375999890E+01  0.14102568492E+04  0.14104105481E+04  0.10000000000E+02 0. -1.
</event>
<event>
 5    1  0.1146201E-008  0.3805196E+03  0.7957747E-01  0.3448899E+00
         13   -1    0    0    0    0  0.00000000000E+00  0.00000000000E+00  0.14999999963E+04  0.15000000000E+04  0.10566000000E+00 0.  1.
        994   -1    0    0    0    0 -0.00000000000E+00 -0.00000000000E+00  0.11368683772E-12  0.17120000000E+03  0.17120000000E+03 0.  0.
         13    1    1    2    0    0  0.24517479573E+00  0.10463357247E+02  0.12784411970E+02  0.16522539424E+02  0.10566000000E+00 0.  1.
        994    1    1    2    0    0  0.15889773840E+02  0.24337146820E+01  0.47339356189E+01  0.17201819097E+03  0.17120000000E+03 0.  0.
        998    1    1    2    0    0 -0.16134948635E+02 -0.12897071929E+02  0.14824816487E+04  0.14826592696E+04  0.10000000000E+02 0.  1.
</event>
<event>
 5    1  0.1146201E-008  0.3777494E+03  0.7957747E-01  0.3461017E+00
         13   -1    0    0    0    0  0.00000000000E+00  0.00000000000E+00  0.14999999963E+04  0.15000000000E+04  0.10566000000E+00 0.  1.
        994   -1    0    0    0    0 -0.00000000000E+00 -0.00000000000E+00  0.11368683772E-12  0.17120000000E+03  0.17120000000E+03 0.  0.
         13    1    1    2    0    0  0.70892859689E+01 -0.15412601150E+02  0.27529287708E+02  0.32336961754E+02  0.10566000000E+00 0.  1.
        994    1    1    2    0    0  0.14466196701E+02 -0.17562031332E+02  0.70191200131E+01  0.17284792113E+03  0.17120000000E+03 0.  0.
        998    1    1    2    0    0 -0.21555482670E+02  0.32974632482E+02  0.14654515886E+04  0.14660151171E+04  0.10000000000E+02 0.  1.
</event>
<event>
 5    1  0.1146201E-008  0.3848959E+03  0.7957747E-01  0.3430114E+00
         13   -1    0    0    0    0  0.00000000000E+00  0.00000000000E+00  0.14999999963E+04  0.15000000000E+04  0.10566000000E+00 0.  1.
        994   -1    0    0    0    0 -0.00000000000E+00 -0.00000000000E+00  0.11368683772E-12  0.17120000000E+03  0.17120000000E+03 0.  0.
         13    1    1    2    0    0 -0.11479421669E+01 -0.12326345751E+02  0.45093440960E+02  0.46762016129E+02  0.10566000000E+00 0.  1.
        994    1    1    2    0    0  0.89757980440E+00  0.96797571078E+01  0.19927762382E+01  0.17148735961E+03  0.17120000000E+03 0.  0.
        998    1    1    2    0    0  0.25036236254E+00  0.26465886436E+01  0.14529137791E+04  0.14529506243E+04  0.10000000000E+02 0.  1.
</event>
<event>
 5    1  0.1146201E-008  0.3707171E+03  0.7957747E-01  0.3492601E+00
         13   -1    0    0    0    0  0.00000000000E+00  0.00000000000E+00  0.14999999963E+04  0.15000000000E+04  0.10566000000E+00 0. -1.
        994   -1    0    0    0    0 -0.00000000000E+00 -0.00000000000E+00  0.11368683772E-12  0.17120000000E+03  0.17120000000E+03 0.  0.
         13    1    1    2    0    0  0.92850031890E+01 -0.56956014789E+02  0.13225832767E+03  0.14429994909E+03  0.10566000000E+00 0. -1.
        994    1    1    2    0    0 -0.11148798348E+02  0.54939196295E+02  0.22415322616E+02  0.18153373704E+03  0.17120000000E+03 0.  0.
        998    1    1    2    0    0  0.18637951594E+01  0.20168184934E+01  0.13453263460E+04  0.13453663139E+04  0.10000000000E+02 0. -1.
</event>
<event>
 5    1  0.1146201E-008  0.3822064E+03  0.7957747E-01  0.3441607E+00
         13   -1    0    0    0    0  0.00000000000E+00  0.00000000000E+00  0.14999999963E+04  0.15000000000E+04  0.10566000000E+00 0.  1.
        994   -1    0    0    0    0 -0.00000000000E+00 -0.00000000000E+00  0.11368683772E-12  0.17120000000E+03  0.17120000000E+03 0.  0.
         13    1    1    2    0    0  0.27691493660E+02  0.96628634448E+01  0.12979374143E+03  0.13306620995E+03  0.10566000000E+00 0.  1.
        994    1    1    2    0    0 -0.26512791893E+02 -0.16139703037E+02  0.62273875143E+01  0.17410237937E+03  0.17120000000E+03 0.  0.
        998    1    1    2    0    0 -0.11787017665E+01  0.64768395917E+01  0.13639788673E+04  0.13640314107E+04  0.10000000000E+02 0.  1.
</event>
<event>
 5    1  0.1146201E-008  0.3787520E+03  0.7957747E-01  0.3456611E+00
         13   -1    0    0    0    0  0.00000000000E+00  0.00000000000E+00  0.14999999963E+04  0.15000000000E+04  0.10566000000E+00 0. -1.
        994   -1    0    0    0    0 -0.00000000000E+00 -0.00000000000E+00  0.11368683772E-12  0.17120000000E+03  0.17120000000E+03 0.  0.
         13    1    1    2    0    0 -0.58856866135E+02 -0.21832160313E+02  0.32986930372E+03  0.33578943196E+03  0.10566000000E+00 0. -1.
        994    1    1    2    0    0  0.66959680800E+02 -0.29163569844E+01  0.19994341080E+02  0.18493598262E+03  0.17120000000E+03 0.  0.
        998    1    1    2    0    0 -0.81028146655E+01  0.24748517297E+02  0.11501363515E+04  0.11504745854E+04  0.10000000000E+02 0. -1.
</event>
<event>
 5    1  0.1146201E-008  0.3799262E+03  0.7957747E-01  0.3451480E+00
         13   -1    0    0    0    0  0.00000000000E+00  0.00000000000E+00  0.14999999963E+04  0.15000000000E+04  0.10566000000E+00 0.  1.
        994   -1    0    0    0    0 -0.00000000000E+00 -0.00000000000E+00  0.11368683772E-12  0.17120000000E+03  0.17120000000E+03 0.  0.
         13    1    1    2    0    0 -0.88595221684E+01 -0.91607257293E+01  0.16868227578E+02  0.21141388190E+02  0.10566000000E+00 0.  1.
        994    1    1    2    0    0  0.14434153558E+02  0.24525223370E+02  0.68829846174E+01  0.17368548255E+03  0.17120000000E+03 0.  0.
        998    1    1    2    0    0 -0.55746313895E+01 -0.15364497641E+02  0.14762487841E+04  0.14763731293E+04  0.10000000000E+02 0.  1.
</event>
<event>
 5    1  0.1146201E-008  0.3807321E+03  0.7957747E-01  0.3447977E+00
         13   -1    0    0    0    0  0.00000000000E+00  0.00000000000E+00  0.14999999963E+04  0.15000000000E+04  0.10566000000E+00 0. -1.
        994   -1    0    0    0    0 -0.00000000000E+00 -0.00000000000E+00  0.11368683772E-12  0.17120000000E+03  0.17120000000E+03 0.  0.
         13    1    1    2    0    0  0.12278868470E+02  0.83369319858E+01  0.26831799841E+02  0.30663197690E+02  0.10566000000E+00 0. -1.
        994    1    1    2    0    0 -0.20174518954E+02 -0.85209409469E+01  0.53651417918E+01  0.17267843640E+03  0.17120000000E+03 0.  0.
        998    1    1    2    0    0  0.78956504840E+01  0.18400896103E+00  0.14678030546E+04  0.14678583659E+04  0.10000000000E+02 0. -1.
</event>
<event>
 5    1  0.1146201E-008  0.3819408E+03  0.7957747E-01  0.3442751E+00
         13   -1    0    0    0    0  0.00000000000E+00  0.00000000000E+00  0.14999999963E+04  0.15000000000E+04  0.10566000000E+00 0.  1.
        994   -1    0    0    0    0 -0.00000000000E+00 -0.00000000000E+00  0.11368683772E-12  0.17120000000E+03  0.17120000000E+03 0.  0.
         13    1    1    2    0    0  0.67149046013E+01 -0.19593709514E+02  0.74150851574E+02  0.76989371666E+02  0.10566000000E+00 0.  1.
        994    1    1    2    0    0  0.69624844633E+01 -0.50400414866E+01  0.34020782607E+01  0.17144938712E+03  0.17120000000E+03 0.  0.
        998    1    1    2    0    0 -0.13677389065E+02  0.24633751000E+02  0.14224470664E+04  0.14227612412E+04  0.10000000000E+02 0.  1.
</event>
<event>
 5    1  0.1146201E-008  0.3800423E+03  0.7957747E-01  0.3450974E+00
         13   -1    0    0    0    0  0.00000000000E+00  0.00000000000E+00  0.14999999963E+04  0.15000000000E+04  0.10566000000E+00 0. -1.
        994   -1    0    0    0    0 -0.00000000000E+00 -0.00000000000E+00  0.11368683772E-12  0.17120000000E+03  0.17120000000E+03 0.  0.
         13    1    1    2    0    0 -0.12402026448E+02 -0.57322439748E+01  0.21179581827E+02  0.25204260184E+02  0.10566000000E+00 0. -1.
        994    1    1    2    0    0  0.11464411269E+02 -0.97043674383E+01  0.48662425337E+01  0.17192651858E+03  0.17120000000E+03 0.  0.
        998    1    1    2    0    0  0.93761517937E+00  0.15436611413E+02  0.14739541719E+04  0.14740692212E+04  0.10000000000E+02 0. -1.
</event>
<event>
 5    1  0.1146201E-008  0.3830100E+03  0.7957747E-01  0.3438156E+00
         13   -1    0    0    0    0  0.00000000000E+00  0.00000000000E+00  0.14999999963E+04  0.15000000000E+04  0.10566000000E+00 0. -1.
        994   -1    0    0    0    0 -0.00000000000E+00 -0.00000000000E+00  0.11368683772E-12  0.17120000000E+03  0.17120000000E+03 0.  0.
         13    1    1    2    0    0 -0.17952496231E+02 -0.34331654887E+01  0.64391201898E+02  0.66935168575E+02  0.10566000000E+00 0. -1.
        994    1    1    2    0    0  0.69711296905E+01  0.30762575215E+01  0.28135634165E+01  0.17139257904E+03  0.17120000000E+03 0.  0.
        998    1    1    2    0    0  0.10981366540E+02  0.35690796714E+00  0.14327952310E+04  0.14328722524E+04  0.10000000000E+02 0. -1.
</event>
<event>
 5    1  0.1146201E-008  0.3761727E+03  0.7957747E-01  0.3467995E+00
         13   -1    0    0    0    0  0.00000000000E+00  0.00000000000E+00  0.14999999963E+04  0.15000000000E+04  0.10566000000E+00 0. -1.
        994   -1    0    0    0    0 -0.00000000000E+00 -0.00000000000E+00  0.11368683772E-12  0.17120000000E+03  0.17120000000E+03 0.  0.
         13    1    1    2    0    0  0.44140648592E+02 -0.43412149293E+02  0.23923455409E+03  0.24711575142E+03  0.10566000000E+00 0. -1.
        994    1    1    2    0    0 -0.52014939898E+02  0.55593328779E+02  0.25961920909E+02  0.18915505152E+03  0.17120000000E+03 0.  0.
        998    1    1    2    0    0  0.78742913061E+01 -0.12181179485E+02  0.12348035213E+04  0.12349291971E+04  0.10000000000E+02 0. -1.
</event>
<event>
 5    1  0.1146201E-008  0.3814496E+03  0.7957747E-01  0.3444871E+00
         13   -1    0    0    0    0  0.00000000000E+00  0.00000000000E+00  0.14999999963E+04  0.15000000000E+04  0.10566000000E+00 0.  1.
        994   -1    0    0    0    0 -0.00000000000E+00 -0.00000000000E+00  0.11368683772E-12  0.17120000000E+03  0.17120000000E+03 0.  0.
         13    1    1    2    0    0 -0.23880424065E+02  0.20502205924E+02  0.15601451995E+03  0.15915764732E+03  0.10566000000E+00 0.  1.
        994    1    1    2    0    0 -0.37293353842E+01 -0.16777714961E+02  0.43865884593E+01  0.17211647748E+03  0.17120000000E+03 0.  0.
        998    1    1    2    0    0  0.27609759449E+02 -0.37244909634E+01  0.13395988879E+04  0.13399258752E+04  0.10000000000E+02 0.  1.
</event>
<event>
 5    1  0.1146201E-008  0.3705372E+03  0.7957747E-01  0.3493426E+00
         13   -1    0    0    0    0  0.00000000000E+00  0.00000000000E+00  0.14999999963E+04  0.15000000000E+04  0.10566000000E+00 0. -1.
        994   -1    0    0    0    0 -0.00000000000E+00 -0.00000000000E+00  0.11368683772E-12  0.17120000000E+03  0.17120000000E+03 0.  0.
         13    1    1    2    0    0 -0.67332929584E+02 -0.14152276851E+02  0.18126513816E+03  0.19388417115E+03  0.10566000000E+00 0. -1.
        994    1    1    2    0    0  0.66506700777E+02  0.26461516870E+02  0.29390745129E+02  0.18787391789E+03  0.17120000000E+03 0.  0.
        998    1    1    2    0    0  0.82622880767E+00 -0.12309240019E+02  0.12893441130E+04  0.12894419110E+04  0.10000000000E+02 0. -1.
</event>
<event>
 5    1  0.1146201E-008  0.3801806E+03  0.7957747E-01  0.3450372E+00
         13   -1    0    0    0    0  0.00000000000E+00  0.00000000000E+00  0.14999999963E+04  0.15000000000E+04  0.10566000000E+00 0.  1.
        994   -1    0    0    0    0 -0.00000000000E+00 -0.00000000000E+00  0.11368683772E-12  0.17120000000E+03  0.17120000000E+03 0.  0.
         13    1    1    2    0    0  0.20315397520E+02  0.20058540168E+02  0.99830580304E+02  0.10383263619E+03  0.10566000000E+00 0.  1.
        994    1    1    2    0    0 -0.23187661765E+02 -0.46092508843E+00  0.58410669020E+01  0.17286248342E+03  0.17120000000E+03 0.  0.
        998    1    1    2    0    0  0.28722642450E+01 -0.19597615080E+02  0.13943283491E+04  0.13945048804E+04  0.10000000000E+02 0.  1.
</event>
<event>
 5    1  0.1146201E-008  0.3984968E+03  0.7957747E-01  0.3374373E+00
         13   -1    0    0    0    0  0.00000000000E+00  0.00000000000E+00  0.14999999963E+04  0.15000000000E+04  0.10566000000E+00 0. -1.
        994   -1    0    0    0    0 -0.00000000000E+00 -0.00000000000E+00  0.11368683772E-12  0.17120000000E+03  0.17120000000E+03 0.  0.
         13    1    1    2    0    0  0.35969180888E+02  0.62261280430E+01  0.13910441703E+02  0.39064794848E+02  0.10566000000E+00 0. -1.
        994    1    1    2    0    0 -0.22214811611E+02 -0.42320194097E+02  0.35824090292E+02  0.18132099197E+03  0.17120000000E+03 0.  0.
        998    1    1    2    0    0 -0.13754369276E+02  0.36094066054E+02  0.14502654643E+04  0.14508142132E+04  0.10000000000E+02 0. -1.
</event>
<event>
 5    1  0.1146201E-008  0.3794382E+03  0.7957747E-01  0.3453609E+00
         13   -1    0    0    0    0  0.00000000000E+00  0.00000000000E+00  0.14999999963E+04  0.15000000000E+04  0.10566000000E+00 0.  1.
        994   -1    0    0    0    0 -0.00000000000E+00 -0.00000000000E+00  0.11368683772E-12  0.17120000000E+03  0.17120000000E+03 0.  0.
         13    1    1    2    0    0  0.11349473766E+02 -0.49213078670E+01  0.15275203152E+02  0.19656368466E+02  0.10566000000E+00 0.  1.
        994    1    1    2    0    0 -0.10112428463E+02  0.84539052088E+01  0.49990798916E+01  0.17177939493E+03  0.17120000000E+03 0.  0.
        998    1    1    2    0    0 -0.12370453031E+01 -0.35325973418E+01  0.14797257132E+04  0.14797642366E+04  0.10000000000E+02 0.  1.
</event>
<event>
 5    1  0.1146201E-008  0.3825488E+03  0.7957747E-01  0.3440135E+00
         13   -1    0    0    0    0  0.00000000000E+00  0.00000000000E+00  0.14999999963E+04  0.15000000000E+04  0.10566000000E+00 0.  1.
        994   -1    0    0    0    0 -0.00000000000E+00 -0.00000000000E+00  0.11368683772E-12  0.17120000000E+03  0.17120000000E+03 0.  0.
         13    1    1    2    0    0 -0.25799296884E+02  0.18030837648E+02  0.15349793706E+03  0.15669187175E+03  0.10566000000E+00 0.  1.
        994    1    1    2    0    0  0.42485436391E+02 -0.98478854859E+00  0.88620885434E+01  0.17661811551E+03  0.17120000000E+03 0.  0.
        998    1    1    2    0    0 -0.16686139508E+02 -0.17046049100E+02  0.13376399707E+04  0.13378900127E+04  0.10000000000E+02 0.  1.
</event>
<event>
 5    1  0.1146201E-008  0.3889352E+03  0.7957747E-01  0.3413152E+00
         13   -1    0    0    0    0  0.00000000000E+00  0.00000000000E+00  0.14999999963E+04  0.15000000000E+04  0.10566000000E+00 0. -1.
        994   -1    0    0    0    0 -0.00000000000E+00 -0.00000000000E+00  0.11368683772E-12  0.17120000000E+03  0.17120000000E+03 0.  0.
         13    1    1    2    0    0 -0.66197049927E+02 -0.10253892585E+03  0.39902875092E+03  0.41727716923E+03  0.10566000000E+00 0. -1.
        994    1    1    2    0    0 -0.89168074133E+01  0.64203737481E+02  0.37243253719E+02  0.18681041006E+03  0.17120000000E+03 0.  0.
        998    1    1    2    0    0  0.75113857340E+02  0.38335188369E+02  0.10637279916E+04  0.10671124207E+04  0.10000000000E+02 0. -1.
</event>
<event>
 5    1  0.1146201E-008  0.3765450E+03  0.7957747E-01  0.3466342E+00
         13   -1    0    0    0    0  0.00000000000E+00  0.00000000000E+00  0.14999999963E+04  0.15000000000E+04  0.10566000000E+00 0.  1.
        994   -1    0    0    0    0 -0.00000000000E+00 -0.00000000000E+00  0.11368683772E-12  0.17120000000E+03  0.17120000000E+03 0.  0.
         13    1    1    2    0    0 -0.43210699261E+02  0.32719840357E+02  0.25175291823E+03  0.25752144665E+03  0.10566000000E+00 0.  1.
        994    1    1    2    0    0  0.35317983658E+02 -0.17762874603E+01  0.10127851234E+02  0.17510719156E+03  0.17120000000E+03 0.  0.
        998    1    1    2    0    0  0.78927156034E+01 -0.30943552897E+02  0.12381192268E+04  0.12385713618E+04  0.10000000000E+02 0.  1.
</event>
<event>
 5    1  0.1146201E-008  0.3845099E+03  0.7957747E-01  0.3431754E+00
         13   -1    0    0    0    0  0.00000000000E+00  0.00000000000E+00  0.14999999963E+04  0.15000000000E+04  0.10566000000E+00 0.  1.
        994   -1    0    0    0    0 -0.00000000000E+00 -0.00000000000E+00  0.11368683772E-12  0.17120000000E+03  0.17120000000E+03 0.  0.
         13    1    1    2    0    0  0.22566580435E+02 -0.10533862652E+01  0.13443845147E+03  0.13632339701E+03  0.10566000000E+00 0.  1.
        994    1    1    2    0    0 -0.15327858763E+02 -0.17992903119E+01  0.26586079247E+01  0.17191477219E+03  0.17120000000E+03 0.  0.
        998    1    1    2    0    0 -0.72387216721E+01  0.28526765771E+01  0.13629029369E+04  0.13629618308E+04  0.10000000000E+02 0.  0.
</event>
<event>
 5    1  0.1146201E-008  0.3771998E+03  0.7957747E-01  0.3463442E+00
         13   -1    0    0    0    0  0.00000000000E+00  0.00000000000E+00  0.14999999963E+04  0.15000000000E+04  0.10566000000E+00 0. -1.
        994   -1    0    0    0    0 -0.00000000000E+00 -0.00000000000E+00  0.11368683772E-12  0.17120000000E+03  0.17120000000E+03 0.  0.
         13    1    1    2    0    0 -0.11695412553E+02 -0.90890389550E+02  0.50158535779E+03  0.50988795622E+03  0.10566000000E+00 0. -1.
        994    1    1    2    0    0  0.13695128110E+02  0.89611053145E+02  0.33803822913E+02  0.19664647422E+03  0.17120000000E+03 0.  0.
        998    1    1    2    0    0 -0.19997155568E+01  0.12793364047E+01  0.96461081558E+03  0.96466556956E+03  0.10000000000E+02 0.  0.
</event>
<event>
 5    1  0.1146201E-008  0.3704839E+03  0.7957747E-01  0.3493670E+00
         13   -1    0    0    0    0  0.00000000000E+00  0.00000000000E+00  0.14999999963E+04  0.15000000000E+04  0.10566000000E+00 0. -1.
        994   -1    0    0    0    0 -0.00000000000E+00 -0.00000000000E+00  0.11368683772E-12  0.17120000000E+03  0.17120000000E+03 0.  0.
         13    1    1    2    0    0 -0.28783680436E+02  0.13917989917E+02  0.42255746017E+02  0.52988394374E+02  0.10566000000E+00 0. -1.
        994    1    1    2    0    0  0.10894071963E+02 -0.75018874518E+01  0.11807848496E+02  0.17211572969E+03  0.17120000000E+03 0.  0.
        998    1    1    2    0    0  0.17889608473E+02 -0.64161024653E+01  0.14459364018E+04  0.14460958759E+04  0.10000000000E+02 0. -1.
</event>
<event>
 5    1  0.1146201E-008  0.3836977E+03  0.7957747E-01  0.3435214E+00
         13   -1    0    0    0    0  0.00000000000E+00  0.00000000000E+00  0.14999999963E+04  0.15000000000E+04  0.10566000000E+00 0. -1.
        994   -1    0    0    0    0 -0.00000000000E+00 -0.00000000000E+00  0.11368683772E-12  0.17120000000E+03  0.17120000000E+03 0.  0.
         13    1    1    2    0    0 -0.12330832582E+02  0.19804918960E+02  0.13477673411E+03  0.13678107862E+03  0.10566000000E+00 0. -1.
        994    1    1    2    0    0  0.89540141595E+01  0.68511511632E+01  0.26979848775E+01  0.17159205041E+03  0.17120000000E+03 0.  0.
        998    1    1    2    0    0  0.33768184221E+01 -0.26656070123E+02  0.13625252773E+04  0.13628268710E+04  0.10000000000E+02 0. -1.
</event>
<event>
 5    1  0.1146201E-008  0.3845133E+03  0.7957747E-01  0.3431739E+00
         13   -1    0    0    0    0  0.00000000000E+00  0.00000000000E+00  0.14999999963E+04  0.15000000000E+04  0.10566000000E+00 0. -1.
        994   -1    0    0    0    0 -0.00000000000E+00 -0.00000000000E+00  0.11368683772E-12  0.17120000000E+03  0.17120000000E+03 0.  0.
         13    1    1    2    0    0 -0.34582229307E+01 -0.13244136668E+02  0.49020740014E+02  0.50896076248E+02  0.10566000000E+00 0. -1.
        994    1    1    2    0    0  0.28632049220E+01  0.11710179476E+02  0.23507901741E+01  0.17164000833E+03  0.17120000000E+03 0.  0.
        998    1    1    2    0    0  0.59501800873E+00  0.15339571917E+01  0.14486284661E+04  0.14486639154E+04  0.10000000000E+02 0. -1.
</event>
<event>
 5    1  0.1146201E-008  0.3919896E+03  0.7957747E-01  0.3400559E+00
         13   -1    0    0    0    0  0.00000000000E+00  0.00000000000E+00  0.14999999963E+04  0.15000000000E+04  0.10566000000E+00 0. -1.
        994   -1    0    0    0    0 -0.00000000000E+00 -0.00000000000E+00  0.11368683772E-12  0.17120000000E+03  0.17120000000E+03 0.  0.
         13    1    1    2    0    0 -0.16558442735E+02  0.12658583336E+03  0.42885602576E+03  0.44745464265E+03  0.10566000000E+00 0. -1.
        994    1    1    2    0    0  0.94762278261E+00 -0.41788759982E+02  0.29728495512E+02  0.17871883475E+03  0.17120000000E+03 0.  0.
        998    1    1    2    0    0  0.15610819953E+02 -0.84797073376E+02  0.10414154750E+04  0.10450265226E+04  0.10000000000E+02 0. -1.
</event>
<event>
 5    1  0.1146201E-008  0.3812741E+03  0.7957747E-01  0.3445630E+00
         13   -1    0    0    0    0  0.00000000000E+00  0.00000000000E+00  0.14999999963E+04  0.15000000000E+04  0.10566000000E+00 0.  1.
        994   -1    0    0    0    0 -0.00000000000E+00 -0.00000000000E+00  0.11368683772E-12  0.17120000000E+03  0.17120000000E+03 0.  0.
         13    1    1    2    0    0 -0.20655193273E+02 -0.82594911663E-02  0.59882869981E+02  0.63345136819E+02  0.10566000000E+00 0.  1.
        994    1    1    2    0    0  0.13380046703E+02  0.14338988232E+02  0.47728357311E+01  0.17238576564E+03  0.17120000000E+03 0.  0.
        998    1    1    2    0    0  0.72751465697E+01 -0.14330728741E+02  0.14353442906E+04  0.14354690975E+04  0.10000000000E+02 0.  1.
</event>
<event>
 5    1  0.1146201E-008  0.3813960E+03  0.7957747E-01  0.3445102E+00
         13   -1    0    0    0    0  0.00000000000E+00  0.00000000000E+00  0.14999999963E+04  0.15000000000E+04  0.10566000000E+00 0.  1.
        994   -1    0    0    0    0 -0.00000000000E+00 -0.00000000000E+00  0.11368683772E-12  0.17120000000E+03  0.17120000000E+03 0.  0.
         13    1    1    2    0    0  0.21854080026E+02  0.20383384057E+02  0.13736394320E+03  0.14057719308E+03  0.10566000000E+00 0.  1.
        994    1    1    2    0    0  0.72316523880E+01 -0.20832733250E+02  0.50499597961E+01  0.17268827889E+03  0.17120000000E+03 0.  0.
        998    1    1    2    0    0 -0.29085732414E+02  0.44934919322E+00  0.13575860933E+04  0.13579345280E+04  0.10000000000E+02 0.  1.
</event>
<event>
 5    1  0.1146201E-008  0.3783651E+03  0.7957747E-01  0.3458308E+00
         13   -1    0    0    0    0  0.00000000000E+00  0.00000000000E+00  0.14999999963E+04  0.15000000000E+04  0.10566000000E+00 0. -1.
        994   -1    0    0    0    0 -0.00000000000E+00 -0.00000000000E+00  0.11368683772E-12  0.17120000000E+03  0.17120000000E+03 0.  0.
         13    1    1    2    0    0 -0.22438114649E+02  0.60651614380E+02  0.39088670419E+03  0.39620009338E+03  0.10566000000E+00 0. -1.
        994    1    1    2    0    0 -0.14850308509E+02 -0.54886333707E+02  0.15905200546E+02  0.18109515923E+03  0.17120000000E+03 0.  0.
        998    1    1    2    0    0  0.37288423157E+02 -0.57652806728E+01  0.10932080915E+04  0.10939047474E+04  0.10000000000E+02 0. -1.
</event>
<event>
 5    1  0.1146201E-008  0.3820999E+03  0.7957747E-01  0.3442066E+00
         13   -1    0    0    0    0  0.00000000000E+00  0.00000000000E+00  0.14999999963E+04  0.15000000000E+04  0.10566000000E+00 0.  1.
        994   -1    0    0    0    0 -0.00000000000E+00 -0.00000000000E+00  0.11368683772E-12  0.17120000000E+03  0.17120000000E+03 0.  0.
         13    1    1    2    0    0  0.11687030641E+02 -0.13203273654E+02  0.48922290172E+02  0.52003026452E+02  0.10566000000E+00 0.  1.
        994    1    1    2    0    0 -0.10462438243E+02  0.98745302896E+01  0.37642599481E+01  0.17184463511E+03  0.17120000000E+03 0.  0.
        998    1    1    2    0    0 -0.12245923983E+01  0.33287433639E+01  0.14473134462E+04  0.14473523384E+04  0.10000000000E+02 0.  1.
</event>
<event>
 5    1  0.1146201E-008  0.3772624E+03  0.7957747E-01  0.3463166E+00
         13   -1    0    0    0    0  0.00000000000E+00  0.00000000000E+00  0.14999999963E+04  0.15000000000E+04  0.10566000000E+00 0. -1.
        994   -1    0    0    0    0 -0.00000000000E+00 -0.00000000000E+00  0.11368683772E-12  0.17120000000E+03  0.17120000000E+03 0.  0.
         13    1    1    2    0    0 -0.66649001499E+02 -0.42388327228E+02  0.41924248010E+03  0.42661824618E+03  0.10566000000E+00 0. -1.
        994    1    1    2    0    0  0.68083834911E+02  0.33915106022E+02  0.25294931024E+02  0.18903681263E+03  0.17120000000E+03 0.  0.
        998    1    1    2    0    0 -0.14348334117E+01  0.84732212065E+01  0.10554625852E+04  0.10555449412E+04  0.10000000000E+02 0. -1.
</event>
<event>
 5    1  0.1146201E-008  0.3799131E+03  0.7957747E-01  0.3451537E+00
         13   -1    0    0    0    0  0.00000000000E+00  0.00000000000E+00  0.14999999963E+04  0.15000000000E+04  0.10566000000E+00 0.  1.
        994   -1    0    0    0    0 -0.00000000000E+00 -0.00000000000E+00  0.11368683772E-12  0.17120000000E+03  0.17120000000E+03 0.  0.
         13    1    1    2    0    0  0.13339280155E+01  0.24740962594E+02  0.73275452171E+02  0.77351132176E+02  0.10566000000E+00 0.  1.
        994    1    1    2    0    0 -0.69423873806E+01 -0.11245291863E+02  0.47612648724E+01  0.17177532703E+03  0.17120000000E+03 0.  0.
        998    1    1    2    0    0  0.56084593651E+01 -0.13495670731E+02  0.14219632792E+04  0.14220735408E+04  0.10000000000E+02 0.  1.
</event>
<event>
 5    1  0.1146201E-008  0.3762411E+03  0.7957747E-01  0.3467691E+00
         13   -1    0    0    0    0  0.00000000000E+00  0.00000000000E+00  0.14999999963E+04  0.15000000000E+04  0.10566000000E+00 0. -1.
        994   -1    0    0    0    0 -0.00000000000E+00 -0.00000000000E+00  0.11368683772E-12  0.17120000000E+03  0.17120000000E+03 0.  0.
         13    1    1    2    0    0 -0.12273733238E+02 -0.33895486370E+02  0.98556955165E+02  0.10494299929E+03  0.10566000000E+00 0. -1.
        994    1    1    2    0    0  0.31435191558E+02  0.28569099849E+02  0.12175112675E+02  0.17681074092E+03  0.17120000000E+03 0.  0.
        998    1    1    2    0    0 -0.19161458320E+02  0.53263865211E+01  0.13892679284E+04  0.13894462598E+04  0.10000000000E+02 0. -1.
</event>
<event>
 5    1  0.1146201E-008  0.3805626E+03  0.7957747E-01  0.3448712E+00
         13   -1    0    0    0    0  0.00000000000E+00  0.00000000000E+00  0.14999999963E+04  0.15000000000E+04  0.10566000000E+00 0.  1.
        994   -1    0    0    0    0 -0.00000000000E+00 -0.00000000000E+00  0.11368683772E-12  0.17120000000E+03  0.17120000000E+03 0.  0.
         13    1    1    2    0    0  0.65708586059E+00 -0.39441402223E+02  0.17920159805E+03  0.18349190685E+03  0.10566000000E+00 0.  1.
        994    1    1    2    0    0  0.52663373512E+00  0.39042984474E+02  0.89534611270E+01  0.17582444780E+03  0.17120000000E+03 0.  0.
        998    1    1    2    0    0 -0.11837195957E+01  0.39841774821E+00  0.13118449371E+04  0.13118836453E+04  0.10000000000E+02 0.  1.
</event>
<event>
 5    1  0.1146201E-008  0.3857839E+03  0.7957747E-01  0.3426355E+00
         13   -1    0    0    0    0  0.00000000000E+00  0.00000000000E+00  0.14999999963E+04  0.15000000000E+04  0.10566000000E+00 0.  1.
        994   -1    0    0    0    0 -0.00000000000E+00 -0.00000000000E+00  0.11368683772E-12  0.17120000000E+03  0.17120000000E+03 0.  0.
         13    1    1    2    0    0 -0.88937672487E-01  0.11455223053E+02  0.51604400969E+02  0.52860717064E+02  0.10566000000E+00 0.  1.
        994    1    1    2    0    0 -0.42371432619E+01 -0.12786837884E+02  0.18369197117E+01  0.17173896145E+03  0.17120000000E+03 0.  0.
        998    1    1    2    0    0  0.43260809344E+01  0.13316148309E+01  0.14465586756E+04  0.14466003215E+04  0.10000000000E+02 0.  1.
</event>
<event>
 5    1  0.1146201E-008  0.4057211E+03  0.7957747E-01  0.3346280E+00
         13   -1    0    0    0    0  0.00000000000E+00  0.00000000000E+00  0.14999999963E+04  0.15000000000E+04  0.10566000000E+00 0. -1.
        994   -1    0    0    0    0 -0.00000000000E+00 -0.00000000000E+00  0.11368683772E-12  0.17120000000E+03  0.17120000000E+03 0.  0.
         13    1    1    2    0    0  0.12175283208E+02  0.18787411851E+02 -0.57820826797E+01  0.23122456821E+02  0.10566000000E+00 0. -1.
        994    1    1    2    0    0  0.17831043331E+02 -0.49715717465E+02  0.42509044497E+02  0.18413597566E+03  0.17120000000E+03 0.  0.
        998    1    1    2    0    0 -0.30006326539E+02  0.30928305614E+02  0.14632730345E+04  0.14639415675E+04  0.10000000000E+02 0. -1.
</event>
<event>
 5    1  0.1146201E-008  0.2742114E+03  0.7957747E-01  0.4099268E+00
         13   -1    0    0    0    0  0.00000000000E+00  0.00000000000E+00  0.14999999963E+04  0.15000000000E+04  0.10566000000E+00 0. -1.
        994   -1    0    0    0    0 -0.00000000000E+00 -0.00000000000E+00  0.11368683772E-12  0.17120000000E+03  0.17120000000E+03 0.  0.
         13    1    1    2    0    0 -0.19518924522E+03 -0.15331000544E+02  0.47058049258E+03  0.50968607219E+03  0.10566000000E+00 0. -1.
        994    1    1    2    0    0  0.16732758398E+03 -0.37793360094E+02  0.16098124912E+03  0.29094889757E+03  0.17120000000E+03 0.  0.
        998    1    1    2    0    0  0.27861661242E+02  0.53124360638E+02  0.86843825458E+03  0.87056503024E+03  0.10000000000E+02 0. -1.
</event>
<event>
 5    1  0.1146201E-008  0.3818757E+03  0.7957747E-01  0.3443032E+00
         13   -1    0    0    0    0  0.00000000000E+00  0.00000000000E+00  0.14999999963E+04  0.15000000000E+04  0.10566000000E+00 0. -1.
        994   -1    0    0    0    0 -0.00000000000E+00 -0.00000000000E+00  0.11368683772E-12  0.17120000000E+03  0.17120000000E+03 0.  0.
         13    1    1    2    0    0  0.11176908069E+02 -0.14963340754E+02  0.52431273971E+02  0.55658552755E+02  0.10566000000E+00 0. -1.
        994    1    1    2    0    0 -0.49595676690E+01  0.18020244333E+02  0.43507027034E+01  0.17227215425E+03  0.17120000000E+03 0.  0.
        998    1    1    2    0    0 -0.62173403999E+01 -0.30569035796E+01  0.14432180196E+04  0.14432692930E+04  0.10000000000E+02 0. -1.
</event>
<event>
 5    1  0.1146201E-008  0.3845257E+03  0.7957747E-01  0.3431686E+00
         13   -1    0    0    0    0  0.00000000000E+00  0.00000000000E+00  0.14999999963E+04  0.15000000000E+04  0.10566000000E+00 0. -1.
        994   -1    0    0    0    0 -0.00000000000E+00 -0.00000000000E+00  0.11368683772E-12  0.17120000000E+03  0.17120000000E+03 0.  0.
         13    1    1    2    0    0 -0.16589041957E+02  0.71888509411E+01  0.89795887469E+02  0.91597971928E+02  0.10566000000E+00 0. -1.
        994    1    1    2    0    0  0.98732790988E+01  0.32099029978E+01  0.22208886380E+01  0.17152888230E+03  0.17120000000E+03 0.  0.
        998    1    1    2    0    0  0.67157628583E+01 -0.10398753939E+02  0.14079832202E+04  0.14080731458E+04  0.10000000000E+02 0. -1.
</event>
<event>
 5    1  0.1146201E-008  0.3779414E+03  0.7957747E-01  0.3460171E+00
         13   -1    0    0    0    0  0.00000000000E+00  0.00000000000E+00  0.14999999963E+04  0.15000000000E+04  0.10566000000E+00 0. -1.
        994   -1    0    0    0    0 -0.00000000000E+00 -0.00000000000E+00  0.11368683772E-12  0.17120000000E+03  0.17120000000E+03 0.  0.
         13    1    1    2    0    0  0.63111488694E+01  0.13070819144E+03  0.70556482685E+03  0.71759751808E+03  0.10566000000E+00 0. -1.
        994    1    1    2    0    0  0.19762871315E+02 -0.14339529597E+03  0.79291152792E+02  0.23780098591E+03  0.17120000000E+03 0.  0.
        998    1    1    2    0    0 -0.26074020184E+02  0.12687104535E+02  0.71514401664E+03  0.71580149601E+03  0.10000000000E+02 0. -1.
</event>
<event>
 5    1  0.1146201E-008  0.3834233E+03  0.7957747E-01  0.3436387E+00
         13   -1    0    0    0    0  0.00000000000E+00  0.00000000000E+00  0.14999999963E+04  0.15000000000E+04  0.10566000000E+00 0. -1.
        994   -1    0    0    0    0 -0.00000000000E+00 -0.00000000000E+00  0.11368683772E-12  0.17120000000E+03  0.17120000000E+03 0.  0.
         13    1    1    2    0    0 -0.18489939472E+02  0.44436202226E+01  0.77391803126E+02  0.79693951950E+02  0.10566000000E+00 0. -1.
        994    1    1    2    0    0  0.30843127953E+01 -0.88786211811E+01  0.27070386207E+01  0.17147918520E+03  0.17120000000E+03 0.  0.
        998    1    1    2    0    0  0.15405626677E+02  0.44350009585E+01  0.14199011545E+04  0.14200268628E+04  0.10000000000E+02 0. -1.
</event>
<event>
 5    1  0.1146201E-008  0.3842789E+03  0.7957747E-01  0.3432736E+00
         13   -1    0    0    0    0  0.00000000000E+00  0.00000000000E+00  0.14999999963E+04  0.15000000000E+04  0.10566000000E+00 0.  1.
        994   -1    0    0    0    0 -0.00000000000E+00 -0.00000000000E+00  0.11368683772E-12  0.17120000000E+03  0.17120000000E+03 0.  0.
         13    1    1    2    0    0  0.42840386396E+01 -0.16973977026E+02  0.70159467064E+02  0.72310655272E+02  0.10566000000E+00 0.  1.
        994    1    1    2    0    0 -0.50676953544E+01  0.26063616256E+02  0.43159460091E+01  0.17330049342E+03  0.17120000000E+03 0.  0.
        998    1    1    2    0    0  0.78365671480E+00 -0.90896392305E+01  0.14255245832E+04  0.14255888513E+04  0.10000000000E+02 0.  1.
</event>
<event>
 5    1  0.1146201E-008  0.3716996E+03  0.7957747E-01  0.3488116E+00
         13   -1    0    0    0    0  0.00000000000E+00  0.00000000000E+00  0.14999999963E+04  0.15000000000E+04  0.10566000000E+00 0. -1.
        994   -1    0    0    0    0 -0.00000000000E+00 -0.00000000000E+00  0.11368683772E-12  0.17120000000E+03  0.17120000000E+03 0.  0.
         13    1    1    2    0    0 -0.78097348891E+02 -0.51628525552E+02  0.38571012714E+03  0.39690932705E+03  0.10566000000E+00 0. -1.
        994    1    1    2    0    0  0.80371736543E+02  0.46074550660E+02  0.38489664653E+02  0.19842725251E+03  0.17120000000E+03 0.  0.
        998    1    1    2    0    0 -0.22743876513E+01  0.55539748923E+01  0.10758002045E+04  0.10758634204E+04  0.10000000000E+02 0.  0.
</event>
<event>
 5    1  0.1146201E-008  0.3808822E+03  0.7957747E-01  0.3447326E+00
         13   -1    0    0    0    0  0.00000000000E+00  0.00000000000E+00  0.14999999963E+04  0.15000000000E+04  0.10566000000E+00 0.  1.
        994   -1    0    0    0    0 -0.00000000000E+00 -0.00000000000E+00  0.11368683772E-12  0.17120000000E+03  0.17120000000E+03 0.  0.
         13    1    1    2    0    0 -0.11761359873E+01 -0.11629355701E+02  0.16903953033E+02  0.20551885609E+02  0.10566000000E+00 0.  1.
        994    1    1    2    0    0  0.71956764607E+01  0.92780575404E+01  0.41481409075E+01  0.17165228570E+03  0.17120000000E+03 0.  0.
        998    1    1    2    0    0 -0.60195404734E+01  0.23512981608E+01  0.14789479023E+04  0.14789958287E+04  0.10000000000E+02 0.  1.
</event>
<event>
 5    1  0.1146201E-008  0.3839020E+03  0.7957747E-01  0.3434342E+00
         13   -1    0    0    0    0  0.00000000000E+00  0.00000000000E+00  0.14999999963E+04  0.15000000000E+04  0.10566000000E+00 0. -1.
        994   -1    0    0    0    0 -0.00000000000E+00 -0.00000000000E+00  0.11368683772E-12  0.17120000000E+03  0.17120000000E+03 0.  0.
         13    1    1    2    0    0  0.84412809662E+01  0.10082384895E+02  0.38424971208E+02  0.40612797070E+02  0.10566000000E+00 0. -1.
        994    1    1    2    0    0 -0.42558210505E+01 -0.13779121651E+02  0.28629731226E+01  0.17183018600E+03  0.17120000000E+03 0.  0.
        998    1    1    2    0    0 -0.41854599158E+01  0.36967367561E+01  0.14587120519E+04  0.14587570169E+04  0.10000000000E+02 0. -1.
</event>
<event>
 5    1  0.1146201E-008  0.3810409E+03  0.7957747E-01  0.3446639E+00
         13   -1    0    0    0    0  0.00000000000E+00  0.00000000000E+00  0.14999999963E+04  0.15000000000E+04  0.10566000000E+00 0.  1.
        994   -1    0    0    0    0 -0.00000000000E+00 -0.00000000000E+00  0.11368683772E-12  0.17120000000E+03  0.17120000000E+03 0.  0.
         13    1    1    2    0    0  0.10641313719E+02 -0.41791149422E+01  0.16538192332E+02  0.20105360704E+02  0.10566000000E+00 0.  1.
        994    1    1    2    0    0 -0.34489735157E+01  0.17224835670E+02  0.46373689803E+01  0.17216136493E+03  0.17120000000E+03 0.  0.
        998    1    1    2    0    0 -0.71923402032E+01 -0.13045720728E+02  0.14788244350E+04  0.14789332744E+04  0.10000000000E+02 0.  1.
</event>
<event>
 5    1  0.1168193E-008  0.3861458E+03  0.7957747E-01  0.3424827E+00
         13   -1    0    0    0    0  0.00000000000E+00  0.00000000000E+00  0.14999999963E+04  0.15000000000E+04  0.10566000000E+00 0. -1.
        994   -1    0    0    0    0 -0.00000000000E+00 -0.00000000000E+00  0.11368683772E-12  0.17120000000E+03  0.17120000000E+03 0.  0.
         13    1    1    2    0    0  0.34009869702E+01  0.10494162354E+02  0.53043738830E+02  0.54178810886E+02  0.10566000000E+00 0. -1.
        994    1    1    2    0    0 -0.32768528712E+01 -0.20577723797E+02  0.24861904750E+01  0.17248130804E+03  0.17120000000E+03 0.  0.
        998    1    1    2    0    0 -0.12413409894E+00  0.10083561443E+02  0.14444700670E+04  0.14445398811E+04  0.10000000000E+02 0. -1.
</event>
<event>
 5    1  0.1146201E-008  0.3815082E+03  0.7957747E-01  0.3444618E+00
         13   -1    0    0    0    0  0.00000000000E+00  0.00000000000E+00  0.14999999963E+04  0.15000000000E+04  0.10566000000E+00 0.  1.
        994   -1    0    0    0    0 -0.00000000000E+00 -0.00000000000E+00  0.11368683772E-12  0.17120000000E+03  0.17120000000E+03 0.  0.
         13    1    1    2    0    0  0.43979831388E+02 -0.15762046542E+02  0.27019140126E+03  0.27420078803E+03  0.10566000000E+00 0.  1.
        994    1    1    2    0    0 -0.46801700712E+02  0.51731264802E+01  0.10784161007E+02  0.17788450904E+03  0.17120000000E+03 0.  0.
        998    1    1    2    0    0  0.28218693244E+01  0.10588920062E+02  0.12190244340E+04  0.12191147029E+04  0.10000000000E+02 0.  1.
</event>
<event>
 5    1  0.1146201E-008  0.3690083E+03  0.7957747E-01  0.3500461E+00
         13   -1    0    0    0    0  0.00000000000E+00  0.00000000000E+00  0.14999999963E+04  0.15000000000E+04  0.10566000000E+00 0.  1.
        994   -1    0    0    0    0 -0.00000000000E+00 -0.00000000000E+00  0.11368683772E-12  0.17120000000E+03  0.17120000000E+03 0.  0.
         13    1    1    2    0    0  0.14399295753E+02  0.20660059445E+02  0.28389739864E+02  0.37949522632E+02  0.10566000000E+00 0.  1.
        994    1    1    2    0    0 -0.72452164166E+01 -0.16032821575E+02  0.10863018536E+02  0.17244416401E+03  0.17120000000E+03 0.  0.
        998    1    1    2    0    0 -0.71540793363E+01 -0.46272378698E+01  0.14607472379E+04  0.14608063134E+04  0.10000000000E+02 0.  1.
</event>
<event>
 5    1  0.1146201E-008  0.3723513E+03  0.7957747E-01  0.3485154E+00
         13   -1    0    0    0    0  0.00000000000E+00  0.00000000000E+00  0.14999999963E+04  0.15000000000E+04  0.10566000000E+00 0. -1.
        994   -1    0    0    0    0 -0.00000000000E+00 -0.00000000000E+00  0.11368683772E-12  0.17120000000E+03  0.17120000000E+03 0.  0.
         13    1    1    2    0    0  0.13900149765E+02  0.14108442504E+01  0.84658891476E+01  0.16336679224E+02  0.10566000000E+00 0. -1.
        994    1    1    2    0    0 -0.12092393533E+02  0.15082466313E+01  0.85546974816E+01  0.17184622090E+03  0.17120000000E+03 0.  0.
        998    1    1    2    0    0 -0.18077562315E+01 -0.29190908817E+01  0.14829794096E+04  0.14830170999E+04  0.10000000000E+02 0. -1.
</event>
<event>
 5    1  0.1146201E-008  0.3859181E+03  0.7957747E-01  0.3425788E+00
         13   -1    0    0    0    0  0.00000000000E+00  0.00000000000E+00  0.14999999963E+04  0.15000000000E+04  0.10566000000E+00 0. -1.
        994   -1    0    0    0    0 -0.00000000000E+00 -0.00000000000E+00  0.11368683772E-12  0.17120000000E+03  0.17120000000E+03 0.  0.
         13    1    1    2    0    0  0.12185885617E+02 -0.58140566221E+01  0.77118719580E+02  0.78291807594E+02  0.10566000000E+00 0. -1.
        994    1    1    2    0    0 -0.11985419580E+02  0.22992617026E+00  0.16463255020E+01  0.17162707693E+03  0.17120000000E+03 0.  0.
        998    1    1    2    0    0 -0.20046603710E+00  0.55841304519E+01  0.14212349512E+04  0.14212811155E+04  0.10000000000E+02 0. -1.
</event>
<event>
 5    1  0.1146201E-008  0.3851642E+03  0.7957747E-01  0.3428976E+00
         13   -1    0    0    0    0  0.00000000000E+00  0.00000000000E+00  0.14999999963E+04  0.15000000000E+04  0.10566000000E+00 0.  1.
        994   -1    0    0    0    0 -0.00000000000E+00 -0.00000000000E+00  0.11368683772E-12  0.17120000000E+03  0.17120000000E+03 0.  0.
         13    1    1    2    0    0  0.10904106774E+02 -0.63529389534E+01  0.53552256840E+02  0.55019221683E+02  0.10566000000E+00 0.  1.
        994    1    1    2    0    0 -0.80068301334E+01 -0.99729897341E+01  0.20864758357E+01  0.17168972955E+03  0.17120000000E+03 0.  0.
        998    1    1    2    0    0 -0.28972766407E+01  0.16325928687E+02  0.14443612636E+04  0.14444910488E+04  0.10000000000E+02 0.  1.
</event>
<event>
 5    1  0.1146201E-008  0.3719926E+03  0.7957747E-01  0.3486783E+00
         13   -1    0    0    0    0  0.00000000000E+00  0.00000000000E+00  0.14999999963E+04  0.15000000000E+04  0.10566000000E+00 0. -1.
        994   -1    0    0    0    0 -0.00000000000E+00 -0.00000000000E+00  0.11368683772E-12  0.17120000000E+03  0.17120000000E+03 0.  0.
         13    1    1    2    0    0  0.66703769577E+01  0.90237490962E+02  0.50094157677E+03  0.50904790856E+03  0.10566000000E+00 0. -1.
        994    1    1    2    0    0  0.11343058409E+03 -0.42435714114E+02  0.65591863312E+02  0.21972487290E+03  0.17120000000E+03 0.  0.
        998    1    1    2    0    0 -0.12010096104E+03 -0.47801776847E+02  0.93346655620E+03  0.94242721854E+03  0.10000000000E+02 0. -1.
</event>
<event>
 5    1  0.1146201E-008  0.3816500E+03  0.7957747E-01  0.3444005E+00
         13   -1    0    0    0    0  0.00000000000E+00  0.00000000000E+00  0.14999999963E+04  0.15000000000E+04  0.10566000000E+00 0. -1.
        994   -1    0    0    0    0 -0.00000000000E+00 -0.00000000000E+00  0.11368683772E-12  0.17120000000E+03  0.17120000000E+03 0.  0.
         13    1    1    2    0    0 -0.48803549780E+01  0.11170917244E+02  0.20797408248E+02  0.24107065575E+02  0.10566000000E+00 0. -1.
        994    1    1    2    0    0  0.37949242411E+01 -0.14561295660E+02  0.40557308397E+01  0.17190788735E+03  0.17120000000E+03 0.  0.
        998    1    1    2    0    0  0.10854307369E+01  0.33903784157E+01  0.14751468572E+04  0.14751850471E+04  0.10000000000E+02 0. -1.
</event>
<event>
 5    1  0.1146201E-008  0.3774097E+03  0.7957747E-01  0.3462515E+00
         13   -1    0    0    0    0  0.00000000000E+00  0.00000000000E+00  0.14999999963E+04  0.15000000000E+04  0.10566000000E+00 0. -1.
        994   -1    0    0    0    0 -0.00000000000E+00 -0.00000000000E+00  0.11368683772E-12  0.17120000000E+03  0.17120000000E+03 0.  0.
         13    1    1    2    0    0  0.42092798139E+02 -0.17151547257E+02  0.18520117499E+03  0.19069731411E+03  0.10566000000E+00 0. -1.
        994    1    1    2    0    0 -0.18802028894E+02  0.31051004128E+02  0.99022800967E+01  0.17528598432E+03  0.17120000000E+03 0.  0.
        998    1    1    2    0    0 -0.23290769245E+02 -0.13899456872E+02  0.13048965412E+04  0.13052167016E+04  0.10000000000E+02 0. -1.
</event>
<event>
 5    1  0.1146201E-008  0.3857921E+03  0.7957747E-01  0.3426320E+00
         13   -1    0    0    0    0  0.00000000000E+00  0.00000000000E+00  0.14999999963E+04  0.15000000000E+04  0.10566000000E+00 0.  1.
        994   -1    0    0    0    0 -0.00000000000E+00 -0.00000000000E+00  0.11368683772E-12  0.17120000000E+03  0.17120000000E+03 0.  0.
         13    1    1    2    0    0  0.15455770476E+02 -0.25725485596E+01  0.72110006530E+02  0.73792703250E+02  0.10566000000E+00 0.  1.
        994    1    1    2    0    0 -0.56538176736E+02  0.99017318812E+00  0.11797147252E+02  0.18068247993E+03  0.17120000000E+03 0.  0.
        998    1    1    2    0    0  0.41082406260E+02  0.15823753715E+01  0.14160928425E+04  0.14167248168E+04  0.10000000000E+02 0.  1.
</event>
<event>
 5    1  0.1146201E-008  0.3792295E+03  0.7957747E-01  0.3454520E+00
         13   -1    0    0    0    0  0.00000000000E+00  0.00000000000E+00  0.14999999963E+04  0.15000000000E+04  0.10566000000E+00 0.  1.
        994   -1    0    0    0    0 -0.00000000000E+00 -0.00000000000E+00  0.11368683772E-12  0.17120000000E+03  0.17120000000E+03 0.  0.
         13    1    1    2    0    0 -0.93571817035E+01 -0.15942882674E+02  0.36313928906E+02  0.40748557692E+02  0.10566000000E+00 0.  1.
        994    1    1    2    0    0  0.47692019915E+01  0.84647458161E+01  0.48390143143E+01  0.17154373573E+03  0.17120000000E+03 0.  0.
        998    1    1    2    0    0  0.45879797120E+01  0.74781368577E+01  0.14588470531E+04  0.14589077066E+04  0.10000000000E+02 0.  1.
</event>
<event>
 5    1  0.1146201E-008  0.3790540E+03  0.7957747E-01  0.3455288E+00
         13   -1    0    0    0    0  0.00000000000E+00  0.00000000000E+00  0.14999999963E+04  0.15000000000E+04  0.10566000000E+00 0. -1.
        994   -1    0    0    0    0 -0.00000000000E+00 -0.00000000000E+00  0.11368683772E-12  0.17120000000E+03  0.17120000000E+03 0.  0.
         13    1    1    2    0    0 -0.12272658675E+02  0.25867520913E+02  0.91847900376E+02  0.96207041097E+02  0.10566000000E+00 0. -1.
        994    1    1    2    0    0  0.99093592248E+01 -0.28305618477E+01  0.49676809729E+01  0.17158183276E+03  0.17120000000E+03 0.  0.
        998    1    1    2    0    0  0.23632994503E+01 -0.23036959065E+02  0.14031844149E+04  0.14034111261E+04  0.10000000000E+02 0. -1.
</event>
<event>
 5    1  0.1146201E-008  0.3848376E+03  0.7957747E-01  0.3430361E+00
         13   -1    0    0    0    0  0.00000000000E+00  0.00000000000E+00  0.14999999963E+04  0.15000000000E+04  0.10566000000E+00 0.  1.
        994   -1    0    0    0    0 -0.00000000000E+00 -0.00000000000E+00  0.11368683772E-12  0.17120000000E+03  0.17120000000E+03 0.  0.
         13    1    1    2    0    0  0.15158538656E+02  0.38198151944E+01  0.68374265823E+02  0.70138603302E+02  0.10566000000E+00 0.  1.
        994    1    1    2    0    0 -0.16042544342E+02 -0.60323174168E+01  0.26779310751E+01  0.17207662072E+03  0.17120000000E+03 0.  0.
        998    1    1    2    0    0  0.88400568619E+00  0.22125022224E+01  0.14289477994E+04  0.14289847760E+04  0.10000000000E+02 0.  1.
</event>
<event>
 5    1  0.1146201E-008  0.3750461E+03  0.7957747E-01  0.3473016E+00
         13   -1    0    0    0    0  0.00000000000E+00  0.00000000000E+00  0.14999999963E+04  0.15000000000E+04  0.10566000000E+00 0.  1.
        994   -1    0    0    0    0 -0.00000000000E+00 -0.00000000000E+00  0.11368683772E-12  0.17120000000E+03  0.17120000000E+03 0.  0.
         13    1    1    2    0    0 -0.14191985998E+02  0.44453644751E+01  0.13544925926E+02  0.20115911967E+02  0.10566000000E+00 0.  1.
        994    1    1    2    0    0  0.13602071128E+02 -0.69538850788E+01  0.74485812825E+01  0.17204154795E+03  0.17120000000E+03 0.  0.
        998    1    1    2    0    0  0.58991486993E+00  0.25085206037E+01  0.14790064891E+04  0.14790425401E+04  0.10000000000E+02 0.  1.
</event>
<event>
 5    1  0.1146201E-008  0.4094261E+03  0.7957747E-01  0.3332254E+00
         13   -1    0    0    0    0  0.00000000000E+00  0.00000000000E+00  0.14999999963E+04  0.15000000000E+04  0.10566000000E+00 0.  1.
        994   -1    0    0    0    0 -0.00000000000E+00 -0.00000000000E+00  0.11368683772E-12  0.17120000000E+03  0.17120000000E+03 0.  0.
         13    1    1    2    0    0 -0.78302188156E+02  0.11145245288E+03  0.22466879728E+03  0.26273363233E+03  0.10566000000E+00 0.  1.
        994    1    1    2    0    0  0.82766090015E+02 -0.10424150328E+03  0.11017704470E+03  0.24323843825E+03  0.17120000000E+03 0.  0.
        998    1    1    2    0    0 -0.44639018599E+01 -0.72109496071E+01  0.11651541543E+04  0.11652279294E+04  0.10000000000E+02 0.  1.
</event>
<event>
 5    1  0.1146201E-008  0.3837155E+03  0.7957747E-01  0.3435138E+00
         13   -1    0    0    0    0  0.00000000000E+00  0.00000000000E+00  0.14999999963E+04  0.15000000000E+04  0.10566000000E+00 0. -1.
        994   -1    0    0    0    0 -0.00000000000E+00 -0.00000000000E+00  0.11368683772E-12  0.17120000000E+03  0.17120000000E+03 0.  0.
         13    1    1    2    0    0  0.12062953593E+02 -0.22355586762E+01  0.32835914443E+02  0.35053117027E+02  0.10566000000E+00 0. -1.
        994    1    1    2    0    0 -0.61481609834E+01 -0.13001798049E+01  0.23996431171E+01  0.17133210043E+03  0.17120000000E+03 0.  0.
        998    1    1    2    0    0 -0.59147926097E+01  0.35357384811E+01  0.14647644387E+04  0.14648147825E+04  0.10000000000E+02 0. -1.
</event>
<event>
 5    1  0.1146201E-008  0.3853034E+03  0.7957747E-01  0.3428387E+00
         13   -1    0    0    0    0  0.00000000000E+00  0.00000000000E+00  0.14999999963E+04  0.15000000000E+04  0.10566000000E+00 0. -1.
        994   -1    0    0    0    0 -0.00000000000E+00 -0.00000000000E+00  0.11368683772E-12  0.17120000000E+03  0.17120000000E+03 0.  0.
         13    1    1    2    0    0  0.12031498072E+02 -0.13363673334E+02  0.10364398537E+03  0.10519235513E+03  0.10566000000E+00 0. -1.
        994    1    1    2    0    0 -0.12243967061E+02  0.13410231947E+02  0.25637018800E+01  0.17217944598E+03  0.17120000000E+03 0.  0.
        998    1    1    2    0    0  0.21246898824E+00 -0.46558613183E-01  0.13937923090E+04  0.13938281989E+04  0.10000000000E+02 0.  0.
</event>
<event>
 5    1  0.1146201E-008  0.3764404E+03  0.7957747E-01  0.3466806E+00
         13   -1    0    0    0    0  0.00000000000E+00  0.00000000000E+00  0.14999999963E+04  0.15000000000E+04  0.10566000000E+00 0. -1.
        994   -1    0    0    0    0 -0.00000000000E+00 -0.00000000000E+00  0.11368683772E-12  0.17120000000E+03  0.17120000000E+03 0.  0.
         13    1    1    2    0    0  0.13215630236E+02  0.34145806490E+02  0.11905486801E+03  0.12455786504E+03  0.10566000000E+00 0. -1.
        994    1    1    2    0    0 -0.10965337893E+02 -0.34596438550E+01  0.63882475997E+01  0.17170456452E+03  0.17120000000E+03 0.  0.
        998    1    1    2    0    0 -0.22502923431E+01 -0.30686162635E+02  0.13745568807E+04  0.13749375704E+04  0.10000000000E+02 0. -1.
</event>
<event>
 5    1  0.1146201E-008  0.3734827E+03  0.7957747E-01  0.3480037E+00
         13   -1    0    0    0    0  0.00000000000E+00  0.00000000000E+00  0.14999999963E+04  0.15000000000E+04  0.10566000000E+00 0.  1.
        994   -1    0    0    0    0 -0.00000000000E+00 -0.00000000000E+00  0.11368683772E-12  0.17120000000E+03  0.17120000000E+03 0.  0.
         13    1    1    2    0    0 -0.10573289208E+02 -0.80728300161E+01  0.89237932620E+01  0.16019059878E+02  0.10566000000E+00 0.  1.
        994    1    1    2    0    0 -0.10424695514E+02 -0.67226784942E+01  0.79858658399E+01  0.17183446318E+03  0.17120000000E+03 0.  0.
        998    1    1    2    0    0  0.20997984722E+02  0.14795508510E+02  0.14830903372E+04  0.14833464769E+04  0.10000000000E+02 0.  1.
</event>
<event>
 5    1  0.1146201E-008  0.3753546E+03  0.7957747E-01  0.3471638E+00
         13   -1    0    0    0    0  0.00000000000E+00  0.00000000000E+00  0.14999999963E+04  0.15000000000E+04  0.10566000000E+00 0. -1.
        994   -1    0    0    0    0 -0.00000000000E+00 -0.00000000000E+00  0.11368683772E-12  0.17120000000E+03  0.17120000000E+03 0.  0.
         13    1    1    2    0    0 -0.35480069871E+02  0.28261142773E+02  0.17290919595E+03  0.17875997527E+03  0.10566000000E+00 0. -1.
        994    1    1    2    0    0  0.13089302909E+02  0.24287377092E+01  0.70986934637E+01  0.17186349254E+03  0.17120000000E+03 0.  0.
        998    1    1    2    0    0  0.22390766962E+02 -0.30689880482E+02  0.13199921069E+04  0.13205765322E+04  0.10000000000E+02 0. -1.
</event>
<event>
 5    1  0.1146201E-008  0.3795568E+03  0.7957747E-01  0.3453091E+00
         13   -1    0    0    0    0  0.00000000000E+00  0.00000000000E+00  0.14999999963E+04  0.15000000000E+04  0.10566000000E+00 0. -1.
        994   -1    0    0    0    0 -0.00000000000E+00 -0.00000000000E+00  0.11368683772E-12  0.17120000000E+03  0.17120000000E+03 0.  0.
         13    1    1    2    0    0  0.21014300372E+02 -0.11921881043E+02  0.65623445840E+02  0.69929821076E+02  0.10566000000E+00 0. -1.
        994    1    1    2    0    0 -0.10951844266E+02  0.10120158030E+02  0.51018139027E+01  0.17192390467E+03  0.17120000000E+03 0.  0.
        998    1    1    2    0    0 -0.10062456106E+02  0.18017230131E+01  0.14292747365E+04  0.14293462743E+04  0.10000000000E+02 0. -1.
</event>
<event>
 5    1  0.1146201E-008  0.3803250E+03  0.7957747E-01  0.3449745E+00
         13   -1    0    0    0    0  0.00000000000E+00  0.00000000000E+00  0.14999999963E+04  0.15000000000E+04  0.10566000000E+00 0.  1.
        994   -1    0    0    0    0 -0.00000000000E+00 -0.00000000000E+00  0.11368683772E-12  0.17120000000E+03  0.17120000000E+03 0.  0.
         13    1    1    2    0    0  0.35873792503E+02 -0.83155410843E+01  0.14533762287E+03  0.14993036049E+03  0.10566000000E+00 0.  1.
        994    1    1    2    0    0 -0.58589322917E+02 -0.35864862470E+02  0.19891686019E+02  0.18553737169E+03  0.17120000000E+03 0.  0.
        998    1    1    2    0    0  0.22715530414E+02  0.44180403554E+02  0.13347706874E+04  0.13357322678E+04  0.10000000000E+02 0.  1.
</event>
<event>
 5    1  0.1146201E-008  0.3767937E+03  0.7957747E-01  0.3465239E+00
         13   -1    0    0    0    0  0.00000000000E+00  0.00000000000E+00  0.14999999963E+04  0.15000000000E+04  0.10566000000E+00 0.  1.
        994   -1    0    0    0    0 -0.00000000000E+00 -0.00000000000E+00  0.11368683772E-12  0.17120000000E+03  0.17120000000E+03 0.  0.
         13    1    1    2    0    0  0.10803107131E+03 -0.13404937146E+03  0.89086170030E+03  0.90734476721E+03  0.10566000000E+00 0.  1.
        994    1    1    2    0    0 -0.10388830926E+03  0.13640357362E+03  0.11258254990E+03  0.26717594622E+03  0.17120000000E+03 0.  0.
        998    1    1    2    0    0 -0.41427620458E+01 -0.23542021559E+01  0.49655574607E+03  0.49667928656E+03  0.10000000000E+02 0.  0.
</event>
<event>
 5    1  0.1146201E-008  0.3808363E+03  0.7957747E-01  0.3447525E+00
         13   -1    0    0    0    0  0.00000000000E+00  0.00000000000E+00  0.14999999963E+04  0.15000000000E+04  0.10566000000E+00 0.  1.
        994   -1    0    0    0    0 -0.00000000000E+00 -0.00000000000E+00  0.11368683772E-12  0.17120000000E+03  0.17120000000E+03 0.  0.
         13    1    1    2    0    0  0.77574818157E+02  0.54937054844E+02  0.21694907159E+03  0.23686038764E+03  0.10566000000E+00 0.  1.
        994    1    1    2    0    0 -0.10868943391E+03 -0.24145000084E+02  0.63360922154E+02  0.21382333953E+03  0.17120000000E+03 0.  0.
        998    1    1    2    0    0  0.31114615749E+02 -0.30792054760E+02  0.12196900025E+04  0.12205162728E+04  0.10000000000E+02 0.  1.
</event>
<event>
 5    1  0.1146201E-008  0.3824887E+03  0.7957747E-01  0.3440393E+00
         13   -1    0    0    0    0  0.00000000000E+00  0.00000000000E+00  0.14999999963E+04  0.15000000000E+04  0.10566000000E+00 0. -1.
        994   -1    0    0    0    0 -0.00000000000E+00 -0.00000000000E+00  0.11368683772E-12  0.17120000000E+03  0.17120000000E+03 0.  0.
         13    1    1    2    0    0 -0.11966203060E+02  0.28262249902E+01  0.25594709050E+02  0.28395032290E+02  0.10566000000E+00 0. -1.
        994    1    1    2    0    0  0.54297397190E+01  0.84935587174E+01  0.32191207914E+01  0.17152674821E+03  0.17120000000E+03 0.  0.
        998    1    1    2    0    0  0.65364633409E+01 -0.11319783708E+02  0.14711861664E+04  0.14712782195E+04  0.10000000000E+02 0. -1.
</event>
<event>
 5    1  0.1146201E-008  0.3715243E+03  0.7957747E-01  0.3488915E+00
         13   -1    0    0    0    0  0.00000000000E+00  0.00000000000E+00  0.14999999963E+04  0.15000000000E+04  0.10566000000E+00 0.  1.
        994   -1    0    0    0    0 -0.00000000000E+00 -0.00000000000E+00  0.11368683772E-12  0.17120000000E+03  0.17120000000E+03 0.  0.
         13    1    1    2    0    0 -0.24229251416E+02 -0.13033935632E+01  0.30663939282E+02  0.39102989595E+02  0.10566000000E+00 0.  1.
        994    1    1    2    0    0  0.24372525285E+02 -0.62356749526E+00  0.10521692110E+02  0.17324709184E+03  0.17120000000E+03 0.  0.
        998    1    1    2    0    0 -0.14327386905E+00  0.19269610585E+01  0.14588143649E+04  0.14588499186E+04  0.10000000000E+02 0.  1.
</event>
<event>
 5    1  0.1146201E-008  0.3858450E+03  0.7957747E-01  0.3426096E+00
         13   -1    0    0    0    0  0.00000000000E+00  0.00000000000E+00  0.14999999963E+04  0.15000000000E+04  0.10566000000E+00 0. -1.
        994   -1    0    0    0    0 -0.00000000000E+00 -0.00000000000E+00  0.11368683772E-12  0.17120000000E+03  0.17120000000E+03 0.  0.
         13    1    1    2    0    0  0.90067527613E+01 -0.99731825282E+01  0.76057348958E+02  0.77235467627E+02  0.10566000000E+00 0. -1.
        994    1    1    2    0    0  0.14561913448E+01  0.11578423493E+02  0.16579297792E+01  0.17160527123E+03  0.17120000000E+03 0.  0.
        998    1    1    2    0    0 -0.10462944106E+02 -0.16052409647E+01  0.14222847175E+04  0.14223592611E+04  0.10000000000E+02 0. -1.
</event>
<event>
 5    1  0.1146201E-008  0.3856904E+03  0.7957747E-01  0.3426749E+00
         13   -1    0    0    0    0  0.00000000000E+00  0.00000000000E+00  0.14999999963E+04  0.15000000000E+04  0.10566000000E+00 0. -1.
        994   -1    0    0    0    0 -0.00000000000E+00 -0.00000000000E+00  0.11368683772E-12  0.17120000000E+03  0.17120000000E+03 0.  0.
         13    1    1    2    0    0 -0.11856737393E+02 -0.24195066801E+01  0.58572398708E+02  0.59809474907E+02  0.10566000000E+00 0. -1.
        994    1    1    2    0    0  0.36448022585E+01  0.61165050255E+01  0.14541228989E+01  0.17135416742E+03  0.17120000000E+03 0.  0.
        998    1    1    2    0    0  0.82119351349E+01 -0.36969983455E+01  0.14399734747E+04  0.14400363577E+04  0.10000000000E+02 0. -1.
</event>
<event>
 5    1  0.1146201E-008  0.3754267E+03  0.7957747E-01  0.3471317E+00
         13   -1    0    0    0    0  0.00000000000E+00  0.00000000000E+00  0.14999999963E+04  0.15000000000E+04  0.10566000000E+00 0. -1.
        994   -1    0    0    0    0 -0.00000000000E+00 -0.00000000000E+00  0.11368683772E-12  0.17120000000E+03  0.17120000000E+03 0.  0.
         13    1    1    2    0    0 -0.24937650851E+02  0.70249304752E+01  0.57490712351E+02  0.63058934726E+02  0.10566000000E+00 0. -1.
        994    1    1    2    0    0 -0.30894150060E+02 -0.76094117246E+01  0.99036867179E+01  0.17441294294E+03  0.17120000000E+03 0.  0.
        998    1    1    2    0    0  0.55831800911E+02  0.58448124947E+00  0.14326055972E+04  0.14337281223E+04  0.10000000000E+02 0. -1.
</event>
<event>
 5    1  0.1146201E-008  0.3820741E+03  0.7957747E-01  0.3442177E+00
         13   -1    0    0    0    0  0.00000000000E+00  0.00000000000E+00  0.14999999963E+04  0.15000000000E+04  0.10566000000E+00 0.  1.
        994   -1    0    0    0    0 -0.00000000000E+00 -0.00000000000E+00  0.11368683772E-12  0.17120000000E+03  0.17120000000E+03 0.  0.
         13    1    1    2    0    0  0.28744071603E+02 -0.19448394168E+02  0.17336100420E+03  0.17680076536E+03  0.10566000000E+00 0.  1.
        994    1    1    2    0    0 -0.29711413498E+02  0.18399625843E+02  0.71553898356E+01  0.17487696797E+03  0.17120000000E+03 0.  0.
        998    1    1    2    0    0  0.96734189499E+00  0.10487683248E+01  0.13194836022E+04  0.13195222667E+04  0.10000000000E+02 0.  1.
</event>
<event>
 5    1  0.1146201E-008  0.3835379E+03  0.7957747E-01  0.3435897E+00
         13   -1    0    0    0    0  0.00000000000E+00  0.00000000000E+00  0.14999999963E+04  0.15000000000E+04  0.10566000000E+00 0. -1.
        994   -1    0    0    0    0 -0.00000000000E+00 -0.00000000000E+00  0.11368683772E-12  0.17120000000E+03  0.17120000000E+03 0.  0.
         13    1    1    2    0    0  0.13977450474E+02 -0.66623511586E+01  0.50396620460E+02  0.52721784516E+02  0.10566000000E+00 0. -1.
        994    1    1    2    0    0 -0.77164610925E+01  0.58964079414E+01  0.26694622487E+01  0.17149599828E+03  0.17120000000E+03 0.  0.
        998    1    1    2    0    0 -0.62609893816E+01  0.76594321725E+00  0.14469339136E+04  0.14469822172E+04  0.10000000000E+02 0. -1.
</event>
<event>
 5    1  0.1146201E-008  0.3835565E+03  0.7957747E-01  0.3435817E+00
         13   -1    0    0    0    0  0.00000000000E+00  0.00000000000E+00  0.14999999963E+04  0.15000000000E+04  0.10566000000E+00 0. -1.
        994   -1    0    0    0    0 -0.00000000000E+00 -0.00000000000E+00  0.11368683772E-12  0.17120000000E+03  0.17120000000E+03 0.  0.
         13    1    1    2    0    0 -0.68779921802E+01  0.19988229338E+02  0.90294914863E+02  0.92736286871E+02  0.10566000000E+00 0. -1.
        994    1    1    2    0    0  0.93039940125E+01 -0.18656640307E+02  0.37859093110E+01  0.17250625392E+03  0.17120000000E+03 0.  0.
        998    1    1    2    0    0 -0.24260018324E+01 -0.13315890301E+01  0.14059191721E+04  0.14059574592E+04  0.10000000000E+02 0. -1.
</event>
<event>
 5    1  0.1146201E-008  0.3830097E+03  0.7957747E-01  0.3438158E+00
         13   -1    0    0    0    0  0.00000000000E+00  0.00000000000E+00  0.14999999963E+04  0.15000000000E+04  0.10566000000E+00 0. -1.
        994   -1    0    0    0    0 -0.00000000000E+00 -0.00000000000E+00  0.11368683772E-12  0.17120000000E+03  0.17120000000E+03 0.  0.
         13    1    1    2    0    0 -0.51400777479E+01  0.12798034611E+02  0.34961483665E+02  0.37583594735E+02  0.10566000000E+00 0. -1.
        994    1    1    2    0    0  0.44889142204E+01 -0.11945524127E+02  0.31607396906E+01  0.17170403657E+03  0.17120000000E+03 0.  0.
        998    1    1    2    0    0  0.65116352756E+00 -0.85251048390E+00  0.14618777729E+04  0.14619123687E+04  0.10000000000E+02 0. -1.
</event>
<event>
 5    1  0.1146201E-008  0.3836039E+03  0.7957747E-01  0.3435615E+00
         13   -1    0    0    0    0  0.00000000000E+00  0.00000000000E+00  0.14999999963E+04  0.15000000000E+04  0.10566000000E+00 0. -1.
        994   -1    0    0    0    0 -0.00000000000E+00 -0.00000000000E+00  0.11368683772E-12  0.17120000000E+03  0.17120000000E+03 0.  0.
         13    1    1    2    0    0 -0.46045090462E+02  0.26966700132E+02  0.67287830590E+02  0.85877916725E+02  0.10566000000E+00 0. -1.
        994    1    1    2    0    0  0.48489949027E+02 -0.32593706768E+02  0.30965552661E+02  0.18352637502E+03  0.17120000000E+03 0.  0.
        998    1    1    2    0    0 -0.24448585656E+01  0.56270066370E+01  0.14017466130E+04  0.14017957083E+04  0.10000000000E+02 0. -1.
</event>
<event>
 5    1  0.1146201E-008  0.3685819E+03  0.7957747E-01  0.3502434E+00
         13   -1    0    0    0    0  0.00000000000E+00  0.00000000000E+00  0.14999999963E+04  0.15000000000E+04  0.10566000000E+00 0.  1.
        994   -1    0    0    0    0 -0.00000000000E+00 -0.00000000000E+00  0.11368683772E-12  0.17120000000E+03  0.17120000000E+03 0.  0.
         13    1    1    2    0    0  0.83510595154E+02  0.98082585856E+02  0.73304419067E+03  0.74427683680E+03  0.10566000000E+00 0.  1.
        994    1    1    2    0    0 -0.48104356395E+02 -0.74138928798E+02  0.37665362486E+02  0.19631283554E+03  0.17120000000E+03 0.  0.
        998    1    1    2    0    0 -0.35406238760E+02 -0.23943657058E+02  0.72929044312E+03  0.73061032766E+03  0.10000000000E+02 0. -1.
</event>
<event>
 5    1  0.1146201E-008  0.3761925E+03  0.7957747E-01  0.3467907E+00
         13   -1    0    0    0    0  0.00000000000E+00  0.00000000000E+00  0.14999999963E+04  0.15000000000E+04  0.10566000000E+00 0.  1.
        994   -1    0    0    0    0 -0.00000000000E+00 -0.00000000000E+00  0.11368683772E-12  0.17120000000E+03  0.17120000000E+03 0.  0.
         13    1    1    2    0    0  0.19808352952E+02  0.46442342864E+01  0.30381916344E+02  0.36565171455E+02  0.10566000000E+00 0.  1.
        994    1    1    2    0    0 -0.27672727336E+02 -0.61721781047E+01  0.87940148445E+01  0.17375456920E+03  0.17120000000E+03 0.  0.
        998    1    1    2    0    0  0.78643743835E+01  0.15279438183E+01  0.14608240651E+04  0.14608802593E+04  0.10000000000E+02 0.  1.
</event>
<event>
 5    1  0.1146201E-008  0.3931415E+03  0.7957747E-01  0.3395860E+00
         13   -1    0    0    0    0  0.00000000000E+00  0.00000000000E+00  0.14999999963E+04  0.15000000000E+04  0.10566000000E+00 0. -1.
        994   -1    0    0    0    0 -0.00000000000E+00 -0.00000000000E+00  0.11368683772E-12  0.17120000000E+03  0.17120000000E+03 0.  0.
         13    1    1    2    0    0  0.10951683263E+03 -0.16133702837E+02  0.20608367792E+03  0.23393316667E+03  0.10566000000E+00 0. -1.
        994    1    1    2    0    0 -0.11796264408E+03  0.19726249607E+02  0.80566063558E+02  0.22384065967E+03  0.17120000000E+03 0.  0.
        998    1    1    2    0    0  0.84458114520E+01 -0.35925467699E+01  0.12133502548E+04  0.12134261737E+04  0.10000000000E+02 0.  1.
</event>
<event>
 5    1  0.1146201E-008  0.3808419E+03  0.7957747E-01  0.3447501E+00
         13   -1    0    0    0    0  0.00000000000E+00  0.00000000000E+00  0.14999999963E+04  0.15000000000E+04  0.10566000000E+00 0.  1.
        994   -1    0    0    0    0 -0.00000000000E+00 -0.00000000000E+00  0.11368683772E-12  0.17120000000E+03  0.17120000000E+03 0.  0.
         13    1    1    2    0    0 -0.12795645281E+02  0.11202097198E+01  0.20422517711E+02  0.24126205704E+02  0.10566000000E+00 0.  1.
        994    1    1    2    0    0  0.13953920004E+02 -0.42979075736E+01  0.44197800606E+01  0.17187832426E+03  0.17120000000E+03 0.  0.
        998    1    1    2    0    0 -0.11582747223E+01  0.31776978538E+01  0.14751576985E+04  0.14751954700E+04  0.10000000000E+02 0.  1.
</event>
<event>
 5    1  0.1146201E-008  0.3837454E+03  0.7957747E-01  0.3435010E+00
         13   -1    0    0    0    0  0.00000000000E+00  0.00000000000E+00  0.14999999963E+04  0.15000000000E+04  0.10566000000E+00 0.  1.
        994   -1    0    0    0    0 -0.00000000000E+00 -0.00000000000E+00  0.11368683772E-12  0.17120000000E+03  0.17120000000E+03 0.  0.
         13    1    1    2    0    0  0.16160480860E+02  0.25590046558E+01  0.65204897882E+02  0.67226479294E+02  0.10566000000E+00 0.  1.
        994    1    1    2    0    0  0.78308272652E+01  0.28725958489E+00  0.24570720306E+01  0.17139685405E+03  0.17120000000E+03 0.  0.
        998    1    1    2    0    0 -0.23991308125E+02 -0.28462642407E+01  0.14323380264E+04  0.14325766667E+04  0.10000000000E+02 0.  1.
</event>
<event>
 5    1  0.1146201E-008  0.3846392E+03  0.7957747E-01  0.3431204E+00
         13   -1    0    0    0    0  0.00000000000E+00  0.00000000000E+00  0.14999999963E+04  0.15000000000E+04  0.10566000000E+00 0. -1.
        994   -1    0    0    0    0 -0.00000000000E+00 -0.00000000000E+00  0.11368683772E-12  0.17120000000E+03  0.17120000000E+03 0.  0.
         13    1    1    2    0    0 -0.75618940722E+01  0.21112589688E+02  0.13170517976E+03  0.13360085788E+03  0.10566000000E+00 0. -1.
        994    1    1    2    0    0 -0.10097091363E+01 -0.21714689905E+02  0.33667749658E+01  0.17260742291E+03  0.17120000000E+03 0.  0.
        998    1    1    2    0    0  0.85716032085E+01  0.60210021740E+00  0.13649280416E+04  0.13649917192E+04  0.10000000000E+02 0. -1.
</event>
<event>
 5    1  0.1146201E-008  0.3793344E+03  0.7957747E-01  0.3454062E+00
         13   -1    0    0    0    0  0.00000000000E+00  0.00000000000E+00  0.14999999963E+04  0.15000000000E+04  0.10566000000E+00 0. -1.
        994   -1    0    0    0    0 -0.00000000000E+00 -0.00000000000E+00  0.11368683772E-12  0.17120000000E+03  0.17120000000E+03 0.  0.
         13    1    1    2    0    0  0.15927664562E+02 -0.27635498470E+01  0.26879589466E+02  0.31366402409E+02  0.10566000000E+00 0. -1.
        994    1    1    2    0    0 -0.18754746691E+02 -0.30923136841E+01  0.56809173753E+01  0.17234562875E+03  0.17120000000E+03 0.  0.
        998    1    1    2    0    0  0.28270821285E+01  0.58558635311E+01  0.14674394894E+04  0.14674879688E+04  0.10000000000E+02 0. -1.
</event>
<event>
 5    1  0.1146201E-008  0.3959193E+03  0.7957747E-01  0.3384642E+00
         13   -1    0    0    0    0  0.00000000000E+00  0.00000000000E+00  0.14999999963E+04  0.15000000000E+04  0.10566000000E+00 0.  1.
        994   -1    0    0    0    0 -0.00000000000E+00 -0.00000000000E+00  0.11368683772E-12  0.17120000000E+03  0.17120000000E+03 0.  0.
         13    1    1    2    0    0 -0.12981373955E+03 -0.54344660389E+02  0.36635523060E+03  0.39245523979E+03  0.10566000000E+00 0.  1.
        994    1    1    2    0    0  0.88724251016E+02  0.33482791095E+02  0.60903669260E+02  0.20496777051E+03  0.17120000000E+03 0.  0.
        998    1    1    2    0    0  0.41089488538E+02  0.20861869294E+02  0.10727410964E+04  0.10737769897E+04  0.10000000000E+02 0.  1.
</event>
<event>
 5    1  0.1146201E-008  0.3351024E+03  0.7957747E-01  0.3673449E+00
         13   -1    0    0    0    0  0.00000000000E+00  0.00000000000E+00  0.14999999963E+04  0.15000000000E+04  0.10566000000E+00 0.  1.
        994   -1    0    0    0    0 -0.00000000000E+00 -0.00000000000E+00  0.11368683772E-12  0.17120000000E+03  0.17120000000E+03 0.  0.
         13    1    1    2    0    0 -0.27562720055E+03 -0.12335519814E+03  0.36007606070E+03  0.46993790999E+03  0.10566000000E+00 0.  1.
        994    1    1    2    0    0  0.21459814929E+03  0.10367510125E+03  0.73917878454E+03  0.79529592468E+03  0.17120000000E+03 0.  0.
        998    1    1    2    0    0  0.61029051259E+02  0.19680096886E+02  0.40074515104E+03  0.40596616533E+03  0.10000000000E+02 0.  1.
</event>
<event>
 5    1  0.1146201E-008  0.3790319E+03  0.7957747E-01  0.3455385E+00
         13   -1    0    0    0    0  0.00000000000E+00  0.00000000000E+00  0.14999999963E+04  0.15000000000E+04  0.10566000000E+00 0. -1.
        994   -1    0    0    0    0 -0.00000000000E+00 -0.00000000000E+00  0.11368683772E-12  0.17120000000E+03  0.17120000000E+03 0.  0.
         13    1    1    2    0    0 -0.43282391882E+01  0.18204189198E+02  0.39083012307E+02  0.43331503250E+02  0.10566000000E+00 0. -1.
        994    1    1    2    0    0 -0.79778097456E+02 -0.66171228618E+01  0.26423165663E+02  0.19082964872E+03  0.17120000000E+03 0.  0.
        998    1    1    2    0    0  0.84106336645E+02 -0.11587066336E+02  0.14344938183E+04  0.14370388480E+04  0.10000000000E+02 0. -1.
</event>
<event>
 5    1  0.1146201E-008  0.3852053E+03  0.7957747E-01  0.3428802E+00
         13   -1    0    0    0    0  0.00000000000E+00  0.00000000000E+00  0.14999999963E+04  0.15000000000E+04  0.10566000000E+00 0.  1.
        994   -1    0    0    0    0 -0.00000000000E+00 -0.00000000000E+00  0.11368683772E-12  0.17120000000E+03  0.17120000000E+03 0.  0.
         13    1    1    2    0    0  0.17273559484E+02 -0.18525358773E+01  0.10285068977E+03  0.10430763776E+03  0.10566000000E+00 0.  1.
        994    1    1    2    0    0 -0.57700917349E+01  0.75664159445E+01  0.18258514983E+01  0.17147395821E+03  0.17120000000E+03 0.  0.
        998    1    1    2    0    0 -0.11503467749E+02 -0.57138800673E+01  0.13953234550E+04  0.13954184040E+04  0.10000000000E+02 0.  1.
</event>
<event>
 5    1  0.1146201E-008  0.3855495E+03  0.7957747E-01  0.3427345E+00
         13   -1    0    0    0    0  0.00000000000E+00  0.00000000000E+00  0.14999999963E+04  0.15000000000E+04  0.10566000000E+00 0.  1.
        994   -1    0    0    0    0 -0.00000000000E+00 -0.00000000000E+00  0.11368683772E-12  0.17120000000E+03  0.17120000000E+03 0.  0.
         13    1    1    2    0    0 -0.12812533706E+02  0.69154479385E+01  0.81095638851E+02  0.82392343363E+02  0.10566000000E+00 0.  1.
        994    1    1    2    0    0 -0.16110279609E+01 -0.14935632888E+02  0.20987331825E+01  0.17187062932E+03  0.17120000000E+03 0.  0.
        998    1    1    2    0    0  0.14423561667E+02  0.80201849500E+01  0.14168056242E+04  0.14169370273E+04  0.10000000000E+02 0.  1.
</event>
<event>
 5    1  0.1146201E-008  0.3852794E+03  0.7957747E-01  0.3428488E+00
         13   -1    0    0    0    0  0.00000000000E+00  0.00000000000E+00  0.14999999963E+04  0.15000000000E+04  0.10566000000E+00 0.  1.
        994   -1    0    0    0    0 -0.00000000000E+00 -0.00000000000E+00  0.11368683772E-12  0.17120000000E+03  0.17120000000E+03 0.  0.
         13    1    1    2    0    0  0.16545879752E+02 -0.15239383227E+01  0.94411001486E+02  0.95862072220E+02  0.10566000000E+00 0.  1.
        994    1    1    2    0    0 -0.82818469612E+01  0.37134639958E+01  0.17621942084E+01  0.17144947983E+03  0.17120000000E+03 0.  0.
        998    1    1    2    0    0 -0.82640327908E+01 -0.21895256731E+01  0.14038268006E+04  0.14038884480E+04  0.10000000000E+02 0.  1.
</event>
<event>
 5    1  0.1146201E-008  0.3745349E+03  0.7957747E-01  0.3475306E+00
         13   -1    0    0    0    0  0.00000000000E+00  0.00000000000E+00  0.14999999963E+04  0.15000000000E+04  0.10566000000E+00 0.  1.
        994   -1    0    0    0    0 -0.00000000000E+00 -0.00000000000E+00  0.11368683772E-12  0.17120000000E+03  0.17120000000E+03 0.  0.
         13    1    1    2    0    0 -0.51845184236E+02  0.19237239684E+02  0.10725177033E+03  0.12066875288E+03  0.10566000000E+00 0.  1.
        994    1    1    2    0    0  0.48159440675E+02  0.65871780034E+01  0.21798370140E+02  0.17929676958E+03  0.17120000000E+03 0.  0.
        998    1    1    2    0    0  0.36857435606E+01 -0.25824417688E+02  0.13709498558E+04  0.13712344775E+04  0.10000000000E+02 0.  1.
</event>
<event>
 5    1  0.1469229E-008  0.3861120E+03  0.7957747E-01  0.3424970E+00
         13   -1    0    0    0    0  0.00000000000E+00  0.00000000000E+00  0.14999999963E+04  0.15000000000E+04  0.10566000000E+00 0. -1.
        994   -1    0    0    0    0 -0.00000000000E+00 -0.00000000000E+00  0.11368683772E-12  0.17120000000E+03  0.17120000000E+03 0.  0.
         13    1    1    2    0    0  0.11984837337E+02  0.80852004604E+00  0.67806599657E+02  0.68862443696E+02  0.10566000000E+00 0. -1.
        994    1    1    2    0    0 -0.76837294936E+01 -0.39537907458E+01  0.13237618274E+01  0.17142305710E+03  0.17120000000E+03 0.  0.
        998    1    1    2    0    0 -0.43011078435E+01  0.31452706998E+01  0.14308696348E+04  0.14309144992E+04  0.10000000000E+02 0. -1.
</event>
<event>
 5    1  0.1146201E-008  0.3821822E+03  0.7957747E-01  0.3441711E+00
         13   -1    0    0    0    0  0.00000000000E+00  0.00000000000E+00  0.14999999963E+04  0.15000000000E+04  0.10566000000E+00 0.  1.
        994   -1    0    0    0    0 -0.00000000000E+00 -0.00000000000E+00  0.11368683772E-12  0.17120000000E+03  0.17120000000E+03 0.  0.
         13    1    1    2    0    0 -0.20261062510E+03 -0.16390574642E+02  0.11236101835E+04  0.11418491896E+04  0.10566000000E+00 0.  1.
        994    1    1    2    0    0  0.20187340673E+03  0.16813236504E+02  0.15391748758E+03  0.30665223014E+03  0.17120000000E+03 0.  0.
        998    1    1    2    0    0  0.73721836733E+00 -0.42266186224E+00  0.22247232524E+03  0.22269858022E+03  0.10000000000E+02 0.  0.
</event>
<event>
 5    1  0.1146201E-008  0.3753781E+03  0.7957747E-01  0.3471534E+00
         13   -1    0    0    0    0  0.00000000000E+00  0.00000000000E+00  0.14999999963E+04  0.15000000000E+04  0.10566000000E+00 0.  1.
        994   -1    0    0    0    0 -0.00000000000E+00 -0.00000000000E+00  0.11368683772E-12  0.17120000000E+03  0.17120000000E+03 0.  0.
         13    1    1    2    0    0 -0.11661688908E+02  0.66454092299E+01  0.10943887705E+02  0.17318668949E+02  0.10566000000E+00 0.  1.
        994    1    1    2    0    0  0.97840680517E+01 -0.64505635297E+01  0.69510764797E+01  0.17174136142E+03  0.17120000000E+03 0.  0.
        998    1    1    2    0    0  0.18776208567E+01 -0.19484570016E+00  0.14821050321E+04  0.14821399696E+04  0.10000000000E+02 0.  1.
</event>
<event>
 5    1  0.1146201E-008  0.3799740E+03  0.7957747E-01  0.3451272E+00
         13   -1    0    0    0    0  0.00000000000E+00  0.00000000000E+00  0.14999999963E+04  0.15000000000E+04  0.10566000000E+00 0.  1.
        994   -1    0    0    0    0 -0.00000000000E+00 -0.00000000000E+00  0.11368683772E-12  0.17120000000E+03  0.17120000000E+03 0.  0.
         13    1    1    2    0    0 -0.49849268171E+02 -0.20718746683E+03  0.10298380696E+04  0.10516549133E+04  0.10566000000E+00 0.  1.
        994    1    1    2    0    0  0.64161171286E+02  0.20736979150E+03  0.18229517209E+03  0.33114929578E+03  0.17120000000E+03 0.  0.
        998    1    1    2    0    0 -0.14311903115E+02 -0.18232466912E+00  0.28786675463E+03  0.28839579095E+03  0.10000000000E+02 0.  1.
</event>
<event>
 5    1  0.1146201E-008  0.3845199E+03  0.7957747E-01  0.3431711E+00
         13   -1    0    0    0    0  0.00000000000E+00  0.00000000000E+00  0.14999999963E+04  0.15000000000E+04  0.10566000000E+00 0. -1.
        994   -1    0    0    0    0 -0.00000000000E+00 -0.00000000000E+00  0.11368683772E-12  0.17120000000E+03  0.17120000000E+03 0.  0.
         13    1    1    2    0    0 -0.72941642289E-01 -0.10945083977E+02  0.23427656707E+02  0.25858585549E+02  0.10566000000E+00 0. -1.
        994    1    1    2    0    0 -0.13522617055E+01  0.87676219497E+02  0.27618723981E+02  0.19432236616E+03  0.17120000000E+03 0.  0.
        998    1    1    2    0    0  0.14252033478E+01 -0.76731135519E+02  0.14489536156E+04  0.14510190483E+04  0.10000000000E+02 0. -1.
</event>
<event>
 5    1  0.1146201E-008  0.3827562E+03  0.7957747E-01  0.3439244E+00
         13   -1    0    0    0    0  0.00000000000E+00  0.00000000000E+00  0.14999999963E+04  0.15000000000E+04  0.10566000000E+00 0. -1.
        994   -1    0    0    0    0 -0.00000000000E+00 -0.00000000000E+00  0.11368683772E-12  0.17120000000E+03  0.17120000000E+03 0.  0.
         13    1    1    2    0    0  0.21265313324E+02  0.20352985419E+02  0.16676918424E+03  0.16934706830E+03  0.10566000000E+00 0. -1.
        994    1    1    2    0    0 -0.20407092067E+02  0.61812182965E+01  0.42558635759E+01  0.17257522777E+03  0.17120000000E+03 0.  0.
        998    1    1    2    0    0 -0.85822125740E+00 -0.26534203715E+02  0.13289749485E+04  0.13292777039E+04  0.10000000000E+02 0. -1.
</event>
<event>
 5    1  0.1146201E-008  0.3835033E+03  0.7957747E-01  0.3436045E+00
         13   -1    0    0    0    0  0.00000000000E+00  0.00000000000E+00  0.14999999963E+04  0.15000000000E+04  0.10566000000E+00 0.  1.
        994   -1    0    0    0    0 -0.00000000000E+00 -0.00000000000E+00  0.11368683772E-12  0.17120000000E+03  0.17120000000E+03 0.  0.
         13    1    1    2    0    0  0.10242279924E+01 -0.24608864950E+02  0.12724529503E+03  0.12960718170E+03  0.10566000000E+00 0.  1.
        994    1    1    2    0    0 -0.87614826843E+01  0.14601029943E+02  0.33338599760E+01  0.17207704169E+03  0.17120000000E+03 0.  0.
        998    1    1    2    0    0  0.77372546919E+01  0.10007835007E+02  0.13694208413E+04  0.13695157766E+04  0.10000000000E+02 0.  1.
</event>
<event>
 5    1  0.1146201E-008  0.3896132E+03  0.7957747E-01  0.3410340E+00
         13   -1    0    0    0    0  0.00000000000E+00  0.00000000000E+00  0.14999999963E+04  0.15000000000E+04  0.10566000000E+00 0. -1.
        994   -1    0    0    0    0 -0.00000000000E+00 -0.00000000000E+00  0.11368683772E-12  0.17120000000E+03  0.17120000000E+03 0.  0.
         13    1    1    2    0    0  0.85533626035E+01  0.97726238499E+02  0.24603586624E+03  0.26487211318E+03  0.10566000000E+00 0. -1.
        994    1    1    2    0    0 -0.68370157588E+02 -0.26523451549E+02  0.42209116364E+02  0.19096863993E+03  0.17120000000E+03 0.  0.
        998    1    1    2    0    0  0.59816794985E+02 -0.71202786950E+02  0.12117550137E+04  0.12153592469E+04  0.10000000000E+02 0. -1.
</event>
<event>
 5    1  0.1146201E-008  0.3806452E+03  0.7957747E-01  0.3448354E+00
         13   -1    0    0    0    0  0.00000000000E+00  0.00000000000E+00  0.14999999963E+04  0.15000000000E+04  0.10566000000E+00 0.  1.
        994   -1    0    0    0    0 -0.00000000000E+00 -0.00000000000E+00  0.11368683772E-12  0.17120000000E+03  0.17120000000E+03 0.  0.
         13    1    1    2    0    0 -0.23888878556E+02  0.18663730515E+02  0.14550297570E+03  0.14862752254E+03  0.10566000000E+00 0.  1.
        994    1    1    2    0    0 -0.25236528679E+02 -0.15079010502E+02  0.66961567298E+01  0.17383479931E+03  0.17120000000E+03 0.  0.
        998    1    1    2    0    0  0.49125407236E+02 -0.35847200134E+01  0.13478008638E+04  0.13487376781E+04  0.10000000000E+02 0.  1.
</event>
<event>
 5    1  0.1146201E-008  0.3749642E+03  0.7957747E-01  0.3473383E+00
         13   -1    0    0    0    0  0.00000000000E+00  0.00000000000E+00  0.14999999963E+04  0.15000000000E+04  0.10566000000E+00 0. -1.
        994   -1    0    0    0    0 -0.00000000000E+00 -0.00000000000E+00  0.11368683772E-12  0.17120000000E+03  0.17120000000E+03 0.  0.
         13    1    1    2    0    0  0.17525390366E+02  0.43714695962E+01  0.20674079337E+02  0.27453192426E+02  0.10566000000E+00 0. -1.
        994    1    1    2    0    0 -0.23968318481E+02 -0.21217332476E+02  0.10188455023E+02  0.17446460989E+03  0.17120000000E+03 0.  0.
        998    1    1    2    0    0  0.64429281153E+01  0.16845862880E+02  0.14691374619E+04  0.14692821977E+04  0.10000000000E+02 0. -1.
</event>
<event>
 5    1  0.1146201E-008  0.3822783E+03  0.7957747E-01  0.3441298E+00
         13   -1    0    0    0    0  0.00000000000E+00  0.00000000000E+00  0.14999999963E+04  0.15000000000E+04  0.10566000000E+00 0.  1.
        994   -1    0    0    0    0 -0.00000000000E+00 -0.00000000000E+00  0.11368683772E-12  0.17120000000E+03  0.17120000000E+03 0.  0.
         13    1    1    2    0    0 -0.15502287240E+02  0.93764507315E+01  0.52947943307E+02  0.55961903135E+02  0.10566000000E+00 0.  1.
        994    1    1    2    0    0  0.14742787975E+02 -0.68057164054E+01  0.38628018378E+01  0.17201171126E+03  0.17120000000E+03 0.  0.
        998    1    1    2    0    0  0.75949926523E+00 -0.25707343261E+01  0.14431892511E+04  0.14432263856E+04  0.10000000000E+02 0.  1.
</event>
<event>
 5    1  0.1146201E-008  0.3851040E+03  0.7957747E-01  0.3429231E+00
         13   -1    0    0    0    0  0.00000000000E+00  0.00000000000E+00  0.14999999963E+04  0.15000000000E+04  0.10566000000E+00 0. -1.
        994   -1    0    0    0    0 -0.00000000000E+00 -0.00000000000E+00  0.11368683772E-12  0.17120000000E+03  0.17120000000E+03 0.  0.
         13    1    1    2    0    0  0.14048297166E+02 -0.42333022651E+01  0.67499066711E+02  0.69075398458E+02  0.10566000000E+00 0. -1.
        994    1    1    2    0    0 -0.11501114487E+02  0.13620347111E+01  0.20196048893E+01  0.17160317473E+03  0.17120000000E+03 0.  0.
        998    1    1    2    0    0 -0.25471826794E+01  0.28712675541E+01  0.14304813247E+04  0.14305214268E+04  0.10000000000E+02 0. -1.
</event>
<event>
 5    1  0.1146201E-008  0.3766693E+03  0.7957747E-01  0.3465791E+00
         13   -1    0    0    0    0  0.00000000000E+00  0.00000000000E+00  0.14999999963E+04  0.15000000000E+04  0.10566000000E+00 0.  1.
        994   -1    0    0    0    0 -0.00000000000E+00 -0.00000000000E+00  0.11368683772E-12  0.17120000000E+03  0.17120000000E+03 0.  0.
         13    1    1    2    0    0  0.54147079450E+02 -0.56928228031E+02  0.18170231112E+03  0.19796077993E+03  0.10566000000E+00 0.  1.
        994    1    1    2    0    0 -0.64608711979E+02  0.49398305060E+02  0.38586409795E+02  0.19342396239E+03  0.17120000000E+03 0.  0.
        998    1    1    2    0    0  0.10461632529E+02  0.75299229709E+01  0.12797112754E+04  0.12798152577E+04  0.10000000000E+02 0.  1.
</event>
<event>
 5    1  0.1146201E-008  0.3784320E+03  0.7957747E-01  0.3458014E+00
         13   -1    0    0    0    0  0.00000000000E+00  0.00000000000E+00  0.14999999963E+04  0.15000000000E+04  0.10566000000E+00 0.  1.
        994   -1    0    0    0    0 -0.00000000000E+00 -0.00000000000E+00  0.11368683772E-12  0.17120000000E+03  0.17120000000E+03 0.  0.
         13    1    1    2    0    0  0.15570824312E+02 -0.33369001351E+01  0.26271253891E+02  0.30720928002E+02  0.10566000000E+00 0.  1.
        994    1    1    2    0    0  0.27464519389E+02  0.13196267817E+01  0.74714626289E+01  0.17355490196E+03  0.17120000000E+03 0.  0.
        998    1    1    2    0    0 -0.43035343701E+02  0.20172733534E+01  0.14662572798E+04  0.14669241700E+04  0.10000000000E+02 0.  1.
</event>
<event>
 5    1  0.1146201E-008  0.3694128E+03  0.7957747E-01  0.3498594E+00
         13   -1    0    0    0    0  0.00000000000E+00  0.00000000000E+00  0.14999999963E+04  0.15000000000E+04  0.10566000000E+00 0.  1.
        994   -1    0    0    0    0 -0.00000000000E+00 -0.00000000000E+00  0.11368683772E-12  0.17120000000E+03  0.17120000000E+03 0.  0.
         13    1    1    2    0    0  0.16353464989E+02 -0.54505525010E+02  0.18719315677E+03  0.19565167308E+03  0.10566000000E+00 0.  1.
        994    1    1    2    0    0 -0.15140682225E+02  0.59406010702E+01  0.10493340152E+02  0.17229068804E+03  0.17120000000E+03 0.  0.
        998    1    1    2    0    0 -0.12127827641E+01  0.48564923940E+02  0.13023134994E+04  0.13032576389E+04  0.10000000000E+02 0.  1.
</event>
<event>
 5    1  0.1146201E-008  0.3840187E+03  0.7957747E-01  0.3433845E+00
         13   -1    0    0    0    0  0.00000000000E+00  0.00000000000E+00  0.14999999963E+04  0.15000000000E+04  0.10566000000E+00 0.  1.
        994   -1    0    0    0    0 -0.00000000000E+00 -0.00000000000E+00  0.11368683772E-12  0.17120000000E+03  0.17120000000E+03 0.  0.
         13    1    1    2    0    0  0.56475606226E+01  0.86574074850E+01  0.24561256921E+02  0.26647929581E+02  0.10566000000E+00 0.  1.
        994    1    1    2    0    0 -0.54230963992E+01 -0.52988999852E+01  0.23078101058E+01  0.17138335480E+03  0.17120000000E+03 0.  0.
        998    1    1    2    0    0 -0.22446422337E+00 -0.33585074998E+01  0.14731309293E+04  0.14731687156E+04  0.10000000000E+02 0.  1.
</event>
<event>
 5    1  0.1146201E-008  0.3756202E+03  0.7957747E-01  0.3470454E+00
         13   -1    0    0    0    0  0.00000000000E+00  0.00000000000E+00  0.14999999963E+04  0.15000000000E+04  0.10566000000E+00 0. -1.
        994   -1    0    0    0    0 -0.00000000000E+00 -0.00000000000E+00  0.11368683772E-12  0.17120000000E+03  0.17120000000E+03 0.  0.
         13    1    1    2    0    0  0.19059722790E+02  0.30621681088E+02  0.10118502656E+03  0.10742151158E+03  0.10566000000E+00 0. -1.
        994    1    1    2    0    0 -0.47618115211E+02  0.58155065247E+01  0.14207148260E+02  0.17836083672E+03  0.17120000000E+03 0.  0.
        998    1    1    2    0    0  0.28558392420E+02 -0.36437187612E+02  0.13846078215E+04  0.13854176517E+04  0.10000000000E+02 0. -1.
</event>
<event>
 5    1  0.1146201E-008  0.3767694E+03  0.7957747E-01  0.3465347E+00
         13   -1    0    0    0    0  0.00000000000E+00  0.00000000000E+00  0.14999999963E+04  0.15000000000E+04  0.10566000000E+00 0. -1.
        994   -1    0    0    0    0 -0.00000000000E+00 -0.00000000000E+00  0.11368683772E-12  0.17120000000E+03  0.17120000000E+03 0.  0.
         13    1    1    2    0    0 -0.14617280192E+02 -0.11623301703E+02  0.27642387037E+02  0.33359837347E+02  0.10566000000E+00 0. -1.
        994    1    1    2    0    0  0.97211757450E+01  0.12199057744E+02  0.65954801118E+01  0.17203563185E+03  0.17120000000E+03 0.  0.
        998    1    1    2    0    0  0.48961044471E+01 -0.57575604062E+00  0.14657621291E+04  0.14658045308E+04  0.10000000000E+02 0. -1.
</event>
<event>
 5    1  0.1583581E-008  0.3849851E+03  0.7957747E-01  0.3429735E+00
         13   -1    0    0    0    0  0.00000000000E+00  0.00000000000E+00  0.14999999963E+04  0.15000000000E+04  0.10566000000E+00 0.  1.
        994   -1    0    0    0    0 -0.00000000000E+00 -0.00000000000E+00  0.11368683772E-12  0.17120000000E+03  0.17120000000E+03 0.  0.
         13    1    1    2    0    0  0.61170112755E+01 -0.80509118850E+01  0.31380582842E+02  0.32969488207E+02  0.10566000000E+00 0.  1.
        994    1    1    2    0    0 -0.68238742222E+01 -0.25998597309E-01  0.17906973134E+01  0.17134530204E+03  0.17120000000E+03 0.  0.
        998    1    1    2    0    0  0.70686294668E+00  0.80769104824E+01  0.14668287161E+04  0.14668852097E+04  0.10000000000E+02 0.  1.
</event>
<event>
 5    1  0.1146201E-008  0.3766227E+03  0.7957747E-01  0.3465997E+00
         13   -1    0    0    0    0  0.00000000000E+00  0.00000000000E+00  0.14999999963E+04  0.15000000000E+04  0.10566000000E+00 0. -1.
        994   -1    0    0    0    0 -0.00000000000E+00 -0.00000000000E+00  0.11368683772E-12  0.17120000000E+03  0.17120000000E+03 0.  0.
         13    1    1    2    0    0 -0.16643608623E+02 -0.13679731998E+02  0.35385301207E+02  0.41427955309E+02  0.10566000000E+00 0. -1.
        994    1    1    2    0    0  0.26383250823E+02  0.19463292464E+02  0.94902861257E+01  0.17456918745E+03  0.17120000000E+03 0.  0.
        998    1    1    2    0    0 -0.97396421998E+01 -0.57835604655E+01  0.14551244089E+04  0.14552028572E+04  0.10000000000E+02 0. -1.
</event>
<event>
 5    1  0.1146201E-008  0.3840789E+03  0.7957747E-01  0.3433588E+00
         13   -1    0    0    0    0  0.00000000000E+00  0.00000000000E+00  0.14999999963E+04  0.15000000000E+04  0.10566000000E+00 0.  1.
        994   -1    0    0    0    0 -0.00000000000E+00 -0.00000000000E+00  0.11368683772E-12  0.17120000000E+03  0.17120000000E+03 0.  0.
         13    1    1    2    0    0 -0.84434909793E+01 -0.62152392325E+01  0.25049380926E+02  0.27155190801E+02  0.10566000000E+00 0.  1.
        994    1    1    2    0    0  0.48422760380E+01  0.17634183618E+02  0.31919671703E+01  0.17220348639E+03  0.17120000000E+03 0.  0.
        998    1    1    2    0    0  0.36012149413E+01 -0.11418944385E+02  0.14717586482E+04  0.14718413228E+04  0.10000000000E+02 0.  1.
</event>
<event>
 5    1  0.1146201E-008  0.3750030E+03  0.7957747E-01  0.3473209E+00
         13   -1    0    0    0    0  0.00000000000E+00  0.00000000000E+00  0.14999999963E+04  0.15000000000E+04  0.10566000000E+00 0. -1.
        994   -1    0    0    0    0 -0.00000000000E+00 -0.00000000000E+00  0.11368683772E-12  0.17120000000E+03  0.17120000000E+03 0.  0.
         13    1    1    2    0    0 -0.35938272897E+02  0.15531744991E+02  0.10884062569E+03  0.11566800562E+03  0.10566000000E+00 0. -1.
        994    1    1    2    0    0  0.28149420057E+02 -0.13490232316E+02  0.99963809004E+01  0.17430933380E+03  0.17120000000E+03 0.  0.
        998    1    1    2    0    0  0.77888528393E+01 -0.20415126751E+01  0.13811629897E+04  0.13812226606E+04  0.10000000000E+02 0. -1.
</event>
<event>
 5    1  0.1146201E-008  0.3792285E+03  0.7957747E-01  0.3454525E+00
         13   -1    0    0    0    0  0.00000000000E+00  0.00000000000E+00  0.14999999963E+04  0.15000000000E+04  0.10566000000E+00 0. -1.
        994   -1    0    0    0    0 -0.00000000000E+00 -0.00000000000E+00  0.11368683772E-12  0.17120000000E+03  0.17120000000E+03 0.  0.
         13    1    1    2    0    0 -0.13890564683E+02  0.23121800223E+01  0.20010084363E+02  0.24468522716E+02  0.10566000000E+00 0. -1.
        994    1    1    2    0    0  0.88355672995E+01 -0.78783250402E+01  0.49928999786E+01  0.17168140349E+03  0.17120000000E+03 0.  0.
        998    1    1    2    0    0  0.50549973832E+01  0.55661450178E+01  0.14749970119E+04  0.14750500738E+04  0.10000000000E+02 0. -1.
</event>
<event>
 5    1  0.1146201E-008  0.3148715E+03  0.7957747E-01  0.3795256E+00
         13   -1    0    0    0    0  0.00000000000E+00  0.00000000000E+00  0.14999999963E+04  0.15000000000E+04  0.10566000000E+00 0. -1.
        994   -1    0    0    0    0 -0.00000000000E+00 -0.00000000000E+00  0.11368683772E-12  0.17120000000E+03  0.17120000000E+03 0.  0.
         13    1    1    2    0    0 -0.11901174833E+00  0.23823761870E+03  0.75704631038E+03  0.79364746856E+03  0.10566000000E+00 0. -1.
        994    1    1    2    0    0 -0.11787108964E+03 -0.20399929014E+03  0.30141004206E+03  0.41912618339E+03  0.17120000000E+03 0.  0.
        998    1    1    2    0    0  0.11799010139E+03 -0.34238328561E+02  0.44154364384E+03  0.45842634805E+03  0.10000000000E+02 0. -1.
</event>
<event>
 5    1  0.1146201E-008  0.3718279E+03  0.7957747E-01  0.3487532E+00
         13   -1    0    0    0    0  0.00000000000E+00  0.00000000000E+00  0.14999999963E+04  0.15000000000E+04  0.10566000000E+00 0. -1.
        994   -1    0    0    0    0 -0.00000000000E+00 -0.00000000000E+00  0.11368683772E-12  0.17120000000E+03  0.17120000000E+03 0.  0.
         13    1    1    2    0    0  0.64381904549E+01  0.87103604171E+02  0.32452846585E+03  0.33607621824E+03  0.10566000000E+00 0. -1.
        994    1    1    2    0    0 -0.32660595304E+02 -0.97705157947E+02  0.45715068131E+02  0.20496907042E+03  0.17120000000E+03 0.  0.
        998    1    1    2    0    0  0.26222404849E+02  0.10601553776E+02  0.11297564623E+04  0.11301547113E+04  0.10000000000E+02 0. -1.
</event>
<event>
 5    1  0.1146201E-008  0.3788521E+03  0.7957747E-01  0.3456172E+00
         13   -1    0    0    0    0  0.00000000000E+00  0.00000000000E+00  0.14999999963E+04  0.15000000000E+04  0.10566000000E+00 0.  1.
        994   -1    0    0    0    0 -0.00000000000E+00 -0.00000000000E+00  0.11368683772E-12  0.17120000000E+03  0.17120000000E+03 0.  0.
         13    1    1    2    0    0  0.12322800844E+02  0.29950423557E+02  0.11158137554E+03  0.11618646145E+03  0.10566000000E+00 0.  1.
        994    1    1    2    0    0  0.10189723473E+01 -0.17838785606E+02  0.57857602412E+01  0.17222710471E+03  0.17120000000E+03 0.  0.
        998    1    1    2    0    0 -0.13341773191E+02 -0.12111637952E+02  0.13826328605E+04  0.13827864338E+04  0.10000000000E+02 0.  1.
</event>
<event>
 5    1  0.1146201E-008  0.3707586E+03  0.7957747E-01  0.3492412E+00
         13   -1    0    0    0    0  0.00000000000E+00  0.00000000000E+00  0.14999999963E+04  0.15000000000E+04  0.10566000000E+00 0. -1.
        994   -1    0    0    0    0 -0.00000000000E+00 -0.00000000000E+00  0.11368683772E-12  0.17120000000E+03  0.17120000000E+03 0.  0.
         13    1    1    2    0    0  0.62088399991E+02  0.26932925339E+01  0.14564360461E+03  0.15834864688E+03  0.10566000000E+00 0. -1.
        994    1    1    2    0    0 -0.70745120903E+02  0.50687128941E+01  0.29189104252E+02  0.18759532987E+03  0.17120000000E+03 0.  0.
        998    1    1    2    0    0  0.86567209122E+01 -0.77620054280E+01  0.13251672874E+04  0.13252560233E+04  0.10000000000E+02 0. -1.
</event>
<event>
 5    1  0.1146201E-008  0.3735351E+03  0.7957747E-01  0.3479801E+00
         13   -1    0    0    0    0  0.00000000000E+00  0.00000000000E+00  0.14999999963E+04  0.15000000000E+04  0.10566000000E+00 0. -1.
        994   -1    0    0    0    0 -0.00000000000E+00 -0.00000000000E+00  0.11368683772E-12  0.17120000000E+03  0.17120000000E+03 0.  0.
         13    1    1    2    0    0  0.57301303328E+02  0.36938324488E+02  0.39083070162E+03  0.39673231236E+03  0.10566000000E+00 0. -1.
        994    1    1    2    0    0 -0.11771904775E+02 -0.56654667462E+01  0.80161852175E+01  0.17188477094E+03  0.17120000000E+03 0.  0.
        998    1    1    2    0    0 -0.45529398553E+02 -0.31272857742E+02  0.11011531094E+04  0.11025829167E+04  0.10000000000E+02 0.  1.
</event>
<event>
 5    1  0.1146201E-008  0.3838850E+03  0.7957747E-01  0.3434415E+00
         13   -1    0    0    0    0  0.00000000000E+00  0.00000000000E+00  0.14999999963E+04  0.15000000000E+04  0.10566000000E+00 0.  1.
        994   -1    0    0    0    0 -0.00000000000E+00 -0.00000000000E+00  0.11368683772E-12  0.17120000000E+03  0.17120000000E+03 0.  0.
         13    1    1    2    0    0  0.44872168001E+01  0.10237200074E+02  0.27706050733E+02  0.29875940006E+02  0.10566000000E+00 0.  1.
        994    1    1    2    0    0  0.36501751616E+00 -0.11054809369E+02  0.25886064224E+01  0.17157646380E+03  0.17120000000E+03 0.  0.
        998    1    1    2    0    0 -0.48522343163E+01  0.81760929485E+00  0.14697053391E+04  0.14697475962E+04  0.10000000000E+02 0.  1.
</event>
<event>
 5    1  0.1146201E-008  0.3860897E+03  0.7957747E-01  0.3425064E+00
         13   -1    0    0    0    0  0.00000000000E+00  0.00000000000E+00  0.14999999963E+04  0.15000000000E+04  0.10566000000E+00 0. -1.
        994   -1    0    0    0    0 -0.00000000000E+00 -0.00000000000E+00  0.11368683772E-12  0.17120000000E+03  0.17120000000E+03 0.  0.
         13    1    1    2    0    0 -0.10914687360E+02 -0.42222081814E+01  0.63076171401E+02  0.64152724063E+02  0.10566000000E+00 0. -1.
        994    1    1    2    0    0  0.59457313777E+01  0.98367109848E+01  0.15231316006E+01  0.17159216921E+03  0.17120000000E+03 0.  0.
        998    1    1    2    0    0  0.49689559820E+01 -0.56145028035E+01  0.14354006933E+04  0.14354551067E+04  0.10000000000E+02 0. -1.
</event>
<event>
 5    1  0.1146201E-008  0.3799688E+03  0.7957747E-01  0.3451295E+00
         13   -1    0    0    0    0  0.00000000000E+00  0.00000000000E+00  0.14999999963E+04  0.15000000000E+04  0.10566000000E+00 0. -1.
        994   -1    0    0    0    0 -0.00000000000E+00 -0.00000000000E+00  0.11368683772E-12  0.17120000000E+03  0.17120000000E+03 0.  0.
         13    1    1    2    0    0 -0.27168814439E+02  0.15498893580E+02  0.10671206885E+03  0.11120178498E+03  0.10566000000E+00 0. -1.
        994    1    1    2    0    0  0.60683578981E+02  0.29679609467E+02  0.19559439835E+02  0.18508211060E+03  0.17120000000E+03 0.  0.
        998    1    1    2    0    0 -0.33514764542E+02 -0.45178503047E+02  0.13737284876E+04  0.13749161044E+04  0.10000000000E+02 0. -1.
</event>
<event>
 5    1  0.1146201E-008  0.3702409E+03  0.7957747E-01  0.3494785E+00
         13   -1    0    0    0    0  0.00000000000E+00  0.00000000000E+00  0.14999999963E+04  0.15000000000E+04  0.10566000000E+00 0. -1.
        994   -1    0    0    0    0 -0.00000000000E+00 -0.00000000000E+00  0.11368683772E-12  0.17120000000E+03  0.17120000000E+03 0.  0.
         13    1    1    2    0    0 -0.45792978456E+02 -0.52826707137E+02  0.34326384112E+03  0.35031090997E+03  0.10566000000E+00 0. -1.
        994    1    1    2    0    0  0.17461965488E+01  0.54874327243E+01  0.92578113014E+01  0.17154681049E+03  0.17120000000E+03 0.  0.
        998    1    1    2    0    0  0.44046781907E+02  0.47339274413E+02  0.11474783439E+04  0.11493422795E+04  0.10000000000E+02 0. -1.
</event>
<event>
 5    1  0.1146201E-008  0.3812597E+03  0.7957747E-01  0.3445692E+00
         13   -1    0    0    0    0  0.00000000000E+00  0.00000000000E+00  0.14999999963E+04  0.15000000000E+04  0.10566000000E+00 0. -1.
        994   -1    0    0    0    0 -0.00000000000E+00 -0.00000000000E+00  0.11368683772E-12  0.17120000000E+03  0.17120000000E+03 0.  0.
         13    1    1    2    0    0  0.11638542394E+02 -0.28361099907E+00  0.17747671744E+02  0.21225624152E+02  0.10566000000E+00 0. -1.
        994    1    1    2    0    0 -0.11936939382E+02  0.16837689673E+01  0.39825743194E+01  0.17167010951E+03  0.17120000000E+03 0.  0.
        998    1    1    2    0    0  0.29839698744E+00 -0.14001579682E+01  0.14782697502E+04  0.14783042663E+04  0.10000000000E+02 0. -1.
</event>
<event>
 5    1  0.1146201E-008  0.3781819E+03  0.7957747E-01  0.3459113E+00
         13   -1    0    0    0    0  0.00000000000E+00  0.00000000000E+00  0.14999999963E+04  0.15000000000E+04  0.10566000000E+00 0.  1.
        994   -1    0    0    0    0 -0.00000000000E+00 -0.00000000000E+00  0.11368683772E-12  0.17120000000E+03  0.17120000000E+03 0.  0.
         13    1    1    2    0    0 -0.24416505726E+02  0.18634028157E+02  0.91731633894E+02  0.96737255378E+02  0.10566000000E+00 0.  1.
        994    1    1    2    0    0  0.75725367465E+01 -0.20491075643E+02  0.66603372002E+01  0.17271661062E+03  0.17120000000E+03 0.  0.
        998    1    1    2    0    0  0.16843968979E+02  0.18570474857E+01  0.14016080252E+04  0.14017461340E+04  0.10000000000E+02 0.  1.
</event>
<event>
 5    1  0.1146201E-008  0.3717301E+03  0.7957747E-01  0.3487977E+00
         13   -1    0    0    0    0  0.00000000000E+00  0.00000000000E+00  0.14999999963E+04  0.15000000000E+04  0.10566000000E+00 0.  1.
        994   -1    0    0    0    0 -0.00000000000E+00 -0.00000000000E+00  0.11368683772E-12  0.17120000000E+03  0.17120000000E+03 0.  0.
         13    1    1    2    0    0 -0.45853949495E+02  0.52879474360E+02  0.33845022689E+03  0.34561161835E+03  0.10566000000E+00 0.  1.
        994    1    1    2    0    0  0.26119022675E+01 -0.24236328551E+02  0.10412693975E+02  0.17323996609E+03  0.17120000000E+03 0.  0.
        998    1    1    2    0    0  0.43242047227E+02 -0.28643145809E+02  0.11511370754E+04  0.11523484156E+04  0.10000000000E+02 0.  1.
</event>
<event>
 5    1  0.1146201E-008  0.3811621E+03  0.7957747E-01  0.3446114E+00
         13   -1    0    0    0    0  0.00000000000E+00  0.00000000000E+00  0.14999999963E+04  0.15000000000E+04  0.10566000000E+00 0. -1.
        994   -1    0    0    0    0 -0.00000000000E+00 -0.00000000000E+00  0.11368683772E-12  0.17120000000E+03  0.17120000000E+03 0.  0.
         13    1    1    2    0    0  0.12122411562E+02 -0.10067927082E+01  0.19102663687E+02  0.22647062008E+02  0.10566000000E+00 0. -1.
        994    1    1    2    0    0 -0.14149092151E+02  0.10898767476E+01  0.42185865051E+01  0.17183893945E+03  0.17120000000E+03 0.  0.
        998    1    1    2    0    0  0.20266805886E+01 -0.83084039389E-01  0.14766787461E+04  0.14767139985E+04  0.10000000000E+02 0. -1.
</event>
<event>
 5    1  0.1146201E-008  0.3823427E+03  0.7957747E-01  0.3441021E+00
         13   -1    0    0    0    0  0.00000000000E+00  0.00000000000E+00  0.14999999963E+04  0.15000000000E+04  0.10566000000E+00 0. -1.
        994   -1    0    0    0    0 -0.00000000000E+00 -0.00000000000E+00  0.11368683772E-12  0.17120000000E+03  0.17120000000E+03 0.  0.
         13    1    1    2    0    0  0.11316252825E+02 -0.15576089424E+02  0.59306462824E+02  0.62353346635E+02  0.10566000000E+00 0. -1.
        994    1    1    2    0    0 -0.14291118681E+02  0.15866946925E+02  0.44693067852E+01  0.17258450330E+03  0.17120000000E+03 0.  0.
        998    1    1    2    0    0  0.29748658556E+01 -0.29085750059E+00  0.14362242267E+04  0.14362621501E+04  0.10000000000E+02 0. -1.
</event>
<event>
 5    1  0.1146201E-008  0.3771107E+03  0.7957747E-01  0.3463837E+00
         13   -1    0    0    0    0  0.00000000000E+00  0.00000000000E+00  0.14999999963E+04  0.15000000000E+04  0.10566000000E+00 0.  1.
        994   -1    0    0    0    0 -0.00000000000E+00 -0.00000000000E+00  0.11368683772E-12  0.17120000000E+03  0.17120000000E+03 0.  0.
         13    1    1    2    0    0 -0.13614885716E+02  0.10468934357E+02  0.23712007150E+02  0.29278561214E+02  0.10566000000E+00 0.  1.
        994    1    1    2    0    0  0.99347217474E+01 -0.14021173592E+02  0.65961160654E+01  0.17218664510E+03  0.17120000000E+03 0.  0.
        998    1    1    2    0    0  0.36801639689E+01  0.35522392346E+01  0.14696918731E+04  0.14697347937E+04  0.10000000000E+02 0.  1.
</event>
<event>
 5    1  0.1146201E-008  0.3840922E+03  0.7957747E-01  0.3433532E+00
         13   -1    0    0    0    0  0.00000000000E+00  0.00000000000E+00  0.14999999963E+04  0.15000000000E+04  0.10566000000E+00 0. -1.
        994   -1    0    0    0    0 -0.00000000000E+00 -0.00000000000E+00  0.11368683772E-12  0.17120000000E+03  0.17120000000E+03 0.  0.
         13    1    1    2    0    0 -0.94039581241E+01  0.17076601301E+02  0.90174622388E+02  0.92257890868E+02  0.10566000000E+00 0. -1.
        994    1    1    2    0    0  0.11496831278E+02 -0.92199787477E+01  0.27982047755E+01  0.17185591374E+03  0.17120000000E+03 0.  0.
        998    1    1    2    0    0 -0.20928731544E+01 -0.78566225536E+01  0.14070271691E+04  0.14070861954E+04  0.10000000000E+02 0. -1.
</event>
<event>
 5    1  0.1146201E-008  0.3796759E+03  0.7957747E-01  0.3452571E+00
         13   -1    0    0    0    0  0.00000000000E+00  0.00000000000E+00  0.14999999963E+04  0.15000000000E+04  0.10566000000E+00 0.  1.
        994   -1    0    0    0    0 -0.00000000000E+00 -0.00000000000E+00  0.11368683772E-12  0.17120000000E+03  0.17120000000E+03 0.  0.
         13    1    1    2    0    0  0.28928194886E+02  0.32065174073E+02  0.18438276356E+03  0.18937272906E+03  0.10566000000E+00 0.  1.
        994    1    1    2    0    0 -0.36965046295E+02 -0.31387719258E+02  0.12207009495E+02  0.17835373461E+03  0.17120000000E+03 0.  0.
        998    1    1    2    0    0  0.80368514088E+01 -0.67745481486E+00  0.13034102232E+04  0.13034735363E+04  0.10000000000E+02 0.  1.
</event>
<event>
 5    1  0.1146201E-008  0.3722294E+03  0.7957747E-01  0.3485707E+00
         13   -1    0    0    0    0  0.00000000000E+00  0.00000000000E+00  0.14999999963E+04  0.15000000000E+04  0.10566000000E+00 0. -1.
        994   -1    0    0    0    0 -0.00000000000E+00 -0.00000000000E+00  0.11368683772E-12  0.17120000000E+03  0.17120000000E+03 0.  0.
         13    1    1    2    0    0  0.31322441512E+02  0.66985357912E+02  0.35863469437E+03  0.36617890257E+03  0.10566000000E+00 0. -1.
        994    1    1    2    0    0 -0.36146589546E+02 -0.21057677948E+02  0.14137080029E+02  0.17680299423E+03  0.17120000000E+03 0.  0.
        998    1    1    2    0    0  0.48241480335E+01 -0.45927679964E+02  0.11272282219E+04  0.11282181032E+04  0.10000000000E+02 0. -1.
</event>
<event>
 5    1  0.1146201E-008  0.3779948E+03  0.7957747E-01  0.3459937E+00
         13   -1    0    0    0    0  0.00000000000E+00  0.00000000000E+00  0.14999999963E+04  0.15000000000E+04  0.10566000000E+00 0. -1.
        994   -1    0    0    0    0 -0.00000000000E+00 -0.00000000000E+00  0.11368683772E-12  0.17120000000E+03  0.17120000000E+03 0.  0.
         13    1    1    2    0    0  0.98254843123E+01 -0.16383409000E+02  0.34594934098E+02  0.39519322637E+02  0.10566000000E+00 0. -1.
        994    1    1    2    0    0  0.51924685660E+01  0.41900944443E+01  0.52986516674E+01  0.17141188503E+03  0.17120000000E+03 0.  0.
        998    1    1    2    0    0 -0.15017952878E+02  0.12193314556E+02  0.14601064105E+04  0.14602687923E+04  0.10000000000E+02 0. -1.
</event>
<event>
 5    1  0.1146201E-008  0.4012804E+03  0.7957747E-01  0.3363429E+00
         13   -1    0    0    0    0  0.00000000000E+00  0.00000000000E+00  0.14999999963E+04  0.15000000000E+04  0.10566000000E+00 0. -1.
        994   -1    0    0    0    0 -0.00000000000E+00 -0.00000000000E+00  0.11368683772E-12  0.17120000000E+03  0.17120000000E+03 0.  0.
         13    1    1    2    0    0 -0.10145508169E+03 -0.39994049225E+02  0.27243835677E+03  0.29345413096E+03  0.10566000000E+00 0. -1.
        994    1    1    2    0    0  0.54038662673E+02 -0.12495410411E+03  0.10595954338E+03  0.24304437873E+03  0.17120000000E+03 0.  0.
        998    1    1    2    0    0  0.47416419017E+02  0.16494815334E+03  0.11216020961E+04  0.11347014903E+04  0.10000000000E+02 0. -1.
</event>
<event>
 5    1  0.1146201E-008  0.3826990E+03  0.7957747E-01  0.3439490E+00
         13   -1    0    0    0    0  0.00000000000E+00  0.00000000000E+00  0.14999999963E+04  0.15000000000E+04  0.10566000000E+00 0. -1.
        994   -1    0    0    0    0 -0.00000000000E+00 -0.00000000000E+00  0.11368683772E-12  0.17120000000E+03  0.17120000000E+03 0.  0.
         13    1    1    2    0    0  0.92955938991E+00 -0.32881433505E+02  0.19749906390E+03  0.20021973968E+03  0.10566000000E+00 0. -1.
        994    1    1    2    0    0 -0.90949306494E+01  0.17055793226E+02  0.40157949065E+01  0.17233451324E+03  0.17120000000E+03 0.  0.
        998    1    1    2    0    0  0.81653712595E+01  0.15825640279E+02  0.12984851375E+04  0.12986457471E+04  0.10000000000E+02 0. -1.
</event>
<event>
 5    1  0.1146201E-008  0.3716316E+03  0.7957747E-01  0.3488426E+00
         13   -1    0    0    0    0  0.00000000000E+00  0.00000000000E+00  0.14999999963E+04  0.15000000000E+04  0.10566000000E+00 0. -1.
        994   -1    0    0    0    0 -0.00000000000E+00 -0.00000000000E+00  0.11368683772E-12  0.17120000000E+03  0.17120000000E+03 0.  0.
         13    1    1    2    0    0  0.54039242962E+02  0.11018355452E+02  0.18919021589E+03  0.19706494587E+03  0.10566000000E+00 0. -1.
        994    1    1    2    0    0 -0.17536089220E+02 -0.19318678795E+02  0.10762849523E+02  0.17351082014E+03  0.17120000000E+03 0.  0.
        998    1    1    2    0    0 -0.36503153743E+02  0.83003233430E+01  0.13000469309E+04  0.13006242340E+04  0.10000000000E+02 0. -1.
</event>
<event>
 5    1  0.1146201E-008  0.3800782E+03  0.7957747E-01  0.3450818E+00
         13   -1    0    0    0    0  0.00000000000E+00  0.00000000000E+00  0.14999999963E+04  0.15000000000E+04  0.10566000000E+00 0.  1.
        994   -1    0    0    0    0 -0.00000000000E+00 -0.00000000000E+00  0.11368683772E-12  0.17120000000E+03  0.17120000000E+03 0.  0.
         13    1    1    2    0    0  0.16234667156E+02 -0.27192780436E+02  0.11672888041E+03  0.12094897441E+03  0.10566000000E+00 0.  1.
        994    1    1    2    0    0 -0.66372038207E+01  0.25933182221E+02  0.64921949115E+01  0.17340176184E+03  0.17120000000E+03 0.  0.
        998    1    1    2    0    0 -0.95974633355E+01  0.12595982156E+01  0.13767789210E+04  0.13768492637E+04  0.10000000000E+02 0.  1.
</event>
<event>
 5    1  0.1146201E-008  0.3829433E+03  0.7957747E-01  0.3438442E+00
         13   -1    0    0    0    0  0.00000000000E+00  0.00000000000E+00  0.14999999963E+04  0.15000000000E+04  0.10566000000E+00 0. -1.
        994   -1    0    0    0    0 -0.00000000000E+00 -0.00000000000E+00  0.11368683772E-12  0.17120000000E+03  0.17120000000E+03 0.  0.
         13    1    1    2    0    0 -0.50104170387E+01  0.13734519067E+02  0.37706551121E+02  0.40441766213E+02  0.10566000000E+00 0. -1.
        994    1    1    2    0    0  0.20260879738E+00 -0.22260185259E+02  0.42970639651E+01  0.17269470651E+03  0.17120000000E+03 0.  0.
        998    1    1    2    0    0  0.48078082413E+01  0.85256661919E+01  0.14579963812E+04  0.14580635273E+04  0.10000000000E+02 0. -1.
</event>
<event>
 5    1  0.1146201E-008  0.3783047E+03  0.7957747E-01  0.3458573E+00
         13   -1    0    0    0    0  0.00000000000E+00  0.00000000000E+00  0.14999999963E+04  0.15000000000E+04  0.10566000000E+00 0.  1.
        994   -1    0    0    0    0 -0.00000000000E+00 -0.00000000000E+00  0.11368683772E-12  0.17120000000E+03  0.17120000000E+03 0.  0.
         13    1    1    2    0    0 -0.91395236806E+01 -0.45802054118E+02  0.20550765720E+03  0.21074811360E+03  0.10566000000E+00 0.  1.
        994    1    1    2    0    0  0.57326518948E+01  0.34272997619E+02  0.90614071468E+01  0.17492584361E+03  0.17120000000E+03 0.  0.
        998    1    1    2    0    0  0.34068717858E+01  0.11529056499E+02  0.12854309319E+04  0.12855260428E+04  0.10000000000E+02 0. -1.
</event>
<event>
 5    1  0.1146201E-008  0.3822663E+03  0.7957747E-01  0.3441349E+00
         13   -1    0    0    0    0  0.00000000000E+00  0.00000000000E+00  0.14999999963E+04  0.15000000000E+04  0.10566000000E+00 0.  1.
        994   -1    0    0    0    0 -0.00000000000E+00 -0.00000000000E+00  0.11368683772E-12  0.17120000000E+03  0.17120000000E+03 0.  0.
         13    1    1    2    0    0  0.11680250192E+02  0.18144275704E+02  0.86858816271E+02  0.89499207334E+02  0.10566000000E+00 0.  1.
        994    1    1    2    0    0  0.43648199785E+01  0.69329094202E+01  0.32161974469E+01  0.17142607973E+03  0.17120000000E+03 0.  0.
        998    1    1    2    0    0 -0.16045070170E+02 -0.25077185125E+02  0.14099249826E+04  0.14102747129E+04  0.10000000000E+02 0.  1.
</event>
<event>
 5    1  0.1146201E-008  0.3814118E+03  0.7957747E-01  0.3445034E+00
         13   -1    0    0    0    0  0.00000000000E+00  0.00000000000E+00  0.14999999963E+04  0.15000000000E+04  0.10566000000E+00 0. -1.
        994   -1    0    0    0    0 -0.00000000000E+00 -0.00000000000E+00  0.11368683772E-12  0.17120000000E+03  0.17120000000E+03 0.  0.
         13    1    1    2    0    0 -0.25654618825E+02 -0.67670262150E+01  0.11672551310E+03  0.11970300198E+03  0.10566000000E+00 0. -1.
        994    1    1    2    0    0 -0.57753071522E+01 -0.22414577561E+01  0.35498782107E+01  0.17134882533E+03  0.17120000000E+03 0.  0.
        998    1    1    2    0    0  0.31429925977E+02  0.90084839711E+01  0.13797246050E+04  0.13801481727E+04  0.10000000000E+02 0. -1.
</event>
<event>
 5    1  0.1146201E-008  0.3695174E+03  0.7957747E-01  0.3498112E+00
         13   -1    0    0    0    0  0.00000000000E+00  0.00000000000E+00  0.14999999963E+04  0.15000000000E+04  0.10566000000E+00 0. -1.
        994   -1    0    0    0    0 -0.00000000000E+00 -0.00000000000E+00  0.11368683772E-12  0.17120000000E+03  0.17120000000E+03 0.  0.
         13    1    1    2    0    0 -0.12412490838E+02  0.22418349762E+02  0.26061910988E+02  0.36549783901E+02  0.10566000000E+00 0. -1.
        994    1    1    2    0    0  0.88200493427E+01 -0.20415749002E+02  0.12411927114E+02  0.17308406054E+03  0.17120000000E+03 0.  0.
        998    1    1    2    0    0  0.35924414951E+01 -0.20026007598E+01  0.14615261582E+04  0.14615661556E+04  0.10000000000E+02 0. -1.
</event>
<event>
 5    1  0.1146201E-008  0.3747896E+03  0.7957747E-01  0.3474164E+00
         13   -1    0    0    0    0  0.00000000000E+00  0.00000000000E+00  0.14999999963E+04  0.15000000000E+04  0.10566000000E+00 0. -1.
        994   -1    0    0    0    0 -0.00000000000E+00 -0.00000000000E+00  0.11368683772E-12  0.17120000000E+03  0.17120000000E+03 0.  0.
         13    1    1    2    0    0  0.27796822683E+02  0.11087596983E+02  0.49184301080E+02  0.57573473013E+02  0.10566000000E+00 0. -1.
        994    1    1    2    0    0 -0.85718307282E+02 -0.48480248238E+02  0.40526729103E+02  0.20161800129E+03  0.17120000000E+03 0.  0.
        998    1    1    2    0    0  0.57921484599E+02  0.37392651256E+02  0.14102889661E+04  0.14120085257E+04  0.10000000000E+02 0. -1.
</event>
<event>
 5    1  0.1146201E-008  0.3758955E+03  0.7957747E-01  0.3469227E+00
         13   -1    0    0    0    0  0.00000000000E+00  0.00000000000E+00  0.14999999963E+04  0.15000000000E+04  0.10566000000E+00 0. -1.
        994   -1    0    0    0    0 -0.00000000000E+00 -0.00000000000E+00  0.11368683772E-12  0.17120000000E+03  0.17120000000E+03 0.  0.
         13    1    1    2    0    0  0.54350983501E+02  0.37314380316E+02  0.31237110296E+03  0.31925242288E+03  0.10566000000E+00 0. -1.
        994    1    1    2    0    0 -0.39661667010E+02 -0.32537335313E+02  0.15191072137E+02  0.17936536648E+03  0.17120000000E+03 0.  0.
        998    1    1    2    0    0 -0.14689316491E+02 -0.47770450032E+01  0.11724378212E+04  0.11725822106E+04  0.10000000000E+02 0. -1.
</event>
<event>
 5    1  0.1146201E-008  0.3858489E+03  0.7957747E-01  0.3426080E+00
         13   -1    0    0    0    0  0.00000000000E+00  0.00000000000E+00  0.14999999963E+04  0.15000000000E+04  0.10566000000E+00 0.  1.
        994   -1    0    0    0    0 -0.00000000000E+00 -0.00000000000E+00  0.11368683772E-12  0.17120000000E+03  0.17120000000E+03 0.  0.
         13    1    1    2    0    0  0.53950353287E+01 -0.12738013949E+02  0.75177065586E+02  0.76439294605E+02  0.10566000000E+00 0.  1.
        994    1    1    2    0    0 -0.65060294022E+01  0.15557128305E+02  0.21424012483E+01  0.17204180464E+03  0.17120000000E+03 0.  0.
        998    1    1    2    0    0  0.11109940735E+01 -0.28191143557E+01  0.14226805294E+04  0.14227189008E+04  0.10000000000E+02 0.  1.
</event>
<event>
 5    1  0.1146201E-008  0.3775954E+03  0.7957747E-01  0.3461696E+00
         13   -1    0    0    0    0  0.00000000000E+00  0.00000000000E+00  0.14999999963E+04  0.15000000000E+04  0.10566000000E+00 0.  1.
        994   -1    0    0    0    0 -0.00000000000E+00 -0.00000000000E+00  0.11368683772E-12  0.17120000000E+03  0.17120000000E+03 0.  0.
         13    1    1    2    0    0  0.53224774083E+01 -0.29637113370E+02  0.80013240059E+02  0.85491619492E+02  0.10566000000E+00 0.  1.
        994    1    1    2    0    0 -0.37002010407E+01  0.26616613132E+02  0.77891101013E+01  0.17347116711E+03  0.17120000000E+03 0.  0.
        998    1    1    2    0    0 -0.16222763676E+01  0.30205002376E+01  0.14121976461E+04  0.14122372134E+04  0.10000000000E+02 0.  1.
</event>
<event>
 5    1  0.1146201E-008  0.3849150E+03  0.7957747E-01  0.3430033E+00
         13   -1    0    0    0    0  0.00000000000E+00  0.00000000000E+00  0.14999999963E+04  0.15000000000E+04  0.10566000000E+00 0.  1.
        994   -1    0    0    0    0 -0.00000000000E+00 -0.00000000000E+00  0.11368683772E-12  0.17120000000E+03  0.17120000000E+03 0.  0.
         13    1    1    2    0    0 -0.13380282746E+02  0.22427094509E+01  0.60572434842E+02  0.62073285226E+02  0.10566000000E+00 0.  1.
        994    1    1    2    0    0 -0.79255122143E+01 -0.66637282551E+01  0.20251276362E+01  0.17152480917E+03  0.17120000000E+03 0.  0.
        998    1    1    2    0    0  0.21305794961E+02  0.44210188043E+01  0.14374024338E+04  0.14376019056E+04  0.10000000000E+02 0.  1.
</event>
<event>
 5    1  0.1146201E-008  0.3834473E+03  0.7957747E-01  0.3436284E+00
         13   -1    0    0    0    0  0.00000000000E+00  0.00000000000E+00  0.14999999963E+04  0.15000000000E+04  0.10566000000E+00 0.  1.
        994   -1    0    0    0    0 -0.00000000000E+00 -0.00000000000E+00  0.11368683772E-12  0.17120000000E+03  0.17120000000E+03 0.  0.
         13    1    1    2    0    0 -0.19218495376E+02  0.70716155265E+01  0.82141651811E+02  0.84655894284E+02  0.10566000000E+00 0.  1.
        994    1    1    2    0    0  0.18450854017E+02 -0.13743285127E+02  0.41544791616E+01  0.17278892209E+03  0.17120000000E+03 0.  0.
        998    1    1    2    0    0  0.76764135827E+00  0.66716696008E+01  0.14137038653E+04  0.14137551836E+04  0.10000000000E+02 0.  1.
</event>
<event>
 5    1  0.1146201E-008  0.3697652E+03  0.7957747E-01  0.3496971E+00
         13   -1    0    0    0    0  0.00000000000E+00  0.00000000000E+00  0.14999999963E+04  0.15000000000E+04  0.10566000000E+00 0. -1.
        994   -1    0    0    0    0 -0.00000000000E+00 -0.00000000000E+00  0.11368683772E-12  0.17120000000E+03  0.17120000000E+03 0.  0.
         13    1    1    2    0    0 -0.11807864748E+03  0.77761132644E+01  0.65458130489E+03  0.66519149935E+03  0.10566000000E+00 0. -1.
        994    1    1    2    0    0  0.82329435160E+02  0.71218027675E+01  0.33408894507E+02  0.19301411917E+03  0.17120000000E+03 0.  0.
        998    1    1    2    0    0  0.35749212318E+02 -0.14897916032E+02  0.81200979688E+03  0.81299438148E+03  0.10000000000E+02 0. -1.
</event>
<event>
 5    1  0.1146201E-008  0.3807345E+03  0.7957747E-01  0.3447967E+00
         13   -1    0    0    0    0  0.00000000000E+00  0.00000000000E+00  0.14999999963E+04  0.15000000000E+04  0.10566000000E+00 0.  1.
        994   -1    0    0    0    0 -0.00000000000E+00 -0.00000000000E+00  0.11368683772E-12  0.17120000000E+03  0.17120000000E+03 0.  0.
         13    1    1    2    0    0 -0.41540874373E+01  0.26761449276E+02  0.98776504091E+02  0.10242187527E+03  0.10566000000E+00 0.  1.
        994    1    1    2    0    0  0.11840089393E+02 -0.99625782380E+01  0.45617303540E+01  0.17195839632E+03  0.17120000000E+03 0.  0.
        998    1    1    2    0    0 -0.76860019555E+01 -0.16798871038E+02  0.13966617618E+04  0.13968197284E+04  0.10000000000E+02 0.  1.
</event>
<event>
 5    1  0.1146201E-008  0.3847462E+03  0.7957747E-01  0.3430749E+00
         13   -1    0    0    0    0  0.00000000000E+00  0.00000000000E+00  0.14999999963E+04  0.15000000000E+04  0.10566000000E+00 0.  1.
        994   -1    0    0    0    0 -0.00000000000E+00 -0.00000000000E+00  0.11368683772E-12  0.17120000000E+03  0.17120000000E+03 0.  0.
         13    1    1    2    0    0  0.15279093117E+02 -0.74887819319E+01  0.81829165817E+02  0.83579639169E+02  0.10566000000E+00 0.  1.
        994    1    1    2    0    0 -0.10144088878E+02  0.63600393431E+01  0.22281654236E+01  0.17163262324E+03  0.17120000000E+03 0.  0.
        998    1    1    2    0    0 -0.51350042388E+01  0.11287425888E+01  0.14159426650E+04  0.14159877376E+04  0.10000000000E+02 0.  1.
</event>
<event>
 5    1  0.1146201E-008  0.3797564E+03  0.7957747E-01  0.3452220E+00
         13   -1    0    0    0    0  0.00000000000E+00  0.00000000000E+00  0.14999999963E+04  0.15000000000E+04  0.10566000000E+00 0.  1.
        994   -1    0    0    0    0 -0.00000000000E+00 -0.00000000000E+00  0.11368683772E-12  0.17120000000E+03  0.17120000000E+03 0.  0.
         13    1    1    2    0    0  0.25925446700E+02  0.44374083802E+02  0.26284974671E+03  0.26782678844E+03  0.10566000000E+00 0.  1.
        994    1    1    2    0    0 -0.26881155416E+02 -0.40727775546E+02  0.12264716224E+02  0.17844105884E+03  0.17120000000E+03 0.  0.
        998    1    1    2    0    0  0.95570871643E+00 -0.36463082560E+01  0.12248855333E+04  0.12249321527E+04  0.10000000000E+02 0.  1.
</event>
<event>
 5    1  0.1146201E-008  0.3814017E+03  0.7957747E-01  0.3445078E+00
         13   -1    0    0    0    0  0.00000000000E+00  0.00000000000E+00  0.14999999963E+04  0.15000000000E+04  0.10566000000E+00 0. -1.
        994   -1    0    0    0    0 -0.00000000000E+00 -0.00000000000E+00  0.11368683772E-12  0.17120000000E+03  0.17120000000E+03 0.  0.
         13    1    1    2    0    0  0.37092312629E+02 -0.15191941619E+02  0.18213659514E+03  0.18649500046E+03  0.10566000000E+00 0. -1.
        994    1    1    2    0    0 -0.57819925324E+02  0.96845672567E+01  0.14949308209E+02  0.18157603483E+03  0.17120000000E+03 0.  0.
        998    1    1    2    0    0  0.20727612695E+02  0.55073743621E+01  0.13029140929E+04  0.13031289647E+04  0.10000000000E+02 0. -1.
</event>
<event>
 5    1  0.1146201E-008  0.3804195E+03  0.7957747E-01  0.3449334E+00
         13   -1    0    0    0    0  0.00000000000E+00  0.00000000000E+00  0.14999999963E+04  0.15000000000E+04  0.10566000000E+00 0.  1.
        994   -1    0    0    0    0 -0.00000000000E+00 -0.00000000000E+00  0.11368683772E-12  0.17120000000E+03  0.17120000000E+03 0.  0.
         13    1    1    2    0    0 -0.36942941830E+02  0.83845351465E+02  0.46233924363E+03  0.47133046928E+03  0.10566000000E+00 0.  1.
        994    1    1    2    0    0 -0.37554235744E+01  0.28934706477E+02  0.19653439187E+02  0.17477705260E+03  0.17120000000E+03 0.  0.
        998    1    1    2    0    0  0.40698365405E+02 -0.11278005794E+03  0.10180073135E+04  0.10250924781E+04  0.10000000000E+02 0.  1.
</event>
<event>
 5    1  0.1146201E-008  0.3717449E+03  0.7957747E-01  0.3487910E+00
         13   -1    0    0    0    0  0.00000000000E+00  0.00000000000E+00  0.14999999963E+04  0.15000000000E+04  0.10566000000E+00 0.  1.
        994   -1    0    0    0    0 -0.00000000000E+00 -0.00000000000E+00  0.11368683772E-12  0.17120000000E+03  0.17120000000E+03 0.  0.
         13    1    1    2    0    0 -0.42643510619E+02  0.32021102662E+02  0.12735348516E+03  0.13806788678E+03  0.10566000000E+00 0.  1.
        994    1    1    2    0    0 -0.11806162251E+02 -0.30663910748E+02  0.15671581136E+02  0.17502771022E+03  0.17120000000E+03 0.  0.
        998    1    1    2    0    0  0.54449672870E+02 -0.13571919139E+01  0.13569749300E+04  0.13581044030E+04  0.10000000000E+02 0.  1.
</event>
<event>
 5    1  0.1146201E-008  0.3795194E+03  0.7957747E-01  0.3453254E+00
         13   -1    0    0    0    0  0.00000000000E+00  0.00000000000E+00  0.14999999963E+04  0.15000000000E+04  0.10566000000E+00 0. -1.
        994   -1    0    0    0    0 -0.00000000000E+00 -0.00000000000E+00  0.11368683772E-12  0.17120000000E+03  0.17120000000E+03 0.  0.
         13    1    1    2    0    0  0.58916168704E+01  0.39198044039E+02  0.16239957097E+03  0.16716707099E+03  0.10566000000E+00 0. -1.
        994    1    1    2    0    0 -0.15930550373E+01 -0.37810560452E+02  0.91861657846E+01  0.17557335204E+03  0.17120000000E+03 0.  0.
        998    1    1    2    0    0 -0.42985618331E+01 -0.13874835873E+01  0.13284142595E+04  0.13284595770E+04  0.10000000000E+02 0. -1.
</event>
<event>
 5    1  0.1146201E-008  0.3558649E+03  0.7957747E-01  0.3563487E+00
         13   -1    0    0    0    0  0.00000000000E+00  0.00000000000E+00  0.14999999963E+04  0.15000000000E+04  0.10566000000E+00 0.  1.
        994   -1    0    0    0    0 -0.00000000000E+00 -0.00000000000E+00  0.11368683772E-12  0.17120000000E+03  0.17120000000E+03 0.  0.
         13    1    1    2    0    0 -0.30778836676E+02  0.22089919029E+03  0.10459678646E+04  0.10694823860E+04  0.10566000000E+00 0.  1.
        994    1    1    2    0    0  0.46299821923E+01 -0.21513102947E+03  0.18556414352E+03  0.33173225338E+03  0.17120000000E+03 0.  0.
        998    1    1    2    0    0  0.26148854484E+02 -0.57681608198E+01  0.26846798818E+03  0.26998536062E+03  0.10000000000E+02 0.  1.
</event>
<event>
 5    1  0.1146201E-008  0.3808458E+03  0.7957747E-01  0.3447484E+00
         13   -1    0    0    0    0  0.00000000000E+00  0.00000000000E+00  0.14999999963E+04  0.15000000000E+04  0.10566000000E+00 0.  1.
        994   -1    0    0    0    0 -0.00000000000E+00 -0.00000000000E+00  0.11368683772E-12  0.17120000000E+03  0.17120000000E+03 0.  0.
         13    1    1    2    0    0 -0.23430727741E+02 -0.34565907607E+02  0.22091119155E+03  0.22482341223E+03  0.10566000000E+00 0.  1.
        994    1    1    2    0    0  0.85447868913E+01  0.31959928316E+02  0.73638590202E+01  0.17452253958E+03  0.17120000000E+03 0.  0.
        998    1    1    2    0    0  0.14885940850E+02  0.26059792910E+01  0.12717249457E+04  0.12718540482E+04  0.10000000000E+02 0.  1.
</event>
<event>
 5    1  0.1146201E-008  0.3745172E+03  0.7957747E-01  0.3475385E+00
         13   -1    0    0    0    0  0.00000000000E+00  0.00000000000E+00  0.14999999963E+04  0.15000000000E+04  0.10566000000E+00 0.  1.
        994   -1    0    0    0    0 -0.00000000000E+00 -0.00000000000E+00  0.11368683772E-12  0.17120000000E+03  0.17120000000E+03 0.  0.
         13    1    1    2    0    0  0.17913167807E+02  0.11660515765E+02  0.29292899548E+02  0.36262023341E+02  0.10566000000E+00 0.  1.
        994    1    1    2    0    0 -0.20865203952E+02 -0.14107388230E+02  0.90897429988E+01  0.17328138552E+03  0.17120000000E+03 0.  0.
        998    1    1    2    0    0  0.29520361445E+01  0.24468724656E+01  0.14616173537E+04  0.14616565911E+04  0.10000000000E+02 0.  1.
</event>
<event>
 5    1  0.1146201E-008  0.3789228E+03  0.7957747E-01  0.3455862E+00
         13   -1    0    0    0    0  0.00000000000E+00  0.00000000000E+00  0.14999999963E+04  0.15000000000E+04  0.10566000000E+00 0. -1.
        994   -1    0    0    0    0 -0.00000000000E+00 -0.00000000000E+00  0.11368683772E-12  0.17120000000E+03  0.17120000000E+03 0.  0.
         13    1    1    2    0    0  0.17616199373E+02  0.77496241336E+01  0.37658818495E+02  0.42291665007E+02  0.10566000000E+00 0. -1.
        994    1    1    2    0    0 -0.11500254752E+02 -0.77219275056E+01  0.53219189933E+01  0.17184192400E+03  0.17120000000E+03 0.  0.
        998    1    1    2    0    0 -0.61159446212E+01 -0.27696627997E-01  0.14570192588E+04  0.14570664110E+04  0.10000000000E+02 0. -1.
</event>
<event>
 5    1  0.1146201E-008  0.3725285E+03  0.7957747E-01  0.3484350E+00
         13   -1    0    0    0    0  0.00000000000E+00  0.00000000000E+00  0.14999999963E+04  0.15000000000E+04  0.10566000000E+00 0.  1.
        994   -1    0    0    0    0 -0.00000000000E+00 -0.00000000000E+00  0.11368683772E-12  0.17120000000E+03  0.17120000000E+03 0.  0.
         13    1    1    2    0    0 -0.91329348130E+01  0.40784452391E+02  0.10127126224E+03  0.10955666011E+03  0.10566000000E+00 0.  1.
        994    1    1    2    0    0  0.64835839280E+01 -0.39194794149E+02  0.13382713155E+02  0.17625778213E+03  0.17120000000E+03 0.  0.
        998    1    1    2    0    0  0.26493508850E+01 -0.15896582425E+01  0.13853460209E+04  0.13853855578E+04  0.10000000000E+02 0.  1.
</event>
<event>
 5    1  0.1146201E-008  0.3835084E+03  0.7957747E-01  0.3436023E+00
         13   -1    0    0    0    0  0.00000000000E+00  0.00000000000E+00  0.14999999963E+04  0.15000000000E+04  0.10566000000E+00 0. -1.
        994   -1    0    0    0    0 -0.00000000000E+00 -0.00000000000E+00  0.11368683772E-12  0.17120000000E+03  0.17120000000E+03 0.  0.
         13    1    1    2    0    0 -0.72714725927E+01 -0.19259544353E+02  0.87132206659E+02  0.89531206647E+02  0.10566000000E+00 0. -1.
        994    1    1    2    0    0  0.29493723948E+01  0.15934270544E+02  0.32407768372E+01  0.17199576277E+03  0.17120000000E+03 0.  0.
        998    1    1    2    0    0  0.43221001979E+01  0.33252738088E+01  0.14096270128E+04  0.14096730306E+04  0.10000000000E+02 0. -1.
</event>
<event>
 5    1  0.1146201E-008  0.3772362E+03  0.7957747E-01  0.3463282E+00
         13   -1    0    0    0    0  0.00000000000E+00  0.00000000000E+00  0.14999999963E+04  0.15000000000E+04  0.10566000000E+00 0.  1.
        994   -1    0    0    0    0 -0.00000000000E+00 -0.00000000000E+00  0.11368683772E-12  0.17120000000E+03  0.17120000000E+03 0.  0.
         13    1    1    2    0    0 -0.94364832006E+01  0.32716978459E+02  0.95127771578E+02  0.10103836887E+03  0.10566000000E+00 0.  1.
        994    1    1    2    0    0  0.11214114195E+02 -0.36578391380E+02  0.10489085276E+02  0.17573615446E+03  0.17120000000E+03 0.  0.
        998    1    1    2    0    0 -0.17776309949E+01  0.38614129217E+01  0.13943831394E+04  0.13944254767E+04  0.10000000000E+02 0.  1.
</event>
<event>
 5    1  0.1146201E-008  0.3771441E+03  0.7957747E-01  0.3463689E+00
         13   -1    0    0    0    0  0.00000000000E+00  0.00000000000E+00  0.14999999963E+04  0.15000000000E+04  0.10566000000E+00 0.  1.
        994   -1    0    0    0    0 -0.00000000000E+00 -0.00000000000E+00  0.11368683772E-12  0.17120000000E+03  0.17120000000E+03 0.  0.
         13    1    1    2    0    0  0.12694451360E+03  0.86945946191E+02  0.52163237841E+03  0.54385186997E+03  0.10566000000E+00 0.  1.
        994    1    1    2    0    0 -0.11487808609E+03 -0.89198267206E+02  0.95102364067E+02  0.24394098710E+03  0.17120000000E+03 0.  0.
        998    1    1    2    0    0 -0.12066427511E+02  0.22523210148E+01  0.88326525380E+03  0.88340714294E+03  0.10000000000E+02 0.  1.
</event>
<event>
 5    1  0.1146201E-008  0.3849595E+03  0.7957747E-01  0.3429844E+00
         13   -1    0    0    0    0  0.00000000000E+00  0.00000000000E+00  0.14999999963E+04  0.15000000000E+04  0.10566000000E+00 0.  1.
        994   -1    0    0    0    0 -0.00000000000E+00 -0.00000000000E+00  0.11368683772E-12  0.17120000000E+03  0.17120000000E+03 0.  0.
         13    1    1    2    0    0  0.11976140568E+02 -0.94921482271E+01  0.69502834656E+02  0.71163080386E+02  0.10566000000E+00 0.  1.
        994    1    1    2    0    0 -0.85920452915E+01  0.97591781851E+01  0.22065142987E+01  0.17170723196E+03  0.17120000000E+03 0.  0.
        998    1    1    2    0    0 -0.33840952766E+01 -0.26702995800E+00  0.14282906473E+04  0.14283296877E+04  0.10000000000E+02 0.  1.
</event>
<event>
 5    1  0.1146201E-008  0.3824076E+03  0.7957747E-01  0.3440742E+00
         13   -1    0    0    0    0  0.00000000000E+00  0.00000000000E+00  0.14999999963E+04  0.15000000000E+04  0.10566000000E+00 0.  1.
        994   -1    0    0    0    0 -0.00000000000E+00 -0.00000000000E+00  0.11368683772E-12  0.17120000000E+03  0.17120000000E+03 0.  0.
         13    1    1    2    0    0  0.85283795374E+01  0.14455034413E+02  0.47648652715E+02  0.50518180361E+02  0.10566000000E+00 0.  1.
        994    1    1    2    0    0 -0.16544358701E+01 -0.94441413972E+01  0.32276422689E+01  0.17149864909E+03  0.17120000000E+03 0.  0.
        998    1    1    2    0    0 -0.68739436673E+01 -0.50108930158E+01  0.14491237013E+04  0.14491831705E+04  0.10000000000E+02 0.  1.
</event>
<event>
 5    1  0.1146201E-008  0.3884196E+03  0.7957747E-01  0.3415298E+00
         13   -1    0    0    0    0  0.00000000000E+00  0.00000000000E+00  0.14999999963E+04  0.15000000000E+04  0.10566000000E+00 0. -1.
        994   -1    0    0    0    0 -0.00000000000E+00 -0.00000000000E+00  0.11368683772E-12  0.17120000000E+03  0.17120000000E+03 0.  0.
         13    1    1    2    0    0 -0.97601266376E+02  0.71502282407E+02  0.36818580327E+03  0.38755564824E+03  0.10566000000E+00 0. -1.
        994    1    1    2    0    0  0.25768782332E+02 -0.67725767998E+02  0.40943841635E+02  0.19035926025E+03  0.17120000000E+03 0.  0.
        998    1    1    2    0    0  0.71832484044E+02 -0.37765144095E+01  0.10908703514E+04  0.10932850915E+04  0.10000000000E+02 0. -1.
</event>
<event>
 5    1  0.1146201E-008  0.3782205E+03  0.7957747E-01  0.3458943E+00
         13   -1    0    0    0    0  0.00000000000E+00  0.00000000000E+00  0.14999999963E+04  0.15000000000E+04  0.10566000000E+00 0.  1.
        994   -1    0    0    0    0 -0.00000000000E+00 -0.00000000000E+00  0.11368683772E-12  0.17120000000E+03  0.17120000000E+03 0.  0.
         13    1    1    2    0    0  0.25344480463E+02 -0.88192695816E+01  0.73050975988E+02  0.77824022401E+02  0.10566000000E+00 0.  1.
        994    1    1    2    0    0  0.14865913307E+02  0.64441647260E+02  0.19885367031E+02  0.18460387077E+03  0.17120000000E+03 0.  0.
        998    1    1    2    0    0 -0.40210393769E+02 -0.55622377678E+02  0.14070636533E+04  0.14087721068E+04  0.10000000000E+02 0.  1.
</event>
<event>
 5    1  0.1146201E-008  0.3806454E+03  0.7957747E-01  0.3448353E+00
         13   -1    0    0    0    0  0.00000000000E+00  0.00000000000E+00  0.14999999963E+04  0.15000000000E+04  0.10566000000E+00 0.  1.
        994   -1    0    0    0    0 -0.00000000000E+00 -0.00000000000E+00  0.11368683772E-12  0.17120000000E+03  0.17120000000E+03 0.  0.
         13    1    1    2    0    0  0.23420570693E+02  0.83770786233E+01  0.80108038288E+02  0.83880912848E+02  0.10566000000E+00 0.  1.
        994    1    1    2    0    0 -0.15029749544E+02 -0.25865871604E+01  0.45839642874E+01  0.17193904889E+03  0.17120000000E+03 0.  0.
        998    1    1    2    0    0 -0.83908211496E+01 -0.57904914629E+01  0.14153079937E+04  0.14153800383E+04  0.10000000000E+02 0.  1.
</event>
<event>
 5    1  0.1146201E-008  0.3852015E+03  0.7957747E-01  0.3428818E+00
         13   -1    0    0    0    0  0.00000000000E+00  0.00000000000E+00  0.14999999963E+04  0.15000000000E+04  0.10566000000E+00 0. -1.
        994   -1    0    0    0    0 -0.00000000000E+00 -0.00000000000E+00  0.11368683772E-12  0.17120000000E+03  0.17120000000E+03 0.  0.
         13    1    1    2    0    0 -0.24436842592E+01  0.15037406581E+02  0.85095460623E+02  0.86448503585E+02  0.10566000000E+00 0. -1.
        994    1    1    2    0    0 -0.24126764281E+02  0.84039068985E-01  0.34455611858E+01  0.17292605272E+03  0.17120000000E+03 0.  0.
        998    1    1    2    0    0  0.26570448540E+02 -0.15121445650E+02  0.14114589745E+04  0.14118254437E+04  0.10000000000E+02 0. -1.
</event>
<event>
 5    1  0.1146201E-008  0.3771074E+03  0.7957747E-01  0.3463851E+00
         13   -1    0    0    0    0  0.00000000000E+00  0.00000000000E+00  0.14999999963E+04  0.15000000000E+04  0.10566000000E+00 0. -1.
        994   -1    0    0    0    0 -0.00000000000E+00 -0.00000000000E+00  0.11368683772E-12  0.17120000000E+03  0.17120000000E+03 0.  0.
         13    1    1    2    0    0 -0.11947575471E+02 -0.65431342079E+01  0.14224419916E+02  0.19695239294E+02  0.10566000000E+00 0. -1.
        994    1    1    2    0    0  0.10527456948E+02 -0.62843483058E+01  0.61079921934E+01  0.17174710464E+03  0.17120000000E+03 0.  0.
        998    1    1    2    0    0  0.14201185223E+01  0.12827482514E+02  0.14796675842E+04  0.14797576561E+04  0.10000000000E+02 0. -1.
</event>
<event>
 5    1  0.1146201E-008  0.3845426E+03  0.7957747E-01  0.3431614E+00
         13   -1    0    0    0    0  0.00000000000E+00  0.00000000000E+00  0.14999999963E+04  0.15000000000E+04  0.10566000000E+00 0. -1.
        994   -1    0    0    0    0 -0.00000000000E+00 -0.00000000000E+00  0.11368683772E-12  0.17120000000E+03  0.17120000000E+03 0.  0.
         13    1    1    2    0    0 -0.20415427030E+02  0.94296759420E+01  0.12935459481E+03  0.13129482401E+03  0.10566000000E+00 0. -1.
        994    1    1    2    0    0  0.17861820022E+02 -0.85036647918E+01  0.31474154111E+01  0.17236792960E+03  0.17120000000E+03 0.  0.
        998    1    1    2    0    0  0.25536070081E+01 -0.92601115021E+00  0.13674979861E+04  0.13675372464E+04  0.10000000000E+02 0. -1.
</event>
<event>
 5    1  0.1146201E-008  0.4101895E+03  0.7957747E-01  0.3329395E+00
         13   -1    0    0    0    0  0.00000000000E+00  0.00000000000E+00  0.14999999963E+04  0.15000000000E+04  0.10566000000E+00 0.  1.
        994   -1    0    0    0    0 -0.00000000000E+00 -0.00000000000E+00  0.11368683772E-12  0.17120000000E+03  0.17120000000E+03 0.  0.
         13    1    1    2    0    0  0.21126586335E+02  0.24676087963E+02  0.13884566432E+01  0.32514319049E+02  0.10566000000E+00 0.  1.
        994    1    1    2    0    0 -0.21745858916E+02 -0.26263850373E+02  0.38779296255E+02  0.17881819268E+03  0.17120000000E+03 0.  0.
        998    1    1    2    0    0  0.61927258076E+00  0.15877624095E+01  0.14598322434E+04  0.14598674883E+04  0.10000000000E+02 0.  1.
</event>
<event>
 5    1  0.1146201E-008  0.3841387E+03  0.7957747E-01  0.3433333E+00
         13   -1    0    0    0    0  0.00000000000E+00  0.00000000000E+00  0.14999999963E+04  0.15000000000E+04  0.10566000000E+00 0. -1.
        994   -1    0    0    0    0 -0.00000000000E+00 -0.00000000000E+00  0.11368683772E-12  0.17120000000E+03  0.17120000000E+03 0.  0.
         13    1    1    2    0    0  0.16700470556E+02  0.16770749704E+02  0.14144713776E+03  0.14341362455E+03  0.10566000000E+00 0. -1.
        994    1    1    2    0    0 -0.26160309129E+02  0.10791814375E+02  0.47038276862E+01  0.17358684001E+03  0.17120000000E+03 0.  0.
        998    1    1    2    0    0  0.94598385726E+01 -0.27562564079E+02  0.13538490308E+04  0.13541995354E+04  0.10000000000E+02 0. -1.
</event>
<event>
 5    1  0.1146201E-008  0.4199839E+03  0.7957747E-01  0.3293626E+00
         13   -1    0    0    0    0  0.00000000000E+00  0.00000000000E+00  0.14999999963E+04  0.15000000000E+04  0.10566000000E+00 0.  1.
        994   -1    0    0    0    0 -0.00000000000E+00 -0.00000000000E+00  0.11368683772E-12  0.17120000000E+03  0.17120000000E+03 0.  0.
         13    1    1    2    0    0  0.12239079971E+02 -0.64765907363E+02  0.39040652723E+02  0.76606798420E+02  0.10566000000E+00 0.  1.
        994    1    1    2    0    0 -0.77131669191E+01  0.66296392885E+02  0.59577224565E+02  0.19316726001E+03  0.17120000000E+03 0.  0.
        998    1    1    2    0    0 -0.45259130515E+01 -0.15304855216E+01  0.14013821190E+04  0.14014259416E+04  0.10000000000E+02 0.  1.
</event>
<event>
 5    1  0.1146201E-008  0.3853909E+03  0.7957747E-01  0.3428016E+00
         13   -1    0    0    0    0  0.00000000000E+00  0.00000000000E+00  0.14999999963E+04  0.15000000000E+04  0.10566000000E+00 0. -1.
        994   -1    0    0    0    0 -0.00000000000E+00 -0.00000000000E+00  0.11368683772E-12  0.17120000000E+03  0.17120000000E+03 0.  0.
         13    1    1    2    0    0 -0.13852120414E+02 -0.77676358701E+01  0.95912457459E+02  0.97218455382E+02  0.10566000000E+00 0. -1.
        994    1    1    2    0    0  0.46191167792E+01 -0.76939502662E+01  0.17007435740E+01  0.17144347651E+03  0.17120000000E+03 0.  0.
        998    1    1    2    0    0  0.92330036347E+01  0.15461586136E+02  0.14023867952E+04  0.14025380681E+04  0.10000000000E+02 0. -1.
</event>
<event>
 5    1  0.1146201E-008  0.3837298E+03  0.7957747E-01  0.3435077E+00
         13   -1    0    0    0    0  0.00000000000E+00  0.00000000000E+00  0.14999999963E+04  0.15000000000E+04  0.10566000000E+00 0.  1.
        994   -1    0    0    0    0 -0.00000000000E+00 -0.00000000000E+00  0.11368683772E-12  0.17120000000E+03  0.17120000000E+03 0.  0.
         13    1    1    2    0    0 -0.10166199851E+02  0.18457550216E+02  0.97328727543E+02  0.99583759462E+02  0.10566000000E+00 0.  1.
        994    1    1    2    0    0  0.15615947513E+02 -0.71537885097E+01  0.32369722884E+01  0.17208995466E+03  0.17120000000E+03 0.  0.
        998    1    1    2    0    0 -0.54497476621E+01 -0.11303761707E+02  0.13994342964E+04  0.13995262859E+04  0.10000000000E+02 0.  1.
</event>
<event>
 5    1  0.1146201E-008  0.3736447E+03  0.7957747E-01  0.3479307E+00
         13   -1    0    0    0    0  0.00000000000E+00  0.00000000000E+00  0.14999999963E+04  0.15000000000E+04  0.10566000000E+00 0. -1.
        994   -1    0    0    0    0 -0.00000000000E+00 -0.00000000000E+00  0.11368683772E-12  0.17120000000E+03  0.17120000000E+03 0.  0.
         13    1    1    2    0    0 -0.41110672316E+02 -0.41558269220E+02  0.26562973297E+03  0.27198592486E+03  0.10566000000E+00 0. -1.
        994    1    1    2    0    0 -0.14901757751E+02  0.34068486461E+02  0.12112776506E+02  0.17561003248E+03  0.17120000000E+03 0.  0.
        998    1    1    2    0    0  0.56012430067E+02  0.74897827587E+01  0.12222574868E+04  0.12236040427E+04  0.10000000000E+02 0. -1.
</event>
<event>
 5    1  0.1146201E-008  0.3691856E+03  0.7957747E-01  0.3499642E+00
         13   -1    0    0    0    0  0.00000000000E+00  0.00000000000E+00  0.14999999963E+04  0.15000000000E+04  0.10566000000E+00 0. -1.
        994   -1    0    0    0    0 -0.00000000000E+00 -0.00000000000E+00  0.11368683772E-12  0.17120000000E+03  0.17120000000E+03 0.  0.
         13    1    1    2    0    0 -0.20882592227E+02  0.55440665918E+02  0.20331212927E+03  0.21176775762E+03  0.10566000000E+00 0. -1.
        994    1    1    2    0    0 -0.36957351252E+02 -0.74778934117E+01  0.15481497427E+02  0.17598545810E+03  0.17120000000E+03 0.  0.
        998    1    1    2    0    0  0.57839943479E+02 -0.47962772506E+02  0.12812063696E+04  0.12834467843E+04  0.10000000000E+02 0. -1.
</event>
<event>
 5    1  0.1146201E-008  0.3694144E+03  0.7957747E-01  0.3498586E+00
         13   -1    0    0    0    0  0.00000000000E+00  0.00000000000E+00  0.14999999963E+04  0.15000000000E+04  0.10566000000E+00 0. -1.
        994   -1    0    0    0    0 -0.00000000000E+00 -0.00000000000E+00  0.11368683772E-12  0.17120000000E+03  0.17120000000E+03 0.  0.
         13    1    1    2    0    0  0.77712060752E+02  0.73702404166E+02  0.37083453267E+03  0.38599154207E+03  0.10566000000E+00 0. -1.
        994    1    1    2    0    0 -0.10107890875E+03 -0.80486513586E+02  0.69860553144E+02  0.22557695261E+03  0.17120000000E+03 0.  0.
        998    1    1    2    0    0  0.23366847999E+02  0.67841094201E+01  0.10593049105E+04  0.10596315053E+04  0.10000000000E+02 0. -1.
</event>
<event>
 5    1  0.1146201E-008  0.3856247E+03  0.7957747E-01  0.3427027E+00
         13   -1    0    0    0    0  0.00000000000E+00  0.00000000000E+00  0.14999999963E+04  0.15000000000E+04  0.10566000000E+00 0.  1.
        994   -1    0    0    0    0 -0.00000000000E+00 -0.00000000000E+00  0.11368683772E-12  0.17120000000E+03  0.17120000000E+03 0.  0.
         13    1    1    2    0    0 -0.12369244423E+02  0.13139199085E+01  0.58897786581E+02  0.60197051600E+02  0.10566000000E+00 0.  1.
        994    1    1    2    0    0  0.87180043520E+01  0.16730936616E+01  0.15789896091E+01  0.17143726564E+03  0.17120000000E+03 0.  0.
        998    1    1    2    0    0  0.36512400708E+01 -0.29870135701E+01  0.14395232201E+04  0.14395656828E+04  0.10000000000E+02 0.  1.
</event>
<event>
 5    1  0.1146201E-008  0.3796299E+03  0.7957747E-01  0.3452771E+00
         13   -1    0    0    0    0  0.00000000000E+00  0.00000000000E+00  0.14999999963E+04  0.15000000000E+04  0.10566000000E+00 0.  1.
        994   -1    0    0    0    0 -0.00000000000E+00 -0.00000000000E+00  0.11368683772E-12  0.17120000000E+03  0.17120000000E+03 0.  0.
         13    1    1    2    0    0 -0.43981802738E+02 -0.54394071752E+02  0.40382897377E+03  0.40984261032E+03  0.10566000000E+00 0.  1.
        994    1    1    2    0    0  0.54333454641E+02  0.49019681381E+02  0.22457041190E+02  0.18753349609E+03  0.17120000000E+03 0.  0.
        998    1    1    2    0    0 -0.10351651903E+02  0.53743903709E+01  0.10737139813E+04  0.10738238936E+04  0.10000000000E+02 0.  1.
</event>
<event>
 5    1  0.1146201E-008  0.3712369E+03  0.7957747E-01  0.3490226E+00
         13   -1    0    0    0    0  0.00000000000E+00  0.00000000000E+00  0.14999999963E+04  0.15000000000E+04  0.10566000000E+00 0. -1.
        994   -1    0    0    0    0 -0.00000000000E+00 -0.00000000000E+00  0.11368683772E-12  0.17120000000E+03  0.17120000000E+03 0.  0.
         13    1    1    2    0    0 -0.18501025178E+02 -0.48888150735E+02  0.14079298420E+03  0.15018327063E+03  0.10566000000E+00 0. -1.
        994    1    1    2    0    0 -0.65640006086E+01  0.60167339410E+02  0.21343738662E+02  0.18283377701E+03  0.17120000000E+03 0.  0.
        998    1    1    2    0    0  0.25065025786E+02 -0.11279188675E+02  0.13378632734E+04  0.13381829524E+04  0.10000000000E+02 0. -1.
</event>
<event>
 5    1  0.1146201E-008  0.3844126E+03  0.7957747E-01  0.3432167E+00
         13   -1    0    0    0    0  0.00000000000E+00  0.00000000000E+00  0.14999999963E+04  0.15000000000E+04  0.10566000000E+00 0.  1.
        994   -1    0    0    0    0 -0.00000000000E+00 -0.00000000000E+00  0.11368683772E-12  0.17120000000E+03  0.17120000000E+03 0.  0.
         13    1    1    2    0    0  0.80944376495E+01  0.16595012953E+02  0.83841514697E+02  0.85850597706E+02  0.10566000000E+00 0.  1.
        994    1    1    2    0    0 -0.15699745028E+02 -0.14579940822E+02  0.34360850362E+01  0.17256970577E+03  0.17120000000E+03 0.  0.
        998    1    1    2    0    0  0.76053073788E+01 -0.20150721302E+01  0.14127223965E+04  0.14127796965E+04  0.10000000000E+02 0.  1.
</event>
<event>
 5    1  0.1146201E-008  0.3844680E+03  0.7957747E-01  0.3431932E+00
         13   -1    0    0    0    0  0.00000000000E+00  0.00000000000E+00  0.14999999963E+04  0.15000000000E+04  0.10566000000E+00 0.  1.
        994   -1    0    0    0    0 -0.00000000000E+00 -0.00000000000E+00  0.11368683772E-12  0.17120000000E+03  0.17120000000E+03 0.  0.
         13    1    1    2    0    0  0.93086618869E+01  0.16952892521E+02  0.88925410480E+02  0.91004349039E+02  0.10566000000E+00 0.  1.
        994    1    1    2    0    0 -0.19171640687E+02 -0.20783108389E+02  0.45327170578E+01  0.17357844027E+03  0.17120000000E+03 0.  0.
        998    1    1    2    0    0  0.98629788004E+01  0.38302158680E+01  0.14065418687E+04  0.14066172107E+04  0.10000000000E+02 0.  1.
</event>
<event>
 5    1  0.1146201E-008  0.3859112E+03  0.7957747E-01  0.3425817E+00
         13   -1    0    0    0    0  0.00000000000E+00  0.00000000000E+00  0.14999999963E+04  0.15000000000E+04  0.10566000000E+00 0. -1.
        994   -1    0    0    0    0 -0.00000000000E+00 -0.00000000000E+00  0.11368683772E-12  0.17120000000E+03  0.17120000000E+03 0.  0.
         13    1    1    2    0    0  0.13184136914E+02 -0.74892090608E+00  0.75688720540E+02  0.76832128239E+02  0.10566000000E+00 0. -1.
        994    1    1    2    0    0 -0.67307334787E+01  0.10470169154E+02  0.16865626605E+01  0.17166016343E+03  0.17120000000E+03 0.  0.
        998    1    1    2    0    0 -0.64534034355E+01 -0.97212482481E+01  0.14226247131E+04  0.14227077083E+04  0.10000000000E+02 0. -1.
</event>
<event>
 5    1  0.1146201E-008  0.3719887E+03  0.7957747E-01  0.3486801E+00
         13   -1    0    0    0    0  0.00000000000E+00  0.00000000000E+00  0.14999999963E+04  0.15000000000E+04  0.10566000000E+00 0. -1.
        994   -1    0    0    0    0 -0.00000000000E+00 -0.00000000000E+00  0.11368683772E-12  0.17120000000E+03  0.17120000000E+03 0.  0.
         13    1    1    2    0    0 -0.31158814233E+02  0.77447423802E+01  0.59746857710E+02  0.67827361066E+02  0.10566000000E+00 0. -1.
        994    1    1    2    0    0  0.19607595896E+02 -0.22550735524E+01  0.95721736869E+01  0.17259956455E+03  0.17120000000E+03 0.  0.
        998    1    1    2    0    0  0.11551218337E+02 -0.54896688278E+01  0.14306809649E+04  0.14307730744E+04  0.10000000000E+02 0. -1.
</event>
<event>
 5    1  0.1146201E-008  0.3805420E+03  0.7957747E-01  0.3448802E+00
         13   -1    0    0    0    0  0.00000000000E+00  0.00000000000E+00  0.14999999963E+04  0.15000000000E+04  0.10566000000E+00 0. -1.
        994   -1    0    0    0    0 -0.00000000000E+00 -0.00000000000E+00  0.11368683772E-12  0.17120000000E+03  0.17120000000E+03 0.  0.
         13    1    1    2    0    0  0.13992291588E+02 -0.28001396674E+01  0.25364350232E+02  0.29103031333E+02  0.10566000000E+00 0. -1.
        994    1    1    2    0    0 -0.65312120441E+01 -0.19582247153E+02  0.52830363028E+01  0.17252093092E+03  0.17120000000E+03 0.  0.
        998    1    1    2    0    0 -0.74610795438E+01  0.22382386820E+02  0.14693526097E+04  0.14695760377E+04  0.10000000000E+02 0. -1.
</event>
<event>
 5    1  0.1146201E-008  0.3854343E+03  0.7957747E-01  0.3427832E+00
         13   -1    0    0    0    0  0.00000000000E+00  0.00000000000E+00  0.14999999963E+04  0.15000000000E+04  0.10566000000E+00 0. -1.
        994   -1    0    0    0    0 -0.00000000000E+00 -0.00000000000E+00  0.11368683772E-12  0.17120000000E+03  0.17120000000E+03 0.  0.
         13    1    1    2    0    0  0.23031638050E+01 -0.15417838034E+02  0.91810747106E+02  0.93124855658E+02  0.10566000000E+00 0. -1.
        994    1    1    2    0    0  0.69774000114E+01  0.36332794258E+01  0.16179107457E+01  0.17138827984E+03  0.17120000000E+03 0.  0.
        998    1    1    2    0    0 -0.92805638163E+01  0.11784558608E+02  0.14065713384E+04  0.14066868645E+04  0.10000000000E+02 0. -1.
</event>
<event>
 5    1  0.1146201E-008  0.3836647E+03  0.7957747E-01  0.3435355E+00
         13   -1    0    0    0    0  0.00000000000E+00  0.00000000000E+00  0.14999999963E+04  0.15000000000E+04  0.10566000000E+00 0.  1.
        994   -1    0    0    0    0 -0.00000000000E+00 -0.00000000000E+00  0.11368683772E-12  0.17120000000E+03  0.17120000000E+03 0.  0.
         13    1    1    2    0    0 -0.15667677762E+02 -0.67424133093E+01  0.72607889953E+02  0.74584536676E+02  0.10566000000E+00 0.  1.
        994    1    1    2    0    0 -0.29438712124E+01 -0.26184449988E+02  0.45910990480E+01  0.17327668623E+03  0.17120000000E+03 0.  0.
        998    1    1    2    0    0  0.18611548974E+02  0.32926863298E+02  0.14228010073E+04  0.14233387771E+04  0.10000000000E+02 0.  1.
</event>
<event>
 5    1  0.1146201E-008  0.3791303E+03  0.7957747E-01  0.3454954E+00
         13   -1    0    0    0    0  0.00000000000E+00  0.00000000000E+00  0.14999999963E+04  0.15000000000E+04  0.10566000000E+00 0.  1.
        994   -1    0    0    0    0 -0.00000000000E+00 -0.00000000000E+00  0.11368683772E-12  0.17120000000E+03  0.17120000000E+03 0.  0.
         13    1    1    2    0    0 -0.32135491377E+02  0.13322472960E+00  0.13892511940E+03  0.14259350448E+03  0.10566000000E+00 0.  1.
        994    1    1    2    0    0 -0.17634527533E+02 -0.30843563925E+01  0.56480025673E+01  0.17222610066E+03  0.17120000000E+03 0.  0.
        998    1    1    2    0    0  0.49770018910E+02  0.29511316629E+01  0.13554268743E+04  0.13563803949E+04  0.10000000000E+02 0.  1.
</event>
<event>
 5    1  0.1146201E-008  0.3813349E+03  0.7957747E-01  0.3445367E+00
         13   -1    0    0    0    0  0.00000000000E+00  0.00000000000E+00  0.14999999963E+04  0.15000000000E+04  0.10566000000E+00 0.  1.
        994   -1    0    0    0    0 -0.00000000000E+00 -0.00000000000E+00  0.11368683772E-12  0.17120000000E+03  0.17120000000E+03 0.  0.
         13    1    1    2    0    0  0.13051426110E+02 -0.24953858893E+02  0.10692275360E+03  0.11056907886E+03  0.10566000000E+00 0.  1.
        994    1    1    2    0    0 -0.86408715036E+01  0.26445869617E+02  0.60412882441E+01  0.17355110442E+03  0.17120000000E+03 0.  0.
        998    1    1    2    0    0 -0.44105546062E+01 -0.14920107243E+01  0.13870359544E+04  0.13870798167E+04  0.10000000000E+02 0.  1.
</event>
<event>
 5    1  0.1146201E-008  0.3800853E+03  0.7957747E-01  0.3450787E+00
         13   -1    0    0    0    0  0.00000000000E+00  0.00000000000E+00  0.14999999963E+04  0.15000000000E+04  0.10566000000E+00 0.  1.
        994   -1    0    0    0    0 -0.00000000000E+00 -0.00000000000E+00  0.11368683772E-12  0.17120000000E+03  0.17120000000E+03 0.  0.
         13    1    1    2    0    0  0.16681748839E+02  0.22773773705E+01  0.33620665173E+02  0.37600897366E+02  0.10566000000E+00 0.  1.
        994    1    1    2    0    0 -0.68353810806E+01  0.50718697736E+01  0.43322425433E+01  0.17146619090E+03  0.17120000000E+03 0.  0.
        998    1    1    2    0    0 -0.98463677585E+01 -0.73492471441E+01  0.14620470886E+04  0.14621329117E+04  0.10000000000E+02 0.  1.
</event>
<event>
 5    1  0.1146201E-008  0.3803527E+03  0.7957747E-01  0.3449624E+00
         13   -1    0    0    0    0  0.00000000000E+00  0.00000000000E+00  0.14999999963E+04  0.15000000000E+04  0.10566000000E+00 0. -1.
        994   -1    0    0    0    0 -0.00000000000E+00 -0.00000000000E+00  0.11368683772E-12  0.17120000000E+03  0.17120000000E+03 0.  0.
         13    1    1    2    0    0 -0.65236753305E+01  0.43440143239E+02  0.23019669095E+03  0.23435044714E+03  0.10566000000E+00 0. -1.
        994    1    1    2    0    0  0.70653012991E+01 -0.30958241178E+02  0.73293550813E+01  0.17427418233E+03  0.17120000000E+03 0.  0.
        998    1    1    2    0    0 -0.54162596856E+00 -0.12481902060E+02  0.12624739502E+04  0.12625753705E+04  0.10000000000E+02 0. -1.
</event>
<event>
 5    1  0.1146201E-008  0.3768785E+03  0.7957747E-01  0.3464864E+00
         13   -1    0    0    0    0  0.00000000000E+00  0.00000000000E+00  0.14999999963E+04  0.15000000000E+04  0.10566000000E+00 0.  1.
        994   -1    0    0    0    0 -0.00000000000E+00 -0.00000000000E+00  0.11368683772E-12  0.17120000000E+03  0.17120000000E+03 0.  0.
         13    1    1    2    0    0 -0.10037565520E+02  0.40480080637E+02  0.13547218174E+03  0.14174665018E+03  0.10566000000E+00 0.  1.
        994    1    1    2    0    0  0.18906992762E+02 -0.41363674756E+02  0.12736096300E+02  0.17759525927E+03  0.17120000000E+03 0.  0.
        998    1    1    2    0    0 -0.88694272421E+01  0.88359411909E+00  0.13517917182E+04  0.13518580906E+04  0.10000000000E+02 0.  1.
</event>
<event>
 5    1  0.1146201E-008  0.3798831E+03  0.7957747E-01  0.3451668E+00
         13   -1    0    0    0    0  0.00000000000E+00  0.00000000000E+00  0.14999999963E+04  0.15000000000E+04  0.10566000000E+00 0. -1.
        994   -1    0    0    0    0 -0.00000000000E+00 -0.00000000000E+00  0.11368683772E-12  0.17120000000E+03  0.17120000000E+03 0.  0.
         13    1    1    2    0    0 -0.86834257511E+01  0.30180113250E+02  0.12276039235E+03  0.12671371754E+03  0.10566000000E+00 0. -1.
        994    1    1    2    0    0  0.92902613692E+00 -0.92831363628E+01  0.44833050429E+01  0.17151262267E+03  0.17120000000E+03 0.  0.
        998    1    1    2    0    0  0.77543996142E+01 -0.20896976887E+02  0.13727562989E+04  0.13729736598E+04  0.10000000000E+02 0. -1.
</event>
<event>
 5    1  0.1146201E-008  0.3842465E+03  0.7957747E-01  0.3432874E+00
         13   -1    0    0    0    0  0.00000000000E+00  0.00000000000E+00  0.14999999963E+04  0.15000000000E+04  0.10566000000E+00 0.  1.
        994   -1    0    0    0    0 -0.00000000000E+00 -0.00000000000E+00  0.11368683772E-12  0.17120000000E+03  0.17120000000E+03 0.  0.
         13    1    1    2    0    0  0.10456907729E+02 -0.15680753935E+02  0.82867503499E+02  0.84983923558E+02  0.10566000000E+00 0.  1.
        994    1    1    2    0    0 -0.87434084296E+01  0.20515721266E+02  0.36459988114E+01  0.17268490182E+03  0.17120000000E+03 0.  0.
        998    1    1    2    0    0 -0.17134992996E+01 -0.48349673312E+01  0.14134864940E+04  0.14135311746E+04  0.10000000000E+02 0.  1.
</event>
<event>
 5    1  0.1146201E-008  0.3770321E+03  0.7957747E-01  0.3464184E+00
         13   -1    0    0    0    0  0.00000000000E+00  0.00000000000E+00  0.14999999963E+04  0.15000000000E+04  0.10566000000E+00 0. -1.
        994   -1    0    0    0    0 -0.00000000000E+00 -0.00000000000E+00  0.11368683772E-12  0.17120000000E+03  0.17120000000E+03 0.  0.
         13    1    1    2    0    0  0.28784292905E+02  0.13847124007E+02  0.91304119240E+02  0.96730200638E+02  0.10566000000E+00 0. -1.
        994    1    1    2    0    0 -0.83886421134E+01 -0.11069682475E+02  0.62903991412E+01  0.17187762015E+03  0.17120000000E+03 0.  0.
        998    1    1    2    0    0 -0.20395650792E+02 -0.27774415321E+01  0.14024054779E+04  0.14025921792E+04  0.10000000000E+02 0. -1.
</event>
<event>
 5    1  0.1146201E-008  0.3819084E+03  0.7957747E-01  0.3442891E+00
         13   -1    0    0    0    0  0.00000000000E+00  0.00000000000E+00  0.14999999963E+04  0.15000000000E+04  0.10566000000E+00 0. -1.
        994   -1    0    0    0    0 -0.00000000000E+00 -0.00000000000E+00  0.11368683772E-12  0.17120000000E+03  0.17120000000E+03 0.  0.
         13    1    1    2    0    0  0.27919621651E+02 -0.73398781285E+01  0.12497902609E+03  0.12826982191E+03  0.10566000000E+00 0. -1.
        994    1    1    2    0    0 -0.23629199963E+02  0.37891572134E+01  0.50776721858E+01  0.17293906314E+03  0.17120000000E+03 0.  0.
        998    1    1    2    0    0 -0.42904216879E+01  0.35507209151E+01  0.13699432980E+04  0.13699911150E+04  0.10000000000E+02 0. -1.
</event>
<event>
 5    1  0.1146201E-008  0.3795286E+03  0.7957747E-01  0.3453214E+00
         13   -1    0    0    0    0  0.00000000000E+00  0.00000000000E+00  0.14999999963E+04  0.15000000000E+04  0.10566000000E+00 0. -1.
        994   -1    0    0    0    0 -0.00000000000E+00 -0.00000000000E+00  0.11368683772E-12  0.17120000000E+03  0.17120000000E+03 0.  0.
         13    1    1    2    0    0  0.33806857897E+02  0.43663034325E+01  0.14716992986E+03  0.15106610362E+03  0.10566000000E+00 0. -1.
        994    1    1    2    0    0 -0.55150977192E+01  0.22819693601E+02  0.62188333783E+01  0.17291404977E+03  0.17120000000E+03 0.  0.
        998    1    1    2    0    0 -0.28291760178E+02 -0.27185997033E+02  0.13466112330E+04  0.13472198466E+04  0.10000000000E+02 0. -1.
</event>
<event>
 5    1  0.1146201E-008  0.2836663E+03  0.7957747E-01  0.4020000E+00
         13   -1    0    0    0    0  0.00000000000E+00  0.00000000000E+00  0.14999999963E+04  0.15000000000E+04  0.10566000000E+00 0.  1.
        994   -1    0    0    0    0 -0.00000000000E+00 -0.00000000000E+00  0.11368683772E-12  0.17120000000E+03  0.17120000000E+03 0.  0.
         13    1    1    2    0    0  0.14233764395E+02 -0.11742991961E+03  0.69434332927E+03  0.70434725536E+03  0.10566000000E+00 0.  1.
        994    1    1    2    0    0 -0.10927744279E+03  0.50896353532E+02  0.68128665351E+02  0.22018844963E+03  0.17120000000E+03 0.  0.
        998    1    1    2    0    0  0.95043678399E+02  0.66533566073E+02  0.73752800166E+03  0.74666429502E+03  0.10000000000E+02 0.  1.
</event>
<event>
 5    1  0.1146201E-008  0.4074612E+03  0.7957747E-01  0.3339662E+00
         13   -1    0    0    0    0  0.00000000000E+00  0.00000000000E+00  0.14999999963E+04  0.15000000000E+04  0.10566000000E+00 0.  1.
        994   -1    0    0    0    0 -0.00000000000E+00 -0.00000000000E+00  0.11368683772E-12  0.17120000000E+03  0.17120000000E+03 0.  0.
         13    1    1    2    0    0  0.60485820887E+02 -0.10228088163E+03  0.21100079563E+03  0.24215957589E+03  0.10566000000E+00 0.  1.
        994    1    1    2    0    0 -0.24906512949E+02  0.76013116909E+02  0.58652108184E+02  0.19785812625E+03  0.17120000000E+03 0.  0.
        998    1    1    2    0    0 -0.35579307938E+02  0.26267764724E+02  0.12303470925E+04  0.12311822979E+04  0.10000000000E+02 0.  1.
</event>
<event>
 5    1  0.1146201E-008  0.3702198E+03  0.7957747E-01  0.3494881E+00
         13   -1    0    0    0    0  0.00000000000E+00  0.00000000000E+00  0.14999999963E+04  0.15000000000E+04  0.10566000000E+00 0.  1.
        994   -1    0    0    0    0 -0.00000000000E+00 -0.00000000000E+00  0.11368683772E-12  0.17120000000E+03  0.17120000000E+03 0.  0.
         13    1    1    2    0    0  0.25056773729E+02  0.10346510740E+03  0.62539936581E+03  0.63439518305E+03  0.10566000000E+00 0.  1.
        994    1    1    2    0    0 -0.39176120837E+01 -0.43744125960E+02  0.17834232833E+02  0.17764120046E+03  0.17120000000E+03 0.  0.
        998    1    1    2    0    0 -0.21139161645E+02 -0.59720981439E+02  0.85676639763E+03  0.85916361649E+03  0.10000000000E+02 0.  1.
</event>
<event>
 5    1  0.1146201E-008  0.3751943E+03  0.7957747E-01  0.3472354E+00
         13   -1    0    0    0    0  0.00000000000E+00  0.00000000000E+00  0.14999999963E+04  0.15000000000E+04  0.10566000000E+00 0.  1.
        994   -1    0    0    0    0 -0.00000000000E+00 -0.00000000000E+00  0.11368683772E-12  0.17120000000E+03  0.17120000000E+03 0.  0.
         13    1    1    2    0    0 -0.13117185223E+02  0.51322886271E+01  0.11873578150E+02  0.18422647932E+02  0.10566000000E+00 0.  1.
        994    1    1    2    0    0  0.19668175802E+02 -0.53521747126E+01  0.79916507847E+01  0.17259429132E+03  0.17120000000E+03 0.  0.
        998    1    1    2    0    0 -0.65509905791E+01  0.21988608550E+00  0.14801347673E+04  0.14801830607E+04  0.10000000000E+02 0.  1.
</event>
<event>
 5    1  0.1146201E-008  0.3766570E+03  0.7957747E-01  0.3465845E+00
         13   -1    0    0    0    0  0.00000000000E+00  0.00000000000E+00  0.14999999963E+04  0.15000000000E+04  0.10566000000E+00 0.  1.
        994   -1    0    0    0    0 -0.00000000000E+00 -0.00000000000E+00  0.11368683772E-12  0.17120000000E+03  0.17120000000E+03 0.  0.
         13    1    1    2    0    0 -0.64278600324E+02 -0.18988108908E+02  0.13610375672E+03  0.15171199853E+03  0.10566000000E+00 0.  1.
        994    1    1    2    0    0  0.65008034143E+02  0.22837358252E+02  0.31699774837E+02  0.18724824474E+03  0.17120000000E+03 0.  0.
        998    1    1    2    0    0 -0.72943381880E+00 -0.38492493438E+01  0.13321964647E+04  0.13322397567E+04  0.10000000000E+02 0.  0.
</event>
<event>
 5    1  0.1146201E-008  0.3746228E+03  0.7957747E-01  0.3474911E+00
         13   -1    0    0    0    0  0.00000000000E+00  0.00000000000E+00  0.14999999963E+04  0.15000000000E+04  0.10566000000E+00 0. -1.
        994   -1    0    0    0    0 -0.00000000000E+00 -0.00000000000E+00  0.11368683772E-12  0.17120000000E+03  0.17120000000E+03 0.  0.
         13    1    1    2    0    0  0.21876321058E+02  0.33855659360E+01  0.31752796553E+02  0.38707708957E+02  0.10566000000E+00 0. -1.
        994    1    1    2    0    0 -0.27454439508E+02 -0.25050700719E+01  0.94636452848E+01  0.17366353160E+03  0.17120000000E+03 0.  0.
        998    1    1    2    0    0  0.55781184505E+01 -0.88049586403E+00  0.14587835544E+04  0.14588287594E+04  0.10000000000E+02 0. -1.
</event>
<event>
 5    1  0.1146201E-008  0.3861070E+03  0.7957747E-01  0.3424991E+00
         13   -1    0    0    0    0  0.00000000000E+00  0.00000000000E+00  0.14999999963E+04  0.15000000000E+04  0.10566000000E+00 0. -1.
        994   -1    0    0    0    0 -0.00000000000E+00 -0.00000000000E+00  0.11368683772E-12  0.17120000000E+03  0.17120000000E+03 0.  0.
         13    1    1    2    0    0  0.13197871070E+02 -0.60989079551E+00  0.76293573311E+02  0.77429169310E+02  0.10566000000E+00 0. -1.
        994    1    1    2    0    0 -0.17299728406E+02 -0.37269765182E+01  0.21084144757E+01  0.17212511835E+03  0.17120000000E+03 0.  0.
        998    1    1    2    0    0  0.41018573359E+01  0.43368673137E+01  0.14215980085E+04  0.14216457123E+04  0.10000000000E+02 0. -1.
</event>
<event>
 5    1  0.1146201E-008  0.3861522E+03  0.7957747E-01  0.3424800E+00
         13   -1    0    0    0    0  0.00000000000E+00  0.00000000000E+00  0.14999999963E+04  0.15000000000E+04  0.10566000000E+00 0. -1.
        994   -1    0    0    0    0 -0.00000000000E+00 -0.00000000000E+00  0.11368683772E-12  0.17120000000E+03  0.17120000000E+03 0.  0.
         13    1    1    2    0    0  0.80294436454E+01 -0.82608214036E+01  0.58218938126E+02  0.59347864798E+02  0.10566000000E+00 0. -1.
        994    1    1    2    0    0 -0.12934644961E+02  0.15026656539E+02  0.23481767851E+01  0.17236026045E+03  0.17120000000E+03 0.  0.
        998    1    1    2    0    0  0.49052013155E+01 -0.67658351355E+01  0.14394328814E+04  0.14394918748E+04  0.10000000000E+02 0. -1.
</event>
<event>
 5    1  0.1146201E-008  0.3796857E+03  0.7957747E-01  0.3452528E+00
         13   -1    0    0    0    0  0.00000000000E+00  0.00000000000E+00  0.14999999963E+04  0.15000000000E+04  0.10566000000E+00 0. -1.
        994   -1    0    0    0    0 -0.00000000000E+00 -0.00000000000E+00  0.11368683772E-12  0.17120000000E+03  0.17120000000E+03 0.  0.
         13    1    1    2    0    0 -0.24473517075E+02 -0.48541256764E+02  0.28146658319E+03  0.28666819716E+03  0.10566000000E+00 0. -1.
        994    1    1    2    0    0  0.23533986883E+02  0.48582482619E+02  0.14106054075E+02  0.18006256390E+03  0.17120000000E+03 0.  0.
        998    1    1    2    0    0  0.93953019154E+00 -0.41225855719E-01  0.12044273590E+04  0.12044692389E+04  0.10000000000E+02 0.  0.
</event>
<event>
 5    1  0.1146201E-008  0.3845793E+03  0.7957747E-01  0.3431458E+00
         13   -1    0    0    0    0  0.00000000000E+00  0.00000000000E+00  0.14999999963E+04  0.15000000000E+04  0.10566000000E+00 0. -1.
        994   -1    0    0    0    0 -0.00000000000E+00 -0.00000000000E+00  0.11368683772E-12  0.17120000000E+03  0.17120000000E+03 0.  0.
         13    1    1    2    0    0  0.49012757700E+01  0.14665201176E+02  0.60523164951E+02  0.62467233727E+02  0.10566000000E+00 0. -1.
        994    1    1    2    0    0 -0.66210619519E+01 -0.21092187788E+02  0.34502029005E+01  0.17265590852E+03  0.17120000000E+03 0.  0.
        998    1    1    2    0    0  0.17197861819E+01  0.64269866125E+01  0.14360266284E+04  0.14360768578E+04  0.10000000000E+02 0. -1.
</event>
<event>
 5    1  0.1146201E-008  0.3796183E+03  0.7957747E-01  0.3452822E+00
         13   -1    0    0    0    0  0.00000000000E+00  0.00000000000E+00  0.14999999963E+04  0.15000000000E+04  0.10566000000E+00 0. -1.
        994   -1    0    0    0    0 -0.00000000000E+00 -0.00000000000E+00  0.11368683772E-12  0.17120000000E+03  0.17120000000E+03 0.  0.
         13    1    1    2    0    0  0.19884716150E+02 -0.73088098764E+01  0.46818247780E+02  0.51388521358E+02  0.10566000000E+00 0. -1.
        994    1    1    2    0    0 -0.29814298007E+02  0.16052607468E+02  0.81732544909E+01  0.17470781511E+03  0.17120000000E+03 0.  0.
        998    1    1    2    0    0  0.99295818564E+01 -0.87437975916E+01  0.14450084940E+04  0.14451036635E+04  0.10000000000E+02 0. -1.
</event>
<event>
 5    1  0.1146201E-008  0.3766897E+03  0.7957747E-01  0.3465700E+00
         13   -1    0    0    0    0  0.00000000000E+00  0.00000000000E+00  0.14999999963E+04  0.15000000000E+04  0.10566000000E+00 0. -1.
        994   -1    0    0    0    0 -0.00000000000E+00 -0.00000000000E+00  0.11368683772E-12  0.17120000000E+03  0.17120000000E+03 0.  0.
         13    1    1    2    0    0 -0.30901264096E+02  0.29507951070E+02  0.13436113866E+03  0.14099125521E+03  0.10566000000E+00 0. -1.
        994    1    1    2    0    0  0.41421380641E+02 -0.33998965518E+02  0.15581975785E+02  0.18006637221E+03  0.17120000000E+03 0.  0.
        998    1    1    2    0    0 -0.10520116545E+02  0.44910144483E+01  0.13500568818E+04  0.13501423726E+04  0.10000000000E+02 0. -1.
</event>
<event>
 5    1  0.1146201E-008  0.3747692E+03  0.7957747E-01  0.3474256E+00
         13   -1    0    0    0    0  0.00000000000E+00  0.00000000000E+00  0.14999999963E+04  0.15000000000E+04  0.10566000000E+00 0.  1.
        994   -1    0    0    0    0 -0.00000000000E+00 -0.00000000000E+00  0.11368683772E-12  0.17120000000E+03  0.17120000000E+03 0.  0.
         13    1    1    2    0    0  0.20254425393E+02  0.20189434389E+02  0.56457900201E+02  0.63287918816E+02  0.10566000000E+00 0.  1.
        994    1    1    2    0    0 -0.18592349751E+02 -0.15969389144E+02  0.88434626205E+01  0.17317142862E+03  0.17120000000E+03 0.  0.
        998    1    1    2    0    0 -0.16620756427E+01 -0.42200452446E+01  0.14346986335E+04  0.14347406526E+04  0.10000000000E+02 0.  1.
</event>
<event>
 5    1  0.1146201E-008  0.4008645E+03  0.7957747E-01  0.3365055E+00
         13   -1    0    0    0    0  0.00000000000E+00  0.00000000000E+00  0.14999999963E+04  0.15000000000E+04  0.10566000000E+00 0.  1.
        994   -1    0    0    0    0 -0.00000000000E+00 -0.00000000000E+00  0.11368683772E-12  0.17120000000E+03  0.17120000000E+03 0.  0.
         13    1    1    2    0    0  0.57194341297E+02  0.68939251686E+02  0.13143133134E+03  0.15905351025E+03  0.10566000000E+00 0.  1.
        994    1    1    2    0    0 -0.35171147923E+02 -0.58662151876E+02  0.46917317022E+02  0.19023388853E+03  0.17120000000E+03 0.  0.
        998    1    1    2    0    0 -0.22023193374E+02 -0.10277099810E+02  0.13216513479E+04  0.13219126012E+04  0.10000000000E+02 0.  1.
</event>
<event>
 5    1  0.1146201E-008  0.3771452E+03  0.7957747E-01  0.3463684E+00
         13   -1    0    0    0    0  0.00000000000E+00  0.00000000000E+00  0.14999999963E+04  0.15000000000E+04  0.10566000000E+00 0.  1.
        994   -1    0    0    0    0 -0.00000000000E+00 -0.00000000000E+00  0.11368683772E-12  0.17120000000E+03  0.17120000000E+03 0.  0.
         13    1    1    2    0    0 -0.15839967054E+00  0.57317922217E+02  0.10332554271E+03  0.11815899559E+03  0.10566000000E+00 0.  1.
        994    1    1    2    0    0  0.16894202027E+00 -0.46067363056E+02  0.22417329101E+02  0.17870144690E+03  0.17120000000E+03 0.  0.
        998    1    1    2    0    0 -0.10542349730E-01 -0.11250559161E+02  0.13742571245E+04  0.13743395575E+04  0.10000000000E+02 0.  1.
</event>
<event>
 5    1  0.1146201E-008  0.3731863E+03  0.7957747E-01  0.3481374E+00
         13   -1    0    0    0    0  0.00000000000E+00  0.00000000000E+00  0.14999999963E+04  0.15000000000E+04  0.10566000000E+00 0. -1.
        994   -1    0    0    0    0 -0.00000000000E+00 -0.00000000000E+00  0.11368683772E-12  0.17120000000E+03  0.17120000000E+03 0.  0.
         13    1    1    2    0    0  0.25565792852E+02 -0.82076761805E+02  0.51191203925E+03  0.51908010141E+03  0.10566000000E+00 0. -1.
        994    1    1    2    0    0 -0.10394115492E+02  0.42837952212E+02  0.14288088253E+02  0.17736041625E+03  0.17120000000E+03 0.  0.
        998    1    1    2    0    0 -0.15171677360E+02  0.39238809593E+02  0.97379986878E+03  0.97475948234E+03  0.10000000000E+02 0. -1.
</event>
<event>
 5    1  0.1146201E-008  0.3851539E+03  0.7957747E-01  0.3429020E+00
         13   -1    0    0    0    0  0.00000000000E+00  0.00000000000E+00  0.14999999963E+04  0.15000000000E+04  0.10566000000E+00 0. -1.
        994   -1    0    0    0    0 -0.00000000000E+00 -0.00000000000E+00  0.11368683772E-12  0.17120000000E+03  0.17120000000E+03 0.  0.
         13    1    1    2    0    0  0.13095239525E+02  0.25077826232E+01  0.57235473780E+02  0.58768060158E+02  0.10566000000E+00 0. -1.
        994    1    1    2    0    0 -0.75864795988E+01 -0.84018808815E+01  0.19750905724E+01  0.17158521865E+03  0.17120000000E+03 0.  0.
        998    1    1    2    0    0 -0.55087599258E+01  0.58940982584E+01  0.14407894319E+04  0.14408467212E+04  0.10000000000E+02 0. -1.
</event>
<event>
 5    1  0.1146201E-008  0.3004339E+03  0.7957747E-01  0.3892926E+00
         13   -1    0    0    0    0  0.00000000000E+00  0.00000000000E+00  0.14999999963E+04  0.15000000000E+04  0.10566000000E+00 0.  1.
        994   -1    0    0    0    0 -0.00000000000E+00 -0.00000000000E+00  0.11368683772E-12  0.17120000000E+03  0.17120000000E+03 0.  0.
         13    1    1    2    0    0  0.22884120593E+03  0.85316305941E+02  0.45972015820E+03  0.52056681091E+03  0.10566000000E+00 0.  1.
        994    1    1    2    0    0 -0.22204394992E+03 -0.79945509931E+02  0.33046147714E+03  0.44069153399E+03  0.17120000000E+03 0.  0.
        998    1    1    2    0    0 -0.67972560112E+01 -0.53707960097E+01  0.70981836093E+03  0.70994165510E+03  0.10000000000E+02 0.  0.
</event>
<event>
 5    1  0.1146201E-008  0.3823076E+03  0.7957747E-01  0.3441172E+00
         13   -1    0    0    0    0  0.00000000000E+00  0.00000000000E+00  0.14999999963E+04  0.15000000000E+04  0.10566000000E+00 0.  1.
        994   -1    0    0    0    0 -0.00000000000E+00 -0.00000000000E+00  0.11368683772E-12  0.17120000000E+03  0.17120000000E+03 0.  0.
         13    1    1    2    0    0  0.15270705970E+02  0.90141443711E+01  0.49422830475E+02  0.52507871751E+02  0.10566000000E+00 0.  1.
        994    1    1    2    0    0 -0.17271539134E+02 -0.16376413768E+02  0.48544673589E+01  0.17291471553E+03  0.17120000000E+03 0.  0.
        998    1    1    2    0    0  0.20008331641E+01  0.73622693968E+01  0.14457226984E+04  0.14457774127E+04  0.10000000000E+02 0.  1.
</event>
<event>
 5    1  0.1146201E-008  0.3896271E+03  0.7957747E-01  0.3410282E+00
         13   -1    0    0    0    0  0.00000000000E+00  0.00000000000E+00  0.14999999963E+04  0.15000000000E+04  0.10566000000E+00 0.  1.
        994   -1    0    0    0    0 -0.00000000000E+00 -0.00000000000E+00  0.11368683772E-12  0.17120000000E+03  0.17120000000E+03 0.  0.
         13    1    1    2    0    0 -0.43307736851E+02  0.74665275245E+02  0.15202001016E+03  0.17481578319E+03  0.10566000000E+00 0.  1.
        994    1    1    2    0    0  0.31588773823E+02 -0.74062489636E+02  0.46509173527E+02  0.19482208865E+03  0.17120000000E+03 0.  0.
        998    1    1    2    0    0  0.11718963028E+02 -0.60278560899E+00  0.13014708126E+04  0.13015621282E+04  0.10000000000E+02 0.  1.
</event>
<event>
 5    1  0.1146201E-008  0.3827458E+03  0.7957747E-01  0.3439289E+00
         13   -1    0    0    0    0  0.00000000000E+00  0.00000000000E+00  0.14999999963E+04  0.15000000000E+04  0.10566000000E+00 0. -1.
        994   -1    0    0    0    0 -0.00000000000E+00 -0.00000000000E+00  0.11368683772E-12  0.17120000000E+03  0.17120000000E+03 0.  0.
         13    1    1    2    0    0 -0.20818215270E+02 -0.19652391190E+02  0.13694102969E+03  0.13990164882E+03  0.10566000000E+00 0. -1.
        994    1    1    2    0    0  0.17993998363E+02  0.21735694467E+02  0.53956936678E+01  0.17359371504E+03  0.17120000000E+03 0.  0.
        998    1    1    2    0    0  0.28242169074E+01 -0.20833032767E+01  0.13576632729E+04  0.13577046361E+04  0.10000000000E+02 0. -1.
</event>
<event>
 5    1  0.1146201E-008  0.3806831E+03  0.7957747E-01  0.3448190E+00
         13   -1    0    0    0    0  0.00000000000E+00  0.00000000000E+00  0.14999999963E+04  0.15000000000E+04  0.10566000000E+00 0.  1.
        994   -1    0    0    0    0 -0.00000000000E+00 -0.00000000000E+00  0.11368683772E-12  0.17120000000E+03  0.17120000000E+03 0.  0.
         13    1    1    2    0    0 -0.11270696102E+02  0.87079104254E+01  0.25185892140E+02  0.28934350200E+02  0.10566000000E+00 0.  1.
        994    1    1    2    0    0  0.75635350966E+01 -0.78391970340E+01  0.41846170495E+01  0.17159723510E+03  0.17120000000E+03 0.  0.
        998    1    1    2    0    0  0.37071610052E+01 -0.86871339137E+00  0.14706294871E+04  0.14706684147E+04  0.10000000000E+02 0.  1.
</event>
<event>
 5    1  0.1146201E-008  0.3733439E+03  0.7957747E-01  0.3480663E+00
         13   -1    0    0    0    0  0.00000000000E+00  0.00000000000E+00  0.14999999963E+04  0.15000000000E+04  0.10566000000E+00 0.  1.
        994   -1    0    0    0    0 -0.00000000000E+00 -0.00000000000E+00  0.11368683772E-12  0.17120000000E+03  0.17120000000E+03 0.  0.
         13    1    1    2    0    0  0.39084742183E+02 -0.48341023423E+01  0.98950079901E+02  0.10649936663E+03  0.10566000000E+00 0.  1.
        994    1    1    2    0    0 -0.26199336105E+02  0.13846610033E+02  0.10539215678E+02  0.17406507085E+03  0.17120000000E+03 0.  0.
        998    1    1    2    0    0 -0.12885406078E+02 -0.90125076908E+01  0.13905107007E+04  0.13906355625E+04  0.10000000000E+02 0.  1.
</event>
<event>
 5    1  0.1146201E-008  0.3824307E+03  0.7957747E-01  0.3440643E+00
         13   -1    0    0    0    0  0.00000000000E+00  0.00000000000E+00  0.14999999963E+04  0.15000000000E+04  0.10566000000E+00 0. -1.
        994   -1    0    0    0    0 -0.00000000000E+00 -0.00000000000E+00  0.11368683772E-12  0.17120000000E+03  0.17120000000E+03 0.  0.
         13    1    1    2    0    0  0.14731494221E+02 -0.73235160032E+00  0.36015735701E+02  0.38919116677E+02  0.10566000000E+00 0. -1.
        994    1    1    2    0    0 -0.12756345920E+02 -0.50390721456E+01  0.35352601308E+01  0.17178490817E+03  0.17120000000E+03 0.  0.
        998    1    1    2    0    0 -0.19751483003E+01  0.57714237459E+01  0.14604490004E+04  0.14604959752E+04  0.10000000000E+02 0. -1.
</event>
<event>
 5    1  0.1146201E-008  0.3819746E+03  0.7957747E-01  0.3442605E+00
         13   -1    0    0    0    0  0.00000000000E+00  0.00000000000E+00  0.14999999963E+04  0.15000000000E+04  0.10566000000E+00 0. -1.
        994   -1    0    0    0    0 -0.00000000000E+00 -0.00000000000E+00  0.11368683772E-12  0.17120000000E+03  0.17120000000E+03 0.  0.
         13    1    1    2    0    0 -0.25853903181E+02 -0.23257195744E+02  0.18284179852E+03  0.18611946678E+03  0.10566000000E+00 0. -1.
        994    1    1    2    0    0  0.10145124038E+02  0.28340110574E+02  0.61548288162E+01  0.17393506641E+03  0.17120000000E+03 0.  0.
        998    1    1    2    0    0  0.15708779143E+02 -0.50829148298E+01  0.13110033689E+04  0.13111454668E+04  0.10000000000E+02 0. -1.
</event>
<event>
 5    1  0.1146201E-008  0.3815475E+03  0.7957747E-01  0.3444448E+00
         13   -1    0    0    0    0  0.00000000000E+00  0.00000000000E+00  0.14999999963E+04  0.15000000000E+04  0.10566000000E+00 0. -1.
        994   -1    0    0    0    0 -0.00000000000E+00 -0.00000000000E+00  0.11368683772E-12  0.17120000000E+03  0.17120000000E+03 0.  0.
         13    1    1    2    0    0 -0.20019159862E+02 -0.11785544324E+01  0.58323069909E+02  0.61674527966E+02  0.10566000000E+00 0. -1.
        994    1    1    2    0    0  0.14623822145E+02  0.35230858235E+01  0.41068946104E+01  0.17190862367E+03  0.17120000000E+03 0.  0.
        998    1    1    2    0    0  0.53953377173E+01 -0.23445313911E+01  0.14375700318E+04  0.14376168484E+04  0.10000000000E+02 0. -1.
</event>
<event>
 5    1  0.1146201E-008  0.3744505E+03  0.7957747E-01  0.3475684E+00
         13   -1    0    0    0    0  0.00000000000E+00  0.00000000000E+00  0.14999999963E+04  0.15000000000E+04  0.10566000000E+00 0. -1.
        994   -1    0    0    0    0 -0.00000000000E+00 -0.00000000000E+00  0.11368683772E-12  0.17120000000E+03  0.17120000000E+03 0.  0.
         13    1    1    2    0    0  0.11391421698E+03 -0.40889675159E+02  0.61186328366E+03  0.62371876949E+03  0.10566000000E+00 0. -1.
        994    1    1    2    0    0 -0.10142952208E+03  0.12156326155E+03  0.97777825806E+02  0.25285473642E+03  0.17120000000E+03 0.  0.
        998    1    1    2    0    0 -0.12484694892E+02 -0.80673586389E+02  0.79035888682E+03  0.79462649409E+03  0.10000000000E+02 0. -1.
</event>
<event>
 5    1  0.1146201E-008  0.3843052E+03  0.7957747E-01  0.3432624E+00
         13   -1    0    0    0    0  0.00000000000E+00  0.00000000000E+00  0.14999999963E+04  0.15000000000E+04  0.10566000000E+00 0.  1.
        994   -1    0    0    0    0 -0.00000000000E+00 -0.00000000000E+00  0.11368683772E-12  0.17120000000E+03  0.17120000000E+03 0.  0.
         13    1    1    2    0    0 -0.31462420710E+02  0.30633022731E+02  0.47501512199E+02  0.64689031712E+02  0.10566000000E+00 0.  1.
        994    1    1    2    0    0 -0.12865236082E+03 -0.10392628670E+03  0.12790122842E+03  0.27022262534E+03  0.17120000000E+03 0.  0.
        998    1    1    2    0    0  0.16011478153E+03  0.73293263973E+02  0.13245972557E+04  0.13362883430E+04  0.10000000000E+02 0.  1.
</event>
<event>
 5    1  0.1146201E-008  0.3767381E+03  0.7957747E-01  0.3465486E+00
         13   -1    0    0    0    0  0.00000000000E+00  0.00000000000E+00  0.14999999963E+04  0.15000000000E+04  0.10566000000E+00 0. -1.
        994   -1    0    0    0    0 -0.00000000000E+00 -0.00000000000E+00  0.11368683772E-12  0.17120000000E+03  0.17120000000E+03 0.  0.
         13    1    1    2    0    0  0.69714468016E+02  0.26666067454E+02  0.40320497876E+03  0.41005542584E+03  0.10566000000E+00 0. -1.
        994    1    1    2    0    0 -0.59148666237E+02 -0.15976889475E+02  0.18581595529E+02  0.18278003558E+03  0.17120000000E+03 0.  0.
        998    1    1    2    0    0 -0.10565801779E+02 -0.10689177978E+02  0.10782134220E+04  0.10783645386E+04  0.10000000000E+02 0. -1.
</event>
<event>
 5    1  0.1146201E-008  0.3853862E+03  0.7957747E-01  0.3428036E+00
         13   -1    0    0    0    0  0.00000000000E+00  0.00000000000E+00  0.14999999963E+04  0.15000000000E+04  0.10566000000E+00 0.  1.
        994   -1    0    0    0    0 -0.00000000000E+00 -0.00000000000E+00  0.11368683772E-12  0.17120000000E+03  0.17120000000E+03 0.  0.
         13    1    1    2    0    0  0.89786183900E+01 -0.75721653734E+01  0.47907644402E+02  0.49326532747E+02  0.10566000000E+00 0.  1.
        994    1    1    2    0    0 -0.26085953694E+00  0.13068233741E+02  0.19998737532E+01  0.17170988986E+03  0.17120000000E+03 0.  0.
        998    1    1    2    0    0 -0.87177588530E+01 -0.54960683675E+01  0.14500924781E+04  0.14501635774E+04  0.10000000000E+02 0.  1.
</event>
<event>
 5    1  0.1149843E-008  0.3829831E+03  0.7957747E-01  0.3438271E+00
         13   -1    0    0    0    0  0.00000000000E+00  0.00000000000E+00  0.14999999963E+04  0.15000000000E+04  0.10566000000E+00 0. -1.
        994   -1    0    0    0    0 -0.00000000000E+00 -0.00000000000E+00  0.11368683772E-12  0.17120000000E+03  0.17120000000E+03 0.  0.
         13    1    1    2    0    0  0.72858802653E+01  0.74188639301E+01  0.19300774488E+02  0.21923837555E+02  0.10566000000E+00 0. -1.
        994    1    1    2    0    0 -0.81452377785E+01 -0.77042306224E+01  0.30510223391E+01  0.17159384839E+03  0.17120000000E+03 0.  0.
        998    1    1    2    0    0  0.85935751321E+00  0.28536669223E+00  0.14776481995E+04  0.14776823141E+04  0.10000000000E+02 0. -1.
</event>
<event>
 5    1  0.1146201E-008  0.3822092E+03  0.7957747E-01  0.3441595E+00
         13   -1    0    0    0    0  0.00000000000E+00  0.00000000000E+00  0.14999999963E+04  0.15000000000E+04  0.10566000000E+00 0. -1.
        994   -1    0    0    0    0 -0.00000000000E+00 -0.00000000000E+00  0.11368683772E-12  0.17120000000E+03  0.17120000000E+03 0.  0.
         13    1    1    2    0    0 -0.11388385514E+02  0.12687748114E+02  0.45485186707E+02  0.48575586981E+02  0.10566000000E+00 0. -1.
        994    1    1    2    0    0  0.15362791738E+02 -0.12666268557E+02  0.43388930069E+01  0.17240857207E+03  0.17120000000E+03 0.  0.
        998    1    1    2    0    0 -0.39744062244E+01 -0.21479556433E-01  0.14501759166E+04  0.14502158410E+04  0.10000000000E+02 0. -1.
</event>
<event>
 5    1  0.1146201E-008  0.3787827E+03  0.7957747E-01  0.3456476E+00
         13   -1    0    0    0    0  0.00000000000E+00  0.00000000000E+00  0.14999999963E+04  0.15000000000E+04  0.10566000000E+00 0. -1.
        994   -1    0    0    0    0 -0.00000000000E+00 -0.00000000000E+00  0.11368683772E-12  0.17120000000E+03  0.17120000000E+03 0.  0.
         13    1    1    2    0    0 -0.30809192061E+02 -0.11877017238E+01  0.10171741912E+03  0.10628763553E+03  0.10566000000E+00 0. -1.
        994    1    1    2    0    0  0.12251346751E+02 -0.48244499097E+01  0.53310225618E+01  0.17178833085E+03  0.17120000000E+03 0.  0.
        998    1    1    2    0    0  0.18557845311E+02  0.60121516336E+01  0.13929515546E+04  0.13931240336E+04  0.10000000000E+02 0. -1.
</event>
<event>
 5    1  0.1146201E-008  0.3791876E+03  0.7957747E-01  0.3454703E+00
         13   -1    0    0    0    0  0.00000000000E+00  0.00000000000E+00  0.14999999963E+04  0.15000000000E+04  0.10566000000E+00 0. -1.
        994   -1    0    0    0    0 -0.00000000000E+00 -0.00000000000E+00  0.11368683772E-12  0.17120000000E+03  0.17120000000E+03 0.  0.
         13    1    1    2    0    0 -0.55826488306E+02  0.13034071641E+02  0.30651187213E+03  0.31182691151E+03  0.10566000000E+00 0. -1.
        994    1    1    2    0    0  0.48636561236E+02 -0.15326031228E+02  0.13309965778E+02  0.17912843859E+03  0.17120000000E+03 0.  0.
        998    1    1    2    0    0  0.71899270700E+01  0.22919595879E+01  0.11801781584E+04  0.11802446499E+04  0.10000000000E+02 0. -1.
</event>
<event>
 5    1  0.1146201E-008  0.3803161E+03  0.7957747E-01  0.3449783E+00
         13   -1    0    0    0    0  0.00000000000E+00  0.00000000000E+00  0.14999999963E+04  0.15000000000E+04  0.10566000000E+00 0.  1.
        994   -1    0    0    0    0 -0.00000000000E+00 -0.00000000000E+00  0.11368683772E-12  0.17120000000E+03  0.17120000000E+03 0.  0.
         13    1    1    2    0    0 -0.13093613674E+02 -0.30203653334E+02  0.15828068638E+03  0.16166783922E+03  0.10566000000E+00 0.  1.
        994    1    1    2    0    0  0.38169001021E+01 -0.59271063335E+01  0.41396534069E+01  0.17139508758E+03  0.17120000000E+03 0.  0.
        998    1    1    2    0    0  0.92767135724E+01  0.36130759668E+02  0.13375796565E+04  0.13381370732E+04  0.10000000000E+02 0.  1.
</event>
<event>
 5    1  0.1146201E-008  0.2962078E+03  0.7957747E-01  0.3923470E+00
         13   -1    0    0    0    0  0.00000000000E+00  0.00000000000E+00  0.14999999963E+04  0.15000000000E+04  0.10566000000E+00 0. -1.
        994   -1    0    0    0    0 -0.00000000000E+00 -0.00000000000E+00  0.11368683772E-12  0.17120000000E+03  0.17120000000E+03 0.  0.
         13    1    1    2    0    0 -0.13050255882E+03  0.15378353523E+03  0.64099335355E+03  0.67197677343E+03  0.10566000000E+00 0. -1.
        994    1    1    2    0    0  0.18055886328E+03 -0.72216341669E+02  0.18493696264E+03  0.31832031550E+03  0.17120000000E+03 0.  0.
        998    1    1    2    0    0 -0.50056304456E+02 -0.81567193564E+02  0.67406968010E+03  0.68090291107E+03  0.10000000000E+02 0. -1.
</event>
<event>
 5    1  0.1146201E-008  0.3808071E+03  0.7957747E-01  0.3447652E+00
         13   -1    0    0    0    0  0.00000000000E+00  0.00000000000E+00  0.14999999963E+04  0.15000000000E+04  0.10566000000E+00 0.  1.
        994   -1    0    0    0    0 -0.00000000000E+00 -0.00000000000E+00  0.11368683772E-12  0.17120000000E+03  0.17120000000E+03 0.  0.
         13    1    1    2    0    0  0.21914655567E+02 -0.99230916983E+01  0.81675297018E+02  0.85144495915E+02  0.10566000000E+00 0.  1.
        994    1    1    2    0    0  0.39925806686E+01  0.12448873006E+02  0.42963008386E+01  0.17175218584E+03  0.17120000000E+03 0.  0.
        998    1    1    2    0    0 -0.25907236235E+02 -0.25257813072E+01  0.14140283984E+04  0.14143033182E+04  0.10000000000E+02 0.  1.
</event>
<event>
 5    1  0.1146201E-008  0.3719459E+03  0.7957747E-01  0.3486996E+00
         13   -1    0    0    0    0  0.00000000000E+00  0.00000000000E+00  0.14999999963E+04  0.15000000000E+04  0.10566000000E+00 0. -1.
        994   -1    0    0    0    0 -0.00000000000E+00 -0.00000000000E+00  0.11368683772E-12  0.17120000000E+03  0.17120000000E+03 0.  0.
         13    1    1    2    0    0  0.13538722717E+02 -0.32890394295E+02  0.77536472941E+02  0.85305280316E+02  0.10566000000E+00 0. -1.
        994    1    1    2    0    0  0.82249333241E+01  0.11782438701E+02  0.89649954344E+01  0.17203571296E+03  0.17120000000E+03 0.  0.
        998    1    1    2    0    0 -0.21763656041E+02  0.21107955594E+02  0.14134985279E+04  0.14138590067E+04  0.10000000000E+02 0. -1.
</event>
<event>
 5    1  0.1146201E-008  0.3776140E+03  0.7957747E-01  0.3461614E+00
         13   -1    0    0    0    0  0.00000000000E+00  0.00000000000E+00  0.14999999963E+04  0.15000000000E+04  0.10566000000E+00 0.  1.
        994   -1    0    0    0    0 -0.00000000000E+00 -0.00000000000E+00  0.11368683772E-12  0.17120000000E+03  0.17120000000E+03 0.  0.
         13    1    1    2    0    0 -0.21693998834E+01  0.32483037139E+02  0.28343767954E+02  0.43165198290E+02  0.10566000000E+00 0.  1.
        994    1    1    2    0    0  0.45205164297E+01 -0.36454952618E+02  0.19885417200E+02  0.17622221329E+03  0.17120000000E+03 0.  0.
        998    1    1    2    0    0 -0.23511165463E+01  0.39719154793E+01  0.14517708111E+04  0.14518125884E+04  0.10000000000E+02 0.  1.
</event>
<event>
 5    1  0.1146201E-008  0.3844996E+03  0.7957747E-01  0.3431797E+00
         13   -1    0    0    0    0  0.00000000000E+00  0.00000000000E+00  0.14999999963E+04  0.15000000000E+04  0.10566000000E+00 0. -1.
        994   -1    0    0    0    0 -0.00000000000E+00 -0.00000000000E+00  0.11368683772E-12  0.17120000000E+03  0.17120000000E+03 0.  0.
         13    1    1    2    0    0 -0.12355207562E+02  0.71230198868E+01  0.53682527746E+02  0.55544698356E+02  0.10566000000E+00 0. -1.
        994    1    1    2    0    0  0.94530137101E+01 -0.38011829850E+01  0.22208160389E+01  0.17151728917E+03  0.17120000000E+03 0.  0.
        998    1    1    2    0    0  0.29021938518E+01 -0.33218369018E+01  0.14440966525E+04  0.14441380125E+04  0.10000000000E+02 0. -1.
</event>
<event>
 5    1  0.1146201E-008  0.3799341E+03  0.7957747E-01  0.3451445E+00
         13   -1    0    0    0    0  0.00000000000E+00  0.00000000000E+00  0.14999999963E+04  0.15000000000E+04  0.10566000000E+00 0.  1.
        994   -1    0    0    0    0 -0.00000000000E+00 -0.00000000000E+00  0.11368683772E-12  0.17120000000E+03  0.17120000000E+03 0.  0.
         13    1    1    2    0    0  0.43653843068E+02 -0.56389095637E+01  0.49794085124E+02  0.66459893117E+02  0.10566000000E+00 0.  1.
        994    1    1    2    0    0 -0.57715416969E+02  0.42384232877E+01  0.28525182198E+02  0.18295398221E+03  0.17120000000E+03 0.  0.
        998    1    1    2    0    0  0.14061573901E+02  0.14004862760E+01  0.14216807290E+04  0.14217861247E+04  0.10000000000E+02 0.  1.
</event>
<event>
 5    1  0.1146201E-008  0.3784403E+03  0.7957747E-01  0.3457978E+00
         13   -1    0    0    0    0  0.00000000000E+00  0.00000000000E+00  0.14999999963E+04  0.15000000000E+04  0.10566000000E+00 0. -1.
        994   -1    0    0    0    0 -0.00000000000E+00 -0.00000000000E+00  0.11368683772E-12  0.17120000000E+03  0.17120000000E+03 0.  0.
         13    1    1    2    0    0  0.61721379715E+01  0.78732997385E+01  0.79810342189E+01  0.12798132956E+02  0.10566000000E+00 0. -1.
        994    1    1    2    0    0 -0.66977492417E+01 -0.83578944030E+00  0.50756361087E+01  0.17140816921E+03  0.17120000000E+03 0.  0.
        998    1    1    2    0    0  0.52561127017E+00 -0.70375102982E+01  0.14869433260E+04  0.14869936978E+04  0.10000000000E+02 0. -1.
</event>
<event>
 5    1  0.1146201E-008  0.3858439E+03  0.7957747E-01  0.3426101E+00
         13   -1    0    0    0    0  0.00000000000E+00  0.00000000000E+00  0.14999999963E+04  0.15000000000E+04  0.10566000000E+00 0. -1.
        994   -1    0    0    0    0 -0.00000000000E+00 -0.00000000000E+00  0.11368683772E-12  0.17120000000E+03  0.17120000000E+03 0.  0.
         13    1    1    2    0    0 -0.34161090664E+01  0.13419278404E+02  0.79504842671E+02  0.80701784406E+02  0.10566000000E+00 0. -1.
        994    1    1    2    0    0 -0.41600733013E-01 -0.99379969558E+01  0.15357423177E+01  0.17149508453E+03  0.17120000000E+03 0.  0.
        998    1    1    2    0    0  0.34577097994E+01 -0.34812814485E+01  0.14189594113E+04  0.14190031311E+04  0.10000000000E+02 0. -1.
</event>
<event>
 5    1  0.1146201E-008  0.3833214E+03  0.7957747E-01  0.3436823E+00
         13   -1    0    0    0    0  0.00000000000E+00  0.00000000000E+00  0.14999999963E+04  0.15000000000E+04  0.10566000000E+00 0.  1.
        994   -1    0    0    0    0 -0.00000000000E+00 -0.00000000000E+00  0.11368683772E-12  0.17120000000E+03  0.17120000000E+03 0.  0.
         13    1    1    2    0    0  0.44768608161E+01  0.28551514157E+02  0.17348766918E+03  0.17587840619E+03  0.10566000000E+00 0.  1.
        994    1    1    2    0    0  0.82972639736E+01 -0.15583586612E+02  0.34971765998E+01  0.17214343730E+03  0.17120000000E+03 0.  0.
        998    1    1    2    0    0 -0.12774124790E+02 -0.12967927545E+02  0.13230151505E+04  0.13231781565E+04  0.10000000000E+02 0.  1.
</event>
<event>
 5    1  0.1146201E-008  0.3791180E+03  0.7957747E-01  0.3455008E+00
         13   -1    0    0    0    0  0.00000000000E+00  0.00000000000E+00  0.14999999963E+04  0.15000000000E+04  0.10566000000E+00 0.  1.
        994   -1    0    0    0    0 -0.00000000000E+00 -0.00000000000E+00  0.11368683772E-12  0.17120000000E+03  0.17120000000E+03 0.  0.
         13    1    1    2    0    0 -0.15804010173E+02 -0.17512488448E+02  0.62880031478E+02  0.67159239959E+02  0.10566000000E+00 0.  1.
        994    1    1    2    0    0 -0.86605716242E+01  0.70987881722E+01  0.49995867356E+01  0.17163867327E+03  0.17120000000E+03 0.  0.
        998    1    1    2    0    0  0.24464581797E+02  0.10413700276E+02  0.14321203781E+04  0.14324020868E+04  0.10000000000E+02 0.  1.
</event>
<event>
 5    1  0.1146201E-008  0.3753761E+03  0.7957747E-01  0.3471542E+00
         13   -1    0    0    0    0  0.00000000000E+00  0.00000000000E+00  0.14999999963E+04  0.15000000000E+04  0.10566000000E+00 0.  1.
        994   -1    0    0    0    0 -0.00000000000E+00 -0.00000000000E+00  0.11368683772E-12  0.17120000000E+03  0.17120000000E+03 0.  0.
         13    1    1    2    0    0 -0.39627255159E+01 -0.23356604898E+02  0.40967651040E+02  0.47324346606E+02  0.10566000000E+00 0.  1.
        994    1    1    2    0    0  0.12720529428E+02  0.11544906482E+02  0.74881693334E+01  0.17222255780E+03  0.17120000000E+03 0.  0.
        998    1    1    2    0    0 -0.87578039124E+01  0.11811698416E+02  0.14515441759E+04  0.14516530956E+04  0.10000000000E+02 0.  1.
</event>
<event>
 5    1  0.1146201E-008  0.3847179E+03  0.7957747E-01  0.3430870E+00
         13   -1    0    0    0    0  0.00000000000E+00  0.00000000000E+00  0.14999999963E+04  0.15000000000E+04  0.10566000000E+00 0. -1.
        994   -1    0    0    0    0 -0.00000000000E+00 -0.00000000000E+00  0.11368683772E-12  0.17120000000E+03  0.17120000000E+03 0.  0.
         13    1    1    2    0    0 -0.13067534179E+02  0.65797332914E+00  0.47852448552E+02  0.49609085608E+02  0.10566000000E+00 0. -1.
        994    1    1    2    0    0  0.96003501064E+01 -0.81316013119E+01  0.22914922036E+01  0.17167696584E+03  0.17120000000E+03 0.  0.
        998    1    1    2    0    0  0.34671840725E+01  0.74736279827E+01  0.14498560555E+04  0.14499139486E+04  0.10000000000E+02 0. -1.
</event>
<event>
 5    1  0.1146201E-008  0.3709352E+03  0.7957747E-01  0.3491604E+00
         13   -1    0    0    0    0  0.00000000000E+00  0.00000000000E+00  0.14999999963E+04  0.15000000000E+04  0.10566000000E+00 0. -1.
        994   -1    0    0    0    0 -0.00000000000E+00 -0.00000000000E+00  0.11368683772E-12  0.17120000000E+03  0.17120000000E+03 0.  0.
         13    1    1    2    0    0 -0.13833994871E+02 -0.41438098425E+01  0.38433854690E+01  0.14944341738E+02  0.10566000000E+00 0. -1.
        994    1    1    2    0    0  0.73927937041E+01  0.24486959450E+02  0.13732372776E+02  0.17364412643E+03  0.17120000000E+03 0.  0.
        998    1    1    2    0    0  0.64412011666E+01 -0.20343149607E+02  0.14824242380E+04  0.14826115318E+04  0.10000000000E+02 0. -1.
</event>
<event>
 5    1  0.1146201E-008  0.3772425E+03  0.7957747E-01  0.3463254E+00
         13   -1    0    0    0    0  0.00000000000E+00  0.00000000000E+00  0.14999999963E+04  0.15000000000E+04  0.10566000000E+00 0.  1.
        994   -1    0    0    0    0 -0.00000000000E+00 -0.00000000000E+00  0.11368683772E-12  0.17120000000E+03  0.17120000000E+03 0.  0.
         13    1    1    2    0    0  0.49604964675E+02  0.10651496962E+01  0.26415551523E+03  0.26877487691E+03  0.10566000000E+00 0.  1.
        994    1    1    2    0    0 -0.54433685204E+01 -0.34144745938E+00  0.56320002358E+01  0.17137942197E+03  0.17120000000E+03 0.  0.
        998    1    1    2    0    0 -0.44161596154E+02 -0.72370223684E+00  0.12302124808E+04  0.12310457011E+04  0.10000000000E+02 0.  1.
</event>
<event>
 5    1  0.1146201E-008  0.3850293E+03  0.7957747E-01  0.3429548E+00
         13   -1    0    0    0    0  0.00000000000E+00  0.00000000000E+00  0.14999999963E+04  0.15000000000E+04  0.10566000000E+00 0.  1.
        994   -1    0    0    0    0 -0.00000000000E+00 -0.00000000000E+00  0.11368683772E-12  0.17120000000E+03  0.17120000000E+03 0.  0.
         13    1    1    2    0    0 -0.12282258130E+02  0.12479203870E+02  0.95146844966E+02  0.96744600186E+02  0.10566000000E+00 0.  1.
        994    1    1    2    0    0  0.10344357813E+02 -0.52568909587E+01  0.20584460345E+01  0.17160512184E+03  0.17120000000E+03 0.  0.
        998    1    1    2    0    0  0.19379003165E+01 -0.72223129117E+01  0.14027947053E+04  0.14028502780E+04  0.10000000000E+02 0.  1.
</event>
<event>
 5    1  0.1146201E-008  0.3823332E+03  0.7957747E-01  0.3441062E+00
         13   -1    0    0    0    0  0.00000000000E+00  0.00000000000E+00  0.14999999963E+04  0.15000000000E+04  0.10566000000E+00 0.  1.
        994   -1    0    0    0    0 -0.00000000000E+00 -0.00000000000E+00  0.11368683772E-12  0.17120000000E+03  0.17120000000E+03 0.  0.
         13    1    1    2    0    0 -0.63987852110E+01 -0.17761930509E+02  0.58694333181E+02  0.61656034086E+02  0.10566000000E+00 0.  1.
        994    1    1    2    0    0  0.83507451998E+01  0.12186913571E+02  0.36843517972E+01  0.17187574074E+03  0.17120000000E+03 0.  0.
        998    1    1    2    0    0 -0.19519599888E+01  0.55750169385E+01  0.14376213113E+04  0.14376682252E+04  0.10000000000E+02 0.  1.
</event>
<event>
 5    1  0.1146201E-008  0.3780131E+03  0.7957747E-01  0.3459856E+00
         13   -1    0    0    0    0  0.00000000000E+00  0.00000000000E+00  0.14999999963E+04  0.15000000000E+04  0.10566000000E+00 0.  1.
        994   -1    0    0    0    0 -0.00000000000E+00 -0.00000000000E+00  0.11368683772E-12  0.17120000000E+03  0.17120000000E+03 0.  0.
         13    1    1    2    0    0 -0.16104930556E+03  0.56318279013E+02  0.95358262775E+03  0.96872517593E+03  0.10566000000E+00 0.  1.
        994    1    1    2    0    0  0.15913112659E+03 -0.49623520889E+02  0.10518111802E+03  0.26107032934E+03  0.17120000000E+03 0.  0.
        998    1    1    2    0    0  0.19181789623E+01 -0.66947581242E+01  0.44123625051E+03  0.44140449473E+03  0.10000000000E+02 0.  0.
</event>
<event>
 5    1  0.1146201E-008  0.3834234E+03  0.7957747E-01  0.3436386E+00
         13   -1    0    0    0    0  0.00000000000E+00  0.00000000000E+00  0.14999999963E+04  0.15000000000E+04  0.10566000000E+00 0.  1.
        994   -1    0    0    0    0 -0.00000000000E+00 -0.00000000000E+00  0.11368683772E-12  0.17120000000E+03  0.17120000000E+03 0.  0.
         13    1    1    2    0    0 -0.28657209054E+01  0.16743316545E+02  0.59243175501E+02  0.61630479576E+02  0.10566000000E+00 0.  1.
        994    1    1    2    0    0 -0.51316619587E+01 -0.11699530447E+02  0.29545970357E+01  0.17170143450E+03  0.17120000000E+03 0.  0.
        998    1    1    2    0    0  0.79973828641E+01 -0.50437860981E+01  0.14378022237E+04  0.14378680859E+04  0.10000000000E+02 0.  1.
</event>
<event>
 5    1  0.1146201E-008  0.3824056E+03  0.7957747E-01  0.3440750E+00
         13   -1    0    0    0    0  0.00000000000E+00  0.00000000000E+00  0.14999999963E+04  0.15000000000E+04  0.10566000000E+00 0.  1.
        994   -1    0    0    0    0 -0.00000000000E+00 -0.00000000000E+00  0.11368683772E-12  0.17120000000E+03  0.17120000000E+03 0.  0.
         13    1    1    2    0    0 -0.23473289988E+02 -0.21064254625E+02  0.18165588365E+03  0.18437345089E+03  0.10566000000E+00 0.  1.
        994    1    1    2    0    0  0.92935681753E+01  0.45869898900E+01  0.32800138070E+01  0.17154477368E+03  0.17120000000E+03 0.  0.
        998    1    1    2    0    0  0.14179721812E+02  0.16477264736E+02  0.13150640988E+04  0.13152817754E+04  0.10000000000E+02 0.  1.
</event>
<event>
 5    1  0.1146201E-008  0.3745881E+03  0.7957747E-01  0.3475067E+00
         13   -1    0    0    0    0  0.00000000000E+00  0.00000000000E+00  0.14999999963E+04  0.15000000000E+04  0.10566000000E+00 0.  1.
        994   -1    0    0    0    0 -0.00000000000E+00 -0.00000000000E+00  0.11368683772E-12  0.17120000000E+03  0.17120000000E+03 0.  0.
         13    1    1    2    0    0 -0.38765262777E+02 -0.48250242493E+01  0.10195616998E+03  0.10918378184E+03  0.10566000000E+00 0.  1.
        994    1    1    2    0    0  0.38281985312E+02  0.22099758730E+01  0.11911985918E+02  0.17584575571E+03  0.17120000000E+03 0.  0.
        998    1    1    2    0    0  0.48327746490E+00  0.26150483763E+01  0.13861318404E+04  0.13861704624E+04  0.10000000000E+02 0.  1.
</event>
<event>
 5    1  0.1146201E-008  0.3757305E+03  0.7957747E-01  0.3469962E+00
         13   -1    0    0    0    0  0.00000000000E+00  0.00000000000E+00  0.14999999963E+04  0.15000000000E+04  0.10566000000E+00 0.  1.
        994   -1    0    0    0    0 -0.00000000000E+00 -0.00000000000E+00  0.11368683772E-12  0.17120000000E+03  0.17120000000E+03 0.  0.
         13    1    1    2    0    0 -0.21343443289E+02 -0.11759403666E+01  0.35262469458E+02  0.41235643847E+02  0.10566000000E+00 0.  1.
        994    1    1    2    0    0 -0.27942510069E+01  0.19079904519E+02  0.75659959639E+01  0.17244864421E+03  0.17120000000E+03 0.  0.
        998    1    1    2    0    0  0.24137694296E+02 -0.17903964153E+02  0.14571715309E+04  0.14575157119E+04  0.10000000000E+02 0.  1.
</event>
<event>
 5    1  0.1146201E-008  0.3818125E+03  0.7957747E-01  0.3443304E+00
         13   -1    0    0    0    0  0.00000000000E+00  0.00000000000E+00  0.14999999963E+04  0.15000000000E+04  0.10566000000E+00 0.  1.
        994   -1    0    0    0    0 -0.00000000000E+00 -0.00000000000E+00  0.11368683772E-12  0.17120000000E+03  0.17120000000E+03 0.  0.
         13    1    1    2    0    0 -0.97935136556E+01 -0.11535048453E+02  0.34665075920E+02  0.37823919748E+02  0.10566000000E+00 0.  1.
        994    1    1    2    0    0  0.81412584896E+01  0.33217310135E+01  0.34779780775E+01  0.17146092942E+03  0.17120000000E+03 0.  0.
        998    1    1    2    0    0  0.16522551660E+01  0.82133174397E+01  0.14618569423E+04  0.14619151508E+04  0.10000000000E+02 0.  1.
</event>
<event>
 5    1  0.1146201E-008  0.3861836E+03  0.7957747E-01  0.3424668E+00
         13   -1    0    0    0    0  0.00000000000E+00  0.00000000000E+00  0.14999999963E+04  0.15000000000E+04  0.10566000000E+00 0. -1.
        994   -1    0    0    0    0 -0.00000000000E+00 -0.00000000000E+00  0.11368683772E-12  0.17120000000E+03  0.17120000000E+03 0.  0.
         13    1    1    2    0    0 -0.11806010348E+02 -0.29140605027E+01  0.56854693191E+02  0.58140699435E+02  0.10566000000E+00 0. -1.
        994    1    1    2    0    0  0.42761820836E+02  0.42602392979E+00  0.70578310661E+01  0.17660126782E+03  0.17120000000E+03 0.  0.
        998    1    1    2    0    0 -0.30955810487E+02  0.24880365729E+01  0.14360874720E+04  0.14364580327E+04  0.10000000000E+02 0. -1.
</event>
<event>
 5    1  0.1146201E-008  0.3840809E+03  0.7957747E-01  0.3433579E+00
         13   -1    0    0    0    0  0.00000000000E+00  0.00000000000E+00  0.14999999963E+04  0.15000000000E+04  0.10566000000E+00 0. -1.
        994   -1    0    0    0    0 -0.00000000000E+00 -0.00000000000E+00  0.11368683772E-12  0.17120000000E+03  0.17120000000E+03 0.  0.
         13    1    1    2    0    0 -0.11274608157E+02  0.84266289412E+00  0.32740411742E+02  0.34637733686E+02  0.10566000000E+00 0. -1.
        994    1    1    2    0    0 -0.12308845503E+02  0.67780198935E+01  0.27386753337E+01  0.17179752494E+03  0.17120000000E+03 0.  0.
        998    1    1    2    0    0  0.23583453660E+02 -0.76206827876E+01  0.14645209092E+04  0.14647647414E+04  0.10000000000E+02 0. -1.
</event>
<event>
 5    1  0.1146201E-008  0.3811479E+03  0.7957747E-01  0.3446176E+00
         13   -1    0    0    0    0  0.00000000000E+00  0.00000000000E+00  0.14999999963E+04  0.15000000000E+04  0.10566000000E+00 0. -1.
        994   -1    0    0    0    0 -0.00000000000E+00 -0.00000000000E+00  0.11368683772E-12  0.17120000000E+03  0.17120000000E+03 0.  0.
         13    1    1    2    0    0 -0.11752424774E+02 -0.10018473868E+02  0.31212932131E+02  0.34824525883E+02  0.10566000000E+00 0. -1.
        994    1    1    2    0    0  0.92556890943E+01  0.19724494630E+02  0.51373992047E+01  0.17265733793E+03  0.17120000000E+03 0.  0.
        998    1    1    2    0    0  0.24967356795E+01 -0.97060207615E+01  0.14636496649E+04  0.14637181362E+04  0.10000000000E+02 0. -1.
</event>
<event>
 5    1  0.1146201E-008  0.3790897E+03  0.7957747E-01  0.3455132E+00
         13   -1    0    0    0    0  0.00000000000E+00  0.00000000000E+00  0.14999999963E+04  0.15000000000E+04  0.10566000000E+00 0. -1.
        994   -1    0    0    0    0 -0.00000000000E+00 -0.00000000000E+00  0.11368683772E-12  0.17120000000E+03  0.17120000000E+03 0.  0.
         13    1    1    2    0    0 -0.15026700515E+02  0.12385616276E+02  0.47038737909E+01  0.20033542162E+02  0.10566000000E+00 0. -1.
        994    1    1    2    0    0  0.25188292444E+02 -0.13283023587E+02  0.18762059301E+02  0.17456329414E+03  0.17120000000E+03 0.  0.
        998    1    1    2    0    0 -0.10161591930E+02  0.89740731100E+00  0.14765340632E+04  0.14766031637E+04  0.10000000000E+02 0. -1.
</event>
<event>
 5    1  0.1146201E-008  0.3816184E+03  0.7957747E-01  0.3444142E+00
         13   -1    0    0    0    0  0.00000000000E+00  0.00000000000E+00  0.14999999963E+04  0.15000000000E+04  0.10566000000E+00 0. -1.
        994   -1    0    0    0    0 -0.00000000000E+00 -0.00000000000E+00  0.11368683772E-12  0.17120000000E+03  0.17120000000E+03 0.  0.
         13    1    1    2    0    0  0.13915935345E+02  0.13400382938E+02  0.54281416088E+02  0.57616896966E+02  0.10566000000E+00 0. -1.
        994    1    1    2    0    0 -0.13490016477E+02 -0.91135530138E+01  0.42001996198E+01  0.17202360033E+03  0.17120000000E+03 0.  0.
        998    1    1    2    0    0 -0.42591886828E+00 -0.42868299246E+01  0.14415183806E+04  0.14415595027E+04  0.10000000000E+02 0. -1.
</event>
<event>
 5    1  0.1146201E-008  0.3850427E+03  0.7957747E-01  0.3429491E+00
         13   -1    0    0    0    0  0.00000000000E+00  0.00000000000E+00  0.14999999963E+04  0.15000000000E+04  0.10566000000E+00 0. -1.
        994   -1    0    0    0    0 -0.00000000000E+00 -0.00000000000E+00  0.11368683772E-12  0.17120000000E+03  0.17120000000E+03 0.  0.
         13    1    1    2    0    0  0.10376988115E+02  0.34672038796E+01  0.36482690625E+02  0.38088072468E+02  0.10566000000E+00 0. -1.
        994    1    1    2    0    0 -0.10547658948E+02 -0.20445161461E+01  0.19886156828E+01  0.17154832482E+03  0.17120000000E+03 0.  0.
        998    1    1    2    0    0  0.17067083295E+00 -0.14226877335E+01  0.14615286900E+04  0.14615636027E+04  0.10000000000E+02 0. -1.
</event>
<event>
 5    1  0.1146201E-008  0.3815400E+03  0.7957747E-01  0.3444480E+00
         13   -1    0    0    0    0  0.00000000000E+00  0.00000000000E+00  0.14999999963E+04  0.15000000000E+04  0.10566000000E+00 0. -1.
        994   -1    0    0    0    0 -0.00000000000E+00 -0.00000000000E+00  0.11368683772E-12  0.17120000000E+03  0.17120000000E+03 0.  0.
         13    1    1    2    0    0 -0.25295112860E+02 -0.64038501610E+01  0.10749952908E+03  0.11062102850E+03  0.10566000000E+00 0. -1.
        994    1    1    2    0    0  0.20932197802E+01  0.89410662423E+01  0.36382936078E+01  0.17148469732E+03  0.17120000000E+03 0.  0.
        998    1    1    2    0    0  0.23201893080E+02 -0.25372160814E+01  0.13888621736E+04  0.13890942742E+04  0.10000000000E+02 0. -1.
</event>
<event>
 5    1  0.1146201E-008  0.3847866E+03  0.7957747E-01  0.3430578E+00
         13   -1    0    0    0    0  0.00000000000E+00  0.00000000000E+00  0.14999999963E+04  0.15000000000E+04  0.10566000000E+00 0. -1.
        994   -1    0    0    0    0 -0.00000000000E+00 -0.00000000000E+00  0.11368683772E-12  0.17120000000E+03  0.17120000000E+03 0.  0.
         13    1    1    2    0    0 -0.17712843674E+02 -0.76671174640E+01  0.10315734589E+03  0.10494750448E+03  0.10566000000E+00 0. -1.
        994    1    1    2    0    0  0.17914317922E+02  0.21176978404E+01  0.28077256864E+01  0.17217064429E+03  0.17120000000E+03 0.  0.
        998    1    1    2    0    0 -0.20147424715E+00  0.55494196235E+01  0.13940349247E+04  0.13940818512E+04  0.10000000000E+02 0. -1.
</event>
<event>
 5    1  0.1146201E-008  0.3842024E+03  0.7957747E-01  0.3433062E+00
         13   -1    0    0    0    0  0.00000000000E+00  0.00000000000E+00  0.14999999963E+04  0.15000000000E+04  0.10566000000E+00 0.  1.
        994   -1    0    0    0    0 -0.00000000000E+00 -0.00000000000E+00  0.11368683772E-12  0.17120000000E+03  0.17120000000E+03 0.  0.
         13    1    1    2    0    0 -0.16675748960E+02  0.24598593715E+01  0.64396024376E+02  0.66565686588E+02  0.10566000000E+00 0.  1.
        994    1    1    2    0    0  0.31489609392E+02  0.32317687877E+02  0.87688710195E+01  0.17726353700E+03  0.17120000000E+03 0.  0.
        998    1    1    2    0    0 -0.14813860433E+02 -0.34777547249E+02  0.14268351009E+04  0.14273707764E+04  0.10000000000E+02 0.  1.
</event>
<event>
 5    1  0.1146201E-008  0.3795447E+03  0.7957747E-01  0.3453143E+00
         13   -1    0    0    0    0  0.00000000000E+00  0.00000000000E+00  0.14999999963E+04  0.15000000000E+04  0.10566000000E+00 0. -1.
        994   -1    0    0    0    0 -0.00000000000E+00 -0.00000000000E+00  0.11368683772E-12  0.17120000000E+03  0.17120000000E+03 0.  0.
         13    1    1    2    0    0 -0.19171315235E+02  0.12535851039E+02  0.56177667682E+02  0.60668182760E+02  0.10566000000E+00 0. -1.
        994    1    1    2    0    0  0.27076580129E+02 -0.48631020667E+01  0.69009754703E+01  0.17353343890E+03  0.17120000000E+03 0.  0.
        998    1    1    2    0    0 -0.79052648936E+01 -0.76727489720E+01  0.14369213531E+04  0.14369983783E+04  0.10000000000E+02 0. -1.
</event>
<event>
 5    1  0.1146201E-008  0.3748461E+03  0.7957747E-01  0.3473912E+00
         13   -1    0    0    0    0  0.00000000000E+00  0.00000000000E+00  0.14999999963E+04  0.15000000000E+04  0.10566000000E+00 0.  1.
        994   -1    0    0    0    0 -0.00000000000E+00 -0.00000000000E+00  0.11368683772E-12  0.17120000000E+03  0.17120000000E+03 0.  0.
         13    1    1    2    0    0 -0.88769468161E+02  0.36253386729E+02  0.46838485312E+03  0.47809905702E+03  0.10566000000E+00 0.  1.
        994    1    1    2    0    0  0.85861315705E+02 -0.38425667529E+02  0.37474255585E+02  0.19890313545E+03  0.17120000000E+03 0.  0.
        998    1    1    2    0    0  0.29081524560E+01  0.21722807996E+01  0.99414088758E+03  0.99419780754E+03  0.10000000000E+02 0.  0.
</event>
<event>
 5    1  0.1146201E-008  0.3761125E+03  0.7957747E-01  0.3468262E+00
         13   -1    0    0    0    0  0.00000000000E+00  0.00000000000E+00  0.14999999963E+04  0.15000000000E+04  0.10566000000E+00 0.  1.
        994   -1    0    0    0    0 -0.00000000000E+00 -0.00000000000E+00  0.11368683772E-12  0.17120000000E+03  0.17120000000E+03 0.  0.
         13    1    1    2    0    0  0.46718983097E+02  0.52076537506E+00  0.19768935576E+03  0.20313548957E+03  0.10566000000E+00 0.  1.
        994    1    1    2    0    0 -0.91384892966E+01 -0.54272311969E+01  0.64911998592E+01  0.17165238857E+03  0.17120000000E+03 0.  0.
        998    1    1    2    0    0 -0.37580493801E+02  0.49064658219E+01  0.12958194407E+04  0.12964121219E+04  0.10000000000E+02 0.  1.
</event>
<event>
 5    1  0.1146201E-008  0.3735219E+03  0.7957747E-01  0.3479860E+00
         13   -1    0    0    0    0  0.00000000000E+00  0.00000000000E+00  0.14999999963E+04  0.15000000000E+04  0.10566000000E+00 0. -1.
        994   -1    0    0    0    0 -0.00000000000E+00 -0.00000000000E+00  0.11368683772E-12  0.17120000000E+03  0.17120000000E+03 0.  0.
         13    1    1    2    0    0 -0.34699851795E+02 -0.33168785721E+02  0.14991281734E+03  0.15741064775E+03  0.10566000000E+00 0. -1.
        994    1    1    2    0    0  0.39363184409E+02  0.53611454472E+01  0.12850410905E+02  0.17621797646E+03  0.17120000000E+03 0.  0.
        998    1    1    2    0    0 -0.46633326137E+01  0.27807640273E+02  0.13372367680E+04  0.13375713758E+04  0.10000000000E+02 0. -1.
</event>
<event>
 5    1  0.1194076E-008  0.3861409E+03  0.7957747E-01  0.3424848E+00
         13   -1    0    0    0    0  0.00000000000E+00  0.00000000000E+00  0.14999999963E+04  0.15000000000E+04  0.10566000000E+00 0.  1.
        994   -1    0    0    0    0 -0.00000000000E+00 -0.00000000000E+00  0.11368683772E-12  0.17120000000E+03  0.17120000000E+03 0.  0.
         13    1    1    2    0    0 -0.58350300977E+01 -0.10431005312E+02  0.66294194207E+02  0.67363081860E+02  0.10566000000E+00 0.  1.
        994    1    1    2    0    0  0.15149509153E+01  0.12089402827E+02  0.15512880711E+01  0.17164001641E+03  0.17120000000E+03 0.  0.
        998    1    1    2    0    0  0.43200791824E+01 -0.16583975142E+01  0.14321545140E+04  0.14321969017E+04  0.10000000000E+02 0.  1.
</event>
<event>
 5    1  0.1146201E-008  0.3828457E+03  0.7957747E-01  0.3438860E+00
         13   -1    0    0    0    0  0.00000000000E+00  0.00000000000E+00  0.14999999963E+04  0.15000000000E+04  0.10566000000E+00 0. -1.
        994   -1    0    0    0    0 -0.00000000000E+00 -0.00000000000E+00  0.11368683772E-12  0.17120000000E+03  0.17120000000E+03 0.  0.
         13    1    1    2    0    0  0.10056811593E+02 -0.97735738855E+01  0.35605493851E+02  0.38267800594E+02  0.10566000000E+00 0. -1.
        994    1    1    2    0    0 -0.87626086111E+01  0.32311932319E+01  0.29923980804E+01  0.17148066470E+03  0.17120000000E+03 0.  0.
        998    1    1    2    0    0 -0.12942029818E+01  0.65423806537E+01  0.14614021043E+04  0.14614515347E+04  0.10000000000E+02 0. -1.
</event>
<event>
 5    1  0.1146201E-008  0.3840057E+03  0.7957747E-01  0.3433900E+00
         13   -1    0    0    0    0  0.00000000000E+00  0.00000000000E+00  0.14999999963E+04  0.15000000000E+04  0.10566000000E+00 0. -1.
        994   -1    0    0    0    0 -0.00000000000E+00 -0.00000000000E+00  0.11368683772E-12  0.17120000000E+03  0.17120000000E+03 0.  0.
         13    1    1    2    0    0  0.15069023125E+02  0.16045655840E+02  0.10924942423E+03  0.11144499265E+03  0.10566000000E+00 0. -1.
        994    1    1    2    0    0 -0.21742413734E+02 -0.60451850989E+01  0.38066417502E+01  0.17272292071E+03  0.17120000000E+03 0.  0.
        998    1    1    2    0    0  0.66733906094E+01 -0.10000470741E+02  0.13869439303E+04  0.13870320866E+04  0.10000000000E+02 0. -1.
</event>
<event>
 5    1  0.1146201E-008  0.3777085E+03  0.7957747E-01  0.3461197E+00
         13   -1    0    0    0    0  0.00000000000E+00  0.00000000000E+00  0.14999999963E+04  0.15000000000E+04  0.10566000000E+00 0.  1.
        994   -1    0    0    0    0 -0.00000000000E+00 -0.00000000000E+00  0.11368683772E-12  0.17120000000E+03  0.17120000000E+03 0.  0.
         13    1    1    2    0    0 -0.40890568859E+02  0.22190269805E+02  0.17307161770E+03  0.17921563189E+03  0.10566000000E+00 0.  1.
        994    1    1    2    0    0  0.46207645216E+02 -0.26640885261E+02  0.14937825517E+02  0.17993738321E+03  0.17120000000E+03 0.  0.
        998    1    1    2    0    0 -0.53170763572E+01  0.44506154563E+01  0.13119905531E+04  0.13120469849E+04  0.10000000000E+02 0.  1.
</event>
<event>
 5    1  0.1146201E-008  0.3740763E+03  0.7957747E-01  0.3477364E+00
         13   -1    0    0    0    0  0.00000000000E+00  0.00000000000E+00  0.14999999963E+04  0.15000000000E+04  0.10566000000E+00 0.  1.
        994   -1    0    0    0    0 -0.00000000000E+00 -0.00000000000E+00  0.11368683772E-12  0.17120000000E+03  0.17120000000E+03 0.  0.
         13    1    1    2    0    0 -0.31377814267E+02 -0.22976165294E+02  0.98154944429E+02  0.10557876529E+03  0.10566000000E+00 0.  1.
        994    1    1    2    0    0  0.32862118112E+02  0.16343591653E+02  0.11760842289E+02  0.17548444149E+03  0.17120000000E+03 0.  0.
        998    1    1    2    0    0 -0.14843038444E+01  0.66325736414E+01  0.13900842096E+04  0.13901367932E+04  0.10000000000E+02 0.  1.
</event>
<event>
 5    1  0.1146201E-008  0.3772327E+03  0.7957747E-01  0.3463297E+00
         13   -1    0    0    0    0  0.00000000000E+00  0.00000000000E+00  0.14999999963E+04  0.15000000000E+04  0.10566000000E+00 0.  1.
        994   -1    0    0    0    0 -0.00000000000E+00 -0.00000000000E+00  0.11368683772E-12  0.17120000000E+03  0.17120000000E+03 0.  0.
         13    1    1    2    0    0  0.13171462667E+02 -0.15102280271E+02  0.33475546998E+02  0.39015249698E+02  0.10566000000E+00 0.  1.
        994    1    1    2    0    0 -0.10538876955E+02  0.16240679891E+02  0.68022254318E+01  0.17242545601E+03  0.17120000000E+03 0.  0.
        998    1    1    2    0    0 -0.26325857116E+01 -0.11383996193E+01  0.14597222238E+04  0.14597592943E+04  0.10000000000E+02 0.  1.
</event>
<event>
 5    1  0.1146201E-008  0.3780218E+03  0.7957747E-01  0.3459818E+00
         13   -1    0    0    0    0  0.00000000000E+00  0.00000000000E+00  0.14999999963E+04  0.15000000000E+04  0.10566000000E+00 0.  1.
        994   -1    0    0    0    0 -0.00000000000E+00 -0.00000000000E+00  0.11368683772E-12  0.17120000000E+03  0.17120000000E+03 0.  0.
         13    1    1    2    0    0 -0.86922101560E+01 -0.81980571068E+01 -0.24061463191E+01  0.12188657099E+02  0.10566000000E+00 0.  1.
        994    1    1    2    0    0  0.92007863096E+01  0.90073208977E+01  0.15841563919E+02  0.17241282274E+03  0.17120000000E+03 0.  0.
        998    1    1    2    0    0 -0.50857615365E+00 -0.80926379088E+00  0.14865645787E+04  0.14865985202E+04  0.10000000000E+02 0.  1.
</event>
<event>
 5    1  0.1146201E-008  0.3856763E+03  0.7957747E-01  0.3426809E+00
         13   -1    0    0    0    0  0.00000000000E+00  0.00000000000E+00  0.14999999963E+04  0.15000000000E+04  0.10566000000E+00 0.  1.
        994   -1    0    0    0    0 -0.00000000000E+00 -0.00000000000E+00  0.11368683772E-12  0.17120000000E+03  0.17120000000E+03 0.  0.
         13    1    1    2    0    0 -0.12017996854E+02 -0.47125999508E+01  0.63526836236E+02  0.64825233767E+02  0.10566000000E+00 0.  1.
        994    1    1    2    0    0  0.99942691425E+01  0.59152173972E+01  0.17374291028E+01  0.17160225486E+03  0.17120000000E+03 0.  0.
        998    1    1    2    0    0  0.20237277119E+01 -0.12026174464E+01  0.14347357309E+04  0.14347725114E+04  0.10000000000E+02 0.  0.
</event>
<event>
 5    1  0.1146201E-008  0.3772718E+03  0.7957747E-01  0.3463125E+00
         13   -1    0    0    0    0  0.00000000000E+00  0.00000000000E+00  0.14999999963E+04  0.15000000000E+04  0.10566000000E+00 0.  1.
        994   -1    0    0    0    0 -0.00000000000E+00 -0.00000000000E+00  0.11368683772E-12  0.17120000000E+03  0.17120000000E+03 0.  0.
         13    1    1    2    0    0  0.33947684103E+02  0.29835901083E+02  0.16095309307E+03  0.16717815522E+03  0.10566000000E+00 0.  1.
        994    1    1    2    0    0 -0.54085139731E+02 -0.13857099634E+02  0.16105408511E+02  0.18079282545E+03  0.17120000000E+03 0.  0.
        998    1    1    2    0    0  0.20137455628E+02 -0.15978801449E+02  0.13229414947E+04  0.13232290193E+04  0.10000000000E+02 0.  1.
</event>
<event>
 5    1  0.1146201E-008  0.3829246E+03  0.7957747E-01  0.3438522E+00
         13   -1    0    0    0    0  0.00000000000E+00  0.00000000000E+00  0.14999999963E+04  0.15000000000E+04  0.10566000000E+00 0. -1.
        994   -1    0    0    0    0 -0.00000000000E+00 -0.00000000000E+00  0.11368683772E-12  0.17120000000E+03  0.17120000000E+03 0.  0.
         13    1    1    2    0    0  0.64508429107E+02  0.46378898055E+02  0.19773147270E+03  0.21309642435E+03  0.10566000000E+00 0. -1.
        994    1    1    2    0    0 -0.25432005788E+02  0.11312049009E+02  0.20785867447E+02  0.17468898550E+03  0.17120000000E+03 0.  0.
        998    1    1    2    0    0 -0.39076423319E+02 -0.57690947064E+02  0.12814826561E+04  0.12834145901E+04  0.10000000000E+02 0. -1.
</event>
<event>
 5    1  0.1146201E-008  0.3851366E+03  0.7957747E-01  0.3429093E+00
         13   -1    0    0    0    0  0.00000000000E+00  0.00000000000E+00  0.14999999963E+04  0.15000000000E+04  0.10566000000E+00 0. -1.
        994   -1    0    0    0    0 -0.00000000000E+00 -0.00000000000E+00  0.11368683772E-12  0.17120000000E+03  0.17120000000E+03 0.  0.
         13    1    1    2    0    0 -0.18195844886E+02  0.10179602632E+02  0.12344777647E+03  0.12519615713E+03  0.10566000000E+00 0. -1.
        994    1    1    2    0    0  0.21417785965E+02 -0.16717019843E+02  0.39926238345E+01  0.17338846949E+03  0.17120000000E+03 0.  0.
        998    1    1    2    0    0 -0.32219410786E+01  0.65374172110E+01  0.13725595960E+04  0.13726153734E+04  0.10000000000E+02 0. -1.
</event>
<event>
 5    1  0.1146201E-008  0.3843477E+03  0.7957747E-01  0.3432443E+00
         13   -1    0    0    0    0  0.00000000000E+00  0.00000000000E+00  0.14999999963E+04  0.15000000000E+04  0.10566000000E+00 0. -1.
        994   -1    0    0    0    0 -0.00000000000E+00 -0.00000000000E+00  0.11368683772E-12  0.17120000000E+03  0.17120000000E+03 0.  0.
         13    1    1    2    0    0 -0.14590346198E+02 -0.83996052797E+01  0.73479129943E+02  0.75383189587E+02  0.10566000000E+00 0. -1.
        994    1    1    2    0    0  0.85824291428E+01  0.14560166179E+01  0.22040960324E+01  0.17143534091E+03  0.17120000000E+03 0.  0.
        998    1    1    2    0    0  0.60079170556E+01  0.69435886618E+01  0.14243167703E+04  0.14243814695E+04  0.10000000000E+02 0. -1.
</event>
<event>
 5    1  0.1146201E-008  0.3706210E+03  0.7957747E-01  0.3493042E+00
         13   -1    0    0    0    0  0.00000000000E+00  0.00000000000E+00  0.14999999963E+04  0.15000000000E+04  0.10566000000E+00 0. -1.
        994   -1    0    0    0    0 -0.00000000000E+00 -0.00000000000E+00  0.11368683772E-12  0.17120000000E+03  0.17120000000E+03 0.  0.
         13    1    1    2    0    0  0.65217602292E+02  0.81901131461E+02  0.54679196206E+03  0.55672487991E+03  0.10566000000E+00 0. -1.
        994    1    1    2    0    0 -0.11318141362E+03 -0.18409353869E+02  0.55780027177E+02  0.21347081330E+03  0.17120000000E+03 0.  0.
        998    1    1    2    0    0  0.47963811325E+02 -0.63491777592E+02  0.89742800705E+03  0.90100430679E+03  0.10000000000E+02 0. -1.
</event>
<event>
 5    1  0.1146201E-008  0.3846498E+03  0.7957747E-01  0.3431159E+00
         13   -1    0    0    0    0  0.00000000000E+00  0.00000000000E+00  0.14999999963E+04  0.15000000000E+04  0.10566000000E+00 0. -1.
        994   -1    0    0    0    0 -0.00000000000E+00 -0.00000000000E+00  0.11368683772E-12  0.17120000000E+03  0.17120000000E+03 0.  0.
         13    1    1    2    0    0  0.20635926285E+00 -0.10570678404E+02  0.30277159193E+02  0.32070225427E+02  0.10566000000E+00 0. -1.
        994    1    1    2    0    0 -0.33521461468E+01  0.97903791770E+01  0.21567439174E+01  0.17152603287E+03  0.17120000000E+03 0.  0.
        998    1    1    2    0    0  0.31457868839E+01  0.78029922681E+00  0.14675660932E+04  0.14676037417E+04  0.10000000000E+02 0. -1.
</event>
<event>
 5    1  0.1146201E-008  0.3799189E+03  0.7957747E-01  0.3451512E+00
         13   -1    0    0    0    0  0.00000000000E+00  0.00000000000E+00  0.14999999963E+04  0.15000000000E+04  0.10566000000E+00 0. -1.
        994   -1    0    0    0    0 -0.00000000000E+00 -0.00000000000E+00  0.11368683772E-12  0.17120000000E+03  0.17120000000E+03 0.  0.
         13    1    1    2    0    0 -0.26758707652E+02 -0.16942157817E+02  0.11072215652E+03  0.11516280760E+03  0.10566000000E+00 0. -1.
        994    1    1    2    0    0  0.25928167929E+02  0.19057040320E+02  0.76441649961E+01  0.17436546085E+03  0.17120000000E+03 0.  0.
        998    1    1    2    0    0  0.83053972307E+00 -0.21148825034E+01  0.13816336748E+04  0.13816717316E+04  0.10000000000E+02 0. -1.
</event>
<event>
 5    1  0.1146201E-008  0.3856804E+03  0.7957747E-01  0.3426792E+00
         13   -1    0    0    0    0  0.00000000000E+00  0.00000000000E+00  0.14999999963E+04  0.15000000000E+04  0.10566000000E+00 0. -1.
        994   -1    0    0    0    0 -0.00000000000E+00 -0.00000000000E+00  0.11368683772E-12  0.17120000000E+03  0.17120000000E+03 0.  0.
         13    1    1    2    0    0 -0.13161342949E+02  0.22382982652E+01  0.67567392509E+02  0.68873758587E+02  0.10566000000E+00 0. -1.
        994    1    1    2    0    0  0.10067762451E+02 -0.18583530169E+02  0.27598922198E+01  0.17252177961E+03  0.17120000000E+03 0.  0.
        998    1    1    2    0    0  0.30935804981E+01  0.16345231903E+02  0.14296727115E+04  0.14298044618E+04  0.10000000000E+02 0. -1.
</event>
<event>
 5    1  0.1146201E-008  0.3764965E+03  0.7957747E-01  0.3466557E+00
         13   -1    0    0    0    0  0.00000000000E+00  0.00000000000E+00  0.14999999963E+04  0.15000000000E+04  0.10566000000E+00 0.  1.
        994   -1    0    0    0    0 -0.00000000000E+00 -0.00000000000E+00  0.11368683772E-12  0.17120000000E+03  0.17120000000E+03 0.  0.
         13    1    1    2    0    0  0.37679152159E+02  0.10409054427E+01  0.12409509471E+03  0.12969350672E+03  0.10566000000E+00 0.  1.
        994    1    1    2    0    0 -0.12454660217E+02 -0.55214301048E+01  0.65402510306E+01  0.17186570232E+03  0.17120000000E+03 0.  0.
        998    1    1    2    0    0 -0.25224491942E+02  0.44805246621E+01  0.13693646505E+04  0.13696407910E+04  0.10000000000E+02 0.  1.
</event>
<event>
 5    1  0.1146201E-008  0.3778052E+03  0.7957747E-01  0.3460771E+00
         13   -1    0    0    0    0  0.00000000000E+00  0.00000000000E+00  0.14999999963E+04  0.15000000000E+04  0.10566000000E+00 0.  1.
        994   -1    0    0    0    0 -0.00000000000E+00 -0.00000000000E+00  0.11368683772E-12  0.17120000000E+03  0.17120000000E+03 0.  0.
         13    1    1    2    0    0  0.30715230849E+02 -0.20125987395E+02  0.11517130851E+03  0.12088392053E+03  0.10566000000E+00 0.  1.
        994    1    1    2    0    0 -0.36037968324E+02  0.20448186754E+02  0.11048360224E+02  0.17648900749E+03  0.17120000000E+03 0.  0.
        998    1    1    2    0    0  0.53227374741E+01 -0.32219935803E+00  0.13737803275E+04  0.13738270720E+04  0.10000000000E+02 0.  1.
</event>
<event>
 5    1  0.1146201E-008  0.3847554E+03  0.7957747E-01  0.3430710E+00
         13   -1    0    0    0    0  0.00000000000E+00  0.00000000000E+00  0.14999999963E+04  0.15000000000E+04  0.10566000000E+00 0.  1.
        994   -1    0    0    0    0 -0.00000000000E+00 -0.00000000000E+00  0.11368683772E-12  0.17120000000E+03  0.17120000000E+03 0.  0.
         13    1    1    2    0    0  0.21133328049E+02 -0.16209336509E+02  0.16062558383E+03  0.16281876271E+03  0.10566000000E+00 0.  1.
        994    1    1    2    0    0 -0.25904551790E+02  0.33698343682E+02  0.77204355143E+01  0.17656633115E+03  0.17120000000E+03 0.  0.
        998    1    1    2    0    0  0.47712237412E+01 -0.17489007173E+02  0.13316539769E+04  0.13318149061E+04  0.10000000000E+02 0.  1.
</event>
<event>
 5    1  0.1146201E-008  0.3719894E+03  0.7957747E-01  0.3486797E+00
         13   -1    0    0    0    0  0.00000000000E+00  0.00000000000E+00  0.14999999963E+04  0.15000000000E+04  0.10566000000E+00 0. -1.
        994   -1    0    0    0    0 -0.00000000000E+00 -0.00000000000E+00  0.11368683772E-12  0.17120000000E+03  0.17120000000E+03 0.  0.
         13    1    1    2    0    0 -0.15313038952E+02 -0.25811305474E+01  0.11036066643E+02  0.19051438996E+02  0.10566000000E+00 0. -1.
        994    1    1    2    0    0  0.60578793499E+01  0.16383582000E+02  0.92813952005E+01  0.17233892177E+03  0.17120000000E+03 0.  0.
        998    1    1    2    0    0  0.92551596019E+01 -0.13802451452E+02  0.14796825344E+04  0.14798096392E+04  0.10000000000E+02 0. -1.
</event>
<event>
 5    1  0.1146201E-008  0.3804991E+03  0.7957747E-01  0.3448988E+00
         13   -1    0    0    0    0  0.00000000000E+00  0.00000000000E+00  0.14999999963E+04  0.15000000000E+04  0.10566000000E+00 0. -1.
        994   -1    0    0    0    0 -0.00000000000E+00 -0.00000000000E+00  0.11368683772E-12  0.17120000000E+03  0.17120000000E+03 0.  0.
         13    1    1    2    0    0  0.92102663490E+01  0.11436210343E+02  0.25412584697E+02  0.29350068794E+02  0.10566000000E+00 0. -1.
        994    1    1    2    0    0 -0.10103598987E+02 -0.18408847828E+02  0.53544857653E+01  0.17256615806E+03  0.17120000000E+03 0.  0.
        998    1    1    2    0    0  0.89333263778E+00  0.69726374856E+01  0.14692329258E+04  0.14692837731E+04  0.10000000000E+02 0. -1.
</event>
<event>
 5    1  0.1146201E-008  0.3846764E+03  0.7957747E-01  0.3431046E+00
         13   -1    0    0    0    0  0.00000000000E+00  0.00000000000E+00  0.14999999963E+04  0.15000000000E+04  0.10566000000E+00 0. -1.
        994   -1    0    0    0    0 -0.00000000000E+00 -0.00000000000E+00  0.11368683772E-12  0.17120000000E+03  0.17120000000E+03 0.  0.
         13    1    1    2    0    0  0.20377864696E+03  0.22808369539E+03  0.88031923869E+03  0.93193877601E+03  0.10566000000E+00 0. -1.
        994    1    1    2    0    0 -0.21647440611E+03 -0.23783571173E+03  0.50311566306E+03  0.62117775611E+03  0.17120000000E+03 0.  0.
        998    1    1    2    0    0  0.12695759153E+02  0.97520163389E+01  0.11656509453E+03  0.11808346788E+03  0.10000000000E+02 0. -1.
</event>
<event>
 5    1  0.1146201E-008  0.3825903E+03  0.7957747E-01  0.3439957E+00
         13   -1    0    0    0    0  0.00000000000E+00  0.00000000000E+00  0.14999999963E+04  0.15000000000E+04  0.10566000000E+00 0.  1.
        994   -1    0    0    0    0 -0.00000000000E+00 -0.00000000000E+00  0.11368683772E-12  0.17120000000E+03  0.17120000000E+03 0.  0.
         13    1    1    2    0    0  0.12248846099E+02  0.90471229805E+01  0.38876801095E+02  0.41752862087E+02  0.10566000000E+00 0.  1.
        994    1    1    2    0    0 -0.11266207468E+02 -0.14254253735E+02  0.39261769989E+01  0.17220617308E+03  0.17120000000E+03 0.  0.
        998    1    1    2    0    0 -0.98263863116E+00  0.52071307550E+01  0.14571970182E+04  0.14572409648E+04  0.10000000000E+02 0.  1.
</event>
<event>
 5    1  0.1146201E-008  0.3824370E+03  0.7957747E-01  0.3440615E+00
         13   -1    0    0    0    0  0.00000000000E+00  0.00000000000E+00  0.14999999963E+04  0.15000000000E+04  0.10566000000E+00 0. -1.
        994   -1    0    0    0    0 -0.00000000000E+00 -0.00000000000E+00  0.11368683772E-12  0.17120000000E+03  0.17120000000E+03 0.  0.
         13    1    1    2    0    0 -0.17468283112E+02  0.18433114792E+02  0.10533692943E+03  0.10835497451E+03  0.10566000000E+00 0. -1.
        994    1    1    2    0    0  0.13397513027E+02 -0.18440526607E+02  0.46327972840E+01  0.17277282537E+03  0.17120000000E+03 0.  0.
        998    1    1    2    0    0  0.40707700850E+01  0.74118157003E-02  0.13900302696E+04  0.13900722001E+04  0.10000000000E+02 0. -1.
</event>
<event>
 5    1  0.1146201E-008  0.3844348E+03  0.7957747E-01  0.3432073E+00
         13   -1    0    0    0    0  0.00000000000E+00  0.00000000000E+00  0.14999999963E+04  0.15000000000E+04  0.10566000000E+00 0. -1.
        994   -1    0    0    0    0 -0.00000000000E+00 -0.00000000000E+00  0.11368683772E-12  0.17120000000E+03  0.17120000000E+03 0.  0.
         13    1    1    2    0    0  0.14175024819E+02  0.16267908117E+02  0.11361080189E+03  0.11564169504E+03  0.10566000000E+00 0. -1.
        994    1    1    2    0    0 -0.18110610422E+02 -0.13741785250E+02  0.36156394651E+01  0.17274068345E+03  0.17120000000E+03 0.  0.
        998    1    1    2    0    0  0.39355856029E+01 -0.25261228669E+01  0.13827735549E+04  0.13828176215E+04  0.10000000000E+02 0. -1.
</event>
<event>
 5    1  0.1146201E-008  0.3784178E+03  0.7957747E-01  0.3458077E+00
         13   -1    0    0    0    0  0.00000000000E+00  0.00000000000E+00  0.14999999963E+04  0.15000000000E+04  0.10566000000E+00 0. -1.
        994   -1    0    0    0    0 -0.00000000000E+00 -0.00000000000E+00  0.11368683772E-12  0.17120000000E+03  0.17120000000E+03 0.  0.
         13    1    1    2    0    0 -0.14748985295E+01  0.46528435689E+02  0.26414823344E+03  0.26821888645E+03  0.10566000000E+00 0. -1.
        994    1    1    2    0    0  0.70664857712E+01 -0.32748352713E+01  0.51378541656E+01  0.17145406765E+03  0.17120000000E+03 0.  0.
        998    1    1    2    0    0 -0.55915872417E+01 -0.43253600418E+02  0.12307139087E+04  0.12315270459E+04  0.10000000000E+02 0.  1.
</event>
<event>
 5    1  0.1146201E-008  0.3694535E+03  0.7957747E-01  0.3498406E+00
         13   -1    0    0    0    0  0.00000000000E+00  0.00000000000E+00  0.14999999963E+04  0.15000000000E+04  0.10566000000E+00 0.  1.
        994   -1    0    0    0    0 -0.00000000000E+00 -0.00000000000E+00  0.11368683772E-12  0.17120000000E+03  0.17120000000E+03 0.  0.
         13    1    1    2    0    0  0.27999266950E+02  0.28346511591E+02  0.63636846956E+02  0.75080910514E+02  0.10566000000E+00 0.  1.
        994    1    1    2    0    0 -0.73974866320E+01 -0.76261519607E+02  0.31424984272E+02  0.19017757969E+03  0.17120000000E+03 0.  0.
        998    1    1    2    0    0 -0.20601780318E+02  0.47915008016E+02  0.14049381651E+04  0.14059415098E+04  0.10000000000E+02 0.  1.
</event>
<event>
 5    1  0.1146201E-008  0.3696653E+03  0.7957747E-01  0.3497430E+00
         13   -1    0    0    0    0  0.00000000000E+00  0.00000000000E+00  0.14999999963E+04  0.15000000000E+04  0.10566000000E+00 0. -1.
        994   -1    0    0    0    0 -0.00000000000E+00 -0.00000000000E+00  0.11368683772E-12  0.17120000000E+03  0.17120000000E+03 0.  0.
         13    1    1    2    0    0  0.30532050995E+01 -0.17508092894E+02  0.12525354475E+02  0.21742838980E+02  0.10566000000E+00 0. -1.
        994    1    1    2    0    0  0.12303502379E+02  0.16285864503E+02  0.10887551827E+02  0.17275585182E+03  0.17120000000E+03 0.  0.
        998    1    1    2    0    0 -0.15356707478E+02  0.12222283902E+01  0.14765870900E+04  0.14767013092E+04  0.10000000000E+02 0. -1.
</event>
<event>
 5    1  0.1146201E-008  0.3804205E+03  0.7957747E-01  0.3449330E+00
         13   -1    0    0    0    0  0.00000000000E+00  0.00000000000E+00  0.14999999963E+04  0.15000000000E+04  0.10566000000E+00 0.  1.
        994   -1    0    0    0    0 -0.00000000000E+00 -0.00000000000E+00  0.11368683772E-12  0.17120000000E+03  0.17120000000E+03 0.  0.
         13    1    1    2    0    0  0.13790095669E+02 -0.11748182050E+02  0.41264543534E+02  0.45066176199E+02  0.10566000000E+00 0.  1.
        994    1    1    2    0    0 -0.36551516319E+01  0.47122533695E+01  0.40397857742E+01  0.17135146727E+03  0.17120000000E+03 0.  0.
        998    1    1    2    0    0 -0.10134944037E+02  0.70359286805E+01  0.14546956670E+04  0.14547823565E+04  0.10000000000E+02 0.  1.
</event>
<event>
 5    1  0.1146201E-008  0.3785269E+03  0.7957747E-01  0.3457598E+00
         13   -1    0    0    0    0  0.00000000000E+00  0.00000000000E+00  0.14999999963E+04  0.15000000000E+04  0.10566000000E+00 0.  1.
        994   -1    0    0    0    0 -0.00000000000E+00 -0.00000000000E+00  0.11368683772E-12  0.17120000000E+03  0.17120000000E+03 0.  0.
         13    1    1    2    0    0  0.12307870679E+02 -0.29797100306E+02  0.12097105958E+03  0.12519328771E+03  0.10566000000E+00 0.  1.
        994    1    1    2    0    0  0.58473905973E+01 -0.54757125693E+01  0.50942284758E+01  0.17146301808E+03  0.17120000000E+03 0.  0.
        998    1    1    2    0    0 -0.18155261277E+02  0.35272812876E+02  0.13739347082E+04  0.13745436942E+04  0.10000000000E+02 0.  1.
</event>
<event>
 5    1  0.1146201E-008  0.3734681E+03  0.7957747E-01  0.3480102E+00
         13   -1    0    0    0    0  0.00000000000E+00  0.00000000000E+00  0.14999999963E+04  0.15000000000E+04  0.10566000000E+00 0.  1.
        994   -1    0    0    0    0 -0.00000000000E+00 -0.00000000000E+00  0.11368683772E-12  0.17120000000E+03  0.17120000000E+03 0.  0.
         13    1    1    2    0    0 -0.11202639333E+02  0.36025244793E+02  0.87473202583E+02  0.95262215618E+02  0.10566000000E+00 0.  1.
        994    1    1    2    0    0 -0.14093621035E+02 -0.44824139240E+02  0.15049167011E+02  0.17816776095E+03  0.17120000000E+03 0.  0.
        998    1    1    2    0    0  0.25296260368E+02  0.87988944467E+01  0.13974776267E+04  0.13977700234E+04  0.10000000000E+02 0.  1.
</event>
<event>
 5    1  0.1146201E-008  0.3813645E+03  0.7957747E-01  0.3445239E+00
         13   -1    0    0    0    0  0.00000000000E+00  0.00000000000E+00  0.14999999963E+04  0.15000000000E+04  0.10566000000E+00 0.  1.
        994   -1    0    0    0    0 -0.00000000000E+00 -0.00000000000E+00  0.11368683772E-12  0.17120000000E+03  0.17120000000E+03 0.  0.
         13    1    1    2    0    0  0.10129134062E+02 -0.28455819701E+02  0.10476822863E+03  0.10903543427E+03  0.10566000000E+00 0.  1.
        994    1    1    2    0    0 -0.49087972246E+02  0.45842992976E+02  0.18607272499E+02  0.18484285113E+03  0.17120000000E+03 0.  0.
        998    1    1    2    0    0  0.38958838184E+02 -0.17387173275E+02  0.13766244951E+04  0.13773217146E+04  0.10000000000E+02 0.  1.
</event>
<event>
 5    1  0.1146201E-008  0.3793992E+03  0.7957747E-01  0.3453779E+00
         13   -1    0    0    0    0  0.00000000000E+00  0.00000000000E+00  0.14999999963E+04  0.15000000000E+04  0.10566000000E+00 0. -1.
        994   -1    0    0    0    0 -0.00000000000E+00 -0.00000000000E+00  0.11368683772E-12  0.17120000000E+03  0.17120000000E+03 0.  0.
         13    1    1    2    0    0  0.77446817428E+02  0.14114894598E+03  0.93775892545E+03  0.95147929453E+03  0.10566000000E+00 0. -1.
        994    1    1    2    0    0 -0.96120920709E+02 -0.13334386812E+03  0.10101169882E+03  0.25793918248E+03  0.17120000000E+03 0.  0.
        998    1    1    2    0    0  0.18674103281E+02 -0.78050778599E+01  0.46122937201E+03  0.46178152299E+03  0.10000000000E+02 0. -1.
</event>
<event>
 5    1  0.1146201E-008  0.3808309E+03  0.7957747E-01  0.3447548E+00
         13   -1    0    0    0    0  0.00000000000E+00  0.00000000000E+00  0.14999999963E+04  0.15000000000E+04  0.10566000000E+00 0.  1.
        994   -1    0    0    0    0 -0.00000000000E+00 -0.00000000000E+00  0.11368683772E-12  0.17120000000E+03  0.17120000000E+03 0.  0.
         13    1    1    2    0    0 -0.50021137479E+01 -0.11846200848E+02  0.20592813651E+02  0.24278153855E+02  0.10566000000E+00 0.  1.
        994    1    1    2    0    0  0.54153693328E+01  0.10278486942E+02  0.41643903766E+01  0.17164427071E+03  0.17120000000E+03 0.  0.
        998    1    1    2    0    0 -0.41325558485E+00  0.15677139066E+01  0.14752427923E+04  0.14752775754E+04  0.10000000000E+02 0.  1.
</event>
<event>
 5    1  0.1146201E-008  0.3858439E+03  0.7957747E-01  0.3426101E+00
         13   -1    0    0    0    0  0.00000000000E+00  0.00000000000E+00  0.14999999963E+04  0.15000000000E+04  0.10566000000E+00 0. -1.
        994   -1    0    0    0    0 -0.00000000000E+00 -0.00000000000E+00  0.11368683772E-12  0.17120000000E+03  0.17120000000E+03 0.  0.
         13    1    1    2    0    0  0.51692650379E+01  0.91081356742E+01  0.51584688887E+02  0.52637161095E+02  0.10566000000E+00 0. -1.
        994    1    1    2    0    0  0.10036277008E+02  0.71780456062E+01  0.17112067950E+01  0.17165261263E+03  0.17120000000E+03 0.  0.
        998    1    1    2    0    0 -0.15205542046E+02 -0.16286181280E+02  0.14467041006E+04  0.14469102263E+04  0.10000000000E+02 0. -1.
</event>
<event>
 5    1  0.1146201E-008  0.3836066E+03  0.7957747E-01  0.3435603E+00
         13   -1    0    0    0    0  0.00000000000E+00  0.00000000000E+00  0.14999999963E+04  0.15000000000E+04  0.10566000000E+00 0.  1.
        994   -1    0    0    0    0 -0.00000000000E+00 -0.00000000000E+00  0.11368683772E-12  0.17120000000E+03  0.17120000000E+03 0.  0.
         13    1    1    2    0    0  0.11120388415E+02 -0.47525433714E+01  0.31008319756E+02  0.33283280565E+02  0.10566000000E+00 0.  1.
        994    1    1    2    0    0 -0.42061632766E+01  0.59937194959E+01  0.25006399047E+01  0.17137476384E+03  0.17120000000E+03 0.  0.
        998    1    1    2    0    0 -0.69142251387E+01 -0.12411761244E+01  0.14664910366E+04  0.14665419556E+04  0.10000000000E+02 0.  1.
</event>
<event>
 5    1  0.1146201E-008  0.3853758E+03  0.7957747E-01  0.3428080E+00
         13   -1    0    0    0    0  0.00000000000E+00  0.00000000000E+00  0.14999999963E+04  0.15000000000E+04  0.10566000000E+00 0.  1.
        994   -1    0    0    0    0 -0.00000000000E+00 -0.00000000000E+00  0.11368683772E-12  0.17120000000E+03  0.17120000000E+03 0.  0.
         13    1    1    2    0    0 -0.10735645227E+02 -0.84978740963E+01  0.62232579059E+02  0.63721056198E+02  0.10566000000E+00 0.  1.
        994    1    1    2    0    0  0.16298193313E+02  0.55011562998E+01  0.24161836329E+01  0.17207896957E+03  0.17120000000E+03 0.  0.
        998    1    1    2    0    0 -0.55625480857E+01  0.29967177965E+01  0.14353512336E+04  0.14353999742E+04  0.10000000000E+02 0.  1.
</event>
<event>
 5    1  0.1146201E-008  0.3823184E+03  0.7957747E-01  0.3441125E+00
         13   -1    0    0    0    0  0.00000000000E+00  0.00000000000E+00  0.14999999963E+04  0.15000000000E+04  0.10566000000E+00 0. -1.
        994   -1    0    0    0    0 -0.00000000000E+00 -0.00000000000E+00  0.11368683772E-12  0.17120000000E+03  0.17120000000E+03 0.  0.
         13    1    1    2    0    0 -0.57270295290E+01 -0.98321205419E+01  0.20649566060E+02  0.23577217904E+02  0.10566000000E+00 0. -1.
        994    1    1    2    0    0  0.43509267845E+01  0.70170787698E+01  0.31935732068E+01  0.17142872825E+03  0.17120000000E+03 0.  0.
        998    1    1    2    0    0  0.13761027445E+01  0.28150417722E+01  0.14761568570E+04  0.14761940538E+04  0.10000000000E+02 0. -1.
</event>
<event>
 5    1  0.1146201E-008  0.3830309E+03  0.7957747E-01  0.3438067E+00
         13   -1    0    0    0    0  0.00000000000E+00  0.00000000000E+00  0.14999999963E+04  0.15000000000E+04  0.10566000000E+00 0.  1.
        994   -1    0    0    0    0 -0.00000000000E+00 -0.00000000000E+00  0.11368683772E-12  0.17120000000E+03  0.17120000000E+03 0.  0.
         13    1    1    2    0    0  0.40560474770E+01  0.98400198938E+01  0.20297235566E+02  0.22918692115E+02  0.10566000000E+00 0.  1.
        994    1    1    2    0    0 -0.51875892687E+01 -0.13246159092E+02  0.32810325847E+01  0.17182135196E+03  0.17120000000E+03 0.  0.
        998    1    1    2    0    0  0.11315417918E+01  0.34061391980E+01  0.14764217281E+04  0.14764599559E+04  0.10000000000E+02 0.  1.
</event>
<event>
 5    1  0.1146201E-008  0.3839435E+03  0.7957747E-01  0.3434166E+00
         13   -1    0    0    0    0  0.00000000000E+00  0.00000000000E+00  0.14999999963E+04  0.15000000000E+04  0.10566000000E+00 0. -1.
        994   -1    0    0    0    0 -0.00000000000E+00 -0.00000000000E+00  0.11368683772E-12  0.17120000000E+03  0.17120000000E+03 0.  0.
         13    1    1    2    0    0 -0.18458114305E+02  0.54092505446E+00  0.79252247728E+02  0.81375208249E+02  0.10566000000E+00 0. -1.
        994    1    1    2    0    0  0.10583935508E+02 -0.70531086723E+00  0.25269914263E+01  0.17154691148E+03  0.17120000000E+03 0.  0.
        998    1    1    2    0    0  0.78741787961E+01  0.16438581277E+00  0.14182207571E+04  0.14182778803E+04  0.10000000000E+02 0. -1.
</event>
<event>
 5    1  0.1146201E-008  0.3277140E+03  0.7957747E-01  0.3716091E+00
         13   -1    0    0    0    0  0.00000000000E+00  0.00000000000E+00  0.14999999963E+04  0.15000000000E+04  0.10566000000E+00 0.  1.
        994   -1    0    0    0    0 -0.00000000000E+00 -0.00000000000E+00  0.11368683772E-12  0.17120000000E+03  0.17120000000E+03 0.  0.
         13    1    1    2    0    0  0.19028022199E+03 -0.10451076662E+03  0.89787187946E+03  0.92374400475E+03  0.10566000000E+00 0.  1.
        994    1    1    2    0    0 -0.12156681933E+03  0.13623075644E+03  0.15618573624E+03  0.29502666789E+03  0.17120000000E+03 0.  0.
        998    1    1    2    0    0 -0.68713402659E+02 -0.31719989818E+02  0.44594238058E+03  0.45242932736E+03  0.10000000000E+02 0.  1.
</event>
<event>
 5    1  0.1146201E-008  0.3830316E+03  0.7957747E-01  0.3438064E+00
         13   -1    0    0    0    0  0.00000000000E+00  0.00000000000E+00  0.14999999963E+04  0.15000000000E+04  0.10566000000E+00 0. -1.
        994   -1    0    0    0    0 -0.00000000000E+00 -0.00000000000E+00  0.11368683772E-12  0.17120000000E+03  0.17120000000E+03 0.  0.
         13    1    1    2    0    0  0.14429001562E+02 -0.16495412388E+01  0.38383196545E+02  0.41038981633E+02  0.10566000000E+00 0. -1.
        994    1    1    2    0    0 -0.17373561711E+02  0.79255080237E+00  0.36123213355E+01  0.17211902175E+03  0.17120000000E+03 0.  0.
        998    1    1    2    0    0  0.29445601486E+01  0.85699043639E+00  0.14580044784E+04  0.14580419966E+04  0.10000000000E+02 0. -1.
</event>
<event>
 5    1  0.1146201E-008  0.3804176E+03  0.7957747E-01  0.3449342E+00
         13   -1    0    0    0    0  0.00000000000E+00  0.00000000000E+00  0.14999999963E+04  0.15000000000E+04  0.10566000000E+00 0. -1.
        994   -1    0    0    0    0 -0.00000000000E+00 -0.00000000000E+00  0.11368683772E-12  0.17120000000E+03  0.17120000000E+03 0.  0.
         13    1    1    2    0    0  0.23848998776E+02 -0.13558947818E+02  0.11093261476E+03  0.11427456405E+03  0.10566000000E+00 0. -1.
        994    1    1    2    0    0  0.27233158753E+01 -0.17825737644E+02  0.50087562567E+01  0.17221992048E+03  0.17120000000E+03 0.  0.
        998    1    1    2    0    0 -0.26572314651E+02  0.31384685462E+02  0.13840586253E+04  0.13847055155E+04  0.10000000000E+02 0. -1.
</event>
<event>
 5    1  0.1146201E-008  0.4238683E+03  0.7957747E-01  0.3279889E+00
         13   -1    0    0    0    0  0.00000000000E+00  0.00000000000E+00  0.14999999963E+04  0.15000000000E+04  0.10566000000E+00 0.  1.
        994   -1    0    0    0    0 -0.00000000000E+00 -0.00000000000E+00  0.11368683772E-12  0.17120000000E+03  0.17120000000E+03 0.  0.
         13    1    1    2    0    0 -0.46231353389E+02  0.76711755869E+02  0.80359012036E+02  0.12033126570E+03  0.10566000000E+00 0.  1.
        994    1    1    2    0    0  0.36502520179E+02 -0.64463664188E+02  0.67162832888E+02  0.19826316880E+03  0.17120000000E+03 0.  0.
        998    1    1    2    0    0  0.97288332099E+01 -0.12248091681E+02  0.13524781514E+04  0.13526055655E+04  0.10000000000E+02 0.  1.
</event>
<event>
 5    1  0.1146201E-008  0.3796962E+03  0.7957747E-01  0.3452482E+00
         13   -1    0    0    0    0  0.00000000000E+00  0.00000000000E+00  0.14999999963E+04  0.15000000000E+04  0.10566000000E+00 0. -1.
        994   -1    0    0    0    0 -0.00000000000E+00 -0.00000000000E+00  0.11368683772E-12  0.17120000000E+03  0.17120000000E+03 0.  0.
         13    1    1    2    0    0 -0.32757105569E+02 -0.23721885885E+02  0.17977820240E+03  0.18427145481E+03  0.10566000000E+00 0. -1.
        994    1    1    2    0    0  0.22560040619E+02  0.21880945648E+02  0.75988528647E+01  0.17422661616E+03  0.17120000000E+03 0.  0.
        998    1    1    2    0    0  0.10197064949E+02  0.18409402367E+01  0.13126229410E+04  0.13127019290E+04  0.10000000000E+02 0. -1.
</event>
<event>
 5    1  0.1146201E-008  0.3751255E+03  0.7957747E-01  0.3472662E+00
         13   -1    0    0    0    0  0.00000000000E+00  0.00000000000E+00  0.14999999963E+04  0.15000000000E+04  0.10566000000E+00 0.  1.
        994   -1    0    0    0    0 -0.00000000000E+00 -0.00000000000E+00  0.11368683772E-12  0.17120000000E+03  0.17120000000E+03 0.  0.
         13    1    1    2    0    0  0.61871105515E+00  0.64455785055E+02  0.24704381144E+03  0.25531468224E+03  0.10566000000E+00 0.  1.
        994    1    1    2    0    0  0.11562653638E+02 -0.72777433704E+02  0.25294640528E+02  0.18809441421E+03  0.17120000000E+03 0.  0.
        998    1    1    2    0    0 -0.12181364693E+02  0.83216486491E+01  0.12276615443E+04  0.12277909036E+04  0.10000000000E+02 0.  1.
</event>
<event>
 5    1  0.1146201E-008  0.3707229E+03  0.7957747E-01  0.3492575E+00
         13   -1    0    0    0    0  0.00000000000E+00  0.00000000000E+00  0.14999999963E+04  0.15000000000E+04  0.10566000000E+00 0.  1.
        994   -1    0    0    0    0 -0.00000000000E+00 -0.00000000000E+00  0.11368683772E-12  0.17120000000E+03  0.17120000000E+03 0.  0.
         13    1    1    2    0    0  0.97759472097E+02 -0.86720510793E+01  0.40374014310E+03  0.41549757300E+03  0.10566000000E+00 0.  1.
        994    1    1    2    0    0 -0.93078082971E+02  0.89415811806E+01  0.39681914529E+02  0.19906676203E+03  0.17120000000E+03 0.  0.
        998    1    1    2    0    0 -0.46813891263E+01 -0.26953010132E+00  0.10565779386E+04  0.10566356650E+04  0.10000000000E+02 0.  0.
</event>
<event>
 5    1  0.1146201E-008  0.3803562E+03  0.7957747E-01  0.3449609E+00
         13   -1    0    0    0    0  0.00000000000E+00  0.00000000000E+00  0.14999999963E+04  0.15000000000E+04  0.10566000000E+00 0.  1.
        994   -1    0    0    0    0 -0.00000000000E+00 -0.00000000000E+00  0.11368683772E-12  0.17120000000E+03  0.17120000000E+03 0.  0.
         13    1    1    2    0    0  0.34125340434E+02 -0.72996320734E+01  0.15338819506E+03  0.15730789248E+03  0.10566000000E+00 0.  1.
        994    1    1    2    0    0 -0.17493116386E+02  0.13379048524E+02  0.55745672322E+01  0.17270067707E+03  0.17120000000E+03 0.  0.
        998    1    1    2    0    0 -0.16632224048E+02 -0.60794164511E+01  0.13410372340E+04  0.13411914305E+04  0.10000000000E+02 0.  1.
</event>
<event>
 5    1  0.1146201E-008  0.3822705E+03  0.7957747E-01  0.3441332E+00
         13   -1    0    0    0    0  0.00000000000E+00  0.00000000000E+00  0.14999999963E+04  0.15000000000E+04  0.10566000000E+00 0. -1.
        994   -1    0    0    0    0 -0.00000000000E+00 -0.00000000000E+00  0.11368683772E-12  0.17120000000E+03  0.17120000000E+03 0.  0.
         13    1    1    2    0    0 -0.42305276410E+02 -0.52146827131E+01  0.44469068072E+02  0.61599013849E+02  0.10566000000E+00 0. -1.
        994    1    1    2    0    0  0.36941023509E+02 -0.22829449822E+01  0.22601769151E+02  0.17660727908E+03  0.17120000000E+03 0.  0.
        998    1    1    2    0    0  0.53642529006E+01  0.74976276952E+01  0.14329291591E+04  0.14329937071E+04  0.10000000000E+02 0. -1.
</event>
<event>
 5    1  0.1146201E-008  0.3851819E+03  0.7957747E-01  0.3428901E+00
         13   -1    0    0    0    0  0.00000000000E+00  0.00000000000E+00  0.14999999963E+04  0.15000000000E+04  0.10566000000E+00 0. -1.
        994   -1    0    0    0    0 -0.00000000000E+00 -0.00000000000E+00  0.11368683772E-12  0.17120000000E+03  0.17120000000E+03 0.  0.
         13    1    1    2    0    0 -0.19464205264E+01 -0.10661002221E+02  0.36910026730E+02  0.38468256504E+02  0.10566000000E+00 0. -1.
        994    1    1    2    0    0  0.86826264351E+01  0.12248263387E+02  0.22810404948E+01  0.17187219410E+03  0.17120000000E+03 0.  0.
        998    1    1    2    0    0 -0.67362059087E+01 -0.15872611665E+01  0.14608089291E+04  0.14608595494E+04  0.10000000000E+02 0. -1.
</event>
<event>
 5    1  0.1146201E-008  0.3804996E+03  0.7957747E-01  0.3448986E+00
         13   -1    0    0    0    0  0.00000000000E+00  0.00000000000E+00  0.14999999963E+04  0.15000000000E+04  0.10566000000E+00 0.  1.
        994   -1    0    0    0    0 -0.00000000000E+00 -0.00000000000E+00  0.11368683772E-12  0.17120000000E+03  0.17120000000E+03 0.  0.
         13    1    1    2    0    0  0.16038980412E+02 -0.78961133242E-01  0.31432426312E+02  0.35288294312E+02  0.10566000000E+00 0.  1.
        994    1    1    2    0    0 -0.12827245259E+02  0.13007944783E+01  0.44361484805E+01  0.17174210229E+03  0.17120000000E+03 0.  0.
        998    1    1    2    0    0 -0.32117351529E+01 -0.12218333450E+01  0.14641314215E+04  0.14641696034E+04  0.10000000000E+02 0.  1.
</event>
<event>
 5    1  0.1146201E-008  0.3844568E+03  0.7957747E-01  0.3431979E+00
         13   -1    0    0    0    0  0.00000000000E+00  0.00000000000E+00  0.14999999963E+04  0.15000000000E+04  0.10566000000E+00 0.  1.
        994   -1    0    0    0    0 -0.00000000000E+00 -0.00000000000E+00  0.11368683772E-12  0.17120000000E+03  0.17120000000E+03 0.  0.
         13    1    1    2    0    0  0.89495806716E+01  0.14438998887E+02  0.74291273703E+02  0.76208819670E+02  0.10566000000E+00 0.  1.
        994    1    1    2    0    0 -0.52334685012E+01 -0.13245044049E+02  0.25685568305E+01  0.17181052898E+03  0.17120000000E+03 0.  0.
        998    1    1    2    0    0 -0.37161121704E+01 -0.11939548375E+01  0.14231401657E+04  0.14231806513E+04  0.10000000000E+02 0.  1.
</event>
<event>
 5    1  0.1146201E-008  0.3841955E+03  0.7957747E-01  0.3433091E+00
         13   -1    0    0    0    0  0.00000000000E+00  0.00000000000E+00  0.14999999963E+04  0.15000000000E+04  0.10566000000E+00 0.  1.
        994   -1    0    0    0    0 -0.00000000000E+00 -0.00000000000E+00  0.11368683772E-12  0.17120000000E+03  0.17120000000E+03 0.  0.
         13    1    1    2    0    0 -0.16890415608E+02  0.14402467623E+02  0.11888519255E+03  0.12093972624E+03  0.10566000000E+00 0.  1.
        994    1    1    2    0    0  0.15968981357E+01 -0.23514991568E+02  0.38638443168E+01  0.17285795962E+03  0.17120000000E+03 0.  0.
        998    1    1    2    0    0  0.15293517473E+02  0.91125239455E+01  0.13772509594E+04  0.13774023141E+04  0.10000000000E+02 0.  1.
</event>
<event>
 5    1  0.1146201E-008  0.3796137E+03  0.7957747E-01  0.3452842E+00
         13   -1    0    0    0    0  0.00000000000E+00  0.00000000000E+00  0.14999999963E+04  0.15000000000E+04  0.10566000000E+00 0.  1.
        994   -1    0    0    0    0 -0.00000000000E+00 -0.00000000000E+00  0.11368683772E-12  0.17120000000E+03  0.17120000000E+03 0.  0.
         13    1    1    2    0    0 -0.23290612516E+02  0.39412997707E+02  0.56900727556E+02  0.73031095980E+02  0.10566000000E+00 0.  1.
        994    1    1    2    0    0  0.21405612207E+02 -0.41405746073E+02  0.24018410136E+02  0.17905016076E+03  0.17120000000E+03 0.  0.
        998    1    1    2    0    0  0.18850003083E+01  0.19927483663E+01  0.14190808586E+04  0.14191187433E+04  0.10000000000E+02 0.  1.
</event>
<event>
 5    1  0.1146201E-008  0.3739421E+03  0.7957747E-01  0.3477968E+00
         13   -1    0    0    0    0  0.00000000000E+00  0.00000000000E+00  0.14999999963E+04  0.15000000000E+04  0.10566000000E+00 0. -1.
        994   -1    0    0    0    0 -0.00000000000E+00 -0.00000000000E+00  0.11368683772E-12  0.17120000000E+03  0.17120000000E+03 0.  0.
         13    1    1    2    0    0 -0.32815610019E+02  0.17092717841E+01  0.33926934717E+02  0.47231704757E+02  0.10566000000E+00 0. -1.
        994    1    1    2    0    0  0.49856169992E+02  0.10364640967E+02  0.22288425811E+02  0.17999799275E+03  0.17120000000E+03 0.  0.
        998    1    1    2    0    0 -0.17040559973E+02 -0.12073912751E+02  0.14437846358E+04  0.14439703025E+04  0.10000000000E+02 0. -1.
</event>
<event>
 5    1  0.1146201E-008  0.3840922E+03  0.7957747E-01  0.3433531E+00
         13   -1    0    0    0    0  0.00000000000E+00  0.00000000000E+00  0.14999999963E+04  0.15000000000E+04  0.10566000000E+00 0. -1.
        994   -1    0    0    0    0 -0.00000000000E+00 -0.00000000000E+00  0.11368683772E-12  0.17120000000E+03  0.17120000000E+03 0.  0.
         13    1    1    2    0    0 -0.11598649256E+02 -0.14194475334E+02  0.75665709164E+02  0.77854495708E+02  0.10566000000E+00 0. -1.
        994    1    1    2    0    0  0.14717499568E+02  0.15984468065E+02  0.36402282448E+01  0.17261170086E+03  0.17120000000E+03 0.  0.
        998    1    1    2    0    0 -0.31188503124E+01 -0.17899927309E+01  0.14206940589E+04  0.14207338034E+04  0.10000000000E+02 0. -1.
</event>
<event>
 5    1  0.1146201E-008  0.3835005E+03  0.7957747E-01  0.3436057E+00
         13   -1    0    0    0    0  0.00000000000E+00  0.00000000000E+00  0.14999999963E+04  0.15000000000E+04  0.10566000000E+00 0.  1.
        994   -1    0    0    0    0 -0.00000000000E+00 -0.00000000000E+00  0.11368683772E-12  0.17120000000E+03  0.17120000000E+03 0.  0.
         13    1    1    2    0    0 -0.17566492823E+02  0.18796389879E+02  0.12868274549E+03  0.13122936445E+03  0.10566000000E+00 0.  1.
        994    1    1    2    0    0  0.20705357441E+02 -0.15811765833E+02  0.46226598531E+01  0.17323259725E+03  0.17120000000E+03 0.  0.
        998    1    1    2    0    0 -0.31388646177E+01 -0.29846240457E+01  0.13666945909E+04  0.13667380383E+04  0.10000000000E+02 0.  1.
</event>
<event>
 5    1  0.1146201E-008  0.3786354E+03  0.7957747E-01  0.3457122E+00
         13   -1    0    0    0    0  0.00000000000E+00  0.00000000000E+00  0.14999999963E+04  0.15000000000E+04  0.10566000000E+00 0. -1.
        994   -1    0    0    0    0 -0.00000000000E+00 -0.00000000000E+00  0.11368683772E-12  0.17120000000E+03  0.17120000000E+03 0.  0.
         13    1    1    2    0    0 -0.73338340181E+01 -0.17036307435E+02  0.33599350608E+02  0.38379010120E+02  0.10566000000E+00 0. -1.
        994    1    1    2    0    0 -0.78181584725E+01  0.18392172073E+02  0.61658962569E+01  0.17247276270E+03  0.17120000000E+03 0.  0.
        998    1    1    2    0    0  0.15151992491E+02 -0.13558646383E+01  0.14602347494E+04  0.14603482272E+04  0.10000000000E+02 0. -1.
</event>
<event>
 5    1  0.1146201E-008  0.3824318E+03  0.7957747E-01  0.3440638E+00
         13   -1    0    0    0    0  0.00000000000E+00  0.00000000000E+00  0.14999999963E+04  0.15000000000E+04  0.10566000000E+00 0. -1.
        994   -1    0    0    0    0 -0.00000000000E+00 -0.00000000000E+00  0.11368683772E-12  0.17120000000E+03  0.17120000000E+03 0.  0.
         13    1    1    2    0    0 -0.32693068160E+01  0.30916463013E+02  0.15228820221E+03  0.15542915990E+03  0.10566000000E+00 0. -1.
        994    1    1    2    0    0 -0.31299465295E+01 -0.29917973814E+02  0.59172072924E+01  0.17392335974E+03  0.17120000000E+03 0.  0.
        998    1    1    2    0    0  0.63992533456E+01 -0.99848919907E+00  0.13417945868E+04  0.13418474804E+04  0.10000000000E+02 0. -1.
</event>
<event>
 5    1  0.1146201E-008  0.3802860E+03  0.7957747E-01  0.3449914E+00
         13   -1    0    0    0    0  0.00000000000E+00  0.00000000000E+00  0.14999999963E+04  0.15000000000E+04  0.10566000000E+00 0.  1.
        994   -1    0    0    0    0 -0.00000000000E+00 -0.00000000000E+00  0.11368683772E-12  0.17120000000E+03  0.17120000000E+03 0.  0.
         13    1    1    2    0    0 -0.16372843492E+02  0.34735493418E+02  0.18432504930E+03  0.18828265844E+03  0.10566000000E+00 0.  1.
        994    1    1    2    0    0  0.61889397930E+01 -0.21033089526E+02  0.55958784629E+01  0.17268887540E+03  0.17120000000E+03 0.  0.
        998    1    1    2    0    0  0.10183903699E+02 -0.13702403892E+02  0.13100790685E+04  0.13102284662E+04  0.10000000000E+02 0.  1.
</event>
<event>
 5    1  0.1146201E-008  0.3855690E+03  0.7957747E-01  0.3427263E+00
         13   -1    0    0    0    0  0.00000000000E+00  0.00000000000E+00  0.14999999963E+04  0.15000000000E+04  0.10566000000E+00 0.  1.
        994   -1    0    0    0    0 -0.00000000000E+00 -0.00000000000E+00  0.11368683772E-12  0.17120000000E+03  0.17120000000E+03 0.  0.
         13    1    1    2    0    0 -0.10392625162E+02 -0.71641769606E+01  0.66917990988E+02  0.68098170102E+02  0.10566000000E+00 0.  1.
        994    1    1    2    0    0 -0.98307343707E+01  0.15631557323E+00  0.16652842838E+01  0.17149017740E+03  0.17120000000E+03 0.  0.
        998    1    1    2    0    0  0.20223359533E+02  0.70078613874E+01  0.14314167210E+04  0.14316116525E+04  0.10000000000E+02 0.  1.
</event>
<event>
 5    1  0.1146201E-008  0.3838480E+03  0.7957747E-01  0.3434573E+00
         13   -1    0    0    0    0  0.00000000000E+00  0.00000000000E+00  0.14999999963E+04  0.15000000000E+04  0.10566000000E+00 0. -1.
        994   -1    0    0    0    0 -0.00000000000E+00 -0.00000000000E+00  0.11368683772E-12  0.17120000000E+03  0.17120000000E+03 0.  0.
         13    1    1    2    0    0  0.93347255900E+01 -0.92981047055E+01  0.39042740069E+02  0.41206050151E+02  0.10566000000E+00 0. -1.
        994    1    1    2    0    0 -0.53245510151E+01  0.53755720434E+01  0.23921826573E+01  0.17138380949E+03  0.17120000000E+03 0.  0.
        998    1    1    2    0    0 -0.40101745749E+01  0.39225326621E+01  0.14585650736E+04  0.14586101404E+04  0.10000000000E+02 0. -1.
</event>
<event>
 5    1  0.1146201E-008  0.3396110E+03  0.7957747E-01  0.3648382E+00
         13   -1    0    0    0    0  0.00000000000E+00  0.00000000000E+00  0.14999999963E+04  0.15000000000E+04  0.10566000000E+00 0.  1.
        994   -1    0    0    0    0 -0.00000000000E+00 -0.00000000000E+00  0.11368683772E-12  0.17120000000E+03  0.17120000000E+03 0.  0.
         13    1    1    2    0    0 -0.20095242273E+03 -0.42158745153E+02  0.10236112754E+04  0.10440015758E+04  0.10566000000E+00 0.  1.
        994    1    1    2    0    0  0.14649487210E+03  0.28142751069E+02  0.10278251593E+03  0.24925177546E+03  0.17120000000E+03 0.  0.
        998    1    1    2    0    0  0.54457550636E+02  0.14015994084E+02  0.37360620498E+03  0.37794664876E+03  0.10000000000E+02 0. -1.
</event>
<event>
 5    1  0.1146201E-008  0.3816116E+03  0.7957747E-01  0.3444171E+00
         13   -1    0    0    0    0  0.00000000000E+00  0.00000000000E+00  0.14999999963E+04  0.15000000000E+04  0.10566000000E+00 0. -1.
        994   -1    0    0    0    0 -0.00000000000E+00 -0.00000000000E+00  0.11368683772E-12  0.17120000000E+03  0.17120000000E+03 0.  0.
         13    1    1    2    0    0  0.26681915387E+02  0.15109655221E+02  0.13818096752E+03  0.14154228074E+03  0.10566000000E+00 0. -1.
        994    1    1    2    0    0 -0.22609694999E+02 -0.22090207498E+01  0.50397806029E+01  0.17277418056E+03  0.17120000000E+03 0.  0.
        998    1    1    2    0    0 -0.40722203882E+01 -0.12900634471E+02  0.13567792482E+04  0.13568835387E+04  0.10000000000E+02 0. -1.
</event>
<event>
 5    1  0.1146201E-008  0.3766435E+03  0.7957747E-01  0.3465905E+00
         13   -1    0    0    0    0  0.00000000000E+00  0.00000000000E+00  0.14999999963E+04  0.15000000000E+04  0.10566000000E+00 0. -1.
        994   -1    0    0    0    0 -0.00000000000E+00 -0.00000000000E+00  0.11368683772E-12  0.17120000000E+03  0.17120000000E+03 0.  0.
         13    1    1    2    0    0 -0.25980386538E+02 -0.77443247673E+01  0.60295125005E+02  0.66109517576E+02  0.10566000000E+00 0. -1.
        994    1    1    2    0    0  0.19233429069E+02  0.37406426229E+01  0.71360759032E+01  0.17246530312E+03  0.17120000000E+03 0.  0.
        998    1    1    2    0    0  0.67469574690E+01  0.40036821443E+01  0.14325687954E+04  0.14326251793E+04  0.10000000000E+02 0. -1.
</event>
<event>
 5    1  0.1146201E-008  0.3772825E+03  0.7957747E-01  0.3463077E+00
         13   -1    0    0    0    0  0.00000000000E+00  0.00000000000E+00  0.14999999963E+04  0.15000000000E+04  0.10566000000E+00 0. -1.
        994   -1    0    0    0    0 -0.00000000000E+00 -0.00000000000E+00  0.11368683772E-12  0.17120000000E+03  0.17120000000E+03 0.  0.
         13    1    1    2    0    0  0.18024205072E+01  0.24793296219E+02  0.52212045631E+02  0.57827892319E+02  0.10566000000E+00 0. -1.
        994    1    1    2    0    0 -0.77513596643E+00 -0.25690922697E+02  0.77429210472E+01  0.17329171120E+03  0.17120000000E+03 0.  0.
        998    1    1    2    0    0 -0.10272845408E+01  0.89762647878E+00  0.14400450296E+04  0.14400803965E+04  0.10000000000E+02 0.  0.
</event>
<event>
 5    1  0.1146201E-008  0.3847840E+03  0.7957747E-01  0.3430589E+00
         13   -1    0    0    0    0  0.00000000000E+00  0.00000000000E+00  0.14999999963E+04  0.15000000000E+04  0.10566000000E+00 0.  1.
        994   -1    0    0    0    0 -0.00000000000E+00 -0.00000000000E+00  0.11368683772E-12  0.17120000000E+03  0.17120000000E+03 0.  0.
         13    1    1    2    0    0  0.41317071433E+01  0.17065361427E+02  0.86157581077E+02  0.87928593220E+02  0.10566000000E+00 0.  1.
        994    1    1    2    0    0  0.12251901432E+01 -0.16133666853E+02  0.25994502113E+01  0.17198253818E+03  0.17120000000E+03 0.  0.
        998    1    1    2    0    0 -0.53568972866E+01 -0.93169457319E+00  0.14112429650E+04  0.14112888686E+04  0.10000000000E+02 0.  1.
</event>
<event>
 5    1  0.1146201E-008  0.3845049E+03  0.7957747E-01  0.3431775E+00
         13   -1    0    0    0    0  0.00000000000E+00  0.00000000000E+00  0.14999999963E+04  0.15000000000E+04  0.10566000000E+00 0.  1.
        994   -1    0    0    0    0 -0.00000000000E+00 -0.00000000000E+00  0.11368683772E-12  0.17120000000E+03  0.17120000000E+03 0.  0.
         13    1    1    2    0    0 -0.23443082603E+01  0.15319147117E+02  0.54352539694E+02  0.56518862204E+02  0.10566000000E+00 0.  1.
        994    1    1    2    0    0  0.15245602999E+02 -0.38418556249E+02  0.75239454839E+01  0.17627950428E+03  0.17120000000E+03 0.  0.
        998    1    1    2    0    0 -0.12901294739E+02  0.23099409132E+02  0.14381235111E+04  0.14384016335E+04  0.10000000000E+02 0.  1.
</event>
<event>
 5    1  0.1146201E-008  0.3801024E+03  0.7957747E-01  0.3450713E+00
         13   -1    0    0    0    0  0.00000000000E+00  0.00000000000E+00  0.14999999963E+04  0.15000000000E+04  0.10566000000E+00 0. -1.
        994   -1    0    0    0    0 -0.00000000000E+00 -0.00000000000E+00  0.11368683772E-12  0.17120000000E+03  0.17120000000E+03 0.  0.
         13    1    1    2    0    0  0.24691436821E+01 -0.22893973022E+02  0.68033336681E+02  0.71824624852E+02  0.10566000000E+00 0. -1.
        994    1    1    2    0    0  0.60842520251E+01 -0.62586691786E+00  0.42064865126E+01  0.17136086006E+03  0.17120000000E+03 0.  0.
        998    1    1    2    0    0 -0.85533957072E+01  0.23519839940E+02  0.14277601731E+04  0.14280145151E+04  0.10000000000E+02 0. -1.
</event>
<event>
 5    1  0.1146201E-008  0.3849768E+03  0.7957747E-01  0.3429770E+00
         13   -1    0    0    0    0  0.00000000000E+00  0.00000000000E+00  0.14999999963E+04  0.15000000000E+04  0.10566000000E+00 0. -1.
        994   -1    0    0    0    0 -0.00000000000E+00 -0.00000000000E+00  0.11368683772E-12  0.17120000000E+03  0.17120000000E+03 0.  0.
         13    1    1    2    0    0  0.57087150316E+01  0.86967363727E+01  0.33883093599E+02  0.35444292160E+02  0.10566000000E+00 0. -1.
        994    1    1    2    0    0  0.59445895915E+01 -0.36901216809E+01  0.18026657924E+01  0.17135239930E+03  0.17120000000E+03 0.  0.
        998    1    1    2    0    0 -0.11653304623E+02 -0.50066146918E+01  0.14643142369E+04  0.14644033085E+04  0.10000000000E+02 0. -1.
</event>
<event>
 5    1  0.1146201E-008  0.3826610E+03  0.7957747E-01  0.3439653E+00
         13   -1    0    0    0    0  0.00000000000E+00  0.00000000000E+00  0.14999999963E+04  0.15000000000E+04  0.10566000000E+00 0.  1.
        994   -1    0    0    0    0 -0.00000000000E+00 -0.00000000000E+00  0.11368683772E-12  0.17120000000E+03  0.17120000000E+03 0.  0.
         13    1    1    2    0    0 -0.26427228910E+02  0.32453057893E+02  0.21435147337E+03  0.21839909499E+03  0.10566000000E+00 0.  1.
        994    1    1    2    0    0  0.70734668134E+02 -0.32812288447E+02  0.23212104808E+02  0.18954757017E+03  0.17120000000E+03 0.  0.
        998    1    1    2    0    0 -0.44307439224E+02  0.35923055436E+00  0.12624364181E+04  0.12632533348E+04  0.10000000000E+02 0.  1.
</event>
<event>
 5    1  0.1146201E-008  0.3859388E+03  0.7957747E-01  0.3425700E+00
         13   -1    0    0    0    0  0.00000000000E+00  0.00000000000E+00  0.14999999963E+04  0.15000000000E+04  0.10566000000E+00 0. -1.
        994   -1    0    0    0    0 -0.00000000000E+00 -0.00000000000E+00  0.11368683772E-12  0.17120000000E+03  0.17120000000E+03 0.  0.
         13    1    1    2    0    0  0.13024177800E+02 -0.95628474059E+00  0.73474113181E+02  0.74625733896E+02  0.10566000000E+00 0. -1.
        994    1    1    2    0    0 -0.98440799509E+01 -0.37860347343E+01  0.15295385492E+01  0.17153139496E+03  0.17120000000E+03 0.  0.
        998    1    1    2    0    0 -0.31800978495E+01  0.47423194749E+01  0.14249963445E+04  0.14250428711E+04  0.10000000000E+02 0. -1.
</event>
<event>
 5    1  0.1146201E-008  0.3840760E+03  0.7957747E-01  0.3433601E+00
         13   -1    0    0    0    0  0.00000000000E+00  0.00000000000E+00  0.14999999963E+04  0.15000000000E+04  0.10566000000E+00 0.  1.
        994   -1    0    0    0    0 -0.00000000000E+00 -0.00000000000E+00  0.11368683772E-12  0.17120000000E+03  0.17120000000E+03 0.  0.
         13    1    1    2    0    0  0.77272548316E+01 -0.95301659623E+01  0.38013536768E+02  0.39944645100E+02  0.10566000000E+00 0.  1.
        994    1    1    2    0    0  0.10566182734E+02 -0.53270661666E+00  0.24588883078E+01  0.17154420458E+03  0.17120000000E+03 0.  0.
        998    1    1    2    0    0 -0.18293437566E+02  0.10062872579E+02  0.14595275712E+04  0.14597111503E+04  0.10000000000E+02 0.  1.
</event>
<event>
 5    1  0.1146201E-008  0.3822783E+03  0.7957747E-01  0.3441298E+00
         13   -1    0    0    0    0  0.00000000000E+00  0.00000000000E+00  0.14999999963E+04  0.15000000000E+04  0.10566000000E+00 0.  1.
        994   -1    0    0    0    0 -0.00000000000E+00 -0.00000000000E+00  0.11368683772E-12  0.17120000000E+03  0.17120000000E+03 0.  0.
         13    1    1    2    0    0 -0.27027247720E+02  0.10674472771E+02  0.13792993498E+03  0.14095777600E+03  0.10566000000E+00 0.  1.
        994    1    1    2    0    0  0.20259110582E+02 -0.28851728968E+01  0.43781169715E+01  0.17247424066E+03  0.17120000000E+03 0.  0.
        998    1    1    2    0    0  0.67681371378E+01 -0.77892998741E+01  0.13576919443E+04  0.13577679833E+04  0.10000000000E+02 0.  1.
</event>
<event>
 5    1  0.1146201E-008  0.3817288E+03  0.7957747E-01  0.3443665E+00
         13   -1    0    0    0    0  0.00000000000E+00  0.00000000000E+00  0.14999999963E+04  0.15000000000E+04  0.10566000000E+00 0.  1.
        994   -1    0    0    0    0 -0.00000000000E+00 -0.00000000000E+00  0.11368683772E-12  0.17120000000E+03  0.17120000000E+03 0.  0.
         13    1    1    2    0    0  0.99387816108E+01  0.46366561873E+01  0.17524682085E+02  0.20673741962E+02  0.10566000000E+00 0.  1.
        994    1    1    2    0    0 -0.33203257119E+01  0.98772508114E+01  0.36240102452E+01  0.17155511679E+03  0.17120000000E+03 0.  0.
        998    1    1    2    0    0 -0.66184558989E+01 -0.14513906999E+02  0.14788513039E+04  0.14789711412E+04  0.10000000000E+02 0.  1.
</event>
<event>
 5    1  0.1146201E-008  0.3832503E+03  0.7957747E-01  0.3437127E+00
         13   -1    0    0    0    0  0.00000000000E+00  0.00000000000E+00  0.14999999963E+04  0.15000000000E+04  0.10566000000E+00 0. -1.
        994   -1    0    0    0    0 -0.00000000000E+00 -0.00000000000E+00  0.11368683772E-12  0.17120000000E+03  0.17120000000E+03 0.  0.
         13    1    1    2    0    0  0.91812198006E+01  0.19606662314E+02  0.81755581019E+02  0.84573649536E+02  0.10566000000E+00 0. -1.
        994    1    1    2    0    0 -0.40329186540E+02 -0.21891898096E+02  0.94971255324E+01  0.17749741937E+03  0.17120000000E+03 0.  0.
        998    1    1    2    0    0  0.31147966739E+02  0.22852357820E+01  0.14087472897E+04  0.14091289311E+04  0.10000000000E+02 0. -1.
</event>
<event>
 5    1  0.1146201E-008  0.3858909E+03  0.7957747E-01  0.3425903E+00
         13   -1    0    0    0    0  0.00000000000E+00  0.00000000000E+00  0.14999999963E+04  0.15000000000E+04  0.10566000000E+00 0.  1.
        994   -1    0    0    0    0 -0.00000000000E+00 -0.00000000000E+00  0.11368683772E-12  0.17120000000E+03  0.17120000000E+03 0.  0.
         13    1    1    2    0    0  0.40325743998E+01 -0.13550993959E+02  0.81535785143E+02  0.82752561993E+02  0.10566000000E+00 0.  1.
        994    1    1    2    0    0  0.79397386517E+01  0.17466169112E+02  0.23964933428E+01  0.17228839106E+03  0.17120000000E+03 0.  0.
        998    1    1    2    0    0 -0.11972313052E+02 -0.39151751525E+01  0.14160677178E+04  0.14161590469E+04  0.10000000000E+02 0.  1.
</event>
<event>
 5    1  0.1146201E-008  0.3719359E+03  0.7957747E-01  0.3487041E+00
         13   -1    0    0    0    0  0.00000000000E+00  0.00000000000E+00  0.14999999963E+04  0.15000000000E+04  0.10566000000E+00 0.  1.
        994   -1    0    0    0    0 -0.00000000000E+00 -0.00000000000E+00  0.11368683772E-12  0.17120000000E+03  0.17120000000E+03 0.  0.
         13    1    1    2    0    0  0.51051602098E+02 -0.10824269394E+03  0.60043670116E+03  0.61224749092E+03  0.10566000000E+00 0.  1.
        994    1    1    2    0    0 -0.31128745964E+02  0.10142596567E+03  0.47973549453E+02  0.20704377987E+03  0.17120000000E+03 0.  0.
        998    1    1    2    0    0 -0.19922856134E+02  0.68167282739E+01  0.85158974567E+03  0.85190872921E+03  0.10000000000E+02 0.  1.
</event>
<event>
 5    1  0.1146201E-008  0.3692830E+03  0.7957747E-01  0.3499193E+00
         13   -1    0    0    0    0  0.00000000000E+00  0.00000000000E+00  0.14999999963E+04  0.15000000000E+04  0.10566000000E+00 0.  1.
        994   -1    0    0    0    0 -0.00000000000E+00 -0.00000000000E+00  0.11368683772E-12  0.17120000000E+03  0.17120000000E+03 0.  0.
         13    1    1    2    0    0 -0.70662985108E+01  0.56712919178E+02  0.15550264875E+03  0.16567248627E+03  0.10566000000E+00 0.  1.
        994    1    1    2    0    0  0.24473206979E+02 -0.46537214859E+02  0.19289116457E+02  0.18012817725E+03  0.17120000000E+03 0.  0.
        998    1    1    2    0    0 -0.17406908468E+02 -0.10175704320E+02  0.13252082311E+04  0.13253993365E+04  0.10000000000E+02 0.  1.
</event>
<event>
 5    1  0.1146201E-008  0.3789026E+03  0.7957747E-01  0.3455951E+00
         13   -1    0    0    0    0  0.00000000000E+00  0.00000000000E+00  0.14999999963E+04  0.15000000000E+04  0.10566000000E+00 0.  1.
        994   -1    0    0    0    0 -0.00000000000E+00 -0.00000000000E+00  0.11368683772E-12  0.17120000000E+03  0.17120000000E+03 0.  0.
         13    1    1    2    0    0 -0.19315772628E+02  0.18463110972E+02  0.83468546025E+02  0.87641285240E+02  0.10566000000E+00 0.  1.
        994    1    1    2    0    0 -0.62403175477E+01  0.58740977683E+01  0.49345960527E+01  0.17148538371E+03  0.17120000000E+03 0.  0.
        998    1    1    2    0    0  0.25556090176E+02 -0.24337208740E+02  0.14115968542E+04  0.14120733311E+04  0.10000000000E+02 0.  1.
</event>
<event>
 5    1  0.1146201E-008  0.3855693E+03  0.7957747E-01  0.3427261E+00
         13   -1    0    0    0    0  0.00000000000E+00  0.00000000000E+00  0.14999999963E+04  0.15000000000E+04  0.10566000000E+00 0. -1.
        994   -1    0    0    0    0 -0.00000000000E+00 -0.00000000000E+00  0.11368683772E-12  0.17120000000E+03  0.17120000000E+03 0.  0.
         13    1    1    2    0    0 -0.10273781692E+02 -0.10281629371E+02  0.74933229589E+02  0.76329958427E+02  0.10566000000E+00 0. -1.
        994    1    1    2    0    0  0.12636910952E+02  0.10585212548E+02  0.22402471272E+01  0.17200638636E+03  0.17120000000E+03 0.  0.
        998    1    1    2    0    0 -0.23631292601E+01 -0.30358317752E+00  0.14228265196E+04  0.14228636552E+04  0.10000000000E+02 0. -1.
</event>
<event>
 5    1  0.1146201E-008  0.3821081E+03  0.7957747E-01  0.3442030E+00
         13   -1    0    0    0    0  0.00000000000E+00  0.00000000000E+00  0.14999999963E+04  0.15000000000E+04  0.10566000000E+00 0.  1.
        994   -1    0    0    0    0 -0.00000000000E+00 -0.00000000000E+00  0.11368683772E-12  0.17120000000E+03  0.17120000000E+03 0.  0.
         13    1    1    2    0    0 -0.56186960844E+01  0.12589360777E+02  0.29821669482E+02  0.32854297819E+02  0.10566000000E+00 0.  1.
        994    1    1    2    0    0  0.12897373754E+02 -0.43179653730E+01  0.36870983737E+01  0.17177899106E+03  0.17120000000E+03 0.  0.
        998    1    1    2    0    0 -0.72786776692E+01 -0.82713954037E+01  0.14664912284E+04  0.14665667111E+04  0.10000000000E+02 0.  1.
</event>
<event>
 5    1  0.1146201E-008  0.3821247E+03  0.7957747E-01  0.3441959E+00
         13   -1    0    0    0    0  0.00000000000E+00  0.00000000000E+00  0.14999999963E+04  0.15000000000E+04  0.10566000000E+00 0. -1.
        994   -1    0    0    0    0 -0.00000000000E+00 -0.00000000000E+00  0.11368683772E-12  0.17120000000E+03  0.17120000000E+03 0.  0.
         13    1    1    2    0    0  0.54649045112E+01 -0.16917836593E+02  0.46709454197E+02  0.49978621947E+02  0.10566000000E+00 0. -1.
        994    1    1    2    0    0 -0.66405114965E+02  0.12420676624E+02  0.18365693471E+02  0.18496121539E+03  0.17120000000E+03 0.  0.
        998    1    1    2    0    0  0.60940210453E+02  0.44971599687E+01  0.14349248486E+04  0.14362601627E+04  0.10000000000E+02 0. -1.
</event>
<event>
 5    1  0.1146201E-008  0.3695166E+03  0.7957747E-01  0.3498116E+00
         13   -1    0    0    0    0  0.00000000000E+00  0.00000000000E+00  0.14999999963E+04  0.15000000000E+04  0.10566000000E+00 0. -1.
        994   -1    0    0    0    0 -0.00000000000E+00 -0.00000000000E+00  0.11368683772E-12  0.17120000000E+03  0.17120000000E+03 0.  0.
         13    1    1    2    0    0  0.24739857312E+01  0.15940096727E+02  0.71333722624E+01  0.17638124984E+02  0.10566000000E+00 0. -1.
        994    1    1    2    0    0 -0.22546569187E+01 -0.24173794031E+02  0.12743363426E+02  0.17338191690E+03  0.17120000000E+03 0.  0.
        998    1    1    2    0    0 -0.21932881250E+00  0.82336973037E+01  0.14801232606E+04  0.14801799581E+04  0.10000000000E+02 0. -1.
</event>
<event>
 5    1  0.1146201E-008  0.3733697E+03  0.7957747E-01  0.3480546E+00
         13   -1    0    0    0    0  0.00000000000E+00  0.00000000000E+00  0.14999999963E+04  0.15000000000E+04  0.10566000000E+00 0. -1.
        994   -1    0    0    0    0 -0.00000000000E+00 -0.00000000000E+00  0.11368683772E-12  0.17120000000E+03  0.17120000000E+03 0.  0.
         13    1    1    2    0    0 -0.21382358736E+02  0.16978934584E+02  0.46977127526E+02  0.54335542322E+02  0.10566000000E+00 0. -1.
        994    1    1    2    0    0  0.66916919968E+01 -0.16785352397E+02  0.86351814925E+01  0.17236743647E+03  0.17120000000E+03 0.  0.
        998    1    1    2    0    0  0.14690666739E+02 -0.19358218761E+00  0.14443876873E+04  0.14444970212E+04  0.10000000000E+02 0. -1.
</event>
<event>
 5    1  0.1146201E-008  0.3856827E+03  0.7957747E-01  0.3426782E+00
         13   -1    0    0    0    0  0.00000000000E+00  0.00000000000E+00  0.14999999963E+04  0.15000000000E+04  0.10566000000E+00 0.  1.
        994   -1    0    0    0    0 -0.00000000000E+00 -0.00000000000E+00  0.11368683772E-12  0.17120000000E+03  0.17120000000E+03 0.  0.
         13    1    1    2    0    0 -0.15389409927E+02  0.34628042938E+01  0.89974285766E+02  0.91346637676E+02  0.10566000000E+00 0.  1.
        994    1    1    2    0    0  0.19050407122E+02 -0.33744807869E+01  0.25207882177E+01  0.17230815275E+03  0.17120000000E+03 0.  0.
        998    1    1    2    0    0 -0.36609971954E+01 -0.88323506929E-01  0.14075049223E+04  0.14075452096E+04  0.10000000000E+02 0.  1.
</event>
<event>
 5    1  0.1146201E-008  0.3751864E+03  0.7957747E-01  0.3472390E+00
         13   -1    0    0    0    0  0.00000000000E+00  0.00000000000E+00  0.14999999963E+04  0.15000000000E+04  0.10566000000E+00 0. -1.
        994   -1    0    0    0    0 -0.00000000000E+00 -0.00000000000E+00  0.11368683772E-12  0.17120000000E+03  0.17120000000E+03 0.  0.
         13    1    1    2    0    0 -0.71239811972E+01 -0.35867541036E+02  0.13800817216E+03  0.14277078957E+03  0.10566000000E+00 0. -1.
        994    1    1    2    0    0 -0.90057466358E+02 -0.18093043144E+02  0.35809220488E+02  0.19755871464E+03  0.17120000000E+03 0.  0.
        998    1    1    2    0    0  0.97181447555E+02  0.53960584180E+02  0.13261826036E+04  0.13308704958E+04  0.10000000000E+02 0. -1.
</event>
<event>
 5    1  0.1146201E-008  0.3685943E+03  0.7957747E-01  0.3502376E+00
         13   -1    0    0    0    0  0.00000000000E+00  0.00000000000E+00  0.14999999963E+04  0.15000000000E+04  0.10566000000E+00 0.  1.
        994   -1    0    0    0    0 -0.00000000000E+00 -0.00000000000E+00  0.11368683772E-12  0.17120000000E+03  0.17120000000E+03 0.  0.
         13    1    1    2    0    0  0.10279640868E+02  0.70393170820E+01  0.28581053190E+01  0.12782915607E+02  0.10566000000E+00 0.  1.
        994    1    1    2    0    0 -0.10558955748E+02 -0.84380762008E+01  0.10833217588E+02  0.17207408660E+03  0.17120000000E+03 0.  0.
        998    1    1    2    0    0  0.27931487951E+00  0.13987591188E+01  0.14863086734E+04  0.14863429978E+04  0.10000000000E+02 0.  1.
</event>
<event>
 5    1  0.1146201E-008  0.3748389E+03  0.7957747E-01  0.3473943E+00
         13   -1    0    0    0    0  0.00000000000E+00  0.00000000000E+00  0.14999999963E+04  0.15000000000E+04  0.10566000000E+00 0.  1.
        994   -1    0    0    0    0 -0.00000000000E+00 -0.00000000000E+00  0.11368683772E-12  0.17120000000E+03  0.17120000000E+03 0.  0.
         13    1    1    2    0    0 -0.44933128782E+01 -0.95911167443E+02  0.47866893370E+03  0.48820395447E+03  0.10566000000E+00 0.  1.
        994    1    1    2    0    0  0.32726830601E+02  0.91652161155E+02  0.39688604204E+02  0.20088750431E+03  0.17120000000E+03 0.  0.
        998    1    1    2    0    0 -0.28233517723E+02  0.42590062872E+01  0.98164245837E+03  0.98210854122E+03  0.10000000000E+02 0.  1.
</event>
<event>
 5    1  0.1146201E-008  0.3841925E+03  0.7957747E-01  0.3433104E+00
         13   -1    0    0    0    0  0.00000000000E+00  0.00000000000E+00  0.14999999963E+04  0.15000000000E+04  0.10566000000E+00 0. -1.
        994   -1    0    0    0    0 -0.00000000000E+00 -0.00000000000E+00  0.11368683772E-12  0.17120000000E+03  0.17120000000E+03 0.  0.
         13    1    1    2    0    0  0.30067984298E+01  0.18389193239E+02  0.86750466122E+02  0.88729126002E+02  0.10566000000E+00 0. -1.
        994    1    1    2    0    0  0.41583191380E+01 -0.98469786631E+01  0.24084183132E+01  0.17155026985E+03  0.17120000000E+03 0.  0.
        998    1    1    2    0    0 -0.71651175678E+01 -0.85422145762E+01  0.14108411118E+04  0.14109206041E+04  0.10000000000E+02 0. -1.
</event>
<event>
 5    1  0.1146201E-008  0.3799549E+03  0.7957747E-01  0.3451355E+00
         13   -1    0    0    0    0  0.00000000000E+00  0.00000000000E+00  0.14999999963E+04  0.15000000000E+04  0.10566000000E+00 0. -1.
        994   -1    0    0    0    0 -0.00000000000E+00 -0.00000000000E+00  0.11368683772E-12  0.17120000000E+03  0.17120000000E+03 0.  0.
         13    1    1    2    0    0  0.21138439696E+02  0.12213147515E+02  0.73845001034E+02  0.77775895666E+02  0.10566000000E+00 0. -1.
        994    1    1    2    0    0 -0.59156549810E+01  0.20292843119E+01  0.42866802468E+01  0.17136781669E+03  0.17120000000E+03 0.  0.
        998    1    1    2    0    0 -0.15222784715E+02 -0.14242431827E+02  0.14218683150E+04  0.14220562876E+04  0.10000000000E+02 0. -1.
</event>
<event>
 5    1  0.1146201E-008  0.2754579E+03  0.7957747E-01  0.4088469E+00
         13   -1    0    0    0    0  0.00000000000E+00  0.00000000000E+00  0.14999999963E+04  0.15000000000E+04  0.10566000000E+00 0. -1.
        994   -1    0    0    0    0 -0.00000000000E+00 -0.00000000000E+00  0.11368683772E-12  0.17120000000E+03  0.17120000000E+03 0.  0.
         13    1    1    2    0    0 -0.17026587756E+02 -0.22908523254E+03  0.59646654008E+03  0.63917313230E+03  0.10566000000E+00 0. -1.
        994    1    1    2    0    0  0.11002018896E+03  0.10747452785E+03  0.17935341007E+03  0.29177440227E+03  0.17120000000E+03 0.  0.
        998    1    1    2    0    0 -0.92993601204E+02  0.12161070469E+03  0.72418004613E+03  0.74025246543E+03  0.10000000000E+02 0. -1.
</event>
<event>
 5    1  0.1146201E-008  0.3831747E+03  0.7957747E-01  0.3437450E+00
         13   -1    0    0    0    0  0.00000000000E+00  0.00000000000E+00  0.14999999963E+04  0.15000000000E+04  0.10566000000E+00 0.  1.
        994   -1    0    0    0    0 -0.00000000000E+00 -0.00000000000E+00  0.11368683772E-12  0.17120000000E+03  0.17120000000E+03 0.  0.
         13    1    1    2    0    0  0.13357507813E+02  0.53475988995E+00  0.34918850087E+02  0.37390456517E+02  0.10566000000E+00 0.  1.
        994    1    1    2    0    0 -0.53644421796E+01  0.58799890115E+01  0.27486697713E+01  0.17140696222E+03  0.17120000000E+03 0.  0.
        998    1    1    2    0    0 -0.79930656338E+01 -0.64147489014E+01  0.14623324764E+04  0.14624025813E+04  0.10000000000E+02 0.  1.
</event>
<event>
 5    1  0.1146201E-008  0.3790684E+03  0.7957747E-01  0.3455225E+00
         13   -1    0    0    0    0  0.00000000000E+00  0.00000000000E+00  0.14999999963E+04  0.15000000000E+04  0.10566000000E+00 0.  1.
        994   -1    0    0    0    0 -0.00000000000E+00 -0.00000000000E+00  0.11368683772E-12  0.17120000000E+03  0.17120000000E+03 0.  0.
         13    1    1    2    0    0  0.64479405814E+02  0.48122964305E+02  0.42581294777E+03  0.43334754080E+03  0.10566000000E+00 0.  1.
        994    1    1    2    0    0 -0.80046377140E+02 -0.51095451344E+02  0.35464206046E+02  0.19896059296E+03  0.17120000000E+03 0.  0.
        998    1    1    2    0    0  0.15566971326E+02  0.29724870391E+01  0.10387228425E+04  0.10388918662E+04  0.10000000000E+02 0. -1.
</event>
<event>
 5    1  0.1146201E-008  0.3787549E+03  0.7957747E-01  0.3456598E+00
         13   -1    0    0    0    0  0.00000000000E+00  0.00000000000E+00  0.14999999963E+04  0.15000000000E+04  0.10566000000E+00 0. -1.
        994   -1    0    0    0    0 -0.00000000000E+00 -0.00000000000E+00  0.11368683772E-12  0.17120000000E+03  0.17120000000E+03 0.  0.
         13    1    1    2    0    0 -0.30812617662E+02  0.29744186288E+01  0.96063191165E+02  0.10092775849E+03  0.10566000000E+00 0. -1.
        994    1    1    2    0    0  0.23405001087E+02 -0.20319505899E+02  0.79944523730E+01  0.17416666634E+03  0.17120000000E+03 0.  0.
        998    1    1    2    0    0  0.74076165742E+01  0.17345087270E+02  0.13959423527E+04  0.13961055752E+04  0.10000000000E+02 0. -1.
</event>
<event>
 5    1  0.1146201E-008  0.3830220E+03  0.7957747E-01  0.3438105E+00
         13   -1    0    0    0    0  0.00000000000E+00  0.00000000000E+00  0.14999999963E+04  0.15000000000E+04  0.10566000000E+00 0. -1.
        994   -1    0    0    0    0 -0.00000000000E+00 -0.00000000000E+00  0.11368683772E-12  0.17120000000E+03  0.17120000000E+03 0.  0.
         13    1    1    2    0    0  0.21783866774E+01  0.15487294597E+02  0.48429270550E+02  0.50892112085E+02  0.10566000000E+00 0. -1.
        994    1    1    2    0    0 -0.82854041017E+01  0.23992592268E+01  0.28616832437E+01  0.17144104992E+03  0.17120000000E+03 0.  0.
        998    1    1    2    0    0  0.61070174243E+01 -0.17886553824E+02  0.14487090425E+04  0.14488668380E+04  0.10000000000E+02 0. -1.
</event>
<event>
 5    1  0.1146201E-008  0.3811831E+03  0.7957747E-01  0.3446023E+00
         13   -1    0    0    0    0  0.00000000000E+00  0.00000000000E+00  0.14999999963E+04  0.15000000000E+04  0.10566000000E+00 0.  1.
        994   -1    0    0    0    0 -0.00000000000E+00 -0.00000000000E+00  0.11368683772E-12  0.17120000000E+03  0.17120000000E+03 0.  0.
         13    1    1    2    0    0 -0.23602962690E+02 -0.17113259373E+01  0.80543441424E+02  0.83948112574E+02  0.10566000000E+00 0.  1.
        994    1    1    2    0    0  0.72900441603E+01  0.16088774898E+02  0.45767055207E+01  0.17216962466E+03  0.17120000000E+03 0.  0.
        998    1    1    2    0    0  0.16312918530E+02 -0.14377448961E+02  0.14148798493E+04  0.14150822628E+04  0.10000000000E+02 0.  1.
</event>
<event>
 5    1  0.1146201E-008  0.3765811E+03  0.7957747E-01  0.3466181E+00
         13   -1    0    0    0    0  0.00000000000E+00  0.00000000000E+00  0.14999999963E+04  0.15000000000E+04  0.10566000000E+00 0.  1.
        994   -1    0    0    0    0 -0.00000000000E+00 -0.00000000000E+00  0.11368683772E-12  0.17120000000E+03  0.17120000000E+03 0.  0.
         13    1    1    2    0    0  0.20527030711E+02 -0.16014547526E+02  0.56638553486E+02  0.62335877529E+02  0.10566000000E+00 0.  1.
        994    1    1    2    0    0 -0.16005883496E+02 -0.25775356344E+01  0.67581855368E+01  0.17209864923E+03  0.17120000000E+03 0.  0.
        998    1    1    2    0    0 -0.45211472144E+01  0.18592083160E+02  0.14366032573E+04  0.14367654732E+04  0.10000000000E+02 0.  1.
</event>
<event>
 5    1  0.1146201E-008  0.3774733E+03  0.7957747E-01  0.3462235E+00
         13   -1    0    0    0    0  0.00000000000E+00  0.00000000000E+00  0.14999999963E+04  0.15000000000E+04  0.10566000000E+00 0. -1.
        994   -1    0    0    0    0 -0.00000000000E+00 -0.00000000000E+00  0.11368683772E-12  0.17120000000E+03  0.17120000000E+03 0.  0.
         13    1    1    2    0    0 -0.22667200228E+02  0.37993955454E+02  0.17132979511E+03  0.17694985865E+03  0.10566000000E+00 0. -1.
        994    1    1    2    0    0  0.14988018639E+02 -0.29504218883E+02  0.91147582536E+01  0.17460715464E+03  0.17120000000E+03 0.  0.
        998    1    1    2    0    0  0.76791815886E+01 -0.84897365703E+01  0.13195554429E+04  0.13196429867E+04  0.10000000000E+02 0. -1.
</event>
<event>
 5    1  0.1146201E-008  0.3861193E+03  0.7957747E-01  0.3424939E+00
         13   -1    0    0    0    0  0.00000000000E+00  0.00000000000E+00  0.14999999963E+04  0.15000000000E+04  0.10566000000E+00 0. -1.
        994   -1    0    0    0    0 -0.00000000000E+00 -0.00000000000E+00  0.11368683772E-12  0.17120000000E+03  0.17120000000E+03 0.  0.
         13    1    1    2    0    0  0.10305271343E+02 -0.72432928026E+01  0.66725515913E+02  0.67904120243E+02  0.10566000000E+00 0. -1.
        994    1    1    2    0    0 -0.21650368519E+02  0.95815636422E+01  0.29143805686E+01  0.17285392224E+03  0.17120000000E+03 0.  0.
        998    1    1    2    0    0  0.11345097175E+02 -0.23382708397E+01  0.14303600998E+04  0.14304419575E+04  0.10000000000E+02 0. -1.
</event>
<event>
 5    1  0.1146201E-008  0.3750614E+03  0.7957747E-01  0.3472948E+00
         13   -1    0    0    0    0  0.00000000000E+00  0.00000000000E+00  0.14999999963E+04  0.15000000000E+04  0.10566000000E+00 0.  1.
        994   -1    0    0    0    0 -0.00000000000E+00 -0.00000000000E+00  0.11368683772E-12  0.17120000000E+03  0.17120000000E+03 0.  0.
         13    1    1    2    0    0 -0.90804811462E+01 -0.15077206169E+02  0.21905848031E+02  0.28100794041E+02  0.10566000000E+00 0.  1.
        994    1    1    2    0    0 -0.10486848479E+02 -0.11834382466E+02  0.74973611383E+01  0.17209205973E+03  0.17120000000E+03 0.  0.
        998    1    1    2    0    0  0.19567329625E+02  0.26911588635E+02  0.14705967871E+04  0.14710071462E+04  0.10000000000E+02 0.  1.
</event>
<event>
 5    1  0.1146201E-008  0.3708405E+03  0.7957747E-01  0.3492037E+00
         13   -1    0    0    0    0  0.00000000000E+00  0.00000000000E+00  0.14999999963E+04  0.15000000000E+04  0.10566000000E+00 0.  1.
        994   -1    0    0    0    0 -0.00000000000E+00 -0.00000000000E+00  0.11368683772E-12  0.17120000000E+03  0.17120000000E+03 0.  0.
         13    1    1    2    0    0 -0.63969164988E+01 -0.11833990960E+02  0.61693310344E+01  0.14799854465E+02  0.10566000000E+00 0.  1.
        994    1    1    2    0    0  0.56081407911E+01  0.11953365029E+02  0.94316533758E+01  0.17196723602E+03  0.17120000000E+03 0.  0.
        998    1    1    2    0    0  0.78877570774E+00 -0.11937406894E+00  0.14843990119E+04  0.14844329095E+04  0.10000000000E+02 0.  1.
</event>
<event>
 5    1  0.1146201E-008  0.4124178E+03  0.7957747E-01  0.3321111E+00
         13   -1    0    0    0    0  0.00000000000E+00  0.00000000000E+00  0.14999999963E+04  0.15000000000E+04  0.10566000000E+00 0. -1.
        994   -1    0    0    0    0 -0.00000000000E+00 -0.00000000000E+00  0.11368683772E-12  0.17120000000E+03  0.17120000000E+03 0.  0.
         13    1    1    2    0    0  0.15788050864E+01 -0.42807174660E+02  0.13443616185E+02  0.44896423110E+02  0.10566000000E+00 0. -1.
        994    1    1    2    0    0 -0.43427446637E+02  0.42753855198E+01  0.43313996021E+02  0.18190592155E+03  0.17120000000E+03 0.  0.
        998    1    1    2    0    0  0.41848641551E+02  0.38531789141E+02  0.14432423841E+04  0.14443976553E+04  0.10000000000E+02 0. -1.
</event>
<event>
 5    1  0.1146201E-008  0.3839407E+03  0.7957747E-01  0.3434177E+00
         13   -1    0    0    0    0  0.00000000000E+00  0.00000000000E+00  0.14999999963E+04  0.15000000000E+04  0.10566000000E+00 0. -1.
        994   -1    0    0    0    0 -0.00000000000E+00 -0.00000000000E+00  0.11368683772E-12  0.17120000000E+03  0.17120000000E+03 0.  0.
         13    1    1    2    0    0  0.21036817593E+02  0.12237873057E+02  0.11604608749E+03  0.11857073339E+03  0.10566000000E+00 0. -1.
        994    1    1    2    0    0 -0.36770652104E+02 -0.12013657928E+02  0.71108023798E+01  0.17565993380E+03  0.17120000000E+03 0.  0.
        998    1    1    2    0    0  0.15733834511E+02 -0.22421512844E+00  0.13768431064E+04  0.13769693328E+04  0.10000000000E+02 0. -1.
</event>
<event>
 5    1  0.1146201E-008  0.3939693E+03  0.7957747E-01  0.3392501E+00
         13   -1    0    0    0    0  0.00000000000E+00  0.00000000000E+00  0.14999999963E+04  0.15000000000E+04  0.10566000000E+00 0.  1.
        994   -1    0    0    0    0 -0.00000000000E+00 -0.00000000000E+00  0.11368683772E-12  0.17120000000E+03  0.17120000000E+03 0.  0.
         13    1    1    2    0    0  0.12146313960E+03  0.76559693564E+02  0.51159542041E+03  0.53136105080E+03  0.10566000000E+00 0.  1.
        994    1    1    2    0    0 -0.37659743405E+02 -0.47183170948E+02  0.38284286432E+02  0.18552529337E+03  0.17120000000E+03 0.  0.
        998    1    1    2    0    0 -0.83803396193E+02 -0.29376522616E+02  0.95012028943E+03  0.95431365582E+03  0.10000000000E+02 0.  1.
</event>
<event>
 5    1  0.1146201E-008  0.3782668E+03  0.7957747E-01  0.3458740E+00
         13   -1    0    0    0    0  0.00000000000E+00  0.00000000000E+00  0.14999999963E+04  0.15000000000E+04  0.10566000000E+00 0. -1.
        994   -1    0    0    0    0 -0.00000000000E+00 -0.00000000000E+00  0.11368683772E-12  0.17120000000E+03  0.17120000000E+03 0.  0.
         13    1    1    2    0    0 -0.15243882259E+02 -0.37930181525E+01  0.22184412604E+02  0.27183124538E+02  0.10566000000E+00 0. -1.
        994    1    1    2    0    0  0.16728380730E+02  0.17697315929E+01  0.59625695435E+01  0.17212775171E+03  0.17120000000E+03 0.  0.
        998    1    1    2    0    0 -0.14844984714E+01  0.20232865596E+01  0.14718530141E+04  0.14718891238E+04  0.10000000000E+02 0. -1.
</event>
<event>
 5    1  0.1146201E-008  0.3791520E+03  0.7957747E-01  0.3454859E+00
         13   -1    0    0    0    0  0.00000000000E+00  0.00000000000E+00  0.14999999963E+04  0.15000000000E+04  0.10566000000E+00 0. -1.
        994   -1    0    0    0    0 -0.00000000000E+00 -0.00000000000E+00  0.11368683772E-12  0.17120000000E+03  0.17120000000E+03 0.  0.
         13    1    1    2    0    0  0.30735523957E+02  0.25808711621E+02  0.17572005515E+03  0.18024514133E+03  0.10566000000E+00 0. -1.
        994    1    1    2    0    0 -0.13007388238E+02 -0.19904936336E+02  0.64595369434E+01  0.17296405481E+03  0.17120000000E+03 0.  0.
        998    1    1    2    0    0 -0.17728135719E+02 -0.59037752846E+01  0.13178204042E+04  0.13179908039E+04  0.10000000000E+02 0. -1.
</event>
<event>
 5    1  0.1146201E-008  0.3841251E+03  0.7957747E-01  0.3433391E+00
         13   -1    0    0    0    0  0.00000000000E+00  0.00000000000E+00  0.14999999963E+04  0.15000000000E+04  0.10566000000E+00 0. -1.
        994   -1    0    0    0    0 -0.00000000000E+00 -0.00000000000E+00  0.11368683772E-12  0.17120000000E+03  0.17120000000E+03 0.  0.
         13    1    1    2    0    0 -0.31032223387E+01 -0.15033215012E+02  0.54289340682E+02  0.56417827131E+02  0.10566000000E+00 0. -1.
        994    1    1    2    0    0  0.10814172022E+01  0.18491967066E+02  0.31975866486E+01  0.17222887931E+03  0.17120000000E+03 0.  0.
        998    1    1    2    0    0  0.20218051365E+01 -0.34587520542E+01  0.14425130689E+04  0.14425532936E+04  0.10000000000E+02 0. -1.
</event>
<event>
 5    1  0.1146201E-008  0.3776870E+03  0.7957747E-01  0.3461292E+00
         13   -1    0    0    0    0  0.00000000000E+00  0.00000000000E+00  0.14999999963E+04  0.15000000000E+04  0.10566000000E+00 0.  1.
        994   -1    0    0    0    0 -0.00000000000E+00 -0.00000000000E+00  0.11368683772E-12  0.17120000000E+03  0.17120000000E+03 0.  0.
         13    1    1    2    0    0  0.46587133898E+00 -0.11186781720E+02  0.89942491755E+01  0.14362061259E+02  0.10566000000E+00 0.  1.
        994    1    1    2    0    0  0.98900436843E+00  0.28378840866E+02  0.80263779757E+01  0.17372449304E+03  0.17120000000E+03 0.  0.
        998    1    1    2    0    0 -0.14548757074E+01 -0.17192059147E+02  0.14829793691E+04  0.14831134457E+04  0.10000000000E+02 0.  1.
</event>
<event>
 5    1  0.1146201E-008  0.3712697E+03  0.7957747E-01  0.3490076E+00
         13   -1    0    0    0    0  0.00000000000E+00  0.00000000000E+00  0.14999999963E+04  0.15000000000E+04  0.10566000000E+00 0.  1.
        994   -1    0    0    0    0 -0.00000000000E+00 -0.00000000000E+00  0.11368683772E-12  0.17120000000E+03  0.17120000000E+03 0.  0.
         13    1    1    2    0    0 -0.23883412077E+02 -0.14715327626E+01  0.30854127737E+02  0.39045757050E+02  0.10566000000E+00 0.  1.
        994    1    1    2    0    0  0.28797101678E+01 -0.19703827380E+02  0.99731804724E+01  0.17264251467E+03  0.17120000000E+03 0.  0.
        998    1    1    2    0    0  0.21003701909E+02  0.21175360143E+02  0.14591726881E+04  0.14595117283E+04  0.10000000000E+02 0.  1.
</event>
<event>
 5    1  0.1146201E-008  0.3689033E+03  0.7957747E-01  0.3500946E+00
         13   -1    0    0    0    0  0.00000000000E+00  0.00000000000E+00  0.14999999963E+04  0.15000000000E+04  0.10566000000E+00 0.  1.
        994   -1    0    0    0    0 -0.00000000000E+00 -0.00000000000E+00  0.11368683772E-12  0.17120000000E+03  0.17120000000E+03 0.  0.
         13    1    1    2    0    0 -0.35852690134E+02  0.15590255977E+02  0.80000314406E+02  0.89042309833E+02  0.10566000000E+00 0.  1.
        994    1    1    2    0    0 -0.43752422122E+01  0.28592791773E+02  0.13279490954E+02  0.17413349869E+03  0.17120000000E+03 0.  0.
        998    1    1    2    0    0  0.40227932346E+02 -0.44183047749E+02  0.14067201909E+04  0.14080241915E+04  0.10000000000E+02 0.  1.
</event>
<event>
 5    1  0.1146201E-008  0.3725120E+03  0.7957747E-01  0.3484425E+00
         13   -1    0    0    0    0  0.00000000000E+00  0.00000000000E+00  0.14999999963E+04  0.15000000000E+04  0.10566000000E+00 0. -1.
        994   -1    0    0    0    0 -0.00000000000E+00 -0.00000000000E+00  0.11368683772E-12  0.17120000000E+03  0.17120000000E+03 0.  0.
         13    1    1    2    0    0 -0.17059288706E+02  0.65902957581E+02  0.24024317633E+03  0.24970185038E+03  0.10566000000E+00 0. -1.
        994    1    1    2    0    0  0.55203640211E+02 -0.59122223684E+02  0.30735181568E+02  0.19182536488E+03  0.17120000000E+03 0.  0.
        998    1    1    2    0    0 -0.38144351505E+02 -0.67807338977E+01  0.12290216384E+04  0.12296727847E+04  0.10000000000E+02 0.  1.
</event>
<event>
 5    1  0.1146201E-008  0.3858514E+03  0.7957747E-01  0.3426069E+00
         13   -1    0    0    0    0  0.00000000000E+00  0.00000000000E+00  0.14999999963E+04  0.15000000000E+04  0.10566000000E+00 0.  1.
        994   -1    0    0    0    0 -0.00000000000E+00 -0.00000000000E+00  0.11368683772E-12  0.17120000000E+03  0.17120000000E+03 0.  0.
         13    1    1    2    0    0  0.25325983136E+00 -0.10886330791E+02  0.49154337634E+02  0.50346165802E+02  0.10566000000E+00 0.  1.
        994    1    1    2    0    0  0.51890623042E+01  0.86921483420E+01  0.15441915786E+01  0.17150598922E+03  0.17120000000E+03 0.  0.
        998    1    1    2    0    0 -0.54423221355E+01  0.21941824487E+01  0.14493014671E+04  0.14493478450E+04  0.10000000000E+02 0.  1.
</event>
<event>
 5    1  0.1146201E-008  0.3779555E+03  0.7957747E-01  0.3460109E+00
         13   -1    0    0    0    0  0.00000000000E+00  0.00000000000E+00  0.14999999963E+04  0.15000000000E+04  0.10566000000E+00 0. -1.
        994   -1    0    0    0    0 -0.00000000000E+00 -0.00000000000E+00  0.11368683772E-12  0.17120000000E+03  0.17120000000E+03 0.  0.
         13    1    1    2    0    0 -0.49524991970E+02  0.15947545496E+03  0.95521796656E+03  0.96970434688E+03  0.10566000000E+00 0. -1.
        994    1    1    2    0    0  0.56830629717E+02 -0.15165695074E+03  0.99235031011E+02  0.25570800254E+03  0.17120000000E+03 0.  0.
        998    1    1    2    0    0 -0.73056377468E+01 -0.78185042235E+01  0.44554699871E+03  0.44578765058E+03  0.10000000000E+02 0.  1.
</event>
<event>
 5    1  0.1146201E-008  0.3847013E+03  0.7957747E-01  0.3430940E+00
         13   -1    0    0    0    0  0.00000000000E+00  0.00000000000E+00  0.14999999963E+04  0.15000000000E+04  0.10566000000E+00 0. -1.
        994   -1    0    0    0    0 -0.00000000000E+00 -0.00000000000E+00  0.11368683772E-12  0.17120000000E+03  0.17120000000E+03 0.  0.
         13    1    1    2    0    0 -0.43444600668E+01 -0.18399730243E+02  0.11131781855E+03  0.11291187846E+03  0.10566000000E+00 0. -1.
        994    1    1    2    0    0 -0.11546597274E+02  0.21950018628E+01  0.22333815588E+01  0.17161751057E+03  0.17120000000E+03 0.  0.
        998    1    1    2    0    0  0.15891057341E+02  0.16204728380E+02  0.13864487962E+04  0.13866706110E+04  0.10000000000E+02 0. -1.
</event>
<event>
 5    1  0.1146201E-008  0.3748325E+03  0.7957747E-01  0.3473972E+00
         13   -1    0    0    0    0  0.00000000000E+00  0.00000000000E+00  0.14999999963E+04  0.15000000000E+04  0.10566000000E+00 0. -1.
        994   -1    0    0    0    0 -0.00000000000E+00 -0.00000000000E+00  0.11368683772E-12  0.17120000000E+03  0.17120000000E+03 0.  0.
         13    1    1    2    0    0 -0.42101942606E+01 -0.27496912517E+02  0.52585188014E+02  0.59489655371E+02  0.10566000000E+00 0. -1.
        994    1    1    2    0    0  0.63430975965E+01  0.29145119547E+02  0.97966072698E+01  0.17405483732E+03  0.17120000000E+03 0.  0.
        998    1    1    2    0    0 -0.21329033359E+01 -0.16482070301E+01  0.14376182010E+04  0.14376555073E+04  0.10000000000E+02 0. -1.
</event>
<event>
 5    1  0.1146201E-008  0.3812460E+03  0.7957747E-01  0.3445751E+00
         13   -1    0    0    0    0  0.00000000000E+00  0.00000000000E+00  0.14999999963E+04  0.15000000000E+04  0.10566000000E+00 0.  1.
        994   -1    0    0    0    0 -0.00000000000E+00 -0.00000000000E+00  0.11368683772E-12  0.17120000000E+03  0.17120000000E+03 0.  0.
         13    1    1    2    0    0 -0.17421964426E+02 -0.79439424040E+01  0.51460123014E+02  0.54907071402E+02  0.10566000000E+00 0.  1.
        994    1    1    2    0    0  0.13079371078E+02 -0.32739177709E+01  0.41109477861E+01  0.17177930136E+03  0.17120000000E+03 0.  0.
        998    1    1    2    0    0  0.43425933479E+01  0.11217860175E+02  0.14444289255E+04  0.14445136272E+04  0.10000000000E+02 0.  1.
</event>
<event>
 5    1  0.1146201E-008  0.3846091E+03  0.7957747E-01  0.3431332E+00
         13   -1    0    0    0    0  0.00000000000E+00  0.00000000000E+00  0.14999999963E+04  0.15000000000E+04  0.10566000000E+00 0. -1.
        994   -1    0    0    0    0 -0.00000000000E+00 -0.00000000000E+00  0.11368683772E-12  0.17120000000E+03  0.17120000000E+03 0.  0.
         13    1    1    2    0    0  0.13680482544E+02 -0.46434736843E+01  0.57747065472E+02  0.59526903037E+02  0.10566000000E+00 0. -1.
        994    1    1    2    0    0 -0.71922504916E+01  0.14295275015E+01  0.20014096097E+01  0.17136866008E+03  0.17120000000E+03 0.  0.
        998    1    1    2    0    0 -0.64882320522E+01  0.32139461827E+01  0.14402515212E+04  0.14403044369E+04  0.10000000000E+02 0. -1.
</event>
<event>
 5    1  0.1146201E-008  0.2672381E+03  0.7957747E-01  0.4161780E+00
         13   -1    0    0    0    0  0.00000000000E+00  0.00000000000E+00  0.14999999963E+04  0.15000000000E+04  0.10566000000E+00 0. -1.
        994   -1    0    0    0    0 -0.00000000000E+00 -0.00000000000E+00  0.11368683772E-12  0.17120000000E+03  0.17120000000E+03 0.  0.
         13    1    1    2    0    0 -0.84667988212E+02  0.11324850579E+03  0.61750565323E+03  0.63348807031E+03  0.10566000000E+00 0. -1.
        994    1    1    2    0    0  0.41810912189E+02 -0.14106600729E+00  0.32632238283E+02  0.17922744001E+03  0.17120000000E+03 0.  0.
        998    1    1    2    0    0  0.42857076024E+02 -0.11310743978E+03  0.84986210477E+03  0.85848448968E+03  0.10000000000E+02 0. -1.
</event>
<event>
 5    1  0.1146201E-008  0.3794535E+03  0.7957747E-01  0.3453541E+00
         13   -1    0    0    0    0  0.00000000000E+00  0.00000000000E+00  0.14999999963E+04  0.15000000000E+04  0.10566000000E+00 0. -1.
        994   -1    0    0    0    0 -0.00000000000E+00 -0.00000000000E+00  0.11368683772E-12  0.17120000000E+03  0.17120000000E+03 0.  0.
         13    1    1    2    0    0 -0.43376233365E+01 -0.58344141971E+02  0.35051485175E+03  0.35536393506E+03  0.10566000000E+00 0. -1.
        994    1    1    2    0    0  0.12207291288E+02  0.42598790901E+02  0.11013764630E+02  0.17718470012E+03  0.17120000000E+03 0.  0.
        998    1    1    2    0    0 -0.78696679516E+01  0.15745351070E+02  0.11384713799E+04  0.11386513648E+04  0.10000000000E+02 0. -1.
</event>
<event>
 5    1  0.1146201E-008  0.3808660E+03  0.7957747E-01  0.3447397E+00
         13   -1    0    0    0    0  0.00000000000E+00  0.00000000000E+00  0.14999999963E+04  0.15000000000E+04  0.10566000000E+00 0.  1.
        994   -1    0    0    0    0 -0.00000000000E+00 -0.00000000000E+00  0.11368683772E-12  0.17120000000E+03  0.17120000000E+03 0.  0.
         13    1    1    2    0    0  0.85477572024E+01 -0.70116130853E+02  0.38653511050E+03  0.39293604921E+03  0.10566000000E+00 0.  1.
        994    1    1    2    0    0  0.34382382432E+02  0.10353762446E+03  0.44446248836E+02  0.20781505464E+03  0.17120000000E+03 0.  0.
        998    1    1    2    0    0 -0.42930139634E+02 -0.33421493606E+02  0.10690186369E+04  0.10704488961E+04  0.10000000000E+02 0.  1.
</event>
<event>
 5    1  0.1146201E-008  0.3776393E+03  0.7957747E-01  0.3461502E+00
         13   -1    0    0    0    0  0.00000000000E+00  0.00000000000E+00  0.14999999963E+04  0.15000000000E+04  0.10566000000E+00 0. -1.
        994   -1    0    0    0    0 -0.00000000000E+00 -0.00000000000E+00  0.11368683772E-12  0.17120000000E+03  0.17120000000E+03 0.  0.
         13    1    1    2    0    0  0.11202875588E+02  0.19990388913E+01  0.97583701282E+01  0.14991248431E+02  0.10566000000E+00 0. -1.
        994    1    1    2    0    0 -0.80663556600E+01 -0.15379993961E+01  0.55568151415E+01  0.17148687918E+03  0.17120000000E+03 0.  0.
        998    1    1    2    0    0 -0.31365199279E+01 -0.46103949514E+00  0.14846848110E+04  0.14847218724E+04  0.10000000000E+02 0. -1.
</event>
<event>
 5    1  0.1146201E-008  0.3747894E+03  0.7957747E-01  0.3474165E+00
         13   -1    0    0    0    0  0.00000000000E+00  0.00000000000E+00  0.14999999963E+04  0.15000000000E+04  0.10566000000E+00 0.  1.
        994   -1    0    0    0    0 -0.00000000000E+00 -0.00000000000E+00  0.11368683772E-12  0.17120000000E+03  0.17120000000E+03 0.  0.
         13    1    1    2    0    0 -0.24649891868E+02  0.95521814213E+02  0.35432836618E+03  0.36780516093E+03  0.10566000000E+00 0.  1.
        994    1    1    2    0    0  0.22652203767E+02 -0.54912768448E+02  0.26148910096E+02  0.18308943163E+03  0.17120000000E+03 0.  0.
        998    1    1    2    0    0  0.19976881009E+01 -0.40609045765E+02  0.11195227200E+04  0.11203054074E+04  0.10000000000E+02 0.  1.
</event>
<event>
 5    1  0.1146201E-008  0.3832230E+03  0.7957747E-01  0.3437244E+00
         13   -1    0    0    0    0  0.00000000000E+00  0.00000000000E+00  0.14999999963E+04  0.15000000000E+04  0.10566000000E+00 0.  1.
        994   -1    0    0    0    0 -0.00000000000E+00 -0.00000000000E+00  0.11368683772E-12  0.17120000000E+03  0.17120000000E+03 0.  0.
         13    1    1    2    0    0 -0.30858336873E+01 -0.98299803637E+01  0.20014149587E+02  0.22510624852E+02  0.10566000000E+00 0.  1.
        994    1    1    2    0    0  0.69723432106E+01  0.82855605679E+01  0.29029378998E+01  0.17156669587E+03  0.17120000000E+03 0.  0.
        998    1    1    2    0    0 -0.38865095233E+01  0.15444197959E+01  0.14770829088E+04  0.14771226793E+04  0.10000000000E+02 0.  1.
</event>
<event>
 5    1  0.1146201E-008  0.4016408E+03  0.7957747E-01  0.3362024E+00
         13   -1    0    0    0    0  0.00000000000E+00  0.00000000000E+00  0.14999999963E+04  0.15000000000E+04  0.10566000000E+00 0.  1.
        994   -1    0    0    0    0 -0.00000000000E+00 -0.00000000000E+00  0.11368683772E-12  0.17120000000E+03  0.17120000000E+03 0.  0.
         13    1    1    2    0    0 -0.30885941503E+02 -0.33056821454E+02  0.24293423980E+02  0.51350525215E+02  0.10566000000E+00 0.  1.
        994    1    1    2    0    0  0.40448990003E+02  0.19630406429E+02  0.36770641392E+02  0.18078438461E+03  0.17120000000E+03 0.  0.
        998    1    1    2    0    0 -0.95630485001E+01  0.13426415024E+02  0.14389359309E+04  0.14390650902E+04  0.10000000000E+02 0.  1.
</event>
<event>
 5    1  0.1146201E-008  0.3836835E+03  0.7957747E-01  0.3435275E+00
         13   -1    0    0    0    0  0.00000000000E+00  0.00000000000E+00  0.14999999963E+04  0.15000000000E+04  0.10566000000E+00 0. -1.
        994   -1    0    0    0    0 -0.00000000000E+00 -0.00000000000E+00  0.11368683772E-12  0.17120000000E+03  0.17120000000E+03 0.  0.
         13    1    1    2    0    0  0.10517152233E+02  0.11488053509E+01  0.23992488359E+02  0.26221763986E+02  0.10566000000E+00 0. -1.
        994    1    1    2    0    0 -0.37487234246E+01 -0.58078347654E+01  0.24430267595E+01  0.17135691481E+03  0.17120000000E+03 0.  0.
        998    1    1    2    0    0 -0.67684288087E+01  0.46590294145E+01  0.14735644812E+04  0.14736213212E+04  0.10000000000E+02 0. -1.
</event>
<event>
 5    1  0.1146201E-008  0.3755269E+03  0.7957747E-01  0.3470870E+00
         13   -1    0    0    0    0  0.00000000000E+00  0.00000000000E+00  0.14999999963E+04  0.15000000000E+04  0.10566000000E+00 0. -1.
        994   -1    0    0    0    0 -0.00000000000E+00 -0.00000000000E+00  0.11368683772E-12  0.17120000000E+03  0.17120000000E+03 0.  0.
         13    1    1    2    0    0  0.38115750833E+02  0.37034866089E+02  0.21230895480E+03  0.21885953308E+03  0.10566000000E+00 0. -1.
        994    1    1    2    0    0 -0.33079346919E+02 -0.16495038647E+02  0.11058660390E+02  0.17549377044E+03  0.17120000000E+03 0.  0.
        998    1    1    2    0    0 -0.50364039143E+01 -0.20539827442E+02  0.12766323811E+04  0.12768466965E+04  0.10000000000E+02 0. -1.
</event>
<event>
 5    1  0.1146201E-008  0.3722156E+03  0.7957747E-01  0.3485770E+00
         13   -1    0    0    0    0  0.00000000000E+00  0.00000000000E+00  0.14999999963E+04  0.15000000000E+04  0.10566000000E+00 0.  1.
        994   -1    0    0    0    0 -0.00000000000E+00 -0.00000000000E+00  0.11368683772E-12  0.17120000000E+03  0.17120000000E+03 0.  0.
         13    1    1    2    0    0  0.25571284611E+01 -0.78402676789E+02  0.22924356301E+03  0.24229350173E+03  0.10566000000E+00 0.  1.
        994    1    1    2    0    0  0.57481058859E+02  0.67890503848E+02  0.40545633324E+02  0.19714609056E+03  0.17120000000E+03 0.  0.
        998    1    1    2    0    0 -0.60038187320E+02  0.10512172941E+02  0.12302107999E+04  0.12317604077E+04  0.10000000000E+02 0.  1.
</event>
<event>
 5    1  0.1146201E-008  0.3858307E+03  0.7957747E-01  0.3426157E+00
         13   -1    0    0    0    0  0.00000000000E+00  0.00000000000E+00  0.14999999963E+04  0.15000000000E+04  0.10566000000E+00 0.  1.
        994   -1    0    0    0    0 -0.00000000000E+00 -0.00000000000E+00  0.11368683772E-12  0.17120000000E+03  0.17120000000E+03 0.  0.
         13    1    1    2    0    0  0.12786764150E+02  0.34276261528E+01  0.71682274179E+02  0.72894509766E+02  0.10566000000E+00 0.  1.
        994    1    1    2    0    0 -0.13404207592E+02  0.90036447659E+01  0.20739178854E+01  0.17197232200E+03  0.17120000000E+03 0.  0.
        998    1    1    2    0    0  0.61744344155E+00 -0.12431270919E+02  0.14262438042E+04  0.14263331682E+04  0.10000000000E+02 0.  1.
</event>
<event>
 5    1  0.1146201E-008  0.3735506E+03  0.7957747E-01  0.3479730E+00
         13   -1    0    0    0    0  0.00000000000E+00  0.00000000000E+00  0.14999999963E+04  0.15000000000E+04  0.10566000000E+00 0.  1.
        994   -1    0    0    0    0 -0.00000000000E+00 -0.00000000000E+00  0.11368683772E-12  0.17120000000E+03  0.17120000000E+03 0.  0.
         13    1    1    2    0    0  0.18127948158E+02  0.79338263777E+01  0.23336100802E+02  0.30596615338E+02  0.10566000000E+00 0.  1.
        994    1    1    2    0    0 -0.75848976604E+01 -0.12618943918E+02  0.81657106789E+01  0.17202583309E+03  0.17120000000E+03 0.  0.
        998    1    1    2    0    0 -0.10543050498E+02  0.46851175407E+01  0.14684981848E+04  0.14685775516E+04  0.10000000000E+02 0.  1.
</event>
<event>
 5    1  0.1146201E-008  0.3746040E+03  0.7957747E-01  0.3474996E+00
         13   -1    0    0    0    0  0.00000000000E+00  0.00000000000E+00  0.14999999963E+04  0.15000000000E+04  0.10566000000E+00 0.  1.
        994   -1    0    0    0    0 -0.00000000000E+00 -0.00000000000E+00  0.11368683772E-12  0.17120000000E+03  0.17120000000E+03 0.  0.
         13    1    1    2    0    0 -0.13154866808E+02 -0.28103307829E+02  0.67204441977E+02  0.74022257579E+02  0.10566000000E+00 0.  1.
        994    1    1    2    0    0  0.13601948997E+02  0.16330838732E+02  0.84212515037E+01  0.17271961900E+03  0.17120000000E+03 0.  0.
        998    1    1    2    0    0 -0.44708218914E+00  0.11772469097E+02  0.14243743028E+04  0.14244581234E+04  0.10000000000E+02 0.  1.
</event>
<event>
 5    1  0.1146201E-008  0.3855214E+03  0.7957747E-01  0.3427464E+00
         13   -1    0    0    0    0  0.00000000000E+00  0.00000000000E+00  0.14999999963E+04  0.15000000000E+04  0.10566000000E+00 0.  1.
        994   -1    0    0    0    0 -0.00000000000E+00 -0.00000000000E+00  0.11368683772E-12  0.17120000000E+03  0.17120000000E+03 0.  0.
         13    1    1    2    0    0  0.20966261865E+01  0.10199679588E+02  0.40198974104E+02  0.41525871311E+02  0.10566000000E+00 0.  1.
        994    1    1    2    0    0  0.47095598237E+01 -0.56421978369E+01  0.15488645557E+01  0.17136467936E+03  0.17120000000E+03 0.  0.
        998    1    1    2    0    0 -0.68061860102E+01 -0.45574817506E+01  0.14582521576E+04  0.14583094493E+04  0.10000000000E+02 0.  1.
</event>
<event>
 5    1  0.1146201E-008  0.3838079E+03  0.7957747E-01  0.3434744E+00
         13   -1    0    0    0    0  0.00000000000E+00  0.00000000000E+00  0.14999999963E+04  0.15000000000E+04  0.10566000000E+00 0. -1.
        994   -1    0    0    0    0 -0.00000000000E+00 -0.00000000000E+00  0.11368683772E-12  0.17120000000E+03  0.17120000000E+03 0.  0.
         13    1    1    2    0    0  0.16507196105E+02 -0.51531255343E+01  0.64234710706E+02  0.66521811833E+02  0.10566000000E+00 0. -1.
        994    1    1    2    0    0 -0.17758201751E+02  0.46194266092E+01  0.33354767079E+01  0.17221282832E+03  0.17120000000E+03 0.  0.
        998    1    1    2    0    0  0.12510056457E+01  0.53369892516E+00  0.14324298089E+04  0.14324653599E+04  0.10000000000E+02 0. -1.
</event>
<event>
 5    1  0.1146201E-008  0.3853845E+03  0.7957747E-01  0.3428043E+00
         13   -1    0    0    0    0  0.00000000000E+00  0.00000000000E+00  0.14999999963E+04  0.15000000000E+04  0.10566000000E+00 0.  1.
        994   -1    0    0    0    0 -0.00000000000E+00 -0.00000000000E+00  0.11368683772E-12  0.17120000000E+03  0.17120000000E+03 0.  0.
         13    1    1    2    0    0  0.36636295535E+01 -0.14128145796E+02  0.87669196858E+02  0.88875901834E+02  0.10566000000E+00 0.  1.
        994    1    1    2    0    0  0.16894759664E+01 -0.10893640514E+02  0.18386313543E+01  0.17156440860E+03  0.17120000000E+03 0.  0.
        998    1    1    2    0    0 -0.53531055199E+01  0.25021786310E+02  0.14104921681E+04  0.14107596896E+04  0.10000000000E+02 0.  1.
</event>
<event>
 5    1  0.1146201E-008  0.3831922E+03  0.7957747E-01  0.3437375E+00
         13   -1    0    0    0    0  0.00000000000E+00  0.00000000000E+00  0.14999999963E+04  0.15000000000E+04  0.10566000000E+00 0.  1.
        994   -1    0    0    0    0 -0.00000000000E+00 -0.00000000000E+00  0.11368683772E-12  0.17120000000E+03  0.17120000000E+03 0.  0.
         13    1    1    2    0    0 -0.10452099883E+02 -0.54024355298E+01  0.27679633319E+02  0.30076668139E+02  0.10566000000E+00 0.  1.
        994    1    1    2    0    0 -0.14438195556E+01 -0.63008316922E+01  0.26685648186E+01  0.17134277438E+03  0.17120000000E+03 0.  0.
        998    1    1    2    0    0  0.11895919439E+02  0.11703267222E+02  0.14696517981E+04  0.14697805575E+04  0.10000000000E+02 0.  1.
</event>
<event>
 5    1  0.1146201E-008  0.3851073E+03  0.7957747E-01  0.3429217E+00
         13   -1    0    0    0    0  0.00000000000E+00  0.00000000000E+00  0.14999999963E+04  0.15000000000E+04  0.10566000000E+00 0. -1.
        994   -1    0    0    0    0 -0.00000000000E+00 -0.00000000000E+00  0.11368683772E-12  0.17120000000E+03  0.17120000000E+03 0.  0.
         13    1    1    2    0    0  0.56206658619E+01 -0.10140242491E+02  0.42193096719E+02  0.43757113448E+02  0.10566000000E+00 0. -1.
        994    1    1    2    0    0 -0.34339904507E+01  0.89347922364E+01  0.18781630755E+01  0.17147766706E+03  0.17120000000E+03 0.  0.
        998    1    1    2    0    0 -0.21866754112E+01  0.12054502548E+01  0.14559287365E+04  0.14559652195E+04  0.10000000000E+02 0. -1.
</event>
<event>
 5    1  0.1146201E-008  0.3822031E+03  0.7957747E-01  0.3441621E+00
         13   -1    0    0    0    0  0.00000000000E+00  0.00000000000E+00  0.14999999963E+04  0.15000000000E+04  0.10566000000E+00 0.  1.
        994   -1    0    0    0    0 -0.00000000000E+00 -0.00000000000E+00  0.11368683772E-12  0.17120000000E+03  0.17120000000E+03 0.  0.
         13    1    1    2    0    0 -0.11608568706E+02  0.99748041182E+01  0.36120249892E+02  0.39229315580E+02  0.10566000000E+00 0.  1.
        994    1    1    2    0    0  0.15493680632E+02 -0.15069055509E+02  0.45769669170E+01  0.17261957942E+03  0.17120000000E+03 0.  0.
        998    1    1    2    0    0 -0.38851119259E+01  0.50942513912E+01  0.14593027795E+04  0.14593511050E+04  0.10000000000E+02 0.  1.
</event>
<event>
 5    1  0.1146201E-008  0.3721620E+03  0.7957747E-01  0.3486013E+00
         13   -1    0    0    0    0  0.00000000000E+00  0.00000000000E+00  0.14999999963E+04  0.15000000000E+04  0.10566000000E+00 0.  1.
        994   -1    0    0    0    0 -0.00000000000E+00 -0.00000000000E+00  0.11368683772E-12  0.17120000000E+03  0.17120000000E+03 0.  0.
         13    1    1    2    0    0 -0.16928307232E+02  0.54760143872E+02  0.12174434467E+03  0.13456202126E+03  0.10566000000E+00 0.  1.
        994    1    1    2    0    0 -0.28413903660E+00 -0.60080345582E+02  0.24913395231E+02  0.18313887059E+03  0.17120000000E+03 0.  0.
        998    1    1    2    0    0  0.17212446269E+02  0.53202017097E+01  0.13533422564E+04  0.13534991081E+04  0.10000000000E+02 0.  1.
</event>
<event>
 5    1  0.1146201E-008  0.3851835E+03  0.7957747E-01  0.3428895E+00
         13   -1    0    0    0    0  0.00000000000E+00  0.00000000000E+00  0.14999999963E+04  0.15000000000E+04  0.10566000000E+00 0. -1.
        994   -1    0    0    0    0 -0.00000000000E+00 -0.00000000000E+00  0.11368683772E-12  0.17120000000E+03  0.17120000000E+03 0.  0.
         13    1    1    2    0    0  0.37668490297E+00  0.14672789462E+02  0.80211821479E+02  0.81543731280E+02  0.10566000000E+00 0. -1.
        994    1    1    2    0    0  0.49854516652E+00  0.84829497343E+01  0.17764484764E+01  0.17141996603E+03  0.17120000000E+03 0.  0.
        998    1    1    2    0    0 -0.87523006949E+00 -0.23155739196E+02  0.14180117263E+04  0.14182363027E+04  0.10000000000E+02 0. -1.
</event>
<event>
 5    1  0.1146201E-008  0.3842668E+03  0.7957747E-01  0.3432788E+00
         13   -1    0    0    0    0  0.00000000000E+00  0.00000000000E+00  0.14999999963E+04  0.15000000000E+04  0.10566000000E+00 0.  1.
        994   -1    0    0    0    0 -0.00000000000E+00 -0.00000000000E+00  0.11368683772E-12  0.17120000000E+03  0.17120000000E+03 0.  0.
         13    1    1    2    0    0 -0.22646126926E+02 -0.18193673453E+01  0.12750321430E+03  0.12951153610E+03  0.10566000000E+00 0.  1.
        994    1    1    2    0    0  0.14906125946E+02  0.91105795993E+01  0.30013100985E+01  0.17211520303E+03  0.17120000000E+03 0.  0.
        998    1    1    2    0    0  0.77400009804E+01 -0.72912122540E+01  0.13694954719E+04  0.13695732609E+04  0.10000000000E+02 0.  1.
</event>
<event>
 5    1  0.1146201E-008  0.3817137E+03  0.7957747E-01  0.3443730E+00
         13   -1    0    0    0    0  0.00000000000E+00  0.00000000000E+00  0.14999999963E+04  0.15000000000E+04  0.10566000000E+00 0.  1.
        994   -1    0    0    0    0 -0.00000000000E+00 -0.00000000000E+00  0.11368683772E-12  0.17120000000E+03  0.17120000000E+03 0.  0.
         13    1    1    2    0    0 -0.16365052681E+02  0.11093768492E+02  0.58788171537E+02  0.62023760973E+02  0.10566000000E+00 0.  1.
        994    1    1    2    0    0  0.54172430790E+01 -0.13855796389E+02  0.40066165698E+01  0.17189189217E+03  0.17120000000E+03 0.  0.
        998    1    1    2    0    0  0.10947809602E+02  0.27620278979E+01  0.14372052082E+04  0.14372843469E+04  0.10000000000E+02 0.  1.
</event>
<event>
 5    1  0.1146201E-008  0.3858652E+03  0.7957747E-01  0.3426011E+00
         13   -1    0    0    0    0  0.00000000000E+00  0.00000000000E+00  0.14999999963E+04  0.15000000000E+04  0.10566000000E+00 0.  1.
        994   -1    0    0    0    0 -0.00000000000E+00 -0.00000000000E+00  0.11368683772E-12  0.17120000000E+03  0.17120000000E+03 0.  0.
         13    1    1    2    0    0 -0.44928050216E+01 -0.12143656475E+02  0.69605128103E+02  0.70799284685E+02  0.10566000000E+00 0.  1.
        994    1    1    2    0    0  0.33396640920E+01  0.96234481842E+01  0.15415428795E+01  0.17150970954E+03  0.17120000000E+03 0.  0.
        998    1    1    2    0    0  0.11531409296E+01  0.25202082904E+01  0.14288533253E+04  0.14288910058E+04  0.10000000000E+02 0.  1.
</event>
<event>
 5    1  0.1146201E-008  0.3806064E+03  0.7957747E-01  0.3448522E+00
         13   -1    0    0    0    0  0.00000000000E+00  0.00000000000E+00  0.14999999963E+04  0.15000000000E+04  0.10566000000E+00 0.  1.
        994   -1    0    0    0    0 -0.00000000000E+00 -0.00000000000E+00  0.11368683772E-12  0.17120000000E+03  0.17120000000E+03 0.  0.
         13    1    1    2    0    0 -0.29419798018E+02  0.21644588865E+01  0.10483171472E+03  0.10890320919E+03  0.10566000000E+00 0.  1.
        994    1    1    2    0    0  0.30592628469E+02 -0.30463429292E+01  0.69871436074E+01  0.17407885942E+03  0.17120000000E+03 0.  0.
        998    1    1    2    0    0 -0.11728304504E+01  0.88188404271E+00  0.13881811380E+04  0.13882179314E+04  0.10000000000E+02 0.  1.
</event>
<event>
 5    1  0.1146201E-008  0.3859121E+03  0.7957747E-01  0.3425813E+00
         13   -1    0    0    0    0  0.00000000000E+00  0.00000000000E+00  0.14999999963E+04  0.15000000000E+04  0.10566000000E+00 0. -1.
        994   -1    0    0    0    0 -0.00000000000E+00 -0.00000000000E+00  0.11368683772E-12  0.17120000000E+03  0.17120000000E+03 0.  0.
         13    1    1    2    0    0 -0.12247934482E+02  0.45817202948E+01  0.70854106958E+02  0.72050813298E+02  0.10566000000E+00 0. -1.
        994    1    1    2    0    0  0.82584349302E+01 -0.16034702853E+02  0.22454008263E+01  0.17216211914E+03  0.17120000000E+03 0.  0.
        998    1    1    2    0    0  0.39894995516E+01  0.11452982559E+02  0.14269004885E+04  0.14269870676E+04  0.10000000000E+02 0. -1.
</event>
<event>
 5    1  0.1146201E-008  0.3835383E+03  0.7957747E-01  0.3435895E+00
         13   -1    0    0    0    0  0.00000000000E+00  0.00000000000E+00  0.14999999963E+04  0.15000000000E+04  0.10566000000E+00 0. -1.
        994   -1    0    0    0    0 -0.00000000000E+00 -0.00000000000E+00  0.11368683772E-12  0.17120000000E+03  0.17120000000E+03 0.  0.
         13    1    1    2    0    0  0.11598218946E+02  0.15340562280E+02  0.81594617389E+02  0.83830449627E+02  0.10566000000E+00 0. -1.
        994    1    1    2    0    0 -0.15366921326E+02  0.56780634561E+01  0.32449049419E+01  0.17201265094E+03  0.17120000000E+03 0.  0.
        998    1    1    2    0    0  0.37687023799E+01 -0.21018625737E+02  0.14151604739E+04  0.14153568994E+04  0.10000000000E+02 0. -1.
</event>
<event>
 5    1  0.1146201E-008  0.3784306E+03  0.7957747E-01  0.3458021E+00
         13   -1    0    0    0    0  0.00000000000E+00  0.00000000000E+00  0.14999999963E+04  0.15000000000E+04  0.10566000000E+00 0.  1.
        994   -1    0    0    0    0 -0.00000000000E+00 -0.00000000000E+00  0.11368683772E-12  0.17120000000E+03  0.17120000000E+03 0.  0.
         13    1    1    2    0    0 -0.36391472702E+02 -0.21012464059E+01  0.13860877779E+03  0.14332187191E+03  0.10566000000E+00 0.  1.
        994    1    1    2    0    0  0.13695817649E+02  0.43643196897E+02  0.11990761860E+02  0.17761059210E+03  0.17120000000E+03 0.  0.
        998    1    1    2    0    0  0.22695655053E+02 -0.41541950492E+02  0.13494004566E+04  0.13502675360E+04  0.10000000000E+02 0.  1.
</event>
<event>
 5    1  0.1146201E-008  0.3750073E+03  0.7957747E-01  0.3473190E+00
         13   -1    0    0    0    0  0.00000000000E+00  0.00000000000E+00  0.14999999963E+04  0.15000000000E+04  0.10566000000E+00 0. -1.
        994   -1    0    0    0    0 -0.00000000000E+00 -0.00000000000E+00  0.11368683772E-12  0.17120000000E+03  0.17120000000E+03 0.  0.
         13    1    1    2    0    0 -0.14288111078E+02 -0.18881274095E+02  0.41082855974E+02  0.47417980226E+02  0.10566000000E+00 0. -1.
        994    1    1    2    0    0  0.54226779562E+01 -0.27558689344E+01  0.68007659718E+01  0.17144296622E+03  0.17120000000E+03 0.  0.
        998    1    1    2    0    0  0.88654331222E+01  0.21637143030E+02  0.14521163743E+04  0.14523390536E+04  0.10000000000E+02 0. -1.
</event>
<event>
 5    1  0.1146201E-008  0.3847612E+03  0.7957747E-01  0.3430686E+00
         13   -1    0    0    0    0  0.00000000000E+00  0.00000000000E+00  0.14999999963E+04  0.15000000000E+04  0.10566000000E+00 0. -1.
        994   -1    0    0    0    0 -0.00000000000E+00 -0.00000000000E+00  0.11368683772E-12  0.17120000000E+03  0.17120000000E+03 0.  0.
         13    1    1    2    0    0  0.41647271770E+02  0.18187055219E+02  0.46528822354E+02  0.65040039185E+02  0.10566000000E+00 0. -1.
        994    1    1    2    0    0 -0.44893803036E+02  0.15577590579E+01  0.26446720171E+02  0.17896018879E+03  0.17120000000E+03 0.  0.
        998    1    1    2    0    0  0.32465312658E+01 -0.19744814277E+02  0.14270244538E+04  0.14271997720E+04  0.10000000000E+02 0. -1.
</event>
<event>
 5    1  0.1146201E-008  0.4317257E+03  0.7957747E-01  0.3252844E+00
         13   -1    0    0    0    0  0.00000000000E+00  0.00000000000E+00  0.14999999963E+04  0.15000000000E+04  0.10566000000E+00 0.  1.
        994   -1    0    0    0    0 -0.00000000000E+00 -0.00000000000E+00  0.11368683772E-12  0.17120000000E+03  0.17120000000E+03 0.  0.
         13    1    1    2    0    0 -0.82867636952E+02 -0.36954921164E+02  0.67503821444E+02  0.11309062086E+03  0.10566000000E+00 0.  1.
        994    1    1    2    0    0  0.87373142935E+02  0.28518304043E+02  0.87604138767E+02  0.21314615854E+03  0.17120000000E+03 0.  0.
        998    1    1    2    0    0 -0.45055059835E+01  0.84366171212E+01  0.13448920361E+04  0.13449632206E+04  0.10000000000E+02 0.  1.
</event>
<event>
 5    1  0.1146201E-008  0.3860792E+03  0.7957747E-01  0.3425108E+00
         13   -1    0    0    0    0  0.00000000000E+00  0.00000000000E+00  0.14999999963E+04  0.15000000000E+04  0.10566000000E+00 0.  1.
        994   -1    0    0    0    0 -0.00000000000E+00 -0.00000000000E+00  0.11368683772E-12  0.17120000000E+03  0.17120000000E+03 0.  0.
         13    1    1    2    0    0 -0.10101741567E+02 -0.74408354708E+01  0.69895844165E+02  0.71013036907E+02  0.10566000000E+00 0.  1.
        994    1    1    2    0    0  0.10583178897E+02  0.83050869256E+01  0.16885808552E+01  0.17173604587E+03  0.17120000000E+03 0.  0.
        998    1    1    2    0    0 -0.48143733001E+00 -0.86425145473E+00  0.14284155713E+04  0.14284509172E+04  0.10000000000E+02 0.  1.
</event>
<event>
 5    1  0.1146201E-008  0.3801201E+03  0.7957747E-01  0.3450636E+00
         13   -1    0    0    0    0  0.00000000000E+00  0.00000000000E+00  0.14999999963E+04  0.15000000000E+04  0.10566000000E+00 0. -1.
        994   -1    0    0    0    0 -0.00000000000E+00 -0.00000000000E+00  0.11368683772E-12  0.17120000000E+03  0.17120000000E+03 0.  0.
         13    1    1    2    0    0 -0.33398913282E+02  0.35550721012E+02  0.24917516418E+03  0.25390473565E+03  0.10566000000E+00 0. -1.
        994    1    1    2    0    0  0.34268710258E+02 -0.31801564032E+02  0.11411019515E+02  0.17783513529E+03  0.17120000000E+03 0.  0.
        998    1    1    2    0    0 -0.86979697558E+00 -0.37491569794E+01  0.12394138126E+04  0.12394601291E+04  0.10000000000E+02 0.  0.
</event>
<event>
 5    1  0.1146201E-008  0.3707193E+03  0.7957747E-01  0.3492592E+00
         13   -1    0    0    0    0  0.00000000000E+00  0.00000000000E+00  0.14999999963E+04  0.15000000000E+04  0.10566000000E+00 0.  1.
        994   -1    0    0    0    0 -0.00000000000E+00 -0.00000000000E+00  0.11368683772E-12  0.17120000000E+03  0.17120000000E+03 0.  0.
         13    1    1    2    0    0 -0.53948828508E+02  0.22524055363E+02  0.17826609814E+03  0.18760762798E+03  0.10566000000E+00 0.  1.
        994    1    1    2    0    0  0.38823031424E+02 -0.28151987820E+02  0.16867783075E+02  0.17858814152E+03  0.17120000000E+03 0.  0.
        998    1    1    2    0    0  0.15125797084E+02  0.56279324576E+01  0.13048661151E+04  0.13050042305E+04  0.10000000000E+02 0.  1.
</event>
<event>
 5    1  0.1146201E-008  0.2938390E+03  0.7957747E-01  0.3941009E+00
         13   -1    0    0    0    0  0.00000000000E+00  0.00000000000E+00  0.14999999963E+04  0.15000000000E+04  0.10566000000E+00 0. -1.
        994   -1    0    0    0    0 -0.00000000000E+00 -0.00000000000E+00  0.11368683772E-12  0.17120000000E+03  0.17120000000E+03 0.  0.
         13    1    1    2    0    0 -0.92888085903E+02 -0.22463067673E+03  0.32339710639E+03  0.40456499727E+03  0.10566000000E+00 0. -1.
        994    1    1    2    0    0  0.90139925233E+02  0.21511337668E+03  0.42060786491E+03  0.51050894896E+03  0.17120000000E+03 0.  0.
        998    1    1    2    0    0  0.27481606706E+01  0.95173000530E+01  0.75599502498E+03  0.75612605377E+03  0.10000000000E+02 0.  1.
</event>
<event>
 5    1  0.1146201E-008  0.3907074E+03  0.7957747E-01  0.3405821E+00
         13   -1    0    0    0    0  0.00000000000E+00  0.00000000000E+00  0.14999999963E+04  0.15000000000E+04  0.10566000000E+00 0.  1.
        994   -1    0    0    0    0 -0.00000000000E+00 -0.00000000000E+00  0.11368683772E-12  0.17120000000E+03  0.17120000000E+03 0.  0.
         13    1    1    2    0    0 -0.10250850232E+03 -0.87752390215E+01  0.24319840881E+03  0.26406528564E+03  0.10566000000E+00 0.  1.
        994    1    1    2    0    0  0.50606431748E+02  0.23065906898E+02  0.34100732714E+02  0.18320847952E+03  0.17120000000E+03 0.  0.
        998    1    1    2    0    0  0.51902070576E+02 -0.14290667876E+02  0.12227008548E+04  0.12239262348E+04  0.10000000000E+02 0.  1.
</event>
<event>
 5    1  0.1146201E-008  0.3823020E+03  0.7957747E-01  0.3441196E+00
         13   -1    0    0    0    0  0.00000000000E+00  0.00000000000E+00  0.14999999963E+04  0.15000000000E+04  0.10566000000E+00 0. -1.
        994   -1    0    0    0    0 -0.00000000000E+00 -0.00000000000E+00  0.11368683772E-12  0.17120000000E+03  0.17120000000E+03 0.  0.
         13    1    1    2    0    0 -0.19592925312E+02 -0.19384293276E+00  0.65220261753E+02  0.68100029402E+02  0.10566000000E+00 0. -1.
        994    1    1    2    0    0  0.74057225074E+01 -0.83524479092E+01  0.33890970270E+01  0.17159701073E+03  0.17120000000E+03 0.  0.
        998    1    1    2    0    0  0.12187202805E+02  0.85462908420E+01  0.14313906375E+04  0.14315029599E+04  0.10000000000E+02 0. -1.
</event>
<event>
 5    1  0.1146201E-008  0.3789383E+03  0.7957747E-01  0.3455794E+00
         13   -1    0    0    0    0  0.00000000000E+00  0.00000000000E+00  0.14999999963E+04  0.15000000000E+04  0.10566000000E+00 0. -1.
        994   -1    0    0    0    0 -0.00000000000E+00 -0.00000000000E+00  0.11368683772E-12  0.17120000000E+03  0.17120000000E+03 0.  0.
         13    1    1    2    0    0 -0.13266890981E+02 -0.20339562089E+02  0.55076954627E+02  0.60192942089E+02  0.10566000000E+00 0. -1.
        994    1    1    2    0    0  0.22390686783E+02  0.38779555606E+02  0.11426435193E+02  0.17732794537E+03  0.17120000000E+03 0.  0.
        998    1    1    2    0    0 -0.91237958019E+01 -0.18439993517E+02  0.14334966065E+04  0.14336791125E+04  0.10000000000E+02 0. -1.
</event>
<event>
 5    1  0.1146201E-008  0.3830471E+03  0.7957747E-01  0.3437997E+00
         13   -1    0    0    0    0  0.00000000000E+00  0.00000000000E+00  0.14999999963E+04  0.15000000000E+04  0.10566000000E+00 0.  1.
        994   -1    0    0    0    0 -0.00000000000E+00 -0.00000000000E+00  0.11368683772E-12  0.17120000000E+03  0.17120000000E+03 0.  0.
         13    1    1    2    0    0  0.38078313121E+01 -0.10071132858E+02  0.21049375116E+02  0.23643490714E+02  0.10566000000E+00 0.  1.
        994    1    1    2    0    0 -0.50102947950E-01  0.12316775373E+02  0.31050591304E+01  0.17167057656E+03  0.17120000000E+03 0.  0.
        998    1    1    2    0    0 -0.37577283641E+01 -0.22456425144E+01  0.14758455620E+04  0.14758859327E+04  0.10000000000E+02 0.  1.
</event>
<event>
 5    1  0.1146201E-008  0.3813699E+03  0.7957747E-01  0.3445215E+00
         13   -1    0    0    0    0  0.00000000000E+00  0.00000000000E+00  0.14999999963E+04  0.15000000000E+04  0.10566000000E+00 0. -1.
        994   -1    0    0    0    0 -0.00000000000E+00 -0.00000000000E+00  0.11368683772E-12  0.17120000000E+03  0.17120000000E+03 0.  0.
         13    1    1    2    0    0  0.21848004861E+02  0.80858807493E+01  0.80431340608E+02  0.83737258732E+02  0.10566000000E+00 0. -1.
        994    1    1    2    0    0 -0.10744352999E+02  0.69162071904E+01  0.39867465436E+01  0.17172247725E+03  0.17120000000E+03 0.  0.
        998    1    1    2    0    0 -0.11103651862E+02 -0.15002087940E+02  0.14155819091E+04  0.14157402640E+04  0.10000000000E+02 0. -1.
</event>
<event>
 5    1  0.1146201E-008  0.3770326E+03  0.7957747E-01  0.3464182E+00
         13   -1    0    0    0    0  0.00000000000E+00  0.00000000000E+00  0.14999999963E+04  0.15000000000E+04  0.10566000000E+00 0.  1.
        994   -1    0    0    0    0 -0.00000000000E+00 -0.00000000000E+00  0.11368683772E-12  0.17120000000E+03  0.17120000000E+03 0.  0.
         13    1    1    2    0    0 -0.52027619427E+01 -0.15951268023E+02  0.22805600932E+02  0.28312864237E+02  0.10566000000E+00 0.  1.
        994    1    1    2    0    0  0.58326254543E+01  0.64602552442E+01  0.58944023743E+01  0.17152241369E+03  0.17120000000E+03 0.  0.
        998    1    1    2    0    0 -0.62986351163E+00  0.94910127791E+01  0.14712999930E+04  0.14713647221E+04  0.10000000000E+02 0.  1.
</event>
<event>
 5    1  0.1146201E-008  0.3723967E+03  0.7957747E-01  0.3484948E+00
         13   -1    0    0    0    0  0.00000000000E+00  0.00000000000E+00  0.14999999963E+04  0.15000000000E+04  0.10566000000E+00 0. -1.
        994   -1    0    0    0    0 -0.00000000000E+00 -0.00000000000E+00  0.11368683772E-12  0.17120000000E+03  0.17120000000E+03 0.  0.
         13    1    1    2    0    0  0.12676882655E+03 -0.64486450924E+02  0.82149328950E+03  0.83371462359E+03  0.10566000000E+00 0. -1.
        994    1    1    2    0    0 -0.89137651762E+02  0.12332313293E+03  0.92136829831E+02  0.24688611036E+03  0.17120000000E+03 0.  0.
        998    1    1    2    0    0 -0.37631174783E+02 -0.58836682002E+02  0.58636987695E+03  0.59059926605E+03  0.10000000000E+02 0.  1.
</event>
<event>
 5    1  0.1146201E-008  0.3792994E+03  0.7957747E-01  0.3454215E+00
         13   -1    0    0    0    0  0.00000000000E+00  0.00000000000E+00  0.14999999963E+04  0.15000000000E+04  0.10566000000E+00 0. -1.
        994   -1    0    0    0    0 -0.00000000000E+00 -0.00000000000E+00  0.11368683772E-12  0.17120000000E+03  0.17120000000E+03 0.  0.
         13    1    1    2    0    0  0.36737416193E+02  0.24392609438E+02  0.19555041936E+03  0.20046100574E+03  0.10566000000E+00 0. -1.
        994    1    1    2    0    0 -0.35377582226E+02 -0.17688746389E+02  0.97471319739E+01  0.17597986150E+03  0.17120000000E+03 0.  0.
        998    1    1    2    0    0 -0.13598339668E+01 -0.67038630494E+01  0.12947024449E+04  0.12947591328E+04  0.10000000000E+02 0.  0.
</event>
<event>
 5    1  0.1146201E-008  0.3788954E+03  0.7957747E-01  0.3455982E+00
         13   -1    0    0    0    0  0.00000000000E+00  0.00000000000E+00  0.14999999963E+04  0.15000000000E+04  0.10566000000E+00 0.  1.
        994   -1    0    0    0    0 -0.00000000000E+00 -0.00000000000E+00  0.11368683772E-12  0.17120000000E+03  0.17120000000E+03 0.  0.
         13    1    1    2    0    0 -0.33138666758E+02 -0.28549794429E+02  0.26066500355E+03  0.26430951031E+03  0.10566000000E+00 0.  1.
        994    1    1    2    0    0  0.10775505522E+01 -0.83249317732E+01  0.49282350749E+01  0.17147650890E+03  0.17120000000E+03 0.  0.
        998    1    1    2    0    0  0.32061116206E+02  0.36874726202E+02  0.12344067577E+04  0.12354139808E+04  0.10000000000E+02 0.  1.
</event>
<event>
 5    1  0.1146201E-008  0.3724560E+03  0.7957747E-01  0.3484679E+00
         13   -1    0    0    0    0  0.00000000000E+00  0.00000000000E+00  0.14999999963E+04  0.15000000000E+04  0.10566000000E+00 0. -1.
        994   -1    0    0    0    0 -0.00000000000E+00 -0.00000000000E+00  0.11368683772E-12  0.17120000000E+03  0.17120000000E+03 0.  0.
         13    1    1    2    0    0 -0.15299753976E+02  0.22754645975E+02  0.45700521684E+02  0.53295452258E+02  0.10566000000E+00 0. -1.
        994    1    1    2    0    0 -0.21093383684E+02 -0.19311398992E+02  0.10800218672E+02  0.17390786552E+03  0.17120000000E+03 0.  0.
        998    1    1    2    0    0  0.36393137660E+02 -0.34432469825E+01  0.14434992559E+04  0.14439966822E+04  0.10000000000E+02 0. -1.
</event>
<event>
 5    1  0.1146201E-008  0.3802431E+03  0.7957747E-01  0.3450101E+00
         13   -1    0    0    0    0  0.00000000000E+00  0.00000000000E+00  0.14999999963E+04  0.15000000000E+04  0.10566000000E+00 0. -1.
        994   -1    0    0    0    0 -0.00000000000E+00 -0.00000000000E+00  0.11368683772E-12  0.17120000000E+03  0.17120000000E+03 0.  0.
         13    1    1    2    0    0  0.37592257835E+02 -0.20995731104E+02  0.23828117165E+03  0.24214030334E+03  0.10566000000E+00 0. -1.
        994    1    1    2    0    0 -0.25277671066E+02 -0.28209299287E+01  0.61743394836E+01  0.17318914737E+03  0.17120000000E+03 0.  0.
        998    1    1    2    0    0 -0.12314586769E+02  0.23816661032E+02  0.12555444851E+04  0.12558705493E+04  0.10000000000E+02 0. -1.
</event>
<event>
 5    1  0.1146201E-008  0.3749038E+03  0.7957747E-01  0.3473653E+00
         13   -1    0    0    0    0  0.00000000000E+00  0.00000000000E+00  0.14999999963E+04  0.15000000000E+04  0.10566000000E+00 0. -1.
        994   -1    0    0    0    0 -0.00000000000E+00 -0.00000000000E+00  0.11368683772E-12  0.17120000000E+03  0.17120000000E+03 0.  0.
         13    1    1    2    0    0  0.16920808866E+02  0.30900591565E+02  0.89916203623E+02  0.96571709986E+02  0.10566000000E+00 0. -1.
        994    1    1    2    0    0 -0.17637578119E+02 -0.14936055167E+02  0.85465939357E+01  0.17296431474E+03  0.17120000000E+03 0.  0.
        998    1    1    2    0    0  0.71676925301E+00 -0.15964536398E+02  0.14015371987E+04  0.14016639753E+04  0.10000000000E+02 0. -1.
</event>
<event>
 5    1  0.1146201E-008  0.3822367E+03  0.7957747E-01  0.3441477E+00
         13   -1    0    0    0    0  0.00000000000E+00  0.00000000000E+00  0.14999999963E+04  0.15000000000E+04  0.10566000000E+00 0. -1.
        994   -1    0    0    0    0 -0.00000000000E+00 -0.00000000000E+00  0.11368683772E-12  0.17120000000E+03  0.17120000000E+03 0.  0.
         13    1    1    2    0    0 -0.20605436143E+02 -0.75758372804E+01  0.78746369788E+02  0.81749490690E+02  0.10566000000E+00 0. -1.
        994    1    1    2    0    0  0.11717231003E+02  0.11127657547E+02  0.38752924421E+01  0.17200458179E+03  0.17120000000E+03 0.  0.
        998    1    1    2    0    0  0.88882051395E+01 -0.35518202667E+01  0.14173783340E+04  0.14174459275E+04  0.10000000000E+02 0. -1.
</event>
<event>
 5    1  0.1146201E-008  0.3827318E+03  0.7957747E-01  0.3439349E+00
         13   -1    0    0    0    0  0.00000000000E+00  0.00000000000E+00  0.14999999963E+04  0.15000000000E+04  0.10566000000E+00 0.  1.
        994   -1    0    0    0    0 -0.00000000000E+00 -0.00000000000E+00  0.11368683772E-12  0.17120000000E+03  0.17120000000E+03 0.  0.
         13    1    1    2    0    0 -0.72342108696E+01  0.78044653081E+01  0.19260699870E+02  0.22005208682E+02  0.10566000000E+00 0.  1.
        994    1    1    2    0    0  0.75615965027E+01 -0.78207281302E+01  0.31526221366E+01  0.17157424211E+03  0.17120000000E+03 0.  0.
        998    1    1    2    0    0 -0.32738563312E+00  0.16262822059E-01  0.14775866743E+04  0.14776205492E+04  0.10000000000E+02 0.  1.
</event>
<event>
 5    1  0.1146201E-008  0.4115078E+03  0.7957747E-01  0.3324483E+00
         13   -1    0    0    0    0  0.00000000000E+00  0.00000000000E+00  0.14999999963E+04  0.15000000000E+04  0.10566000000E+00 0. -1.
        994   -1    0    0    0    0 -0.00000000000E+00 -0.00000000000E+00  0.11368683772E-12  0.17120000000E+03  0.17120000000E+03 0.  0.
         13    1    1    2    0    0  0.12057571828E+03  0.82778573868E+02  0.26462348143E+03  0.30235144157E+03  0.10566000000E+00 0. -1.
        994    1    1    2    0    0 -0.10433170235E+03 -0.64908842001E+02  0.10014606729E+03  0.23331724471E+03  0.17120000000E+03 0.  0.
        998    1    1    2    0    0 -0.16244015928E+02 -0.17869731867E+02  0.11352304476E+04  0.11355313137E+04  0.10000000000E+02 0. -1.
</event>
<event>
 5    1  0.1146201E-008  0.3800682E+03  0.7957747E-01  0.3450862E+00
         13   -1    0    0    0    0  0.00000000000E+00  0.00000000000E+00  0.14999999963E+04  0.15000000000E+04  0.10566000000E+00 0.  1.
        994   -1    0    0    0    0 -0.00000000000E+00 -0.00000000000E+00  0.11368683772E-12  0.17120000000E+03  0.17120000000E+03 0.  0.
         13    1    1    2    0    0 -0.77942596324E+01 -0.12653091076E+02  0.25142755126E+02  0.29206514622E+02  0.10566000000E+00 0.  1.
        994    1    1    2    0    0  0.56848851937E+01  0.10771049559E+02  0.45946392918E+01  0.17169415872E+03  0.17120000000E+03 0.  0.
        998    1    1    2    0    0  0.21093744387E+01  0.18820415173E+01  0.14702626019E+04  0.14702993267E+04  0.10000000000E+02 0.  1.
</event>
<event>
 5    1  0.1146201E-008  0.3749090E+03  0.7957747E-01  0.3473630E+00
         13   -1    0    0    0    0  0.00000000000E+00  0.00000000000E+00  0.14999999963E+04  0.15000000000E+04  0.10566000000E+00 0.  1.
        994   -1    0    0    0    0 -0.00000000000E+00 -0.00000000000E+00  0.11368683772E-12  0.17120000000E+03  0.17120000000E+03 0.  0.
         13    1    1    2    0    0 -0.10881832771E+02 -0.56251292883E+02  0.30278808759E+03  0.30816109324E+03  0.10566000000E+00 0.  1.
        994    1    1    2    0    0 -0.16427843891E+02  0.79299595008E+01  0.78577522691E+01  0.17234831761E+03  0.17120000000E+03 0.  0.
        998    1    1    2    0    0  0.27309676662E+02  0.48321333383E+02  0.11893541564E+04  0.11906905891E+04  0.10000000000E+02 0.  1.
</event>
<event>
 5    1  0.1146201E-008  0.3859425E+03  0.7957747E-01  0.3425685E+00
         13   -1    0    0    0    0  0.00000000000E+00  0.00000000000E+00  0.14999999963E+04  0.15000000000E+04  0.10566000000E+00 0.  1.
        994   -1    0    0    0    0 -0.00000000000E+00 -0.00000000000E+00  0.11368683772E-12  0.17120000000E+03  0.17120000000E+03 0.  0.
         13    1    1    2    0    0 -0.56411360853E+01 -0.14691594762E+02  0.94408125381E+02  0.95710870203E+02  0.10566000000E+00 0.  1.
        994    1    1    2    0    0  0.21442683265E+02  0.18892202845E+02  0.38451947829E+01  0.17361143256E+03  0.17120000000E+03 0.  0.
        998    1    1    2    0    0 -0.15801547180E+02 -0.42006080823E+01  0.14017466761E+04  0.14018776972E+04  0.10000000000E+02 0.  1.
</event>
<event>
 5    1  0.1146201E-008  0.3703957E+03  0.7957747E-01  0.3494075E+00
         13   -1    0    0    0    0  0.00000000000E+00  0.00000000000E+00  0.14999999963E+04  0.15000000000E+04  0.10566000000E+00 0.  1.
        994   -1    0    0    0    0 -0.00000000000E+00 -0.00000000000E+00  0.11368683772E-12  0.17120000000E+03  0.17120000000E+03 0.  0.
         13    1    1    2    0    0  0.31274178121E+02 -0.14625369539E+02  0.60036285769E+02  0.69255630993E+02  0.10566000000E+00 0.  1.
        994    1    1    2    0    0 -0.37226898127E+02  0.26608341853E+01  0.13887378659E+02  0.17577036516E+03  0.17120000000E+03 0.  0.
        998    1    1    2    0    0  0.59527200056E+01  0.11964535353E+02  0.14260763319E+04  0.14261740038E+04  0.10000000000E+02 0.  1.
</event>
<event>
 5    1  0.1146201E-008  0.3787926E+03  0.7957747E-01  0.3456433E+00
         13   -1    0    0    0    0  0.00000000000E+00  0.00000000000E+00  0.14999999963E+04  0.15000000000E+04  0.10566000000E+00 0. -1.
        994   -1    0    0    0    0 -0.00000000000E+00 -0.00000000000E+00  0.11368683772E-12  0.17120000000E+03  0.17120000000E+03 0.  0.
         13    1    1    2    0    0  0.16685625583E+02 -0.52187250545E+01  0.29563948001E+02  0.34346519150E+02  0.10566000000E+00 0. -1.
        994    1    1    2    0    0 -0.19539065030E+02  0.53786764359E+01  0.61235390978E+01  0.17250403750E+03  0.17120000000E+03 0.  0.
        998    1    1    2    0    0  0.28534394479E+01 -0.15995138136E+00  0.14643125092E+04  0.14643494434E+04  0.10000000000E+02 0. -1.
</event>
<event>
 5    1  0.1146201E-008  0.3827877E+03  0.7957747E-01  0.3439109E+00
         13   -1    0    0    0    0  0.00000000000E+00  0.00000000000E+00  0.14999999963E+04  0.15000000000E+04  0.10566000000E+00 0. -1.
        994   -1    0    0    0    0 -0.00000000000E+00 -0.00000000000E+00  0.11368683772E-12  0.17120000000E+03  0.17120000000E+03 0.  0.
         13    1    1    2    0    0  0.37545094441E+01 -0.14761263493E+02  0.48504422638E+02  0.50839762200E+02  0.10566000000E+00 0. -1.
        994    1    1    2    0    0 -0.93412758975E-01 -0.25211525826E+02  0.48407908482E+01  0.17311413292E+03  0.17120000000E+03 0.  0.
        998    1    1    2    0    0 -0.36610966851E+01  0.39972789320E+02  0.14466547828E+04  0.14472461049E+04  0.10000000000E+02 0. -1.
</event>
<event>
 5    1  0.1146201E-008  0.3696335E+03  0.7957747E-01  0.3497577E+00
         13   -1    0    0    0    0  0.00000000000E+00  0.00000000000E+00  0.14999999963E+04  0.15000000000E+04  0.10566000000E+00 0.  1.
        994   -1    0    0    0    0 -0.00000000000E+00 -0.00000000000E+00  0.11368683772E-12  0.17120000000E+03  0.17120000000E+03 0.  0.
         13    1    1    2    0    0  0.46917360803E+02 -0.22833692657E+02  0.18213663180E+03  0.18946340035E+03  0.10566000000E+00 0.  1.
        994    1    1    2    0    0  0.21314838879E+02 -0.95089915317E+00  0.11038317378E+02  0.17287715585E+03  0.17120000000E+03 0.  0.
        998    1    1    2    0    0 -0.68232199683E+02  0.23784591811E+02  0.13068250471E+04  0.13088594438E+04  0.10000000000E+02 0.  1.
</event>
<event>
 5    1  0.1146201E-008  0.3788919E+03  0.7957747E-01  0.3455998E+00
         13   -1    0    0    0    0  0.00000000000E+00  0.00000000000E+00  0.14999999963E+04  0.15000000000E+04  0.10566000000E+00 0. -1.
        994   -1    0    0    0    0 -0.00000000000E+00 -0.00000000000E+00  0.11368683772E-12  0.17120000000E+03  0.17120000000E+03 0.  0.
         13    1    1    2    0    0  0.23714847373E+02 -0.28892967172E+02  0.13684109751E+03  0.14185448414E+03  0.10566000000E+00 0. -1.
        994    1    1    2    0    0 -0.21985158536E+02  0.27284120512E+02  0.88239968016E+01  0.17497163584E+03  0.17120000000E+03 0.  0.
        998    1    1    2    0    0 -0.17296888369E+01  0.16088466606E+01  0.13543349020E+04  0.13543738800E+04  0.10000000000E+02 0. -1.
</event>
<event>
 5    1  0.1146201E-008  0.3843558E+03  0.7957747E-01  0.3432409E+00
         13   -1    0    0    0    0  0.00000000000E+00  0.00000000000E+00  0.14999999963E+04  0.15000000000E+04  0.10566000000E+00 0.  1.
        994   -1    0    0    0    0 -0.00000000000E+00 -0.00000000000E+00  0.11368683772E-12  0.17120000000E+03  0.17120000000E+03 0.  0.
         13    1    1    2    0    0 -0.11752752754E+02 -0.61291701130E+01  0.44142526021E+02  0.46089778597E+02  0.10566000000E+00 0.  1.
        994    1    1    2    0    0  0.94559177175E+01  0.64650356913E+01  0.23828290544E+01  0.17159932675E+03  0.17120000000E+03 0.  0.
        998    1    1    2    0    0  0.22968350370E+01 -0.33586557834E+00  0.14534746412E+04  0.14535108947E+04  0.10000000000E+02 0.  1.
</event>
<event>
 5    1  0.1146201E-008  0.3861400E+03  0.7957747E-01  0.3424851E+00
         13   -1    0    0    0    0  0.00000000000E+00  0.00000000000E+00  0.14999999963E+04  0.15000000000E+04  0.10566000000E+00 0.  1.
        994   -1    0    0    0    0 -0.00000000000E+00 -0.00000000000E+00  0.11368683772E-12  0.17120000000E+03  0.17120000000E+03 0.  0.
         13    1    1    2    0    0 -0.81214714802E+01 -0.98224379673E+01  0.77016988781E+02  0.78064500969E+02  0.10566000000E+00 0.  1.
        994    1    1    2    0    0  0.93159583836E+01  0.38134000426E+01  0.13972559691E+01  0.17150137441E+03  0.17120000000E+03 0.  0.
        998    1    1    2    0    0 -0.11944869034E+01  0.60090379248E+01  0.14215857515E+04  0.14216341246E+04  0.10000000000E+02 0.  1.
</event>
<event>
 5    1  0.1146201E-008  0.3840407E+03  0.7957747E-01  0.3433751E+00
         13   -1    0    0    0    0  0.00000000000E+00  0.00000000000E+00  0.14999999963E+04  0.15000000000E+04  0.10566000000E+00 0. -1.
        994   -1    0    0    0    0 -0.00000000000E+00 -0.00000000000E+00  0.11368683772E-12  0.17120000000E+03  0.17120000000E+03 0.  0.
         13    1    1    2    0    0  0.77996184691E+01  0.14846183545E+02  0.64086330278E+02  0.66244336412E+02  0.10566000000E+00 0. -1.
        994    1    1    2    0    0 -0.11095925826E+02 -0.13486625930E+02  0.31139982278E+01  0.17211666286E+03  0.17120000000E+03 0.  0.
        998    1    1    2    0    0  0.32963073573E+01 -0.13595576157E+01  0.14327996678E+04  0.14328390007E+04  0.10000000000E+02 0. -1.
</event>
<event>
 5    1  0.1146201E-008  0.3822615E+03  0.7957747E-01  0.3441370E+00
         13   -1    0    0    0    0  0.00000000000E+00  0.00000000000E+00  0.14999999963E+04  0.15000000000E+04  0.10566000000E+00 0.  1.
        994   -1    0    0    0    0 -0.00000000000E+00 -0.00000000000E+00  0.11368683772E-12  0.17120000000E+03  0.17120000000E+03 0.  0.
         13    1    1    2    0    0  0.49976374603E+01  0.21594114807E+02  0.99095124466E+02  0.10154376904E+03  0.10566000000E+00 0.  1.
        994    1    1    2    0    0  0.14073183045E+02  0.16224614156E+02  0.45280205351E+01  0.17260137762E+03  0.17120000000E+03 0.  0.
        998    1    1    2    0    0 -0.19070820506E+02 -0.37818728963E+02  0.13963768513E+04  0.13970548533E+04  0.10000000000E+02 0.  1.
</event>
<event>
 5    1  0.1146201E-008  0.3810505E+03  0.7957747E-01  0.3446597E+00
         13   -1    0    0    0    0  0.00000000000E+00  0.00000000000E+00  0.14999999963E+04  0.15000000000E+04  0.10566000000E+00 0.  1.
        994   -1    0    0    0    0 -0.00000000000E+00 -0.00000000000E+00  0.11368683772E-12  0.17120000000E+03  0.17120000000E+03 0.  0.
         13    1    1    2    0    0  0.11857437649E+02 -0.46393867068E+01  0.20766841152E+02  0.24359712480E+02  0.10566000000E+00 0.  1.
        994    1    1    2    0    0 -0.13058149523E+02  0.33129641619E+01  0.42086514891E+01  0.17178080145E+03  0.17120000000E+03 0.  0.
        998    1    1    2    0    0  0.12007118737E+01  0.13264225449E+01  0.14750245036E+04  0.14750594861E+04  0.10000000000E+02 0.  1.
</event>
<event>
 5    1  0.1146201E-008  0.3830206E+03  0.7957747E-01  0.3438111E+00
         13   -1    0    0    0    0  0.00000000000E+00  0.00000000000E+00  0.14999999963E+04  0.15000000000E+04  0.10566000000E+00 0.  1.
        994   -1    0    0    0    0 -0.00000000000E+00 -0.00000000000E+00  0.11368683772E-12  0.17120000000E+03  0.17120000000E+03 0.  0.
         13    1    1    2    0    0  0.10746095925E+01 -0.15468259962E+02  0.48547989824E+02  0.50964108272E+02  0.10566000000E+00 0.  1.
        994    1    1    2    0    0 -0.56856776200E+01 -0.62080569075E+01  0.28506827344E+01  0.17143054947E+03  0.17120000000E+03 0.  0.
        998    1    1    2    0    0  0.46110680275E+01  0.21676316869E+02  0.14486013237E+04  0.14488053423E+04  0.10000000000E+02 0.  1.
</event>
<event>
 5    1  0.1146201E-008  0.3804277E+03  0.7957747E-01  0.3449298E+00
         13   -1    0    0    0    0  0.00000000000E+00  0.00000000000E+00  0.14999999963E+04  0.15000000000E+04  0.10566000000E+00 0. -1.
        994   -1    0    0    0    0 -0.00000000000E+00 -0.00000000000E+00  0.11368683772E-12  0.17120000000E+03  0.17120000000E+03 0.  0.
         13    1    1    2    0    0  0.60652840996E+02 -0.44683322997E+02  0.42766510839E+03  0.43424972374E+03  0.10566000000E+00 0. -1.
        994    1    1    2    0    0 -0.79642443384E+02  0.45575388894E+02  0.32556753418E+02  0.19695029082E+03  0.17120000000E+03 0.  0.
        998    1    1    2    0    0  0.18989602388E+02 -0.89206589764E+00  0.10397781345E+04  0.10399999854E+04  0.10000000000E+02 0. -1.
</event>
<event>
 5    1  0.1146201E-008  0.3737852E+03  0.7957747E-01  0.3478674E+00
         13   -1    0    0    0    0  0.00000000000E+00  0.00000000000E+00  0.14999999963E+04  0.15000000000E+04  0.10566000000E+00 0. -1.
        994   -1    0    0    0    0 -0.00000000000E+00 -0.00000000000E+00  0.11368683772E-12  0.17120000000E+03  0.17120000000E+03 0.  0.
         13    1    1    2    0    0  0.15488657916E+02 -0.43721950903E+02  0.15721837584E+03  0.16391807826E+03  0.10566000000E+00 0. -1.
        994    1    1    2    0    0 -0.20890910979E+02  0.50112097375E+01  0.88807825272E+01  0.17277109331E+03  0.17120000000E+03 0.  0.
        998    1    1    2    0    0  0.54022530635E+01  0.38710741165E+02  0.13339008379E+04  0.13345108284E+04  0.10000000000E+02 0. -1.
</event>
<event>
 5    1  0.1146201E-008  0.3722122E+03  0.7957747E-01  0.3485785E+00
         13   -1    0    0    0    0  0.00000000000E+00  0.00000000000E+00  0.14999999963E+04  0.15000000000E+04  0.10566000000E+00 0.  1.
        994   -1    0    0    0    0 -0.00000000000E+00 -0.00000000000E+00  0.11368683772E-12  0.17120000000E+03  0.17120000000E+03 0.  0.
         13    1    1    2    0    0 -0.10424995074E+02  0.12342259716E+02  0.12550195225E+02  0.20458017045E+02  0.10566000000E+00 0.  1.
        994    1    1    2    0    0  0.35007507025E+01 -0.94432547825E+01  0.84654626082E+01  0.17170478844E+03  0.17120000000E+03 0.  0.
        998    1    1    2    0    0  0.69242443711E+01 -0.28990049337E+01  0.14789843384E+04  0.14790371945E+04  0.10000000000E+02 0.  1.
</event>
<event>
 5    1  0.1146201E-008  0.3795154E+03  0.7957747E-01  0.3453271E+00
         13   -1    0    0    0    0  0.00000000000E+00  0.00000000000E+00  0.14999999963E+04  0.15000000000E+04  0.10566000000E+00 0.  1.
        994   -1    0    0    0    0 -0.00000000000E+00 -0.00000000000E+00  0.11368683772E-12  0.17120000000E+03  0.17120000000E+03 0.  0.
         13    1    1    2    0    0 -0.13585436329E+02 -0.30541240249E+02  0.13988881638E+03  0.14382706125E+03  0.10566000000E+00 0.  1.
        994    1    1    2    0    0  0.29266807497E+02 -0.90138432435E+01  0.75243121209E+01  0.17408001225E+03  0.17120000000E+03 0.  0.
        998    1    1    2    0    0 -0.15681371168E+02  0.39555083493E+02  0.13525868678E+04  0.13532929265E+04  0.10000000000E+02 0.  1.
</event>
<event>
 5    1  0.1146201E-008  0.3755856E+03  0.7957747E-01  0.3470608E+00
         13   -1    0    0    0    0  0.00000000000E+00  0.00000000000E+00  0.14999999963E+04  0.15000000000E+04  0.10566000000E+00 0.  1.
        994   -1    0    0    0    0 -0.00000000000E+00 -0.00000000000E+00  0.11368683772E-12  0.17120000000E+03  0.17120000000E+03 0.  0.
         13    1    1    2    0    0  0.15788306861E+02  0.16988929062E+02  0.38520118358E+02  0.44963374279E+02  0.10566000000E+00 0.  1.
        994    1    1    2    0    0 -0.10580658123E+02 -0.24411908721E+02  0.87835839409E+01  0.17347761516E+03  0.17120000000E+03 0.  0.
        998    1    1    2    0    0 -0.52076487376E+01  0.74229796595E+01  0.14526962940E+04  0.14527590106E+04  0.10000000000E+02 0.  1.
</event>
<event>
 5    1  0.1146201E-008  0.3835662E+03  0.7957747E-01  0.3435776E+00
         13   -1    0    0    0    0  0.00000000000E+00  0.00000000000E+00  0.14999999963E+04  0.15000000000E+04  0.10566000000E+00 0.  1.
        994   -1    0    0    0    0 -0.00000000000E+00 -0.00000000000E+00  0.11368683772E-12  0.17120000000E+03  0.17120000000E+03 0.  0.
         13    1    1    2    0    0 -0.15682432397E+02  0.67633459763E+01  0.63822609102E+02  0.66068283853E+02  0.10566000000E+00 0.  1.
        994    1    1    2    0    0  0.16521450061E+01 -0.78886929772E+01  0.25583513121E+01  0.17140871104E+03  0.17120000000E+03 0.  0.
        998    1    1    2    0    0  0.14030287391E+02  0.11253470009E+01  0.14336190359E+04  0.14337230051E+04  0.10000000000E+02 0.  1.
</event>
<event>
 5    1  0.1146201E-008  0.3961301E+03  0.7957747E-01  0.3383797E+00
         13   -1    0    0    0    0  0.00000000000E+00  0.00000000000E+00  0.14999999963E+04  0.15000000000E+04  0.10566000000E+00 0. -1.
        994   -1    0    0    0    0 -0.00000000000E+00 -0.00000000000E+00  0.11368683772E-12  0.17120000000E+03  0.17120000000E+03 0.  0.
         13    1    1    2    0    0  0.11917411407E+03 -0.27078339923E+02  0.22677495638E+03  0.25760939028E+03  0.10566000000E+00 0. -1.
        994    1    1    2    0    0 -0.12619328108E+03  0.42738431820E+02  0.97738145937E+02  0.23793592187E+03  0.17120000000E+03 0.  0.
        998    1    1    2    0    0  0.70191670161E+01 -0.15660091897E+02  0.11754868940E+04  0.11756546878E+04  0.10000000000E+02 0. -1.
</event>
<event>
 5    1  0.1146201E-008  0.3846522E+03  0.7957747E-01  0.3431149E+00
         13   -1    0    0    0    0  0.00000000000E+00  0.00000000000E+00  0.14999999963E+04  0.15000000000E+04  0.10566000000E+00 0.  1.
        994   -1    0    0    0    0 -0.00000000000E+00 -0.00000000000E+00  0.11368683772E-12  0.17120000000E+03  0.17120000000E+03 0.  0.
         13    1    1    2    0    0 -0.17388000270E+02 -0.61758941211E+01  0.93282203561E+02  0.95089772777E+02  0.10566000000E+00 0.  1.
        994    1    1    2    0    0  0.12054964882E+02  0.56911406968E+01  0.23882176302E+01  0.17173483876E+03  0.17120000000E+03 0.  0.
        998    1    1    2    0    0  0.53330353879E+01  0.48475342430E+00  0.14043295751E+04  0.14043753885E+04  0.10000000000E+02 0.  1.
</event>
<event>
 5    1  0.1146201E-008  0.3808210E+03  0.7957747E-01  0.3447592E+00
         13   -1    0    0    0    0  0.00000000000E+00  0.00000000000E+00  0.14999999963E+04  0.15000000000E+04  0.10566000000E+00 0.  1.
        994   -1    0    0    0    0 -0.00000000000E+00 -0.00000000000E+00  0.11368683772E-12  0.17120000000E+03  0.17120000000E+03 0.  0.
         13    1    1    2    0    0  0.16864410572E+02  0.37375643178E+01  0.38220204731E+02  0.41942495689E+02  0.10566000000E+00 0.  1.
        994    1    1    2    0    0 -0.15498602777E+02 -0.40851897604E+00  0.45210754788E+01  0.17196003518E+03  0.17120000000E+03 0.  0.
        998    1    1    2    0    0 -0.13658077948E+01 -0.33290453418E+01  0.14572587161E+04  0.14572974691E+04  0.10000000000E+02 0.  1.
</event>
<event>
 5    1  0.1146201E-008  0.3843138E+03  0.7957747E-01  0.3432587E+00
         13   -1    0    0    0    0  0.00000000000E+00  0.00000000000E+00  0.14999999963E+04  0.15000000000E+04  0.10566000000E+00 0.  1.
        994   -1    0    0    0    0 -0.00000000000E+00 -0.00000000000E+00  0.11368683772E-12  0.17120000000E+03  0.17120000000E+03 0.  0.
         13    1    1    2    0    0 -0.13271696842E+01  0.12161914810E+02  0.39640125786E+02  0.41485229752E+02  0.10566000000E+00 0.  1.
        994    1    1    2    0    0  0.52419145307E+01  0.40383121963E+01  0.21155157493E+01  0.17134089133E+03  0.17120000000E+03 0.  0.
        998    1    1    2    0    0 -0.39147448465E+01 -0.16200227006E+02  0.14582443547E+04  0.14583738789E+04  0.10000000000E+02 0.  1.
</event>
<event>
 5    1  0.1146201E-008  0.3798741E+03  0.7957747E-01  0.3451707E+00
         13   -1    0    0    0    0  0.00000000000E+00  0.00000000000E+00  0.14999999963E+04  0.15000000000E+04  0.10566000000E+00 0. -1.
        994   -1    0    0    0    0 -0.00000000000E+00 -0.00000000000E+00  0.11368683772E-12  0.17120000000E+03  0.17120000000E+03 0.  0.
         13    1    1    2    0    0 -0.18117666064E+02  0.21149024635E+02  0.94796892614E+02  0.98802798948E+02  0.10566000000E+00 0. -1.
        994    1    1    2    0    0  0.73965818093E+01 -0.52065020548E+01  0.44704027027E+01  0.17149705999E+03  0.17120000000E+03 0.  0.
        998    1    1    2    0    0  0.10721084255E+02 -0.15942522580E+02  0.14007327010E+04  0.14009001411E+04  0.10000000000E+02 0. -1.
</event>
<event>
 5    1  0.1146201E-008  0.3766558E+03  0.7957747E-01  0.3465850E+00
         13   -1    0    0    0    0  0.00000000000E+00  0.00000000000E+00  0.14999999963E+04  0.15000000000E+04  0.10566000000E+00 0.  1.
        994   -1    0    0    0    0 -0.00000000000E+00 -0.00000000000E+00  0.11368683772E-12  0.17120000000E+03  0.17120000000E+03 0.  0.
         13    1    1    2    0    0 -0.37102585844E+02 -0.53875535358E+01  0.11017117259E+03  0.11637579664E+03  0.10566000000E+00 0.  1.
        994    1    1    2    0    0  0.38082291216E+02  0.42364287004E+01  0.10810033761E+02  0.17576832781E+03  0.17120000000E+03 0.  0.
        998    1    1    2    0    0 -0.97970537243E+00  0.11511248354E+01  0.13790187899E+04  0.13790558755E+04  0.10000000000E+02 0.  1.
</event>
<event>
 5    1  0.1146201E-008  0.3759859E+03  0.7957747E-01  0.3468825E+00
         13   -1    0    0    0    0  0.00000000000E+00  0.00000000000E+00  0.14999999963E+04  0.15000000000E+04  0.10566000000E+00 0.  1.
        994   -1    0    0    0    0 -0.00000000000E+00 -0.00000000000E+00  0.11368683772E-12  0.17120000000E+03  0.17120000000E+03 0.  0.
         13    1    1    2    0    0 -0.38024128216E+02 -0.55311816863E+02  0.32021608711E+03  0.32717515954E+03  0.10566000000E+00 0.  1.
        994    1    1    2    0    0  0.26966945895E+02  0.46910857143E+02  0.16157914816E+02  0.18027302322E+03  0.17120000000E+03 0.  0.
        998    1    1    2    0    0  0.11057182321E+02  0.84009597193E+01  0.11636259943E+04  0.11637518172E+04  0.10000000000E+02 0.  1.
</event>
<event>
 5    1  0.1146201E-008  0.3823473E+03  0.7957747E-01  0.3441001E+00
         13   -1    0    0    0    0  0.00000000000E+00  0.00000000000E+00  0.14999999963E+04  0.15000000000E+04  0.10566000000E+00 0.  1.
        994   -1    0    0    0    0 -0.00000000000E+00 -0.00000000000E+00  0.11368683772E-12  0.17120000000E+03  0.17120000000E+03 0.  0.
         13    1    1    2    0    0  0.16511161431E+02 -0.28087125383E+01  0.47240262027E+02  0.50121460856E+02  0.10566000000E+00 0.  1.
        994    1    1    2    0    0 -0.70410717987E+01  0.26127018096E+01  0.31400471068E+01  0.17139341527E+03  0.17120000000E+03 0.  0.
        998    1    1    2    0    0 -0.94700896320E+01  0.19601072872E+00  0.14496196871E+04  0.14496851239E+04  0.10000000000E+02 0.  1.
</event>
<event>
 5    1  0.1146201E-008  0.3820779E+03  0.7957747E-01  0.3442160E+00
         13   -1    0    0    0    0  0.00000000000E+00  0.00000000000E+00  0.14999999963E+04  0.15000000000E+04  0.10566000000E+00 0. -1.
        994   -1    0    0    0    0 -0.00000000000E+00 -0.00000000000E+00  0.11368683772E-12  0.17120000000E+03  0.17120000000E+03 0.  0.
         13    1    1    2    0    0 -0.11224537202E+02 -0.83292550346E+00  0.17474154191E+02  0.20785601483E+02  0.10566000000E+00 0. -1.
        994    1    1    2    0    0  0.42692888000E+02 -0.14104376466E+01  0.91698171851E+01  0.17668672154E+03  0.17120000000E+03 0.  0.
        998    1    1    2    0    0 -0.31468350798E+02  0.22433631501E+01  0.14733560249E+04  0.14737276770E+04  0.10000000000E+02 0. -1.
</event>
<event>
 5    1  0.1146201E-008  0.3850078E+03  0.7957747E-01  0.3429639E+00
         13   -1    0    0    0    0  0.00000000000E+00  0.00000000000E+00  0.14999999963E+04  0.15000000000E+04  0.10566000000E+00 0. -1.
        994   -1    0    0    0    0 -0.00000000000E+00 -0.00000000000E+00  0.11368683772E-12  0.17120000000E+03  0.17120000000E+03 0.  0.
         13    1    1    2    0    0  0.19467272408E+02  0.52108066389E+01  0.11576153368E+03  0.11750264272E+03  0.10566000000E+00 0. -1.
        994    1    1    2    0    0 -0.21129269584E+02 -0.52336050475E+01  0.31860365044E+01  0.17260772718E+03  0.17120000000E+03 0.  0.
        998    1    1    2    0    0  0.16619971763E+01  0.22798408645E-01  0.13810524261E+04  0.13810896301E+04  0.10000000000E+02 0. -1.
</event>
<event>
 5    1  0.1146201E-008  0.3791551E+03  0.7957747E-01  0.3454845E+00
         13   -1    0    0    0    0  0.00000000000E+00  0.00000000000E+00  0.14999999963E+04  0.15000000000E+04  0.10566000000E+00 0.  1.
        994   -1    0    0    0    0 -0.00000000000E+00 -0.00000000000E+00  0.11368683772E-12  0.17120000000E+03  0.17120000000E+03 0.  0.
         13    1    1    2    0    0  0.11186321383E+02  0.63363668887E+01  0.15920991291E+02  0.20463930687E+02  0.10566000000E+00 0.  1.
        994    1    1    2    0    0 -0.12866170724E+02 -0.80603057017E+01  0.53333264626E+01  0.17195461974E+03  0.17120000000E+03 0.  0.
        998    1    1    2    0    0  0.16798493403E+01  0.17239388129E+01  0.14787456785E+04  0.14787814496E+04  0.10000000000E+02 0.  1.
</event>
<event>
 5    1  0.1146201E-008  0.3836091E+03  0.7957747E-01  0.3435593E+00
         13   -1    0    0    0    0  0.00000000000E+00  0.00000000000E+00  0.14999999963E+04  0.15000000000E+04  0.10566000000E+00 0.  1.
        994   -1    0    0    0    0 -0.00000000000E+00 -0.00000000000E+00  0.11368683772E-12  0.17120000000E+03  0.17120000000E+03 0.  0.
         13    1    1    2    0    0 -0.26321663262E+02 -0.14909821971E+02  0.16389641794E+03  0.16666487250E+03  0.10566000000E+00 0.  1.
        994    1    1    2    0    0  0.34091322472E+02  0.20163093142E+02  0.75220755112E+01  0.17588288778E+03  0.17120000000E+03 0.  0.
        998    1    1    2    0    0 -0.77696592106E+01 -0.52532711711E+01  0.13285815028E+04  0.13286522397E+04  0.10000000000E+02 0.  1.
</event>
<event>
 5    1  0.1146201E-008  0.3735630E+03  0.7957747E-01  0.3479675E+00
         13   -1    0    0    0    0  0.00000000000E+00  0.00000000000E+00  0.14999999963E+04  0.15000000000E+04  0.10566000000E+00 0. -1.
        994   -1    0    0    0    0 -0.00000000000E+00 -0.00000000000E+00  0.11368683772E-12  0.17120000000E+03  0.17120000000E+03 0.  0.
         13    1    1    2    0    0  0.48059303511E+02  0.35543177624E+02  0.22026756731E+03  0.22823414841E+03  0.10566000000E+00 0. -1.
        994    1    1    2    0    0 -0.49651994622E+02 -0.13854888594E+02  0.16550074557E+02  0.17955674166E+03  0.17120000000E+03 0.  0.
        998    1    1    2    0    0  0.15926911109E+01 -0.21688289029E+02  0.12631823544E+04  0.12634091099E+04  0.10000000000E+02 0. -1.
</event>
<event>
 5    1  0.1146201E-008  0.4016958E+03  0.7957747E-01  0.3361809E+00
         13   -1    0    0    0    0  0.00000000000E+00  0.00000000000E+00  0.14999999963E+04  0.15000000000E+04  0.10566000000E+00 0.  1.
        994   -1    0    0    0    0 -0.00000000000E+00 -0.00000000000E+00  0.11368683772E-12  0.17120000000E+03  0.17120000000E+03 0.  0.
         13    1    1    2    0    0 -0.50848829033E+01 -0.15858793008E+03  0.29652295600E+03  0.33630620303E+03  0.10566000000E+00 0.  1.
        994    1    1    2    0    0  0.35468068209E+02  0.17257783377E+03  0.16522997874E+03  0.29605992374E+03  0.17120000000E+03 0.  0.
        998    1    1    2    0    0 -0.30383185306E+02 -0.13989903693E+02  0.10382470615E+04  0.10388338732E+04  0.10000000000E+02 0.  1.
</event>
<event>
 5    1  0.1146201E-008  0.3820370E+03  0.7957747E-01  0.3442336E+00
         13   -1    0    0    0    0  0.00000000000E+00  0.00000000000E+00  0.14999999963E+04  0.15000000000E+04  0.10566000000E+00 0. -1.
        994   -1    0    0    0    0 -0.00000000000E+00 -0.00000000000E+00  0.11368683772E-12  0.17120000000E+03  0.17120000000E+03 0.  0.
         13    1    1    2    0    0  0.12112950876E+02  0.15931392950E+02  0.64472160610E+02  0.67507062726E+02  0.10566000000E+00 0. -1.
        994    1    1    2    0    0 -0.68476233378E+01 -0.65040601508E+01  0.34046113309E+01  0.17149409355E+03  0.17120000000E+03 0.  0.
        998    1    1    2    0    0 -0.52653275381E+01 -0.94273327989E+01  0.14321232243E+04  0.14321988437E+04  0.10000000000E+02 0. -1.
</event>
<event>
 5    1  0.1146201E-008  0.3847394E+03  0.7957747E-01  0.3430778E+00
         13   -1    0    0    0    0  0.00000000000E+00  0.00000000000E+00  0.14999999963E+04  0.15000000000E+04  0.10566000000E+00 0. -1.
        994   -1    0    0    0    0 -0.00000000000E+00 -0.00000000000E+00  0.11368683772E-12  0.17120000000E+03  0.17120000000E+03 0.  0.
         13    1    1    2    0    0 -0.21695239193E+01 -0.14265427376E+02  0.59710450083E+02  0.61429294847E+02  0.10566000000E+00 0. -1.
        994    1    1    2    0    0  0.22112120818E+01  0.73328720623E+01  0.19526702187E+01  0.17138236021E+03  0.17120000000E+03 0.  0.
        998    1    1    2    0    0 -0.41688162556E-01  0.69325553135E+01  0.14383368760E+04  0.14383883449E+04  0.10000000000E+02 0. -1.
</event>
<event>
 5    1  0.1146201E-008  0.3831442E+03  0.7957747E-01  0.3437581E+00
         13   -1    0    0    0    0  0.00000000000E+00  0.00000000000E+00  0.14999999963E+04  0.15000000000E+04  0.10566000000E+00 0.  1.
        994   -1    0    0    0    0 -0.00000000000E+00 -0.00000000000E+00  0.11368683772E-12  0.17120000000E+03  0.17120000000E+03 0.  0.
         13    1    1    2    0    0 -0.85151402570E+01  0.30366809984E+02  0.16856300263E+03  0.17148803977E+03  0.10566000000E+00 0.  1.
        994    1    1    2    0    0 -0.62265267136E+01 -0.39367716343E+02  0.78280626516E+01  0.17595256545E+03  0.17120000000E+03 0.  0.
        998    1    1    2    0    0  0.14741666971E+02  0.90009063586E+01  0.13236089310E+04  0.13237593948E+04  0.10000000000E+02 0.  1.
</event>
<event>
 5    1  0.1146201E-008  0.3824407E+03  0.7957747E-01  0.3440600E+00
         13   -1    0    0    0    0  0.00000000000E+00  0.00000000000E+00  0.14999999963E+04  0.15000000000E+04  0.10566000000E+00 0. -1.
        994   -1    0    0    0    0 -0.00000000000E+00 -0.00000000000E+00  0.11368683772E-12  0.17120000000E+03  0.17120000000E+03 0.  0.
         13    1    1    2    0    0  0.22915839321E+02 -0.18298721812E+02  0.13309479451E+03  0.13628724959E+03  0.10566000000E+00 0. -1.
        994    1    1    2    0    0 -0.27526435947E+02  0.16981617021E+02  0.63828868049E+01  0.17434523577E+03  0.17120000000E+03 0.  0.
        998    1    1    2    0    0  0.46105966265E+01  0.13171047904E+01  0.13605223150E+04  0.13605675146E+04  0.10000000000E+02 0. -1.
</event>
<event>
 5    1  0.1146201E-008  0.3812322E+03  0.7957747E-01  0.3445811E+00
         13   -1    0    0    0    0  0.00000000000E+00  0.00000000000E+00  0.14999999963E+04  0.15000000000E+04  0.10566000000E+00 0.  1.
        994   -1    0    0    0    0 -0.00000000000E+00 -0.00000000000E+00  0.11368683772E-12  0.17120000000E+03  0.17120000000E+03 0.  0.
         13    1    1    2    0    0  0.14609928432E+02  0.53356622090E+01  0.34141165684E+02  0.37517324775E+02  0.10566000000E+00 0.  1.
        994    1    1    2    0    0 -0.69661091571E+01  0.14437186555E+02  0.43684080254E+01  0.17200430815E+03  0.17120000000E+03 0.  0.
        998    1    1    2    0    0 -0.76438192752E+01 -0.19772848764E+02  0.14614904226E+04  0.14616783671E+04  0.10000000000E+02 0.  1.
</event>
<event>
 5    1  0.1146201E-008  0.3848462E+03  0.7957747E-01  0.3430325E+00
         13   -1    0    0    0    0  0.00000000000E+00  0.00000000000E+00  0.14999999963E+04  0.15000000000E+04  0.10566000000E+00 0. -1.
        994   -1    0    0    0    0 -0.00000000000E+00 -0.00000000000E+00  0.11368683772E-12  0.17120000000E+03  0.17120000000E+03 0.  0.
         13    1    1    2    0    0 -0.13324078563E+02 -0.87546949299E+01  0.74205337747E+02  0.75898742196E+02  0.10566000000E+00 0. -1.
        994    1    1    2    0    0  0.61010277972E+01  0.10530492360E+02  0.21940064710E+01  0.17164605289E+03  0.17120000000E+03 0.  0.
        998    1    1    2    0    0  0.72230507660E+01 -0.17757974305E+01  0.14236006521E+04  0.14236552049E+04  0.10000000000E+02 0. -1.
</event>
<event>
 5    1  0.1146201E-008  0.3856784E+03  0.7957747E-01  0.3426800E+00
         13   -1    0    0    0    0  0.00000000000E+00  0.00000000000E+00  0.14999999963E+04  0.15000000000E+04  0.10566000000E+00 0. -1.
        994   -1    0    0    0    0 -0.00000000000E+00 -0.00000000000E+00  0.11368683772E-12  0.17120000000E+03  0.17120000000E+03 0.  0.
         13    1    1    2    0    0 -0.66372585294E+01  0.12506178290E+02  0.80613600611E+02  0.81847550139E+02  0.10566000000E+00 0. -1.
        994    1    1    2    0    0 -0.49543687823E+01 -0.86042536912E+01  0.16172553834E+01  0.17149528993E+03  0.17120000000E+03 0.  0.
        998    1    1    2    0    0  0.11591627312E+02 -0.39019245985E+01  0.14177691403E+04  0.14178571599E+04  0.10000000000E+02 0. -1.
</event>
<event>
 5    1  0.1146201E-008  0.3748302E+03  0.7957747E-01  0.3473983E+00
         13   -1    0    0    0    0  0.00000000000E+00  0.00000000000E+00  0.14999999963E+04  0.15000000000E+04  0.10566000000E+00 0.  1.
        994   -1    0    0    0    0 -0.00000000000E+00 -0.00000000000E+00  0.11368683772E-12  0.17120000000E+03  0.17120000000E+03 0.  0.
         13    1    1    2    0    0  0.14040685454E+03  0.11769289864E+03  0.89291660122E+03  0.91151838769E+03  0.10566000000E+00 0.  1.
        994    1    1    2    0    0 -0.13121956954E+03 -0.12249433739E+03  0.12571094949E+03  0.27809372691E+03  0.17120000000E+03 0.  0.
        998    1    1    2    0    0 -0.91872849998E+01  0.48014387454E+01  0.48137244556E+03  0.48158788540E+03  0.10000000000E+02 0.  0.
</event>
<event>
 5    1  0.1146201E-008  0.3778199E+03  0.7957747E-01  0.3460706E+00
         13   -1    0    0    0    0  0.00000000000E+00  0.00000000000E+00  0.14999999963E+04  0.15000000000E+04  0.10566000000E+00 0. -1.
        994   -1    0    0    0    0 -0.00000000000E+00 -0.00000000000E+00  0.11368683772E-12  0.17120000000E+03  0.17120000000E+03 0.  0.
         13    1    1    2    0    0  0.10686608499E+02  0.18619540519E+02  0.43159283003E+02  0.48204001532E+02  0.10566000000E+00 0. -1.
        994    1    1    2    0    0  0.69742170526E+00 -0.66605285230E+01  0.53887250174E+01  0.17141565680E+03  0.17120000000E+03 0.  0.
        998    1    1    2    0    0 -0.11384030204E+02 -0.11959011996E+02  0.14514519883E+04  0.14515803417E+04  0.10000000000E+02 0. -1.
</event>
<event>
 5    1  0.1146201E-008  0.3810249E+03  0.7957747E-01  0.3446708E+00
         13   -1    0    0    0    0  0.00000000000E+00  0.00000000000E+00  0.14999999963E+04  0.15000000000E+04  0.10566000000E+00 0. -1.
        994   -1    0    0    0    0 -0.00000000000E+00 -0.00000000000E+00  0.11368683772E-12  0.17120000000E+03  0.17120000000E+03 0.  0.
         13    1    1    2    0    0  0.38437731161E+01  0.23975035831E+02  0.79764649763E+02  0.83378579088E+02  0.10566000000E+00 0. -1.
        994    1    1    2    0    0  0.20340525724E+01 -0.17001454520E+02  0.45940851395E+01  0.17211546254E+03  0.17120000000E+03 0.  0.
        998    1    1    2    0    0 -0.58778256885E+01 -0.69735813115E+01  0.14156412614E+04  0.14157059584E+04  0.10000000000E+02 0. -1.
</event>
<event>
 5    1  0.1146201E-008  0.3737802E+03  0.7957747E-01  0.3478696E+00
         13   -1    0    0    0    0  0.00000000000E+00  0.00000000000E+00  0.14999999963E+04  0.15000000000E+04  0.10566000000E+00 0. -1.
        994   -1    0    0    0    0 -0.00000000000E+00 -0.00000000000E+00  0.11368683772E-12  0.17120000000E+03  0.17120000000E+03 0.  0.
         13    1    1    2    0    0 -0.23507532395E+02  0.15064172804E+02  0.47838274378E+02  0.55389936279E+02  0.10566000000E+00 0. -1.
        994    1    1    2    0    0  0.16158598889E+02 -0.41587303012E+02  0.14131437955E+02  0.17748166561E+03  0.17120000000E+03 0.  0.
        998    1    1    2    0    0  0.73489335054E+01  0.26523130208E+02  0.14380302839E+04  0.14383283981E+04  0.10000000000E+02 0. -1.
</event>
<event>
 5    1  0.1146201E-008  0.3848749E+03  0.7957747E-01  0.3430203E+00
         13   -1    0    0    0    0  0.00000000000E+00  0.00000000000E+00  0.14999999963E+04  0.15000000000E+04  0.10566000000E+00 0.  1.
        994   -1    0    0    0    0 -0.00000000000E+00 -0.00000000000E+00  0.11368683772E-12  0.17120000000E+03  0.17120000000E+03 0.  0.
         13    1    1    2    0    0 -0.20834612254E+02  0.13782124217E+00  0.11562445896E+03  0.11748670877E+03  0.10566000000E+00 0.  1.
        994    1    1    2    0    0  0.26186588209E+02  0.14413057005E+02  0.46373002047E+01  0.17385171316E+03  0.17120000000E+03 0.  0.
        998    1    1    2    0    0 -0.53519759548E+01 -0.14550878248E+02  0.13797382371E+04  0.13798615781E+04  0.10000000000E+02 0.  1.
</event>
<event>
 5    1  0.1146201E-008  0.3755189E+03  0.7957747E-01  0.3470905E+00
         13   -1    0    0    0    0  0.00000000000E+00  0.00000000000E+00  0.14999999963E+04  0.15000000000E+04  0.10566000000E+00 0. -1.
        994   -1    0    0    0    0 -0.00000000000E+00 -0.00000000000E+00  0.11368683772E-12  0.17120000000E+03  0.17120000000E+03 0.  0.
         13    1    1    2    0    0 -0.12110155673E+02 -0.83805095904E+02  0.45011536203E+03  0.45801069886E+03  0.10566000000E+00 0. -1.
        994    1    1    2    0    0 -0.31158872123E+00  0.71543830248E+02  0.23984211988E+02  0.18709168650E+03  0.17120000000E+03 0.  0.
        998    1    1    2    0    0  0.12421744394E+02  0.12261265656E+02  0.10259004223E+04  0.10260976146E+04  0.10000000000E+02 0. -1.
</event>
<event>
 5    1  0.1146201E-008  0.3808778E+03  0.7957747E-01  0.3447345E+00
         13   -1    0    0    0    0  0.00000000000E+00  0.00000000000E+00  0.14999999963E+04  0.15000000000E+04  0.10566000000E+00 0.  1.
        994   -1    0    0    0    0 -0.00000000000E+00 -0.00000000000E+00  0.11368683772E-12  0.17120000000E+03  0.17120000000E+03 0.  0.
         13    1    1    2    0    0 -0.20130896327E+02 -0.43662774789E+02  0.29055066015E+03  0.29450193237E+03  0.10566000000E+00 0.  1.
        994    1    1    2    0    0  0.30751206101E+00  0.38789932081E+02  0.87227217339E+01  0.17575630648E+03  0.17120000000E+03 0.  0.
        998    1    1    2    0    0  0.19823384266E+02  0.48728427089E+01  0.12007266144E+04  0.12009417611E+04  0.10000000000E+02 0.  1.
</event>
<event>
 5    1  0.1146201E-008  0.3826429E+03  0.7957747E-01  0.3439731E+00
         13   -1    0    0    0    0  0.00000000000E+00  0.00000000000E+00  0.14999999963E+04  0.15000000000E+04  0.10566000000E+00 0. -1.
        994   -1    0    0    0    0 -0.00000000000E+00 -0.00000000000E+00  0.11368683772E-12  0.17120000000E+03  0.17120000000E+03 0.  0.
         13    1    1    2    0    0 -0.11340646948E+02 -0.75539304801E+01  0.31774230529E+02  0.34572894421E+02  0.10566000000E+00 0. -1.
        994    1    1    2    0    0  0.86729935031E+01  0.91755151872E+01  0.33334176328E+01  0.17169729925E+03  0.17120000000E+03 0.  0.
        998    1    1    2    0    0  0.26676534446E+01 -0.16215847071E+01  0.14648923481E+04  0.14649298063E+04  0.10000000000E+02 0. -1.
</event>
<event>
 5    1  0.1146201E-008  0.3783378E+03  0.7957747E-01  0.3458428E+00
         13   -1    0    0    0    0  0.00000000000E+00  0.00000000000E+00  0.14999999963E+04  0.15000000000E+04  0.10566000000E+00 0.  1.
        994   -1    0    0    0    0 -0.00000000000E+00 -0.00000000000E+00  0.11368683772E-12  0.17120000000E+03  0.17120000000E+03 0.  0.
         13    1    1    2    0    0  0.67697866095E+01 -0.11548625733E+02  0.15705047068E+02  0.20636386178E+02  0.10566000000E+00 0.  1.
        994    1    1    2    0    0 -0.59244920651E+01  0.12184198561E+02  0.55917828489E+01  0.17182625625E+03  0.17120000000E+03 0.  0.
        998    1    1    2    0    0 -0.84529454440E+00 -0.63557282800E+00  0.14787031664E+04  0.14787373576E+04  0.10000000000E+02 0.  1.
</event>
<event>
 5    1  0.1146201E-008  0.3723398E+03  0.7957747E-01  0.3485206E+00
         13   -1    0    0    0    0  0.00000000000E+00  0.00000000000E+00  0.14999999963E+04  0.15000000000E+04  0.10566000000E+00 0.  1.
        994   -1    0    0    0    0 -0.00000000000E+00 -0.00000000000E+00  0.11368683772E-12  0.17120000000E+03  0.17120000000E+03 0.  0.
         13    1    1    2    0    0  0.10937657116E+02 -0.55735552630E+02  0.18917532933E+03  0.19751810186E+03  0.10566000000E+00 0.  1.
        994    1    1    2    0    0  0.58529597552E+02  0.57570375805E+02  0.31536050165E+02  0.19246824263E+03  0.17120000000E+03 0.  0.
        998    1    1    2    0    0 -0.69467254668E+02 -0.18348231750E+01  0.12792886168E+04  0.12812136555E+04  0.10000000000E+02 0.  1.
</event>
<event>
 5    1  0.1146201E-008  0.3696742E+03  0.7957747E-01  0.3497390E+00
         13   -1    0    0    0    0  0.00000000000E+00  0.00000000000E+00  0.14999999963E+04  0.15000000000E+04  0.10566000000E+00 0. -1.
        994   -1    0    0    0    0 -0.00000000000E+00 -0.00000000000E+00  0.11368683772E-12  0.17120000000E+03  0.17120000000E+03 0.  0.
         13    1    1    2    0    0 -0.38258954541E+02  0.91368581389E+02  0.39393607415E+03  0.40619897458E+03  0.10566000000E+00 0. -1.
        994    1    1    2    0    0  0.46539168804E+02 -0.81762522557E+02  0.40734075013E+02  0.19954876395E+03  0.17120000000E+03 0.  0.
        998    1    1    2    0    0 -0.82802142634E+01 -0.96060588319E+01  0.10653298471E+04  0.10654522615E+04  0.10000000000E+02 0.  1.
</event>
<event>
 5    1  0.1146201E-008  0.3859787E+03  0.7957747E-01  0.3425532E+00
         13   -1    0    0    0    0  0.00000000000E+00  0.00000000000E+00  0.14999999963E+04  0.15000000000E+04  0.10566000000E+00 0. -1.
        994   -1    0    0    0    0 -0.00000000000E+00 -0.00000000000E+00  0.11368683772E-12  0.17120000000E+03  0.17120000000E+03 0.  0.
         13    1    1    2    0    0 -0.94343445657E+01  0.93335035830E+01  0.73231621256E+02  0.74424476232E+02  0.10566000000E+00 0. -1.
        994    1    1    2    0    0  0.70363393988E+01 -0.16280942356E+02  0.21769692090E+01  0.17213006231E+03  0.17120000000E+03 0.  0.
        998    1    1    2    0    0  0.23980051670E+01  0.69474387727E+01  0.14245914058E+04  0.14246454615E+04  0.10000000000E+02 0. -1.
</event>
<event>
 5    1  0.1146201E-008  0.3852196E+03  0.7957747E-01  0.3428742E+00
         13   -1    0    0    0    0  0.00000000000E+00  0.00000000000E+00  0.14999999963E+04  0.15000000000E+04  0.10566000000E+00 0.  1.
        994   -1    0    0    0    0 -0.00000000000E+00 -0.00000000000E+00  0.11368683772E-12  0.17120000000E+03  0.17120000000E+03 0.  0.
         13    1    1    2    0    0 -0.14515205111E+02  0.22466333731E+01  0.70204652598E+02  0.71724772229E+02  0.10566000000E+00 0.  1.
        994    1    1    2    0    0  0.10000193343E+02 -0.11207912071E+02  0.22629823697E+01  0.17187257562E+03  0.17120000000E+03 0.  0.
        998    1    1    2    0    0  0.45150117677E+01  0.89612786976E+01  0.14275323613E+04  0.14276026522E+04  0.10000000000E+02 0.  1.
</event>
<event>
 5    1  0.1146201E-008  0.3812859E+03  0.7957747E-01  0.3445578E+00
         13   -1    0    0    0    0  0.00000000000E+00  0.00000000000E+00  0.14999999963E+04  0.15000000000E+04  0.10566000000E+00 0.  1.
        994   -1    0    0    0    0 -0.00000000000E+00 -0.00000000000E+00  0.11368683772E-12  0.17120000000E+03  0.17120000000E+03 0.  0.
         13    1    1    2    0    0  0.23322537525E+02 -0.20314934276E+02  0.12710665468E+03  0.13081571060E+03  0.10566000000E+00 0.  1.
        994    1    1    2    0    0 -0.23380117248E+02  0.18015305043E+02  0.63907923823E+01  0.17384321478E+03  0.17120000000E+03 0.  0.
        998    1    1    2    0    0  0.57579723347E-01  0.22996292329E+01  0.13665025492E+04  0.13665410746E+04  0.10000000000E+02 0.  1.
</event>
<event>
 5    1  0.1146201E-008  0.3738421E+03  0.7957747E-01  0.3478418E+00
         13   -1    0    0    0    0  0.00000000000E+00  0.00000000000E+00  0.14999999963E+04  0.15000000000E+04  0.10566000000E+00 0. -1.
        994   -1    0    0    0    0 -0.00000000000E+00 -0.00000000000E+00  0.11368683772E-12  0.17120000000E+03  0.17120000000E+03 0.  0.
         13    1    1    2    0    0  0.20777501519E+02  0.17717367085E+02  0.47313107421E+02  0.54627382910E+02  0.10566000000E+00 0. -1.
        994    1    1    2    0    0 -0.20817547809E+02 -0.15074766323E+02  0.95321947512E+01  0.17338085711E+03  0.17120000000E+03 0.  0.
        998    1    1    2    0    0  0.40046289873E-01 -0.26426007622E+01  0.14431546941E+04  0.14431917600E+04  0.10000000000E+02 0.  0.
</event>
<event>
 5    1  0.1146201E-008  0.3844876E+03  0.7957747E-01  0.3431848E+00
         13   -1    0    0    0    0  0.00000000000E+00  0.00000000000E+00  0.14999999963E+04  0.15000000000E+04  0.10566000000E+00 0. -1.
        994   -1    0    0    0    0 -0.00000000000E+00 -0.00000000000E+00  0.11368683772E-12  0.17120000000E+03  0.17120000000E+03 0.  0.
         13    1    1    2    0    0  0.14728262870E+02 -0.30956561730E+00  0.54653882254E+02  0.56604554300E+02  0.10566000000E+00 0. -1.
        994    1    1    2    0    0 -0.18624382983E+02 -0.35529947098E+01  0.30698400273E+01  0.17227407040E+03  0.17120000000E+03 0.  0.
        998    1    1    2    0    0  0.38961201134E+01  0.38625603271E+01  0.14422762740E+04  0.14423213753E+04  0.10000000000E+02 0. -1.
</event>
<event>
 5    1  0.1146201E-008  0.3812992E+03  0.7957747E-01  0.3445521E+00
         13   -1    0    0    0    0  0.00000000000E+00  0.00000000000E+00  0.14999999963E+04  0.15000000000E+04  0.10566000000E+00 0.  1.
        994   -1    0    0    0    0 -0.00000000000E+00 -0.00000000000E+00  0.11368683772E-12  0.17120000000E+03  0.17120000000E+03 0.  0.
         13    1    1    2    0    0  0.22244689129E+02  0.14608697698E+02  0.11452092553E+03  0.11757250440E+03  0.10566000000E+00 0.  1.
        994    1    1    2    0    0  0.96029682807E+01 -0.54604342494E+01  0.38850720698E+01  0.17160002077E+03  0.17120000000E+03 0.  0.
        998    1    1    2    0    0 -0.31847657409E+02 -0.91482634490E+01  0.13815939987E+04  0.13820274748E+04  0.10000000000E+02 0.  1.
</event>
<event>
 5    1  0.1146201E-008  0.3849344E+03  0.7957747E-01  0.3429950E+00
         13   -1    0    0    0    0  0.00000000000E+00  0.00000000000E+00  0.14999999963E+04  0.15000000000E+04  0.10566000000E+00 0. -1.
        994   -1    0    0    0    0 -0.00000000000E+00 -0.00000000000E+00  0.11368683772E-12  0.17120000000E+03  0.17120000000E+03 0.  0.
         13    1    1    2    0    0  0.30886880469E+01 -0.10214807676E+02  0.33274130318E+02  0.34943686156E+02  0.10566000000E+00 0. -1.
        994    1    1    2    0    0 -0.66257854029E+01  0.10702666763E+02  0.21840716483E+01  0.17167602709E+03  0.17120000000E+03 0.  0.
        998    1    1    2    0    0  0.35370973560E+01 -0.48785908629E+00  0.14645417943E+04  0.14645802868E+04  0.10000000000E+02 0. -1.
</event>
<event>
 5    1  0.1146201E-008  0.3748130E+03  0.7957747E-01  0.3474060E+00
         13   -1    0    0    0    0  0.00000000000E+00  0.00000000000E+00  0.14999999963E+04  0.15000000000E+04  0.10566000000E+00 0. -1.
        994   -1    0    0    0    0 -0.00000000000E+00 -0.00000000000E+00  0.11368683772E-12  0.17120000000E+03  0.17120000000E+03 0.  0.
         13    1    1    2    0    0 -0.18037028255E+02 -0.12814384041E+02  0.33941560132E+02  0.40516459555E+02  0.10566000000E+00 0. -1.
        994    1    1    2    0    0  0.52840687913E+01  0.79991093439E+01  0.70874712918E+01  0.17161462462E+03  0.17120000000E+03 0.  0.
        998    1    1    2    0    0  0.12752959464E+02  0.48152746974E+01  0.14589709649E+04  0.14590689158E+04  0.10000000000E+02 0. -1.
</event>
<event>
 5    1  0.1146201E-008  0.2562964E+03  0.7957747E-01  0.4267705E+00
         13   -1    0    0    0    0  0.00000000000E+00  0.00000000000E+00  0.14999999963E+04  0.15000000000E+04  0.10566000000E+00 0. -1.
        994   -1    0    0    0    0 -0.00000000000E+00 -0.00000000000E+00  0.11368683772E-12  0.17120000000E+03  0.17120000000E+03 0.  0.
         13    1    1    2    0    0 -0.13255248456E+03  0.12621102635E+03  0.31112227574E+03  0.36096601773E+03  0.10566000000E+00 0. -1.
        994    1    1    2    0    0  0.13148240292E+03 -0.11658841612E+03  0.18755660245E+03  0.30881612680E+03  0.17120000000E+03 0.  0.
        998    1    1    2    0    0  0.10700816382E+01 -0.96226102251E+01  0.10013211181E+04  0.10014178555E+04  0.10000000000E+02 0.  0.
</event>
<event>
 5    1  0.1146201E-008  0.3818286E+03  0.7957747E-01  0.3443235E+00
         13   -1    0    0    0    0  0.00000000000E+00  0.00000000000E+00  0.14999999963E+04  0.15000000000E+04  0.10566000000E+00 0. -1.
        994   -1    0    0    0    0 -0.00000000000E+00 -0.00000000000E+00  0.11368683772E-12  0.17120000000E+03  0.17120000000E+03 0.  0.
         13    1    1    2    0    0  0.29199423834E+01 -0.15690086556E+02  0.40336459052E+02  0.43379096032E+02  0.10566000000E+00 0. -1.
        994    1    1    2    0    0  0.68728906011E+01 -0.41464119511E+00  0.33704849956E+01  0.17137155167E+03  0.17120000000E+03 0.  0.
        998    1    1    2    0    0 -0.97928329845E+01  0.16104727752E+02  0.14562930522E+04  0.14564493523E+04  0.10000000000E+02 0. -1.
</event>
<event>
 5    1  0.1146201E-008  0.3791288E+03  0.7957747E-01  0.3454961E+00
         13   -1    0    0    0    0  0.00000000000E+00  0.00000000000E+00  0.14999999963E+04  0.15000000000E+04  0.10566000000E+00 0. -1.
        994   -1    0    0    0    0 -0.00000000000E+00 -0.00000000000E+00  0.11368683772E-12  0.17120000000E+03  0.17120000000E+03 0.  0.
         13    1    1    2    0    0 -0.47555125832E+02 -0.39358354701E+01  0.21190988610E+03  0.21721600260E+03  0.10566000000E+00 0. -1.
        994    1    1    2    0    0  0.49465369299E+02 -0.14318551654E+01  0.12827753670E+02  0.17866970709E+03  0.17120000000E+03 0.  0.
        998    1    1    2    0    0 -0.19102434672E+01  0.53676906355E+01  0.12752623565E+04  0.12753142903E+04  0.10000000000E+02 0. -1.
</event>
<event>
 5    1  0.1146201E-008  0.3807436E+03  0.7957747E-01  0.3447927E+00
         13   -1    0    0    0    0  0.00000000000E+00  0.00000000000E+00  0.14999999963E+04  0.15000000000E+04  0.10566000000E+00 0.  1.
        994   -1    0    0    0    0 -0.00000000000E+00 -0.00000000000E+00  0.11368683772E-12  0.17120000000E+03  0.17120000000E+03 0.  0.
         13    1    1    2    0    0 -0.15047934645E+02 -0.12062930000E+02  0.48395667077E+02  0.52097086033E+02  0.10566000000E+00 0.  1.
        994    1    1    2    0    0  0.11230261601E+02  0.37462719525E+01  0.42257459679E+01  0.17166085826E+03  0.17120000000E+03 0.  0.
        998    1    1    2    0    0  0.38176730437E+01  0.83166580477E+01  0.14473785832E+04  0.14474420557E+04  0.10000000000E+02 0.  1.
</event>
<event>
 5    1  0.1146201E-008  0.3806485E+03  0.7957747E-01  0.3448340E+00
         13   -1    0    0    0    0  0.00000000000E+00  0.00000000000E+00  0.14999999963E+04  0.15000000000E+04  0.10566000000E+00 0.  1.
        994   -1    0    0    0    0 -0.00000000000E+00 -0.00000000000E+00  0.11368683772E-12  0.17120000000E+03  0.17120000000E+03 0.  0.
         13    1    1    2    0    0  0.15522872847E+02 -0.58404866827E+01  0.34054538317E+02  0.37878669593E+02  0.10566000000E+00 0.  1.
        994    1    1    2    0    0 -0.15814110752E+02  0.51771070523E+01  0.47303253150E+01  0.17207180046E+03  0.17120000000E+03 0.  0.
        998    1    1    2    0    0  0.29123790534E+00  0.66337963043E+00  0.14612151326E+04  0.14612495299E+04  0.10000000000E+02 0.  1.
</event>
<event>
 5    1  0.1146201E-008  0.3747542E+03  0.7957747E-01  0.3474323E+00
         13   -1    0    0    0    0  0.00000000000E+00  0.00000000000E+00  0.14999999963E+04  0.15000000000E+04  0.10566000000E+00 0. -1.
        994   -1    0    0    0    0 -0.00000000000E+00 -0.00000000000E+00  0.11368683772E-12  0.17120000000E+03  0.17120000000E+03 0.  0.
         13    1    1    2    0    0 -0.52006472871E+02 -0.68080288423E+02  0.20237852556E+03  0.21976505105E+03  0.10566000000E+00 0. -1.
        994    1    1    2    0    0  0.15701803571E+03  0.25569896014E+02  0.10985573557E+03  0.25823672427E+03  0.17120000000E+03 0.  0.
        998    1    1    2    0    0 -0.10501156284E+03  0.42510392409E+02  0.11877657351E+04  0.11931982247E+04  0.10000000000E+02 0. -1.
</event>
<event>
 5    1  0.1146201E-008  0.3745052E+03  0.7957747E-01  0.3475438E+00
         13   -1    0    0    0    0  0.00000000000E+00  0.00000000000E+00  0.14999999963E+04  0.15000000000E+04  0.10566000000E+00 0. -1.
        994   -1    0    0    0    0 -0.00000000000E+00 -0.00000000000E+00  0.11368683772E-12  0.17120000000E+03  0.17120000000E+03 0.  0.
         13    1    1    2    0    0  0.19290641566E+02 -0.13161171258E+02  0.35939242464E+02  0.42860069924E+02  0.10566000000E+00 0. -1.
        994    1    1    2    0    0 -0.21487468496E+02  0.68733573715E+01  0.86678627970E+01  0.17289744414E+03  0.17120000000E+03 0.  0.
        998    1    1    2    0    0  0.21968269301E+01  0.62878138863E+01  0.14553928910E+04  0.14554424859E+04  0.10000000000E+02 0. -1.
</event>
<event>
 5    1  0.1146201E-008  0.3838597E+03  0.7957747E-01  0.3434523E+00
         13   -1    0    0    0    0  0.00000000000E+00  0.00000000000E+00  0.14999999963E+04  0.15000000000E+04  0.10566000000E+00 0. -1.
        994   -1    0    0    0    0 -0.00000000000E+00 -0.00000000000E+00  0.11368683772E-12  0.17120000000E+03  0.17120000000E+03 0.  0.
         13    1    1    2    0    0 -0.14954823332E+02 -0.14823625251E+02  0.92140673985E+02  0.94516144509E+02  0.10566000000E+00 0. -1.
        994    1    1    2    0    0  0.90310319685E+01  0.28942638205E+02  0.52375083416E+01  0.17394282779E+03  0.17120000000E+03 0.  0.
        998    1    1    2    0    0  0.59237913631E+01 -0.14119012955E+02  0.14026218140E+04  0.14027410277E+04  0.10000000000E+02 0. -1.
</event>
<event>
 5    1  0.1431548E-008  0.3861830E+03  0.7957747E-01  0.3424671E+00
         13   -1    0    0    0    0  0.00000000000E+00  0.00000000000E+00  0.14999999963E+04  0.15000000000E+04  0.10566000000E+00 0. -1.
        994   -1    0    0    0    0 -0.00000000000E+00 -0.00000000000E+00  0.11368683772E-12  0.17120000000E+03  0.17120000000E+03 0.  0.
         13    1    1    2    0    0  0.10702663400E+02  0.50267854925E+00  0.53121112075E+02  0.54190990042E+02  0.10566000000E+00 0. -1.
        994    1    1    2    0    0 -0.14264391690E+02  0.36149698515E+00  0.17112493835E+01  0.17180213015E+03  0.17120000000E+03 0.  0.
        998    1    1    2    0    0  0.35617282900E+01 -0.86417553440E+00  0.14451676348E+04  0.14452068798E+04  0.10000000000E+02 0. -1.
</event>
<event>
 5    1  0.1146201E-008  0.3788807E+03  0.7957747E-01  0.3456047E+00
         13   -1    0    0    0    0  0.00000000000E+00  0.00000000000E+00  0.14999999963E+04  0.15000000000E+04  0.10566000000E+00 0. -1.
        994   -1    0    0    0    0 -0.00000000000E+00 -0.00000000000E+00  0.11368683772E-12  0.17120000000E+03  0.17120000000E+03 0.  0.
         13    1    1    2    0    0  0.22626896907E+02  0.29116698973E+02  0.12727554883E+03  0.13250975480E+03  0.10566000000E+00 0. -1.
        994    1    1    2    0    0 -0.23795565022E+02 -0.36571296944E+02  0.11113400396E+02  0.17702157028E+03  0.17120000000E+03 0.  0.
        998    1    1    2    0    0  0.11686681150E+01  0.74545979712E+01  0.13616110471E+04  0.13616686749E+04  0.10000000000E+02 0. -1.
</event>
<event>
 5    1  0.1146201E-008  0.3755318E+03  0.7957747E-01  0.3470848E+00
         13   -1    0    0    0    0  0.00000000000E+00  0.00000000000E+00  0.14999999963E+04  0.15000000000E+04  0.10566000000E+00 0. -1.
        994   -1    0    0    0    0 -0.00000000000E+00 -0.00000000000E+00  0.11368683772E-12  0.17120000000E+03  0.17120000000E+03 0.  0.
         13    1    1    2    0    0 -0.78398952740E+02  0.40137393071E+02  0.45280006074E+03  0.46128658368E+03  0.10566000000E+00 0. -1.
        994    1    1    2    0    0  0.70608182737E+02 -0.38467451369E+02  0.28669212530E+02  0.19130244126E+03  0.17120000000E+03 0.  0.
        998    1    1    2    0    0  0.77907700030E+01 -0.16699417019E+01  0.10185307230E+04  0.10186109751E+04  0.10000000000E+02 0. -1.
</event>
<event>
 5    1  0.1146201E-008  0.3736675E+03  0.7957747E-01  0.3479204E+00
         13   -1    0    0    0    0  0.00000000000E+00  0.00000000000E+00  0.14999999963E+04  0.15000000000E+04  0.10566000000E+00 0.  1.
        994   -1    0    0    0    0 -0.00000000000E+00 -0.00000000000E+00  0.11368683772E-12  0.17120000000E+03  0.17120000000E+03 0.  0.
         13    1    1    2    0    0  0.37397557558E+02 -0.18650001134E+03  0.10191481928E+04  0.10367467779E+04  0.10566000000E+00 0.  1.
        994    1    1    2    0    0 -0.49710854500E+02  0.16590397851E+03  0.11788733865E+03  0.27055898387E+03  0.17120000000E+03 0.  0.
        998    1    1    2    0    0  0.12313296942E+02  0.20596032828E+02  0.36296446487E+03  0.36389423821E+03  0.10000000000E+02 0.  1.
</event>
<event>
 5    1  0.1146201E-008  0.3817676E+03  0.7957747E-01  0.3443498E+00
         13   -1    0    0    0    0  0.00000000000E+00  0.00000000000E+00  0.14999999963E+04  0.15000000000E+04  0.10566000000E+00 0. -1.
        994   -1    0    0    0    0 -0.00000000000E+00 -0.00000000000E+00  0.11368683772E-12  0.17120000000E+03  0.17120000000E+03 0.  0.
         13    1    1    2    0    0  0.17411385764E+02 -0.47014043702E+01  0.49454243916E+02  0.52640221909E+02  0.10566000000E+00 0. -1.
        994    1    1    2    0    0 -0.89488286995E+01  0.39726450892E+01  0.35621992419E+01  0.17151674177E+03  0.17120000000E+03 0.  0.
        998    1    1    2    0    0 -0.84625570645E+01  0.72875928105E+00  0.14469835531E+04  0.14470430363E+04  0.10000000000E+02 0. -1.
</event>
<event>
 5    1  0.1146201E-008  0.3694757E+03  0.7957747E-01  0.3498304E+00
         13   -1    0    0    0    0  0.00000000000E+00  0.00000000000E+00  0.14999999963E+04  0.15000000000E+04  0.10566000000E+00 0.  1.
        994   -1    0    0    0    0 -0.00000000000E+00 -0.00000000000E+00  0.11368683772E-12  0.17120000000E+03  0.17120000000E+03 0.  0.
         13    1    1    2    0    0 -0.47805994863E+02  0.83686942852E+02  0.48936356362E+03  0.49876409865E+03  0.10566000000E+00 0.  1.
        994    1    1    2    0    0  0.28285121051E+02 -0.32009814055E+02  0.17056320258E+02  0.17727107584E+03  0.17120000000E+03 0.  0.
        998    1    1    2    0    0  0.19520873812E+02 -0.51677128797E+02  0.99358011241E+03  0.99516482551E+03  0.10000000000E+02 0.  1.
</event>
<event>
 5    1  0.1146201E-008  0.3706806E+03  0.7957747E-01  0.3492769E+00
         13   -1    0    0    0    0  0.00000000000E+00  0.00000000000E+00  0.14999999963E+04  0.15000000000E+04  0.10566000000E+00 0. -1.
        994   -1    0    0    0    0 -0.00000000000E+00 -0.00000000000E+00  0.11368683772E-12  0.17120000000E+03  0.17120000000E+03 0.  0.
         13    1    1    2    0    0  0.97359774646E+01  0.11063262377E+02  0.47527700689E+01  0.15484993348E+02  0.10566000000E+00 0. -1.
        994    1    1    2    0    0  0.66081180029E+01  0.61790852896E+01  0.11586047594E+02  0.17182992992E+03  0.17120000000E+03 0.  0.
        998    1    1    2    0    0 -0.16344095467E+02 -0.17242347666E+02  0.14836611786E+04  0.14838850767E+04  0.10000000000E+02 0. -1.
</event>
<event>
 5    1  0.1146201E-008  0.3840641E+03  0.7957747E-01  0.3433651E+00
         13   -1    0    0    0    0  0.00000000000E+00  0.00000000000E+00  0.14999999963E+04  0.15000000000E+04  0.10566000000E+00 0.  1.
        994   -1    0    0    0    0 -0.00000000000E+00 -0.00000000000E+00  0.11368683772E-12  0.17120000000E+03  0.17120000000E+03 0.  0.
         13    1    1    2    0    0 -0.57232133854E+01  0.18649434757E+02  0.85943510706E+02  0.88129761061E+02  0.10566000000E+00 0.  1.
        994    1    1    2    0    0  0.63829478128E+01 -0.19265365518E+02  0.34553765286E+01  0.17243339572E+03  0.17120000000E+03 0.  0.
        998    1    1    2    0    0 -0.65973442745E+00  0.61593076160E+00  0.14106011090E+04  0.14106368432E+04  0.10000000000E+02 0.  1.
</event>
<event>
 5    1  0.1146201E-008  0.3828926E+03  0.7957747E-01  0.3438659E+00
         13   -1    0    0    0    0  0.00000000000E+00  0.00000000000E+00  0.14999999963E+04  0.15000000000E+04  0.10566000000E+00 0.  1.
        994   -1    0    0    0    0 -0.00000000000E+00 -0.00000000000E+00  0.11368683772E-12  0.17120000000E+03  0.17120000000E+03 0.  0.
         13    1    1    2    0    0 -0.29491478353E+01 -0.19999110861E+02  0.76137912428E+02  0.78775978453E+02  0.10566000000E+00 0.  1.
        994    1    1    2    0    0 -0.22563306615E+01  0.11683781127E+02  0.31490734910E+01  0.17164194835E+03  0.17120000000E+03 0.  0.
        998    1    1    2    0    0  0.52054784969E+01  0.83153297337E+01  0.14207130104E+04  0.14207820732E+04  0.10000000000E+02 0.  1.
</event>
<event>
 5    1  0.1146201E-008  0.3848325E+03  0.7957747E-01  0.3430383E+00
         13   -1    0    0    0    0  0.00000000000E+00  0.00000000000E+00  0.14999999963E+04  0.15000000000E+04  0.10566000000E+00 0.  1.
        994   -1    0    0    0    0 -0.00000000000E+00 -0.00000000000E+00  0.11368683772E-12  0.17120000000E+03  0.17120000000E+03 0.  0.
         13    1    1    2    0    0 -0.16070261600E+02 -0.26078862105E+01  0.75814472901E+02  0.77542890349E+02  0.10566000000E+00 0.  1.
        994    1    1    2    0    0  0.13443146863E+02  0.15047191734E+01  0.23156237761E+01  0.17174919066E+03  0.17120000000E+03 0.  0.
        998    1    1    2    0    0  0.26271147364E+01  0.11031670371E+01  0.14218698996E+04  0.14219079190E+04  0.10000000000E+02 0.  1.
</event>
<event>
 5    1  0.1146201E-008  0.3852901E+03  0.7957747E-01  0.3428443E+00
         13   -1    0    0    0    0  0.00000000000E+00  0.00000000000E+00  0.14999999963E+04  0.15000000000E+04  0.10566000000E+00 0.  1.
        994   -1    0    0    0    0 -0.00000000000E+00 -0.00000000000E+00  0.11368683772E-12  0.17120000000E+03  0.17120000000E+03 0.  0.
         13    1    1    2    0    0 -0.11795061445E+02 -0.90871198943E+01  0.61376606591E+02  0.63156933294E+02  0.10566000000E+00 0.  1.
        994    1    1    2    0    0  0.28029986213E+02  0.31927878394E+02  0.74394342363E+01  0.17654986471E+03  0.17120000000E+03 0.  0.
        998    1    1    2    0    0 -0.16234924768E+02 -0.22840758500E+02  0.14311839555E+04  0.14314932020E+04  0.10000000000E+02 0.  1.
</event>
<event>
 5    1  0.1146201E-008  0.3854549E+03  0.7957747E-01  0.3427745E+00
         13   -1    0    0    0    0  0.00000000000E+00  0.00000000000E+00  0.14999999963E+04  0.15000000000E+04  0.10566000000E+00 0. -1.
        994   -1    0    0    0    0 -0.00000000000E+00 -0.00000000000E+00  0.11368683772E-12  0.17120000000E+03  0.17120000000E+03 0.  0.
         13    1    1    2    0    0 -0.25025624554E+01  0.10366360133E+02  0.40149423861E+02  0.41541685590E+02  0.10566000000E+00 0. -1.
        994    1    1    2    0    0  0.43475032107E+01 -0.84362210194E+01  0.17002771001E+01  0.17147128492E+03  0.17120000000E+03 0.  0.
        998    1    1    2    0    0 -0.18449407553E+01 -0.19301391139E+01  0.14581502953E+04  0.14581870295E+04  0.10000000000E+02 0. -1.
</event>
<event>
 5    1  0.1146201E-008  0.3839779E+03  0.7957747E-01  0.3434019E+00
         13   -1    0    0    0    0  0.00000000000E+00  0.00000000000E+00  0.14999999963E+04  0.15000000000E+04  0.10566000000E+00 0. -1.
        994   -1    0    0    0    0 -0.00000000000E+00 -0.00000000000E+00  0.11368683772E-12  0.17120000000E+03  0.17120000000E+03 0.  0.
         13    1    1    2    0    0 -0.15097853379E+02 -0.24532845944E+01  0.55764451371E+02  0.57824294052E+02  0.10566000000E+00 0. -1.
        994    1    1    2    0    0  0.33979454252E+01  0.93039208516E+01  0.24622322048E+01  0.17150396953E+03  0.17120000000E+03 0.  0.
        998    1    1    2    0    0  0.11699907954E+02 -0.68506362572E+01  0.14417733127E+04  0.14418717364E+04  0.10000000000E+02 0. -1.
</event>
<event>
 5    1  0.1146201E-008  0.3788599E+03  0.7957747E-01  0.3456138E+00
         13   -1    0    0    0    0  0.00000000000E+00  0.00000000000E+00  0.14999999963E+04  0.15000000000E+04  0.10566000000E+00 0. -1.
        994   -1    0    0    0    0 -0.00000000000E+00 -0.00000000000E+00  0.11368683772E-12  0.17120000000E+03  0.17120000000E+03 0.  0.
         13    1    1    2    0    0 -0.76771714827E+01 -0.10032734075E+02 -0.21401110132E+01  0.12813506709E+02  0.10566000000E+00 0. -1.
        994    1    1    2    0    0 -0.28618390091E+01  0.10079584341E+02  0.16098832473E+02  0.17227420164E+03  0.17120000000E+03 0.  0.
        998    1    1    2    0    0  0.10539010492E+02 -0.46850266005E-01  0.14860412748E+04  0.14861122917E+04  0.10000000000E+02 0. -1.
</event>
<event>
 5    1  0.1146201E-008  0.3857647E+03  0.7957747E-01  0.3426435E+00
         13   -1    0    0    0    0  0.00000000000E+00  0.00000000000E+00  0.14999999963E+04  0.15000000000E+04  0.10566000000E+00 0. -1.
        994   -1    0    0    0    0 -0.00000000000E+00 -0.00000000000E+00  0.11368683772E-12  0.17120000000E+03  0.17120000000E+03 0.  0.
         13    1    1    2    0    0 -0.29343298803E+01 -0.10923521051E+02  0.52058380308E+02  0.53273067570E+02  0.10566000000E+00 0. -1.
        994    1    1    2    0    0  0.62834882056E+01  0.46254286447E+01  0.14506793385E+01  0.17138384196E+03  0.17120000000E+03 0.  0.
        998    1    1    2    0    0 -0.33491583253E+01  0.62980924063E+01  0.14464909366E+04  0.14465430905E+04  0.10000000000E+02 0. -1.
</event>
<event>
 5    1  0.1146201E-008  0.3751799E+03  0.7957747E-01  0.3472418E+00
         13   -1    0    0    0    0  0.00000000000E+00  0.00000000000E+00  0.14999999963E+04  0.15000000000E+04  0.10566000000E+00 0.  1.
        994   -1    0    0    0    0 -0.00000000000E+00 -0.00000000000E+00  0.11368683772E-12  0.17120000000E+03  0.17120000000E+03 0.  0.
         13    1    1    2    0    0 -0.90856495070E+02  0.79646967598E+02  0.64179010937E+03  0.65306439024E+03  0.10566000000E+00 0.  1.
        994    1    1    2    0    0  0.92684024302E+02 -0.71427787583E+02  0.54622460309E+02  0.21444185778E+03  0.17120000000E+03 0.  0.
        998    1    1    2    0    0 -0.18275292320E+01 -0.82191800153E+01  0.80358742660E+03  0.80369375198E+03  0.10000000000E+02 0.  1.
</event>
<event>
 5    1  0.1146201E-008  0.3750583E+03  0.7957747E-01  0.3472962E+00
         13   -1    0    0    0    0  0.00000000000E+00  0.00000000000E+00  0.14999999963E+04  0.15000000000E+04  0.10566000000E+00 0.  1.
        994   -1    0    0    0    0 -0.00000000000E+00 -0.00000000000E+00  0.11368683772E-12  0.17120000000E+03  0.17120000000E+03 0.  0.
         13    1    1    2    0    0 -0.50178900505E+02 -0.11690941452E+03  0.67343388886E+03  0.68534585947E+03  0.10566000000E+00 0.  1.
        994    1    1    2    0    0  0.46799449935E+02  0.11388677036E+03  0.60053593484E+02  0.21926299065E+03  0.17120000000E+03 0.  0.
        998    1    1    2    0    0  0.33794505699E+01  0.30226441645E+01  0.76651251394E+03  0.76659114989E+03  0.10000000000E+02 0.  0.
</event>
<event>
 5    1  0.1146201E-008  0.4051707E+03  0.7957747E-01  0.3348385E+00
         13   -1    0    0    0    0  0.00000000000E+00  0.00000000000E+00  0.14999999963E+04  0.15000000000E+04  0.10566000000E+00 0. -1.
        994   -1    0    0    0    0 -0.00000000000E+00 -0.00000000000E+00  0.11368683772E-12  0.17120000000E+03  0.17120000000E+03 0.  0.
         13    1    1    2    0    0 -0.34825387302E+02  0.18006989649E+02  0.12988987485E+02  0.41301140867E+02  0.10566000000E+00 0. -1.
        994    1    1    2    0    0 -0.60788663453E+01 -0.54652636406E+02  0.43098215394E+02  0.18490743482E+03  0.17120000000E+03 0.  0.
        998    1    1    2    0    0  0.40904253647E+02  0.36645646757E+02  0.14439127934E+04  0.14449914243E+04  0.10000000000E+02 0. -1.
</event>
<event>
 5    1  0.1146201E-008  0.3805044E+03  0.7957747E-01  0.3448965E+00
         13   -1    0    0    0    0  0.00000000000E+00  0.00000000000E+00  0.14999999963E+04  0.15000000000E+04  0.10566000000E+00 0. -1.
        994   -1    0    0    0    0 -0.00000000000E+00 -0.00000000000E+00  0.11368683772E-12  0.17120000000E+03  0.17120000000E+03 0.  0.
         13    1    1    2    0    0  0.23041412600E+02 -0.40429766184E+01  0.62699306730E+02  0.66921346243E+02  0.10566000000E+00 0. -1.
        994    1    1    2    0    0 -0.39557806790E+02 -0.46643426469E+01  0.91918948600E+01  0.17601280380E+03  0.17120000000E+03 0.  0.
        998    1    1    2    0    0  0.16516394190E+02  0.87073192653E+01  0.14281087947E+04  0.14282658500E+04  0.10000000000E+02 0. -1.
</event>
<event>
 5    1  0.1146201E-008  0.3818929E+03  0.7957747E-01  0.3442958E+00
         13   -1    0    0    0    0  0.00000000000E+00  0.00000000000E+00  0.14999999963E+04  0.15000000000E+04  0.10566000000E+00 0.  1.
        994   -1    0    0    0    0 -0.00000000000E+00 -0.00000000000E+00  0.11368683772E-12  0.17120000000E+03  0.17120000000E+03 0.  0.
         13    1    1    2    0    0 -0.11875944958E+02 -0.27327158575E+02  0.11647031769E+03  0.12022128652E+03  0.10566000000E+00 0.  1.
        994    1    1    2    0    0  0.26086213574E+02  0.39362666584E+02  0.10624400988E+02  0.17791073030E+03  0.17120000000E+03 0.  0.
        998    1    1    2    0    0 -0.14210268616E+02 -0.12035508009E+02  0.13729052776E+04  0.13730679832E+04  0.10000000000E+02 0.  1.
</event>
<event>
 5    1  0.1146201E-008  0.3820184E+03  0.7957747E-01  0.3442417E+00
         13   -1    0    0    0    0  0.00000000000E+00  0.00000000000E+00  0.14999999963E+04  0.15000000000E+04  0.10566000000E+00 0. -1.
        994   -1    0    0    0    0 -0.00000000000E+00 -0.00000000000E+00  0.11368683772E-12  0.17120000000E+03  0.17120000000E+03 0.  0.
         13    1    1    2    0    0  0.18494125950E+02  0.10338445347E+02  0.72260673989E+02  0.75302936969E+02  0.10566000000E+00 0. -1.
        994    1    1    2    0    0 -0.32167319174E+01 -0.14642211466E+02  0.38643935324E+01  0.17189856095E+03  0.17120000000E+03 0.  0.
        998    1    1    2    0    0 -0.15277394033E+02  0.43037661189E+01  0.14238749288E+04  0.14239985021E+04  0.10000000000E+02 0. -1.
</event>
<event>
 5    1  0.1146201E-008  0.3843381E+03  0.7957747E-01  0.3432484E+00
         13   -1    0    0    0    0  0.00000000000E+00  0.00000000000E+00  0.14999999963E+04  0.15000000000E+04  0.10566000000E+00 0. -1.
        994   -1    0    0    0    0 -0.00000000000E+00 -0.00000000000E+00  0.11368683772E-12  0.17120000000E+03  0.17120000000E+03 0.  0.
         13    1    1    2    0    0  0.43483036080E+01  0.18406695324E+02  0.88875271149E+02  0.90865500400E+02  0.10566000000E+00 0. -1.
        994    1    1    2    0    0 -0.11658377489E+02 -0.13330117013E+02  0.29933650877E+01  0.17213950743E+03  0.17120000000E+03 0.  0.
        998    1    1    2    0    0  0.73100738813E+01 -0.50765783111E+01  0.14081313600E+04  0.14081949922E+04  0.10000000000E+02 0. -1.
</event>
<event>
 5    1  0.1146201E-008  0.3798180E+03  0.7957747E-01  0.3451951E+00
         13   -1    0    0    0    0  0.00000000000E+00  0.00000000000E+00  0.14999999963E+04  0.15000000000E+04  0.10566000000E+00 0. -1.
        994   -1    0    0    0    0 -0.00000000000E+00 -0.00000000000E+00  0.11368683772E-12  0.17120000000E+03  0.17120000000E+03 0.  0.
         13    1    1    2    0    0 -0.15455135027E+01  0.21763240754E+02  0.51225942097E+02  0.55678861051E+02  0.10566000000E+00 0. -1.
        994    1    1    2    0    0 -0.14948956344E+02 -0.33132485669E+02  0.86571516667E+01  0.17523018912E+03  0.17120000000E+03 0.  0.
        998    1    1    2    0    0  0.16494469847E+02  0.11369244915E+02  0.14401169025E+04  0.14402909498E+04  0.10000000000E+02 0. -1.
</event>
<event>
 5    1  0.1146201E-008  0.3801955E+03  0.7957747E-01  0.3450308E+00
         13   -1    0    0    0    0  0.00000000000E+00  0.00000000000E+00  0.14999999963E+04  0.15000000000E+04  0.10566000000E+00 0. -1.
        994   -1    0    0    0    0 -0.00000000000E+00 -0.00000000000E+00  0.11368683772E-12  0.17120000000E+03  0.17120000000E+03 0.  0.
         13    1    1    2    0    0 -0.15363565267E+02  0.10101521785E+02  0.40523372047E+02  0.44499828384E+02  0.10566000000E+00 0. -1.
        994    1    1    2    0    0  0.63660576923E+01 -0.10518718728E+02  0.45396545833E+01  0.17170095689E+03  0.17120000000E+03 0.  0.
        998    1    1    2    0    0  0.89975075745E+01  0.41719694279E+00  0.14549369696E+04  0.14549992147E+04  0.10000000000E+02 0. -1.
</event>
<event>
 5    1  0.1146201E-008  0.3799013E+03  0.7957747E-01  0.3451588E+00
         13   -1    0    0    0    0  0.00000000000E+00  0.00000000000E+00  0.14999999963E+04  0.15000000000E+04  0.10566000000E+00 0. -1.
        994   -1    0    0    0    0 -0.00000000000E+00 -0.00000000000E+00  0.11368683772E-12  0.17120000000E+03  0.17120000000E+03 0.  0.
         13    1    1    2    0    0  0.17820032142E+02 -0.11753272512E+02  0.51147617937E+02  0.55423667732E+02  0.10566000000E+00 0. -1.
        994    1    1    2    0    0 -0.18402296141E+02  0.13665339372E+02  0.59418588016E+01  0.17282977663E+03  0.17120000000E+03 0.  0.
        998    1    1    2    0    0  0.58226399952E+00 -0.19120668595E+01  0.14429105195E+04  0.14429465556E+04  0.10000000000E+02 0. -1.
</event>
<event>
 5    1  0.2403803E-008  0.3861031E+03  0.7957747E-01  0.3425007E+00
         13   -1    0    0    0    0  0.00000000000E+00  0.00000000000E+00  0.14999999963E+04  0.15000000000E+04  0.10566000000E+00 0. -1.
        994   -1    0    0    0    0 -0.00000000000E+00 -0.00000000000E+00  0.11368683772E-12  0.17120000000E+03  0.17120000000E+03 0.  0.
         13    1    1    2    0    0  0.11042993481E+02  0.14790715841E-01  0.59368054900E+02  0.60386463967E+02  0.10566000000E+00 0. -1.
        994    1    1    2    0    0 -0.20785363897E+01 -0.65831348833E+01  0.12396577522E+01  0.17134361596E+03  0.17120000000E+03 0.  0.
        998    1    1    2    0    0 -0.89644570911E+01  0.65683441675E+01  0.14393922836E+04  0.14394699201E+04  0.10000000000E+02 0. -1.
</event>
<event>
 5    1  0.1146201E-008  0.3802449E+03  0.7957747E-01  0.3450093E+00
         13   -1    0    0    0    0  0.00000000000E+00  0.00000000000E+00  0.14999999963E+04  0.15000000000E+04  0.10566000000E+00 0. -1.
        994   -1    0    0    0    0 -0.00000000000E+00 -0.00000000000E+00  0.11368683772E-12  0.17120000000E+03  0.17120000000E+03 0.  0.
         13    1    1    2    0    0 -0.19965297566E+02  0.46376047333E+01  0.49760827910E+02  0.53817020012E+02  0.10566000000E+00 0. -1.
        994    1    1    2    0    0  0.17771435484E+02 -0.91659222022E+01  0.53462422547E+01  0.17244668844E+03  0.17120000000E+03 0.  0.
        998    1    1    2    0    0  0.21938620825E+01  0.45283174689E+01  0.14448929261E+04  0.14449362915E+04  0.10000000000E+02 0. -1.
</event>
<event>
 5    1  0.1146201E-008  0.3772689E+03  0.7957747E-01  0.3463137E+00
         13   -1    0    0    0    0  0.00000000000E+00  0.00000000000E+00  0.14999999963E+04  0.15000000000E+04  0.10566000000E+00 0. -1.
        994   -1    0    0    0    0 -0.00000000000E+00 -0.00000000000E+00  0.11368683772E-12  0.17120000000E+03  0.17120000000E+03 0.  0.
         13    1    1    2    0    0 -0.49059923413E+02  0.20487836628E+02  0.21517322906E+03  0.22164421311E+03  0.10566000000E+00 0. -1.
        994    1    1    2    0    0  0.46874053273E+02 -0.33056584917E+02  0.16697979145E+02  0.18132340495E+03  0.17120000000E+03 0.  0.
        998    1    1    2    0    0  0.21858701392E+01  0.12568748289E+02  0.12681287881E+04  0.12682323819E+04  0.10000000000E+02 0. -1.
</event>
<event>
 5    1  0.1146201E-008  0.3758102E+03  0.7957747E-01  0.3469607E+00
         13   -1    0    0    0    0  0.00000000000E+00  0.00000000000E+00  0.14999999963E+04  0.15000000000E+04  0.10566000000E+00 0. -1.
        994   -1    0    0    0    0 -0.00000000000E+00 -0.00000000000E+00  0.11368683772E-12  0.17120000000E+03  0.17120000000E+03 0.  0.
         13    1    1    2    0    0 -0.18792567390E+02 -0.10672420695E+02  0.34502156055E+02  0.40712050908E+02  0.10566000000E+00 0. -1.
        994    1    1    2    0    0  0.16512564469E+02  0.56519022378E+01  0.72965518705E+01  0.17224194743E+03  0.17120000000E+03 0.  0.
        998    1    1    2    0    0  0.22800029214E+01  0.50205184575E+01  0.14582012884E+04  0.14582460017E+04  0.10000000000E+02 0. -1.
</event>
<event>
 5    1  0.1146201E-008  0.3793299E+03  0.7957747E-01  0.3454082E+00
         13   -1    0    0    0    0  0.00000000000E+00  0.00000000000E+00  0.14999999963E+04  0.15000000000E+04  0.10566000000E+00 0. -1.
        994   -1    0    0    0    0 -0.00000000000E+00 -0.00000000000E+00  0.11368683772E-12  0.17120000000E+03  0.17120000000E+03 0.  0.
         13    1    1    2    0    0  0.13192150861E+03 -0.19145132419E+03  0.93516333673E+03  0.96363238400E+03  0.10566000000E+00 0. -1.
        994    1    1    2    0    0 -0.13802956178E+03  0.20287678817E+03  0.24335914597E+03  0.38567378059E+03  0.17120000000E+03 0.  0.
        998    1    1    2    0    0  0.61080531681E+01 -0.11425463981E+02  0.32147751358E+03  0.32189383541E+03  0.10000000000E+02 0. -1.
</event>
<event>
 5    1  0.1146201E-008  0.3857533E+03  0.7957747E-01  0.3426484E+00
         13   -1    0    0    0    0  0.00000000000E+00  0.00000000000E+00  0.14999999963E+04  0.15000000000E+04  0.10566000000E+00 0.  1.
        994   -1    0    0    0    0 -0.00000000000E+00 -0.00000000000E+00  0.11368683772E-12  0.17120000000E+03  0.17120000000E+03 0.  0.
         13    1    1    2    0    0 -0.75103258399E+01  0.12754759024E+02  0.83591001060E+02  0.84891433574E+02  0.10566000000E+00 0.  1.
        994    1    1    2    0    0  0.67027239413E+01 -0.14419031781E+02  0.20864844674E+01  0.17194949376E+03  0.17120000000E+03 0.  0.
        998    1    1    2    0    0  0.80760189863E+00  0.16642727573E+01  0.14143225108E+04  0.14143590727E+04  0.10000000000E+02 0.  1.
</event>
<event>
 5    1  0.1146201E-008  0.3833886E+03  0.7957747E-01  0.3436535E+00
         13   -1    0    0    0    0  0.00000000000E+00  0.00000000000E+00  0.14999999963E+04  0.15000000000E+04  0.10566000000E+00 0.  1.
        994   -1    0    0    0    0 -0.00000000000E+00 -0.00000000000E+00  0.11368683772E-12  0.17120000000E+03  0.17120000000E+03 0.  0.
         13    1    1    2    0    0  0.28454069116E+02  0.65122785548E+01  0.16510100433E+03  0.16766155378E+03  0.10566000000E+00 0.  1.
        994    1    1    2    0    0 -0.21031956511E+02 -0.16223265649E+02  0.47682047717E+01  0.17331391554E+03  0.17120000000E+03 0.  0.
        998    1    1    2    0    0 -0.74221126053E+01  0.97109870945E+01  0.13301307872E+04  0.13302245307E+04  0.10000000000E+02 0.  1.
</event>
<event>
 5    1  0.1146201E-008  0.3984263E+03  0.7957747E-01  0.3374652E+00
         13   -1    0    0    0    0  0.00000000000E+00  0.00000000000E+00  0.14999999963E+04  0.15000000000E+04  0.10566000000E+00 0.  1.
        994   -1    0    0    0    0 -0.00000000000E+00 -0.00000000000E+00  0.11368683772E-12  0.17120000000E+03  0.17120000000E+03 0.  0.
         13    1    1    2    0    0  0.24004403272E+02  0.17457499340E+02  0.53830635313E+01  0.30165612817E+02  0.10566000000E+00 0.  1.
        994    1    1    2    0    0  0.10833314909E+01 -0.28274064492E+02  0.29961583114E+02  0.17609012690E+03  0.17120000000E+03 0.  0.
        998    1    1    2    0    0 -0.25087734763E+02  0.10816565152E+02  0.14646553496E+04  0.14649442603E+04  0.10000000000E+02 0.  1.
</event>
<event>
 5    1  0.1146201E-008  0.3706885E+03  0.7957747E-01  0.3492732E+00
         13   -1    0    0    0    0  0.00000000000E+00  0.00000000000E+00  0.14999999963E+04  0.15000000000E+04  0.10566000000E+00 0.  1.
        994   -1    0    0    0    0 -0.00000000000E+00 -0.00000000000E+00  0.11368683772E-12  0.17120000000E+03  0.17120000000E+03 0.  0.
         13    1    1    2    0    0  0.59928657765E+02  0.53121711882E+02  0.23593771642E+03  0.24915853887E+03  0.10566000000E+00 0.  1.
        994    1    1    2    0    0 -0.62499521034E+02 -0.50041434355E+02  0.34119950607E+02  0.19205193649E+03  0.17120000000E+03 0.  0.
        998    1    1    2    0    0  0.25708632693E+01 -0.30802775269E+01  0.12299423292E+04  0.12299895246E+04  0.10000000000E+02 0.  1.
</event>
<event>
 5    1  0.2228654E-008  0.3864376E+03  0.7957747E-01  0.3423598E+00
         13   -1    0    0    0    0  0.00000000000E+00  0.00000000000E+00  0.14999999963E+04  0.15000000000E+04  0.10566000000E+00 0. -1.
        994   -1    0    0    0    0 -0.00000000000E+00 -0.00000000000E+00  0.11368683772E-12  0.17120000000E+03  0.17120000000E+03 0.  0.
         13    1    1    2    0    0 -0.70291708217E+01  0.82352946532E+01  0.64367168347E+02  0.65271531662E+02  0.10566000000E+00 0. -1.
        994    1    1    2    0    0  0.40338894404E+01 -0.79661471437E+01  0.11791263578E+01  0.17143675832E+03  0.17120000000E+03 0.  0.
        998    1    1    2    0    0  0.29952813812E+01 -0.26914750959E+00  0.14344537016E+04  0.14344917100E+04  0.10000000000E+02 0. -1.
</event>
<event>
 5    1  0.1146201E-008  0.3747064E+03  0.7957747E-01  0.3474537E+00
         13   -1    0    0    0    0  0.00000000000E+00  0.00000000000E+00  0.14999999963E+04  0.15000000000E+04  0.10566000000E+00 0. -1.
        994   -1    0    0    0    0 -0.00000000000E+00 -0.00000000000E+00  0.11368683772E-12  0.17120000000E+03  0.17120000000E+03 0.  0.
         13    1    1    2    0    0 -0.81962605766E+01 -0.49123684079E+02  0.83723921909E+02  0.97416740290E+02  0.10566000000E+00 0. -1.
        994    1    1    2    0    0 -0.62084544702E+02  0.56696597598E+02  0.39024606673E+02  0.19468270287E+03  0.17120000000E+03 0.  0.
        998    1    1    2    0    0  0.70280805279E+02 -0.75729135193E+01  0.13772514677E+04  0.13791005568E+04  0.10000000000E+02 0. -1.
</event>
<event>
 5    1  0.1146201E-008  0.3810059E+03  0.7957747E-01  0.3446790E+00
         13   -1    0    0    0    0  0.00000000000E+00  0.00000000000E+00  0.14999999963E+04  0.15000000000E+04  0.10566000000E+00 0.  1.
        994   -1    0    0    0    0 -0.00000000000E+00 -0.00000000000E+00  0.11368683772E-12  0.17120000000E+03  0.17120000000E+03 0.  0.
         13    1    1    2    0    0 -0.26969783011E+02 -0.14719043520E+02  0.11565768608E+03  0.11966925650E+03  0.10566000000E+00 0.  1.
        994    1    1    2    0    0  0.34291219540E+02  0.14998990312E+02  0.83077574831E+01  0.17544034964E+03  0.17120000000E+03 0.  0.
        998    1    1    2    0    0 -0.73214365286E+01 -0.27994679270E+00  0.13760345527E+04  0.13760903939E+04  0.10000000000E+02 0.  1.
</event>
<event>
 5    1  0.1146201E-008  0.3786615E+03  0.7957747E-01  0.3457007E+00
         13   -1    0    0    0    0  0.00000000000E+00  0.00000000000E+00  0.14999999963E+04  0.15000000000E+04  0.10566000000E+00 0. -1.
        994   -1    0    0    0    0 -0.00000000000E+00 -0.00000000000E+00  0.11368683772E-12  0.17120000000E+03  0.17120000000E+03 0.  0.
         13    1    1    2    0    0  0.57617130086E+01 -0.11026121183E+02  0.14755849359E+02  0.19300749713E+02  0.10566000000E+00 0. -1.
        994    1    1    2    0    0 -0.19783018154E+01 -0.16258260248E+02  0.57115334980E+01  0.17207645487E+03  0.17120000000E+03 0.  0.
        998    1    1    2    0    0 -0.37834111933E+01  0.27284381430E+02  0.14795326134E+04  0.14798227954E+04  0.10000000000E+02 0. -1.
</event>
<event>
 5    1  0.1146201E-008  0.3778652E+03  0.7957747E-01  0.3460507E+00
         13   -1    0    0    0    0  0.00000000000E+00  0.00000000000E+00  0.14999999963E+04  0.15000000000E+04  0.10566000000E+00 0.  1.
        994   -1    0    0    0    0 -0.00000000000E+00 -0.00000000000E+00  0.11368683772E-12  0.17120000000E+03  0.17120000000E+03 0.  0.
         13    1    1    2    0    0 -0.31506329310E+02 -0.91736104351E+02  0.53586144973E+03  0.54456924822E+03  0.10566000000E+00 0.  1.
        994    1    1    2    0    0  0.32089473541E+02  0.96302027508E+02  0.40728733307E+02  0.20315532120E+03  0.17120000000E+03 0.  0.
        998    1    1    2    0    0 -0.58314423051E+00 -0.45659231568E+01  0.92340981324E+03  0.92347543059E+03  0.10000000000E+02 0.  1.
</event>
<event>
 5    1  0.1146201E-008  0.3734612E+03  0.7957747E-01  0.3480134E+00
         13   -1    0    0    0    0  0.00000000000E+00  0.00000000000E+00  0.14999999963E+04  0.15000000000E+04  0.10566000000E+00 0. -1.
        994   -1    0    0    0    0 -0.00000000000E+00 -0.00000000000E+00  0.11368683772E-12  0.17120000000E+03  0.17120000000E+03 0.  0.
         13    1    1    2    0    0 -0.24352750754E+01 -0.40170955340E+02  0.21061596932E+03  0.21442652334E+03  0.10566000000E+00 0. -1.
        994    1    1    2    0    0 -0.23112513617E+02 -0.78465936375E+02  0.30691083863E+02  0.19220425096E+03  0.17120000000E+03 0.  0.
        998    1    1    2    0    0  0.25547788692E+02  0.11863689172E+03  0.12586929431E+04  0.12645692257E+04  0.10000000000E+02 0. -1.
</event>
<event>
 5    1  0.1146201E-008  0.3837373E+03  0.7957747E-01  0.3435045E+00
         13   -1    0    0    0    0  0.00000000000E+00  0.00000000000E+00  0.14999999963E+04  0.15000000000E+04  0.10566000000E+00 0. -1.
        994   -1    0    0    0    0 -0.00000000000E+00 -0.00000000000E+00  0.11368683772E-12  0.17120000000E+03  0.17120000000E+03 0.  0.
         13    1    1    2    0    0  0.14864275896E+02 -0.60663337137E+00  0.48056337261E+02  0.50306435144E+02  0.10566000000E+00 0. -1.
        994    1    1    2    0    0 -0.11516117049E+02  0.67383425294E+00  0.26978851229E+01  0.17160942162E+03  0.17120000000E+03 0.  0.
        998    1    1    2    0    0 -0.33481588472E+01 -0.67200881573E-01  0.14492457739E+04  0.14492841432E+04  0.10000000000E+02 0. -1.
</event>
<event>
 5    1  0.1146201E-008  0.3808403E+03  0.7957747E-01  0.3447508E+00
         13   -1    0    0    0    0  0.00000000000E+00  0.00000000000E+00  0.14999999963E+04  0.15000000000E+04  0.10566000000E+00 0.  1.
        994   -1    0    0    0    0 -0.00000000000E+00 -0.00000000000E+00  0.11368683772E-12  0.17120000000E+03  0.17120000000E+03 0.  0.
         13    1    1    2    0    0  0.19603317951E+01  0.35429341861E+02  0.15326775688E+03  0.15732163751E+03  0.10566000000E+00 0.  1.
        994    1    1    2    0    0  0.76238901460E+01 -0.35691720504E+02  0.81628169191E+01  0.17523725116E+03  0.17120000000E+03 0.  0.
        998    1    1    2    0    0 -0.95842219411E+01  0.26237864333E+00  0.13385694225E+04  0.13386411113E+04  0.10000000000E+02 0.  1.
</event>
<event>
 5    1  0.1146201E-008  0.3833577E+03  0.7957747E-01  0.3436667E+00
         13   -1    0    0    0    0  0.00000000000E+00  0.00000000000E+00  0.14999999963E+04  0.15000000000E+04  0.10566000000E+00 0.  1.
        994   -1    0    0    0    0 -0.00000000000E+00 -0.00000000000E+00  0.11368683772E-12  0.17120000000E+03  0.17120000000E+03 0.  0.
         13    1    1    2    0    0  0.10219404295E+02  0.50275402990E+00  0.20444156887E+02  0.22861839397E+02  0.10566000000E+00 0.  1.
        994    1    1    2    0    0 -0.83150902590E+01  0.23292019829E+01  0.26942853972E+01  0.17143880856E+03  0.17120000000E+03 0.  0.
        998    1    1    2    0    0 -0.19043140365E+01 -0.28319560128E+01  0.14768615540E+04  0.14768993520E+04  0.10000000000E+02 0.  1.
</event>
<event>
 5    1  0.1146201E-008  0.3098619E+03  0.7957747E-01  0.3828036E+00
         13   -1    0    0    0    0  0.00000000000E+00  0.00000000000E+00  0.14999999963E+04  0.15000000000E+04  0.10566000000E+00 0.  1.
        994   -1    0    0    0    0 -0.00000000000E+00 -0.00000000000E+00  0.11368683772E-12  0.17120000000E+03  0.17120000000E+03 0.  0.
         13    1    1    2    0    0  0.16457883667E+03  0.49058106110E+02  0.82728023925E+03  0.84491744962E+03  0.10566000000E+00 0.  1.
        994    1    1    2    0    0 -0.96401501582E+02 -0.72537344144E+02  0.72450953620E+02  0.22161565036E+03  0.17120000000E+03 0.  0.
        998    1    1    2    0    0 -0.68177335088E+02  0.23479238033E+02  0.60026880341E+03  0.60466690002E+03  0.10000000000E+02 0.  1.
</event>
<event>
 5    1  0.1146201E-008  0.3819067E+03  0.7957747E-01  0.3442898E+00
         13   -1    0    0    0    0  0.00000000000E+00  0.00000000000E+00  0.14999999963E+04  0.15000000000E+04  0.10566000000E+00 0.  1.
        994   -1    0    0    0    0 -0.00000000000E+00 -0.00000000000E+00  0.11368683772E-12  0.17120000000E+03  0.17120000000E+03 0.  0.
         13    1    1    2    0    0  0.54097165700E+01 -0.23605709112E+02  0.83286829119E+02  0.86736391468E+02  0.10566000000E+00 0.  1.
        994    1    1    2    0    0 -0.16313991223E+02  0.29971825545E+02  0.70516854504E+01  0.17471011105E+03  0.17120000000E+03 0.  0.
        998    1    1    2    0    0  0.10904274653E+02 -0.63661164338E+01  0.14096614817E+04  0.14097534975E+04  0.10000000000E+02 0.  1.
</event>
<event>
 5    1  0.1146201E-008  0.3801827E+03  0.7957747E-01  0.3450363E+00
         13   -1    0    0    0    0  0.00000000000E+00  0.00000000000E+00  0.14999999963E+04  0.15000000000E+04  0.10566000000E+00 0.  1.
        994   -1    0    0    0    0 -0.00000000000E+00 -0.00000000000E+00  0.11368683772E-12  0.17120000000E+03  0.17120000000E+03 0.  0.
         13    1    1    2    0    0  0.10239293410E+02  0.50679833360E+02  0.27748370318E+03  0.28225964170E+03  0.10566000000E+00 0.  1.
        994    1    1    2    0    0 -0.21072014205E+02 -0.46013282679E+02  0.12645717644E+02  0.17897096452E+03  0.17120000000E+03 0.  0.
        998    1    1    2    0    0  0.10832720795E+02 -0.46665506808E+01  0.12098705755E+04  0.12099693938E+04  0.10000000000E+02 0.  1.
</event>
<event>
 5    1  0.1146201E-008  0.3786722E+03  0.7957747E-01  0.3456961E+00
         13   -1    0    0    0    0  0.00000000000E+00  0.00000000000E+00  0.14999999963E+04  0.15000000000E+04  0.10566000000E+00 0. -1.
        994   -1    0    0    0    0 -0.00000000000E+00 -0.00000000000E+00  0.11368683772E-12  0.17120000000E+03  0.17120000000E+03 0.  0.
         13    1    1    2    0    0 -0.11135571786E+01 -0.13678716485E+02  0.18159154661E+02  0.22762103512E+02  0.10566000000E+00 0. -1.
        994    1    1    2    0    0 -0.27851559406E+01 -0.37767496233E+01  0.48788661957E+01  0.17133378028E+03  0.17120000000E+03 0.  0.
        998    1    1    2    0    0  0.38987131193E+01  0.17455466108E+02  0.14769619754E+04  0.14771041162E+04  0.10000000000E+02 0. -1.
</event>
<event>
 5    1  0.1146201E-008  0.3778712E+03  0.7957747E-01  0.3460480E+00
         13   -1    0    0    0    0  0.00000000000E+00  0.00000000000E+00  0.14999999963E+04  0.15000000000E+04  0.10566000000E+00 0.  1.
        994   -1    0    0    0    0 -0.00000000000E+00 -0.00000000000E+00  0.11368683772E-12  0.17120000000E+03  0.17120000000E+03 0.  0.
         13    1    1    2    0    0 -0.29505938910E+02  0.14019385975E+02  0.12232115674E+03  0.12660813625E+03  0.10566000000E+00 0.  1.
        994    1    1    2    0    0 -0.57591343587E+01  0.27398485287E+02  0.78550223552E+01  0.17365191044E+03  0.17120000000E+03 0.  0.
        998    1    1    2    0    0  0.35265073268E+02 -0.41417871262E+02  0.13698238172E+04  0.13709399533E+04  0.10000000000E+02 0.  1.
</event>
<event>
 5    1  0.1146201E-008  0.3842284E+03  0.7957747E-01  0.3432951E+00
         13   -1    0    0    0    0  0.00000000000E+00  0.00000000000E+00  0.14999999963E+04  0.15000000000E+04  0.10566000000E+00 0.  1.
        994   -1    0    0    0    0 -0.00000000000E+00 -0.00000000000E+00  0.11368683772E-12  0.17120000000E+03  0.17120000000E+03 0.  0.
         13    1    1    2    0    0 -0.87798016118E+01 -0.10377949554E+02  0.48826082277E+02  0.50683174998E+02  0.10566000000E+00 0.  1.
        994    1    1    2    0    0 -0.73915636607E+01 -0.18488809407E+00  0.21939632421E+01  0.17137363529E+03  0.17120000000E+03 0.  0.
        998    1    1    2    0    0  0.16171365272E+02  0.10562837648E+02  0.14489799508E+04  0.14491431897E+04  0.10000000000E+02 0.  1.
</event>
<event>
 5    1  0.1146201E-008  0.3711539E+03  0.7957747E-01  0.3490605E+00
         13   -1    0    0    0    0  0.00000000000E+00  0.00000000000E+00  0.14999999963E+04  0.15000000000E+04  0.10566000000E+00 0.  1.
        994   -1    0    0    0    0 -0.00000000000E+00 -0.00000000000E+00  0.11368683772E-12  0.17120000000E+03  0.17120000000E+03 0.  0.
         13    1    1    2    0    0 -0.20339433144E+02 -0.14484701277E+02  0.32833792101E+02  0.41250068842E+02  0.10566000000E+00 0.  1.
        994    1    1    2    0    0  0.12971635887E+02  0.33906340027E+01  0.92865067192E+01  0.17197511141E+03  0.17120000000E+03 0.  0.
        998    1    1    2    0    0  0.73677972572E+01  0.11094067274E+02  0.14578796975E+04  0.14579748198E+04  0.10000000000E+02 0.  1.
</event>
<event>
 5    1  0.1146201E-008  0.3854465E+03  0.7957747E-01  0.3427781E+00
         13   -1    0    0    0    0  0.00000000000E+00  0.00000000000E+00  0.14999999963E+04  0.15000000000E+04  0.10566000000E+00 0.  1.
        994   -1    0    0    0    0 -0.00000000000E+00 -0.00000000000E+00  0.11368683772E-12  0.17120000000E+03  0.17120000000E+03 0.  0.
         13    1    1    2    0    0  0.16886901289E+02 -0.53444148644E+01  0.10608628098E+03  0.10755482501E+03  0.10566000000E+00 0.  1.
        994    1    1    2    0    0 -0.17036695721E+02  0.37869935921E+01  0.24094946263E+01  0.17210414285E+03  0.17120000000E+03 0.  0.
        998    1    1    2    0    0  0.14979443257E+00  0.15574212723E+01  0.13915042207E+04  0.13915410321E+04  0.10000000000E+02 0.  1.
</event>
<event>
 5    1  0.1146201E-008  0.3855386E+03  0.7957747E-01  0.3427391E+00
         13   -1    0    0    0    0  0.00000000000E+00  0.00000000000E+00  0.14999999963E+04  0.15000000000E+04  0.10566000000E+00 0. -1.
        994   -1    0    0    0    0 -0.00000000000E+00 -0.00000000000E+00  0.11368683772E-12  0.17120000000E+03  0.17120000000E+03 0.  0.
         13    1    1    2    0    0  0.64610522749E+01 -0.81161454941E+01  0.39468813558E+02  0.40809501613E+02  0.10566000000E+00 0. -1.
        994    1    1    2    0    0 -0.26365519556E+01  0.77362581590E+01  0.15823066380E+01  0.17140228934E+03  0.17120000000E+03 0.  0.
        998    1    1    2    0    0 -0.38245003193E+01  0.37988733510E+00  0.14589488761E+04  0.14589882090E+04  0.10000000000E+02 0. -1.
</event>
<event>
 5    1  0.1146201E-008  0.3849469E+03  0.7957747E-01  0.3429898E+00
         13   -1    0    0    0    0  0.00000000000E+00  0.00000000000E+00  0.14999999963E+04  0.15000000000E+04  0.10566000000E+00 0.  1.
        994   -1    0    0    0    0 -0.00000000000E+00 -0.00000000000E+00  0.11368683772E-12  0.17120000000E+03  0.17120000000E+03 0.  0.
         13    1    1    2    0    0  0.15154936338E+02 -0.48302063858E+01  0.77878222295E+02  0.79486046958E+02  0.10566000000E+00 0.  1.
        994    1    1    2    0    0 -0.35630724611E+01  0.14372774894E+02  0.23780844131E+01  0.17185565871E+03  0.17120000000E+03 0.  0.
        998    1    1    2    0    0 -0.11591863876E+02 -0.95425685082E+01  0.14197436896E+04  0.14198582943E+04  0.10000000000E+02 0.  1.
</event>
<event>
 5    1  0.1146201E-008  0.3842372E+03  0.7957747E-01  0.3432914E+00
         13   -1    0    0    0    0  0.00000000000E+00  0.00000000000E+00  0.14999999963E+04  0.15000000000E+04  0.10566000000E+00 0. -1.
        994   -1    0    0    0    0 -0.00000000000E+00 -0.00000000000E+00  0.11368683772E-12  0.17120000000E+03  0.17120000000E+03 0.  0.
         13    1    1    2    0    0 -0.13897998211E+02 -0.75801142534E+01  0.68334710527E+02  0.70144538727E+02  0.10566000000E+00 0. -1.
        994    1    1    2    0    0 -0.17933019417E+01 -0.88032593998E+01  0.22754729088E+01  0.17145066662E+03  0.17120000000E+03 0.  0.
        998    1    1    2    0    0  0.15691300152E+02  0.16383373653E+02  0.14293898128E+04  0.14296047947E+04  0.10000000000E+02 0. -1.
</event>
<event>
 5    1  0.1146201E-008  0.3696210E+03  0.7957747E-01  0.3497635E+00
         13   -1    0    0    0    0  0.00000000000E+00  0.00000000000E+00  0.14999999963E+04  0.15000000000E+04  0.10566000000E+00 0.  1.
        994   -1    0    0    0    0 -0.00000000000E+00 -0.00000000000E+00  0.11368683772E-12  0.17120000000E+03  0.17120000000E+03 0.  0.
         13    1    1    2    0    0  0.87344577341E+02 -0.57733522230E+02  0.39733798949E+03  0.41090111199E+03  0.10566000000E+00 0.  1.
        994    1    1    2    0    0 -0.76150194527E+02  0.56062952334E+02  0.42645621289E+02  0.20017491293E+03  0.17120000000E+03 0.  0.
        998    1    1    2    0    0 -0.11194382814E+02  0.16705698957E+01  0.10600163855E+04  0.10601239751E+04  0.10000000000E+02 0.  1.
</event>
<event>
 5    1  0.1146201E-008  0.3851174E+03  0.7957747E-01  0.3429175E+00
         13   -1    0    0    0    0  0.00000000000E+00  0.00000000000E+00  0.14999999963E+04  0.15000000000E+04  0.10566000000E+00 0.  1.
        994   -1    0    0    0    0 -0.00000000000E+00 -0.00000000000E+00  0.11368683772E-12  0.17120000000E+03  0.17120000000E+03 0.  0.
         13    1    1    2    0    0  0.14522224441E+02 -0.74930307393E+01  0.86651842707E+02  0.88179325927E+02  0.10566000000E+00 0.  1.
        994    1    1    2    0    0 -0.22780333977E+01  0.13705177471E+02  0.22066816399E+01  0.17177697974E+03  0.17120000000E+03 0.  0.
        998    1    1    2    0    0 -0.12244191043E+02 -0.62121467318E+01  0.14111414719E+04  0.14112436943E+04  0.10000000000E+02 0.  1.
</event>
<event>
 5    1  0.1146201E-008  0.3821017E+03  0.7957747E-01  0.3442058E+00
         13   -1    0    0    0    0  0.00000000000E+00  0.00000000000E+00  0.14999999963E+04  0.15000000000E+04  0.10566000000E+00 0. -1.
        994   -1    0    0    0    0 -0.00000000000E+00 -0.00000000000E+00  0.11368683772E-12  0.17120000000E+03  0.17120000000E+03 0.  0.
         13    1    1    2    0    0 -0.29910830051E+02  0.13933723199E+02  0.15938389693E+03  0.16276376797E+03  0.10566000000E+00 0. -1.
        994    1    1    2    0    0  0.31916205310E+02 -0.94842755490E+01  0.67651082323E+01  0.17453882758E+03  0.17120000000E+03 0.  0.
        998    1    1    2    0    0 -0.20053752589E+01 -0.44494476505E+01  0.13338509911E+04  0.13338974045E+04  0.10000000000E+02 0. -1.
</event>
<event>
 5    1  0.1146201E-008  0.3826457E+03  0.7957747E-01  0.3439719E+00
         13   -1    0    0    0    0  0.00000000000E+00  0.00000000000E+00  0.14999999963E+04  0.15000000000E+04  0.10566000000E+00 0. -1.
        994   -1    0    0    0    0 -0.00000000000E+00 -0.00000000000E+00  0.11368683772E-12  0.17120000000E+03  0.17120000000E+03 0.  0.
         13    1    1    2    0    0 -0.15945764947E+01 -0.32024582542E+02  0.18451201812E+03  0.18727736797E+03  0.10566000000E+00 0. -1.
        994    1    1    2    0    0  0.24994552483E+02  0.17318784485E+02  0.58738676702E+01  0.17397876385E+03  0.17120000000E+03 0.  0.
        998    1    1    2    0    0 -0.23399975989E+02  0.14705798058E+02  0.13096141105E+04  0.13099438682E+04  0.10000000000E+02 0. -1.
</event>
<event>
 5    1  0.1146201E-008  0.3813570E+03  0.7957747E-01  0.3445271E+00
         13   -1    0    0    0    0  0.00000000000E+00  0.00000000000E+00  0.14999999963E+04  0.15000000000E+04  0.10566000000E+00 0. -1.
        994   -1    0    0    0    0 -0.00000000000E+00 -0.00000000000E+00  0.11368683772E-12  0.17120000000E+03  0.17120000000E+03 0.  0.
         13    1    1    2    0    0 -0.12547235830E+02  0.18092176864E+02  0.70053781191E+02  0.73432304975E+02  0.10566000000E+00 0. -1.
        994    1    1    2    0    0 -0.89245357619E+00 -0.14058688477E+02  0.41103867870E+01  0.17182775816E+03  0.17120000000E+03 0.  0.
        998    1    1    2    0    0  0.13439689406E+02 -0.40334883865E+01  0.14258358283E+04  0.14259399369E+04  0.10000000000E+02 0. -1.
</event>
<event>
 5    1  0.1146201E-008  0.3794623E+03  0.7957747E-01  0.3453503E+00
         13   -1    0    0    0    0  0.00000000000E+00  0.00000000000E+00  0.14999999963E+04  0.15000000000E+04  0.10566000000E+00 0. -1.
        994   -1    0    0    0    0 -0.00000000000E+00 -0.00000000000E+00  0.11368683772E-12  0.17120000000E+03  0.17120000000E+03 0.  0.
         13    1    1    2    0    0  0.86968617005E+01  0.22162214756E+02  0.63894219881E+02  0.68185641190E+02  0.10566000000E+00 0. -1.
        994    1    1    2    0    0  0.44005272444E+00 -0.11605548375E+02  0.48566404803E+01  0.17166219548E+03  0.17120000000E+03 0.  0.
        998    1    1    2    0    0 -0.91369144249E+01 -0.10556666380E+02  0.14312491359E+04  0.14313521633E+04  0.10000000000E+02 0. -1.
</event>
<event>
 5    1  0.1146201E-008  0.3788327E+03  0.7957747E-01  0.3456257E+00
         13   -1    0    0    0    0  0.00000000000E+00  0.00000000000E+00  0.14999999963E+04  0.15000000000E+04  0.10566000000E+00 0.  1.
        994   -1    0    0    0    0 -0.00000000000E+00 -0.00000000000E+00  0.11368683772E-12  0.17120000000E+03  0.17120000000E+03 0.  0.
         13    1    1    2    0    0 -0.48554569772E+02  0.34929762313E+02  0.25544051844E+03  0.26234996506E+03  0.10566000000E+00 0.  1.
        994    1    1    2    0    0  0.64729208842E+02 -0.57003419074E+02  0.30108396779E+02  0.19404951899E+03  0.17120000000E+03 0.  0.
        998    1    1    2    0    0 -0.16174639070E+02  0.22073656761E+02  0.12144510811E+04  0.12148005160E+04  0.10000000000E+02 0.  1.
</event>
<event>
 5    1  0.1146201E-008  0.3836318E+03  0.7957747E-01  0.3435496E+00
         13   -1    0    0    0    0  0.00000000000E+00  0.00000000000E+00  0.14999999963E+04  0.15000000000E+04  0.10566000000E+00 0.  1.
        994   -1    0    0    0    0 -0.00000000000E+00 -0.00000000000E+00  0.11368683772E-12  0.17120000000E+03  0.17120000000E+03 0.  0.
         13    1    1    2    0    0  0.25249201224E+02 -0.30837495514E+01  0.15295439540E+03  0.15505511894E+03  0.10566000000E+00 0.  1.
        994    1    1    2    0    0 -0.33366247082E+01  0.10821150007E+02  0.27346369167E+01  0.17159588745E+03  0.17120000000E+03 0.  0.
        998    1    1    2    0    0 -0.21912576516E+02 -0.77374004561E+01  0.13443109640E+04  0.13445489936E+04  0.10000000000E+02 0.  1.
</event>
<event>
 5    1  0.1146201E-008  0.3826823E+03  0.7957747E-01  0.3439562E+00
         13   -1    0    0    0    0  0.00000000000E+00  0.00000000000E+00  0.14999999963E+04  0.15000000000E+04  0.10566000000E+00 0. -1.
        994   -1    0    0    0    0 -0.00000000000E+00 -0.00000000000E+00  0.11368683772E-12  0.17120000000E+03  0.17120000000E+03 0.  0.
         13    1    1    2    0    0  0.18657000700E+02  0.30887787534E+00  0.60043945467E+02  0.62876590492E+02  0.10566000000E+00 0. -1.
        994    1    1    2    0    0 -0.17744673989E+02  0.64373003456E+01  0.39667566195E+01  0.17228316067E+03  0.17120000000E+03 0.  0.
        998    1    1    2    0    0 -0.91232671134E+00 -0.67461782209E+01  0.14359892942E+04  0.14360402488E+04  0.10000000000E+02 0. -1.
</event>
<event>
 5    1  0.1146201E-008  0.3778805E+03  0.7957747E-01  0.3460439E+00
         13   -1    0    0    0    0  0.00000000000E+00  0.00000000000E+00  0.14999999963E+04  0.15000000000E+04  0.10566000000E+00 0. -1.
        994   -1    0    0    0    0 -0.00000000000E+00 -0.00000000000E+00  0.11368683772E-12  0.17120000000E+03  0.17120000000E+03 0.  0.
         13    1    1    2    0    0  0.28614811049E+02 -0.17651059989E+01  0.81541074254E+02  0.86434258053E+02  0.10566000000E+00 0. -1.
        994    1    1    2    0    0 -0.33771101473E+01  0.22512144102E+02  0.69533693843E+01  0.17284672647E+03  0.17120000000E+03 0.  0.
        998    1    1    2    0    0 -0.25237700902E+02 -0.20747038103E+02  0.14115055526E+04  0.14119190155E+04  0.10000000000E+02 0. -1.
</event>
<event>
 5    1  0.1146201E-008  0.3791103E+03  0.7957747E-01  0.3455042E+00
         13   -1    0    0    0    0  0.00000000000E+00  0.00000000000E+00  0.14999999963E+04  0.15000000000E+04  0.10566000000E+00 0. -1.
        994   -1    0    0    0    0 -0.00000000000E+00 -0.00000000000E+00  0.11368683772E-12  0.17120000000E+03  0.17120000000E+03 0.  0.
         13    1    1    2    0    0 -0.11458132642E+01 -0.25036784527E+02  0.68051572190E+02  0.72520211728E+02  0.10566000000E+00 0. -1.
        994    1    1    2    0    0 -0.39101668479E+01  0.11761773915E+02  0.50981756196E+01  0.17172379021E+03  0.17120000000E+03 0.  0.
        998    1    1    2    0    0  0.50559801121E+01  0.13275010612E+02  0.14268502485E+04  0.14269559981E+04  0.10000000000E+02 0. -1.
</event>
<event>
 5    1  0.1146201E-008  0.3849261E+03  0.7957747E-01  0.3429986E+00
         13   -1    0    0    0    0  0.00000000000E+00  0.00000000000E+00  0.14999999963E+04  0.15000000000E+04  0.10566000000E+00 0. -1.
        994   -1    0    0    0    0 -0.00000000000E+00 -0.00000000000E+00  0.11368683772E-12  0.17120000000E+03  0.17120000000E+03 0.  0.
         13    1    1    2    0    0 -0.39566520229E+00 -0.19478872825E+02  0.10906749850E+03  0.11079401352E+03  0.10566000000E+00 0. -1.
        994    1    1    2    0    0 -0.93534564602E+01  0.18003927942E+02  0.30220389851E+01  0.17242447996E+03  0.17120000000E+03 0.  0.
        998    1    1    2    0    0  0.97491216624E+01  0.14749448835E+01  0.13879104588E+04  0.13879815065E+04  0.10000000000E+02 0. -1.
</event>
<event>
 5    1  0.1146201E-008  0.3778139E+03  0.7957747E-01  0.3460733E+00
         13   -1    0    0    0    0  0.00000000000E+00  0.00000000000E+00  0.14999999963E+04  0.15000000000E+04  0.10566000000E+00 0.  1.
        994   -1    0    0    0    0 -0.00000000000E+00 -0.00000000000E+00  0.11368683772E-12  0.17120000000E+03  0.17120000000E+03 0.  0.
         13    1    1    2    0    0  0.31178474074E+00 -0.26565397268E+02  0.63032586302E+02  0.68402745864E+02  0.10566000000E+00 0.  1.
        994    1    1    2    0    0  0.10940206741E+01  0.26621777207E+02  0.76349150899E+01  0.17342908589E+03  0.17120000000E+03 0.  0.
        998    1    1    2    0    0 -0.14058054149E+01 -0.56379938947E-01  0.14293324949E+04  0.14293681683E+04  0.10000000000E+02 0.  1.
</event>
<event>
 5    1  0.1146201E-008  0.3706850E+03  0.7957747E-01  0.3492749E+00
         13   -1    0    0    0    0  0.00000000000E+00  0.00000000000E+00  0.14999999963E+04  0.15000000000E+04  0.10566000000E+00 0. -1.
        994   -1    0    0    0    0 -0.00000000000E+00 -0.00000000000E+00  0.11368683772E-12  0.17120000000E+03  0.17120000000E+03 0.  0.
         13    1    1    2    0    0  0.32424558131E+02  0.80373562946E+01  0.63465222321E+02  0.71720266832E+02  0.10566000000E+00 0. -1.
        994    1    1    2    0    0  0.38739921972E+01 -0.15729554203E+02  0.98172045185E+01  0.17224472182E+03  0.17120000000E+03 0.  0.
        998    1    1    2    0    0 -0.36298550328E+02  0.76921979085E+01  0.14267175694E+04  0.14272350113E+04  0.10000000000E+02 0. -1.
</event>
<event>
 5    1  0.1146201E-008  0.3829889E+03  0.7957747E-01  0.3438246E+00
         13   -1    0    0    0    0  0.00000000000E+00  0.00000000000E+00  0.14999999963E+04  0.15000000000E+04  0.10566000000E+00 0.  1.
        994   -1    0    0    0    0 -0.00000000000E+00 -0.00000000000E+00  0.11368683772E-12  0.17120000000E+03  0.17120000000E+03 0.  0.
         13    1    1    2    0    0  0.13068189733E+02 -0.15943935512E+02  0.88884733727E+02  0.91244143463E+02  0.10566000000E+00 0.  1.
        994    1    1    2    0    0  0.79787355232E+01  0.80995268542E+00  0.28448233552E+01  0.17141134520E+03  0.17120000000E+03 0.  0.
        998    1    1    2    0    0 -0.21046925256E+02  0.15133982827E+02  0.14082704392E+04  0.14085445113E+04  0.10000000000E+02 0.  1.
</event>
<event>
 5    1  0.1146201E-008  0.3804367E+03  0.7957747E-01  0.3449259E+00
         13   -1    0    0    0    0  0.00000000000E+00  0.00000000000E+00  0.14999999963E+04  0.15000000000E+04  0.10566000000E+00 0. -1.
        994   -1    0    0    0    0 -0.00000000000E+00 -0.00000000000E+00  0.11368683772E-12  0.17120000000E+03  0.17120000000E+03 0.  0.
         13    1    1    2    0    0  0.41200495271E+02 -0.26499323206E+02  0.25595478921E+03  0.26060038416E+03  0.10566000000E+00 0. -1.
        994    1    1    2    0    0 -0.43684143472E+02  0.22338396025E+02  0.11990883292E+02  0.17849518092E+03  0.17120000000E+03 0.  0.
        998    1    1    2    0    0  0.24836482011E+01  0.41609271809E+01  0.12320543238E+04  0.12321044349E+04  0.10000000000E+02 0.  0.
</event>
<event>
 5    1  0.1146201E-008  0.3796040E+03  0.7957747E-01  0.3452885E+00
         13   -1    0    0    0    0  0.00000000000E+00  0.00000000000E+00  0.14999999963E+04  0.15000000000E+04  0.10566000000E+00 0. -1.
        994   -1    0    0    0    0 -0.00000000000E+00 -0.00000000000E+00  0.11368683772E-12  0.17120000000E+03  0.17120000000E+03 0.  0.
         13    1    1    2    0    0  0.19630007386E+02  0.23322278018E+00  0.45067278299E+02  0.49157525570E+02  0.10566000000E+00 0. -1.
        994    1    1    2    0    0  0.12456192650E+01  0.19418517456E+02  0.56015750604E+01  0.17239329462E+03  0.17120000000E+03 0.  0.
        998    1    1    2    0    0 -0.20875626651E+02 -0.19651740236E+02  0.14493311429E+04  0.14496491798E+04  0.10000000000E+02 0. -1.
</event>
<event>
 5    1  0.1146201E-008  0.3798007E+03  0.7957747E-01  0.3452027E+00
         13   -1    0    0    0    0  0.00000000000E+00  0.00000000000E+00  0.14999999963E+04  0.15000000000E+04  0.10566000000E+00 0. -1.
        994   -1    0    0    0    0 -0.00000000000E+00 -0.00000000000E+00  0.11368683772E-12  0.17120000000E+03  0.17120000000E+03 0.  0.
         13    1    1    2    0    0  0.48079406584E+01  0.19829988088E+02  0.46043390805E+02  0.50362185435E+02  0.10566000000E+00 0. -1.
        994    1    1    2    0    0 -0.46761556780E+01 -0.21996303531E+02  0.59272717834E+01  0.17277232519E+03  0.17120000000E+03 0.  0.
        998    1    1    2    0    0 -0.13178498040E+00  0.21663154427E+01  0.14480293337E+04  0.14480654894E+04  0.10000000000E+02 0. -1.
</event>
<event>
 5    1  0.1146201E-008  0.3796724E+03  0.7957747E-01  0.3452586E+00
         13   -1    0    0    0    0  0.00000000000E+00  0.00000000000E+00  0.14999999963E+04  0.15000000000E+04  0.10566000000E+00 0. -1.
        994   -1    0    0    0    0 -0.00000000000E+00 -0.00000000000E+00  0.11368683772E-12  0.17120000000E+03  0.17120000000E+03 0.  0.
         13    1    1    2    0    0 -0.29330344355E+02 -0.43979270265E+02  0.26321533415E+03  0.26847116904E+03  0.10566000000E+00 0. -1.
        994    1    1    2    0    0  0.30678824078E+02  0.45979362537E+02  0.14591937016E+02  0.18049281607E+03  0.17120000000E+03 0.  0.
        998    1    1    2    0    0 -0.13484797230E+01 -0.20000922723E+01  0.12221927251E+04  0.12222360149E+04  0.10000000000E+02 0.  1.
</event>
<event>
 5    1  0.1146201E-008  0.3818096E+03  0.7957747E-01  0.3443317E+00
         13   -1    0    0    0    0  0.00000000000E+00  0.00000000000E+00  0.14999999963E+04  0.15000000000E+04  0.10566000000E+00 0. -1.
        994   -1    0    0    0    0 -0.00000000000E+00 -0.00000000000E+00  0.11368683772E-12  0.17120000000E+03  0.17120000000E+03 0.  0.
         13    1    1    2    0    0  0.22993654136E+03  0.29259146362E+01  0.12604332543E+04  0.12812382190E+04  0.10566000000E+00 0. -1.
        994    1    1    2    0    0 -0.22766357360E+03  0.41602453939E+01  0.19894796668E+03  0.34747337140E+03  0.17120000000E+03 0.  0.
        998    1    1    2    0    0 -0.22729677542E+01 -0.70861600302E+01  0.40618775288E+02  0.42488409623E+02  0.10000000000E+02 0.  1.
</event>
<event>
 5    1  0.1146201E-008  0.3824636E+03  0.7957747E-01  0.3440501E+00
         13   -1    0    0    0    0  0.00000000000E+00  0.00000000000E+00  0.14999999963E+04  0.15000000000E+04  0.10566000000E+00 0. -1.
        994   -1    0    0    0    0 -0.00000000000E+00 -0.00000000000E+00  0.11368683772E-12  0.17120000000E+03  0.17120000000E+03 0.  0.
         13    1    1    2    0    0 -0.99698921636E+01  0.17678966976E+02  0.35505212120E+01  0.20604902038E+02  0.10566000000E+00 0. -1.
        994    1    1    2    0    0  0.22044150285E+02 -0.22271255339E+02  0.21285875473E+02  0.17534104446E+03  0.17120000000E+03 0.  0.
        998    1    1    2    0    0 -0.12074258121E+02  0.45922883634E+01  0.14751635996E+04  0.14752540535E+04  0.10000000000E+02 0. -1.
</event>
<event>
 5    1  0.1459299E-008  0.3862090E+03  0.7957747E-01  0.3424561E+00
         13   -1    0    0    0    0  0.00000000000E+00  0.00000000000E+00  0.14999999963E+04  0.15000000000E+04  0.10566000000E+00 0.  1.
        994   -1    0    0    0    0 -0.00000000000E+00 -0.00000000000E+00  0.11368683772E-12  0.17120000000E+03  0.17120000000E+03 0.  0.
         13    1    1    2    0    0  0.72589932309E+00 -0.11851459090E+02  0.70102642112E+02  0.71101164600E+02  0.10566000000E+00 0.  1.
        994    1    1    2    0    0 -0.58402310090E+01  0.63897692106E+01  0.12765841537E+01  0.17142347306E+03  0.17120000000E+03 0.  0.
        998    1    1    2    0    0  0.51143316859E+01  0.54616898792E+01  0.14286207700E+04  0.14286753623E+04  0.10000000000E+02 0.  1.
</event>
<event>
 5    1  0.1146201E-008  0.3846333E+03  0.7957747E-01  0.3431229E+00
         13   -1    0    0    0    0  0.00000000000E+00  0.00000000000E+00  0.14999999963E+04  0.15000000000E+04  0.10566000000E+00 0. -1.
        994   -1    0    0    0    0 -0.00000000000E+00 -0.00000000000E+00  0.11368683772E-12  0.17120000000E+03  0.17120000000E+03 0.  0.
         13    1    1    2    0    0  0.65233883454E+01 -0.10728459389E+02  0.43592519413E+02  0.45364891151E+02  0.10566000000E+00 0. -1.
        994    1    1    2    0    0  0.15962453998E+01  0.89340361179E+01  0.20835643138E+01  0.17145304384E+03  0.17120000000E+03 0.  0.
        998    1    1    2    0    0 -0.81196337451E+01  0.17944232714E+01  0.14543239126E+04  0.14543820650E+04  0.10000000000E+02 0. -1.
</event>
<event>
 5    1  0.1146201E-008  0.3701748E+03  0.7957747E-01  0.3495088E+00
         13   -1    0    0    0    0  0.00000000000E+00  0.00000000000E+00  0.14999999963E+04  0.15000000000E+04  0.10566000000E+00 0.  1.
        994   -1    0    0    0    0 -0.00000000000E+00 -0.00000000000E+00  0.11368683772E-12  0.17120000000E+03  0.17120000000E+03 0.  0.
         13    1    1    2    0    0  0.14262331843E+03  0.86697745453E+02  0.62468451683E+03  0.64659776272E+03  0.10566000000E+00 0.  1.
        994    1    1    2    0    0 -0.14221945275E+03 -0.95223221316E+02  0.12184241346E+03  0.27101447994E+03  0.17120000000E+03 0.  0.
        998    1    1    2    0    0 -0.40386568056E+00  0.85254758632E+01  0.75347306599E+03  0.75358775734E+03  0.10000000000E+02 0.  1.
</event>
<event>
 5    1  0.1146201E-008  0.3833862E+03  0.7957747E-01  0.3436545E+00
         13   -1    0    0    0    0  0.00000000000E+00  0.00000000000E+00  0.14999999963E+04  0.15000000000E+04  0.10566000000E+00 0. -1.
        994   -1    0    0    0    0 -0.00000000000E+00 -0.00000000000E+00  0.11368683772E-12  0.17120000000E+03  0.17120000000E+03 0.  0.
         13    1    1    2    0    0  0.13247399593E+02 -0.18943276712E+01  0.36722225681E+02  0.39084716915E+02  0.10566000000E+00 0. -1.
        994    1    1    2    0    0 -0.33447110308E+01  0.91325881956E+01  0.27462529734E+01  0.17149802671E+03  0.17120000000E+03 0.  0.
        998    1    1    2    0    0 -0.99026885621E+01 -0.72382605243E+01  0.14605315176E+04  0.14606172564E+04  0.10000000000E+02 0. -1.
</event>
<event>
 5    1  0.1146201E-008  0.3801646E+03  0.7957747E-01  0.3450442E+00
         13   -1    0    0    0    0  0.00000000000E+00  0.00000000000E+00  0.14999999963E+04  0.15000000000E+04  0.10566000000E+00 0.  1.
        994   -1    0    0    0    0 -0.00000000000E+00 -0.00000000000E+00  0.11368683772E-12  0.17120000000E+03  0.17120000000E+03 0.  0.
         13    1    1    2    0    0  0.30055931044E+02  0.36495703211E+00  0.10704099646E+03  0.11118128562E+03  0.10566000000E+00 0.  1.
        994    1    1    2    0    0 -0.23853058561E+02  0.13723612144E+02  0.65844298129E+01  0.17352262287E+03  0.17120000000E+03 0.  0.
        998    1    1    2    0    0 -0.62028724827E+01 -0.14088569176E+02  0.13863745700E+04  0.13864960915E+04  0.10000000000E+02 0.  1.
</event>
<event>
 5    1  0.1146201E-008  0.3818928E+03  0.7957747E-01  0.3442958E+00
         13   -1    0    0    0    0  0.00000000000E+00  0.00000000000E+00  0.14999999963E+04  0.15000000000E+04  0.10566000000E+00 0. -1.
        994   -1    0    0    0    0 -0.00000000000E+00 -0.00000000000E+00  0.11368683772E-12  0.17120000000E+03  0.17120000000E+03 0.  0.
         13    1    1    2    0    0  0.67217980011E+01 -0.38150757758E+02  0.21751237436E+03  0.22093507429E+03  0.10566000000E+00 0. -1.
        994    1    1    2    0    0 -0.22468804747E+02  0.28315042363E+02  0.75335569265E+01  0.17513647048E+03  0.17120000000E+03 0.  0.
        998    1    1    2    0    0  0.15747006746E+02  0.98357153956E+01  0.12749540650E+04  0.12751284552E+04  0.10000000000E+02 0. -1.
</event>
<event>
 5    1  0.1146201E-008  0.3696941E+03  0.7957747E-01  0.3497298E+00
         13   -1    0    0    0    0  0.00000000000E+00  0.00000000000E+00  0.14999999963E+04  0.15000000000E+04  0.10566000000E+00 0.  1.
        994   -1    0    0    0    0 -0.00000000000E+00 -0.00000000000E+00  0.11368683772E-12  0.17120000000E+03  0.17120000000E+03 0.  0.
         13    1    1    2    0    0  0.92644483823E+02  0.46999833856E+02  0.40433807883E+03  0.41747009225E+03  0.10566000000E+00 0.  1.
        994    1    1    2    0    0 -0.95257781846E+02 -0.44237402870E+02  0.48642160987E+02  0.20665549265E+03  0.17120000000E+03 0.  0.
        998    1    1    2    0    0  0.26132980228E+01 -0.27624309855E+01  0.10470197565E+04  0.10470744151E+04  0.10000000000E+02 0.  1.
</event>
<event>
 5    1  0.1146201E-008  0.3803923E+03  0.7957747E-01  0.3449452E+00
         13   -1    0    0    0    0  0.00000000000E+00  0.00000000000E+00  0.14999999963E+04  0.15000000000E+04  0.10566000000E+00 0. -1.
        994   -1    0    0    0    0 -0.00000000000E+00 -0.00000000000E+00  0.11368683772E-12  0.17120000000E+03  0.17120000000E+03 0.  0.
         13    1    1    2    0    0 -0.75548777801E+01 -0.27757400314E+02  0.11184266181E+03  0.11548307935E+03  0.10566000000E+00 0. -1.
        994    1    1    2    0    0 -0.58327133761E+01  0.59149364702E+01  0.41656591176E+01  0.17145203333E+03  0.17120000000E+03 0.  0.
        998    1    1    2    0    0  0.13387591156E+02  0.21842463844E+02  0.13839916753E+04  0.13842648873E+04  0.10000000000E+02 0. -1.
</event>
<event>
 5    1  0.1146201E-008  0.3691728E+03  0.7957747E-01  0.3499701E+00
         13   -1    0    0    0    0  0.00000000000E+00  0.00000000000E+00  0.14999999963E+04  0.15000000000E+04  0.10566000000E+00 0. -1.
        994   -1    0    0    0    0 -0.00000000000E+00 -0.00000000000E+00  0.11368683772E-12  0.17120000000E+03  0.17120000000E+03 0.  0.
         13    1    1    2    0    0  0.21450333292E+02  0.53273713462E+01  0.18362315806E+02  0.28734708796E+02  0.10566000000E+00 0. -1.
        994    1    1    2    0    0 -0.19961208707E+02 -0.23319718426E+02  0.13793735924E+02  0.17447626277E+03  0.17120000000E+03 0.  0.
        998    1    1    2    0    0 -0.14891245848E+01  0.17992347080E+02  0.14678439445E+04  0.14679890284E+04  0.10000000000E+02 0. -1.
</event>
<event>
 5    1  0.1146201E-008  0.3798566E+03  0.7957747E-01  0.3451783E+00
         13   -1    0    0    0    0  0.00000000000E+00  0.00000000000E+00  0.14999999963E+04  0.15000000000E+04  0.10566000000E+00 0.  1.
        994   -1    0    0    0    0 -0.00000000000E+00 -0.00000000000E+00  0.11368683772E-12  0.17120000000E+03  0.17120000000E+03 0.  0.
         13    1    1    2    0    0 -0.28012635647E+02 -0.40352379029E+02  0.23984163570E+03  0.24482043139E+03  0.10566000000E+00 0.  1.
        994    1    1    2    0    0  0.86158662883E+01  0.56258478787E+02  0.15116342182E+02  0.18104472759E+03  0.17120000000E+03 0.  0.
        998    1    1    2    0    0  0.19396769359E+02 -0.15906099758E+02  0.12450420184E+04  0.12453348410E+04  0.10000000000E+02 0.  1.
</event>
<event>
 5    1  0.1146201E-008  0.3836160E+03  0.7957747E-01  0.3435563E+00
         13   -1    0    0    0    0  0.00000000000E+00  0.00000000000E+00  0.14999999963E+04  0.15000000000E+04  0.10566000000E+00 0. -1.
        994   -1    0    0    0    0 -0.00000000000E+00 -0.00000000000E+00  0.11368683772E-12  0.17120000000E+03  0.17120000000E+03 0.  0.
         13    1    1    2    0    0  0.99620223347E+00 -0.19465826817E+02  0.88783464266E+02  0.90897885144E+02  0.10566000000E+00 0. -1.
        994    1    1    2    0    0 -0.62719043821E+01 -0.16022001119E+01  0.24572700756E+01  0.17133996033E+03  0.17120000000E+03 0.  0.
        998    1    1    2    0    0  0.52757021487E+01  0.21068026929E+02  0.14087592619E+04  0.14089621545E+04  0.10000000000E+02 0. -1.
</event>
<event>
 5    1  0.1146201E-008  0.3734350E+03  0.7957747E-01  0.3480252E+00
         13   -1    0    0    0    0  0.00000000000E+00  0.00000000000E+00  0.14999999963E+04  0.15000000000E+04  0.10566000000E+00 0. -1.
        994   -1    0    0    0    0 -0.00000000000E+00 -0.00000000000E+00  0.11368683772E-12  0.17120000000E+03  0.17120000000E+03 0.  0.
         13    1    1    2    0    0 -0.45058563011E+02 -0.50153891070E+02  0.16677126217E+03  0.17988427374E+03  0.10566000000E+00 0. -1.
        994    1    1    2    0    0  0.43833799616E+02  0.29613072741E+02  0.22735761158E+02  0.18062306304E+03  0.17120000000E+03 0.  0.
        998    1    1    2    0    0  0.12247633953E+01  0.20540818329E+02  0.13104929730E+04  0.13106926632E+04  0.10000000000E+02 0. -1.
</event>
<event>
 5    1  0.1146201E-008  0.3750138E+03  0.7957747E-01  0.3473161E+00
         13   -1    0    0    0    0  0.00000000000E+00  0.00000000000E+00  0.14999999963E+04  0.15000000000E+04  0.10566000000E+00 0.  1.
        994   -1    0    0    0    0 -0.00000000000E+00 -0.00000000000E+00  0.11368683772E-12  0.17120000000E+03  0.17120000000E+03 0.  0.
         13    1    1    2    0    0  0.32634109306E+02 -0.55196436011E+01  0.83367100373E+02  0.89696912680E+02  0.10566000000E+00 0.  1.
        994    1    1    2    0    0 -0.73499950862E+01  0.11017352467E+02  0.72680454439E+01  0.17186526399E+03  0.17120000000E+03 0.  0.
        998    1    1    2    0    0 -0.25284114220E+02 -0.54977088663E+01  0.14093648505E+04  0.14096378233E+04  0.10000000000E+02 0.  1.
</event>
<event>
 5    1  0.1146201E-008  0.3821939E+03  0.7957747E-01  0.3441661E+00
         13   -1    0    0    0    0  0.00000000000E+00  0.00000000000E+00  0.14999999963E+04  0.15000000000E+04  0.10566000000E+00 0. -1.
        994   -1    0    0    0    0 -0.00000000000E+00 -0.00000000000E+00  0.11368683772E-12  0.17120000000E+03  0.17120000000E+03 0.  0.
         13    1    1    2    0    0 -0.25581559632E+02 -0.20420929578E+02  0.16476987384E+03  0.16798974090E+03  0.10566000000E+00 0. -1.
        994    1    1    2    0    0  0.28010008328E+02  0.97465433172E+01  0.59543571982E+01  0.17385180483E+03  0.17120000000E+03 0.  0.
        998    1    1    2    0    0 -0.24284486959E+01  0.10674386261E+02  0.13292757652E+04  0.13293584543E+04  0.10000000000E+02 0. -1.
</event>
<event>
 5    1  0.1146201E-008  0.3850197E+03  0.7957747E-01  0.3429589E+00
         13   -1    0    0    0    0  0.00000000000E+00  0.00000000000E+00  0.14999999963E+04  0.15000000000E+04  0.10566000000E+00 0. -1.
        994   -1    0    0    0    0 -0.00000000000E+00 -0.00000000000E+00  0.11368683772E-12  0.17120000000E+03  0.17120000000E+03 0.  0.
         13    1    1    2    0    0  0.15984214229E+02 -0.11706387119E+02  0.11299450022E+03  0.11471836317E+03  0.10566000000E+00 0. -1.
        994    1    1    2    0    0 -0.18402664888E+02  0.10322373587E+02  0.30857520303E+01  0.17252295887E+03  0.17120000000E+03 0.  0.
        998    1    1    2    0    0  0.24184506583E+01  0.13840135315E+01  0.13839197440E+04  0.13839586780E+04  0.10000000000E+02 0. -1.
</event>
<event>
 5    1  0.1146201E-008  0.3845599E+03  0.7957747E-01  0.3431541E+00
         13   -1    0    0    0    0  0.00000000000E+00  0.00000000000E+00  0.14999999963E+04  0.15000000000E+04  0.10566000000E+00 0. -1.
        994   -1    0    0    0    0 -0.00000000000E+00 -0.00000000000E+00  0.11368683772E-12  0.17120000000E+03  0.17120000000E+03 0.  0.
         13    1    1    2    0    0  0.44200822261E+00  0.23430081262E+02  0.13901731032E+03  0.14097867857E+03  0.10566000000E+00 0. -1.
        994    1    1    2    0    0  0.33902009143E+01 -0.21887045925E+02  0.34659690974E+01  0.17266148726E+03  0.17120000000E+03 0.  0.
        998    1    1    2    0    0 -0.38322091369E+01 -0.15430353374E+01  0.13575167169E+04  0.13575598342E+04  0.10000000000E+02 0. -1.
</event>
<event>
 5    1  0.1146201E-008  0.3804095E+03  0.7957747E-01  0.3449377E+00
         13   -1    0    0    0    0  0.00000000000E+00  0.00000000000E+00  0.14999999963E+04  0.15000000000E+04  0.10566000000E+00 0. -1.
        994   -1    0    0    0    0 -0.00000000000E+00 -0.00000000000E+00  0.11368683772E-12  0.17120000000E+03  0.17120000000E+03 0.  0.
         13    1    1    2    0    0 -0.30073263686E+01  0.50713761391E+02  0.26542859518E+03  0.27024670194E+03  0.10566000000E+00 0. -1.
        994    1    1    2    0    0  0.33533352080E+01 -0.53265914368E+02  0.13495196646E+02  0.17983343077E+03  0.17120000000E+03 0.  0.
        998    1    1    2    0    0 -0.34600883938E+00  0.25521529772E+01  0.12210762045E+04  0.12211198673E+04  0.10000000000E+02 0. -1.
</event>
<event>
 5    1  0.1146201E-008  0.3744882E+03  0.7957747E-01  0.3475515E+00
         13   -1    0    0    0    0  0.00000000000E+00  0.00000000000E+00  0.14999999963E+04  0.15000000000E+04  0.10566000000E+00 0.  1.
        994   -1    0    0    0    0 -0.00000000000E+00 -0.00000000000E+00  0.11368683772E-12  0.17120000000E+03  0.17120000000E+03 0.  0.
         13    1    1    2    0    0 -0.42465913271E+02 -0.57585609835E+01  0.14388060174E+03  0.15012712458E+03  0.10566000000E+00 0.  1.
        994    1    1    2    0    0  0.64071518405E+01 -0.84646401588E+01  0.73256470659E+01  0.17168519689E+03  0.17120000000E+03 0.  0.
        998    1    1    2    0    0  0.36058761430E+02  0.14223201142E+02  0.13487937475E+04  0.13493876785E+04  0.10000000000E+02 0.  1.
</event>
<event>
 5    1  0.1146201E-008  0.3841343E+03  0.7957747E-01  0.3433352E+00
         13   -1    0    0    0    0  0.00000000000E+00  0.00000000000E+00  0.14999999963E+04  0.15000000000E+04  0.10566000000E+00 0. -1.
        994   -1    0    0    0    0 -0.00000000000E+00 -0.00000000000E+00  0.11368683772E-12  0.17120000000E+03  0.17120000000E+03 0.  0.
         13    1    1    2    0    0 -0.11025646441E+00 -0.21344041234E+02  0.12350367058E+03  0.12533454457E+03  0.10566000000E+00 0. -1.
        994    1    1    2    0    0 -0.93374007676E+01 -0.78176291169E+00  0.23501758511E+01  0.17147233460E+03  0.17120000000E+03 0.  0.
        998    1    1    2    0    0  0.94476572320E+01  0.22125804146E+02  0.13741461498E+04  0.13743931208E+04  0.10000000000E+02 0. -1.
</event>
<event>
 5    1  0.1146201E-008  0.3802268E+03  0.7957747E-01  0.3450171E+00
         13   -1    0    0    0    0  0.00000000000E+00  0.00000000000E+00  0.14999999963E+04  0.15000000000E+04  0.10566000000E+00 0.  1.
        994   -1    0    0    0    0 -0.00000000000E+00 -0.00000000000E+00  0.11368683772E-12  0.17120000000E+03  0.17120000000E+03 0.  0.
         13    1    1    2    0    0 -0.16547823300E+02  0.71730897080E+01  0.41566351338E+02  0.45310665405E+02  0.10566000000E+00 0.  1.
        994    1    1    2    0    0 -0.40493188934E+01  0.70630279074E+01  0.42401404963E+01  0.17144591607E+03  0.17120000000E+03 0.  0.
        998    1    1    2    0    0  0.20597142193E+02 -0.14236117615E+02  0.14541935044E+04  0.14544434185E+04  0.10000000000E+02 0.  1.
</event>
<event>
 5    1  0.1146201E-008  0.3847865E+03  0.7957747E-01  0.3430578E+00
         13   -1    0    0    0    0  0.00000000000E+00  0.00000000000E+00  0.14999999963E+04  0.15000000000E+04  0.10566000000E+00 0.  1.
        994   -1    0    0    0    0 -0.00000000000E+00 -0.00000000000E+00  0.11368683772E-12  0.17120000000E+03  0.17120000000E+03 0.  0.
         13    1    1    2    0    0 -0.10893334690E+02 -0.95081894461E+01  0.58905528912E+02  0.60654290101E+02  0.10566000000E+00 0.  1.
        994    1    1    2    0    0  0.87352901767E+01  0.97485733582E+01  0.23002336827E+01  0.17171508685E+03  0.17120000000E+03 0.  0.
        998    1    1    2    0    0  0.21580445137E+01 -0.24038391216E+00  0.14387942337E+04  0.14388306230E+04  0.10000000000E+02 0.  0.
</event>
<event>
 5    1  0.1146201E-008  0.3771383E+03  0.7957747E-01  0.3463714E+00
         13   -1    0    0    0    0  0.00000000000E+00  0.00000000000E+00  0.14999999963E+04  0.15000000000E+04  0.10566000000E+00 0. -1.
        994   -1    0    0    0    0 -0.00000000000E+00 -0.00000000000E+00  0.11368683772E-12  0.17120000000E+03  0.17120000000E+03 0.  0.
         13    1    1    2    0    0 -0.35624564065E+02  0.28140924021E+02  0.16762293653E+03  0.17366197392E+03  0.10566000000E+00 0. -1.
        994    1    1    2    0    0  0.23497274381E+02 -0.37085819278E+02  0.12117502428E+02  0.17715460412E+03  0.17120000000E+03 0.  0.
        998    1    1    2    0    0  0.12127289684E+02  0.89448952577E+01  0.13202595573E+04  0.13203834220E+04  0.10000000000E+02 0. -1.
</event>
<event>
 5    1  0.1146201E-008  0.3841840E+03  0.7957747E-01  0.3433140E+00
         13   -1    0    0    0    0  0.00000000000E+00  0.00000000000E+00  0.14999999963E+04  0.15000000000E+04  0.10566000000E+00 0.  1.
        994   -1    0    0    0    0 -0.00000000000E+00 -0.00000000000E+00  0.11368683772E-12  0.17120000000E+03  0.17120000000E+03 0.  0.
         13    1    1    2    0    0  0.90563781635E+01  0.92097552433E+01  0.40763779803E+02  0.42761366734E+02  0.10566000000E+00 0.  1.
        994    1    1    2    0    0 -0.13442052564E+01 -0.91069738984E+01  0.23152701009E+01  0.17146295325E+03  0.17120000000E+03 0.  0.
        998    1    1    2    0    0 -0.77121729071E+01 -0.10278134488E+00  0.14569209464E+04  0.14569756800E+04  0.10000000000E+02 0.  1.
</event>
<event>
 5    1  0.1146201E-008  0.3841019E+03  0.7957747E-01  0.3433490E+00
         13   -1    0    0    0    0  0.00000000000E+00  0.00000000000E+00  0.14999999963E+04  0.15000000000E+04  0.10566000000E+00 0. -1.
        994   -1    0    0    0    0 -0.00000000000E+00 -0.00000000000E+00  0.11368683772E-12  0.17120000000E+03  0.17120000000E+03 0.  0.
         13    1    1    2    0    0 -0.16303976548E+02  0.10101434625E+02  0.88188899229E+02  0.90250494425E+02  0.10566000000E+00 0. -1.
        994    1    1    2    0    0  0.92018899844E+01 -0.83212312466E+01  0.25844847237E+01  0.17166839322E+03  0.17120000000E+03 0.  0.
        998    1    1    2    0    0  0.71020865634E+01 -0.17802033787E+01  0.14092266123E+04  0.14092811124E+04  0.10000000000E+02 0. -1.
</event>
<event>
 5    1  0.1146201E-008  0.3831203E+03  0.7957747E-01  0.3437684E+00
         13   -1    0    0    0    0  0.00000000000E+00  0.00000000000E+00  0.14999999963E+04  0.15000000000E+04  0.10566000000E+00 0.  1.
        994   -1    0    0    0    0 -0.00000000000E+00 -0.00000000000E+00  0.11368683772E-12  0.17120000000E+03  0.17120000000E+03 0.  0.
         13    1    1    2    0    0 -0.78330047106E+01 -0.15145600524E+02  0.54429821121E+02  0.57038248301E+02  0.10566000000E+00 0.  1.
        994    1    1    2    0    0  0.10274081084E+02  0.13641252516E+02  0.35318394231E+01  0.17208589251E+03  0.17120000000E+03 0.  0.
        998    1    1    2    0    0 -0.24410763737E+01  0.15043480079E+01  0.14420383357E+04  0.14420758592E+04  0.10000000000E+02 0.  1.
</event>
<event>
 5    1  0.1146201E-008  0.3806980E+03  0.7957747E-01  0.3448125E+00
         13   -1    0    0    0    0  0.00000000000E+00  0.00000000000E+00  0.14999999963E+04  0.15000000000E+04  0.10566000000E+00 0. -1.
        994   -1    0    0    0    0 -0.00000000000E+00 -0.00000000000E+00  0.11368683772E-12  0.17120000000E+03  0.17120000000E+03 0.  0.
         13    1    1    2    0    0 -0.94741642279E+01  0.38025633628E+02  0.18013108750E+03  0.18434459159E+03  0.10566000000E+00 0. -1.
        994    1    1    2    0    0  0.10235275066E+02 -0.37292771858E+02  0.87851868647E+01  0.17573312493E+03  0.17120000000E+03 0.  0.
        998    1    1    2    0    0 -0.76111083809E+00 -0.73286177044E+00  0.13110837219E+04  0.13111222835E+04  0.10000000000E+02 0.  0.
</event>
<event>
 5    1  0.1146201E-008  0.3859432E+03  0.7957747E-01  0.3425682E+00
         13   -1    0    0    0    0  0.00000000000E+00  0.00000000000E+00  0.14999999963E+04  0.15000000000E+04  0.10566000000E+00 0.  1.
        994   -1    0    0    0    0 -0.00000000000E+00 -0.00000000000E+00  0.11368683772E-12  0.17120000000E+03  0.17120000000E+03 0.  0.
         13    1    1    2    0    0  0.10827232108E+02 -0.56549481749E+01  0.66522345950E+02  0.67634614427E+02  0.10566000000E+00 0.  1.
        994    1    1    2    0    0  0.16389075190E+01  0.14102737807E+02  0.18237621207E+01  0.17179737873E+03  0.17120000000E+03 0.  0.
        998    1    1    2    0    0 -0.12466139627E+02 -0.84477896325E+01  0.14316538882E+04  0.14317680068E+04  0.10000000000E+02 0.  1.
</event>
<event>
 5    1  0.1146201E-008  0.3846990E+03  0.7957747E-01  0.3430950E+00
         13   -1    0    0    0    0  0.00000000000E+00  0.00000000000E+00  0.14999999963E+04  0.15000000000E+04  0.10566000000E+00 0.  1.
        994   -1    0    0    0    0 -0.00000000000E+00 -0.00000000000E+00  0.11368683772E-12  0.17120000000E+03  0.17120000000E+03 0.  0.
         13    1    1    2    0    0  0.14810903630E+02 -0.58264323710E+01  0.77824114220E+02  0.79434967732E+02  0.10566000000E+00 0.  1.
        994    1    1    2    0    0 -0.13861837205E+01 -0.11602480696E+02  0.22292599602E+01  0.17161278700E+03  0.17120000000E+03 0.  0.
        998    1    1    2    0    0 -0.13424719910E+02  0.17428913067E+02  0.14199466221E+04  0.14201522453E+04  0.10000000000E+02 0.  1.
</event>
<event>
 5    1  0.1146201E-008  0.3776022E+03  0.7957747E-01  0.3461666E+00
         13   -1    0    0    0    0  0.00000000000E+00  0.00000000000E+00  0.14999999963E+04  0.15000000000E+04  0.10566000000E+00 0.  1.
        994   -1    0    0    0    0 -0.00000000000E+00 -0.00000000000E+00  0.11368683772E-12  0.17120000000E+03  0.17120000000E+03 0.  0.
         13    1    1    2    0    0 -0.26417313053E+02 -0.23707262073E+02  0.11308226959E+03  0.11852223236E+03  0.10566000000E+00 0.  1.
        994    1    1    2    0    0  0.14261155837E+02  0.23718214380E+02  0.79337059265E+01  0.17360391110E+03  0.17120000000E+03 0.  0.
        998    1    1    2    0    0  0.12156157216E+02 -0.10952307426E-01  0.13789840208E+04  0.13790738565E+04  0.10000000000E+02 0.  1.
</event>
<event>
 5    1  0.1146201E-008  0.3754877E+03  0.7957747E-01  0.3471044E+00
         13   -1    0    0    0    0  0.00000000000E+00  0.00000000000E+00  0.14999999963E+04  0.15000000000E+04  0.10566000000E+00 0.  1.
        994   -1    0    0    0    0 -0.00000000000E+00 -0.00000000000E+00  0.11368683772E-12  0.17120000000E+03  0.17120000000E+03 0.  0.
         13    1    1    2    0    0  0.64590234393E+02  0.32123838874E+02  0.34161230853E+03  0.34914584331E+03  0.10566000000E+00 0.  1.
        994    1    1    2    0    0 -0.55858488264E+02 -0.25513856573E+02  0.19335600433E+02  0.18290553035E+03  0.17120000000E+03 0.  0.
        998    1    1    2    0    0 -0.87317461287E+01 -0.66099823014E+01  0.11390520873E+04  0.11391486263E+04  0.10000000000E+02 0.  1.
</event>
<event>
 5    1  0.1146201E-008  0.3831714E+03  0.7957747E-01  0.3437465E+00
         13   -1    0    0    0    0  0.00000000000E+00  0.00000000000E+00  0.14999999963E+04  0.15000000000E+04  0.10566000000E+00 0. -1.
        994   -1    0    0    0    0 -0.00000000000E+00 -0.00000000000E+00  0.11368683772E-12  0.17120000000E+03  0.17120000000E+03 0.  0.
         13    1    1    2    0    0  0.34491599034E+01 -0.18059761108E+02  0.63146415899E+02  0.65768781958E+02  0.10566000000E+00 0. -1.
        994    1    1    2    0    0 -0.67467619182E+01  0.19128908233E+02  0.39030548533E+01  0.17244160682E+03  0.17120000000E+03 0.  0.
        998    1    1    2    0    0  0.32976020147E+01 -0.10691471249E+01  0.14329505255E+04  0.14329896112E+04  0.10000000000E+02 0. -1.
</event>
<event>
 5    1  0.1146201E-008  0.3824286E+03  0.7957747E-01  0.3440652E+00
         13   -1    0    0    0    0  0.00000000000E+00  0.00000000000E+00  0.14999999963E+04  0.15000000000E+04  0.10566000000E+00 0. -1.
        994   -1    0    0    0    0 -0.00000000000E+00 -0.00000000000E+00  0.11368683772E-12  0.17120000000E+03  0.17120000000E+03 0.  0.
         13    1    1    2    0    0 -0.62916067204E+02  0.18009683820E+03  0.10787576225E+04  0.10954959251E+04  0.10566000000E+00 0. -1.
        994    1    1    2    0    0  0.69623486646E+02 -0.18167899780E+03  0.14068449012E+03  0.29488345816E+03  0.17120000000E+03 0.  0.
        998    1    1    2    0    0 -0.67074194418E+01  0.15821596007E+01  0.28055788366E+03  0.28082061674E+03  0.10000000000E+02 0.  0.
</event>
<event>
 5    1  0.1146201E-008  0.3826983E+03  0.7957747E-01  0.3439493E+00
         13   -1    0    0    0    0  0.00000000000E+00  0.00000000000E+00  0.14999999963E+04  0.15000000000E+04  0.10566000000E+00 0. -1.
        994   -1    0    0    0    0 -0.00000000000E+00 -0.00000000000E+00  0.11368683772E-12  0.17120000000E+03  0.17120000000E+03 0.  0.
         13    1    1    2    0    0 -0.27590988976E+02  0.12443388996E+02  0.16351344179E+03  0.16629118260E+03  0.10566000000E+00 0. -1.
        994    1    1    2    0    0  0.20473634452E+02  0.50225943135E+00  0.41681346026E+01  0.17247096949E+03  0.17120000000E+03 0.  0.
        998    1    1    2    0    0  0.71173545235E+01 -0.12945648427E+02  0.13323184199E+04  0.13324378479E+04  0.10000000000E+02 0. -1.
</event>
<event>
 5    1  0.1146201E-008  0.3836746E+03  0.7957747E-01  0.3435313E+00
         13   -1    0    0    0    0  0.00000000000E+00  0.00000000000E+00  0.14999999963E+04  0.15000000000E+04  0.10566000000E+00 0.  1.
        994   -1    0    0    0    0 -0.00000000000E+00 -0.00000000000E+00  0.11368683772E-12  0.17120000000E+03  0.17120000000E+03 0.  0.
         13    1    1    2    0    0  0.15793289673E+02  0.12368699139E+02  0.89415948234E+02  0.91638614567E+02  0.10566000000E+00 0.  1.
        994    1    1    2    0    0 -0.12717256299E+02  0.14957644189E+01  0.28313606570E+01  0.17170155073E+03  0.17120000000E+03 0.  0.
        998    1    1    2    0    0 -0.30760333737E+01 -0.13864463558E+02  0.14077526874E+04  0.14078598347E+04  0.10000000000E+02 0.  1.
</event>
<event>
 5    1  0.1146201E-008  0.3838050E+03  0.7957747E-01  0.3434756E+00
         13   -1    0    0    0    0  0.00000000000E+00  0.00000000000E+00  0.14999999963E+04  0.15000000000E+04  0.10566000000E+00 0. -1.
        994   -1    0    0    0    0 -0.00000000000E+00 -0.00000000000E+00  0.11368683772E-12  0.17120000000E+03  0.17120000000E+03 0.  0.
         13    1    1    2    0    0  0.80356557672E+01 -0.74219788352E+01  0.25591031560E+02  0.27831090417E+02  0.10566000000E+00 0. -1.
        994    1    1    2    0    0 -0.69848495517E+01  0.13226942717E+02  0.29636167840E+01  0.17187775645E+03  0.17120000000E+03 0.  0.
        998    1    1    2    0    0 -0.10508062156E+01 -0.58049638818E+01  0.14714453479E+04  0.14714911531E+04  0.10000000000E+02 0. -1.
</event>
<event>
 5    1  0.1146201E-008  0.3797627E+03  0.7957747E-01  0.3452192E+00
         13   -1    0    0    0    0  0.00000000000E+00  0.00000000000E+00  0.14999999963E+04  0.15000000000E+04  0.10566000000E+00 0. -1.
        994   -1    0    0    0    0 -0.00000000000E+00 -0.00000000000E+00  0.11368683772E-12  0.17120000000E+03  0.17120000000E+03 0.  0.
         13    1    1    2    0    0  0.68960695913E+02 -0.79549754638E+02  0.53662757495E+03  0.54685729985E+03  0.10566000000E+00 0. -1.
        994    1    1    2    0    0 -0.10859671709E+03  0.87995108409E+02  0.72653729042E+02  0.23264649237E+03  0.17120000000E+03 0.  0.
        998    1    1    2    0    0  0.39636021179E+02 -0.84453537717E+01  0.89071869229E+03  0.89169620778E+03  0.10000000000E+02 0. -1.
</event>
<event>
 5    1  0.1146201E-008  0.3739774E+03  0.7957747E-01  0.3477809E+00
         13   -1    0    0    0    0  0.00000000000E+00  0.00000000000E+00  0.14999999963E+04  0.15000000000E+04  0.10566000000E+00 0.  1.
        994   -1    0    0    0    0 -0.00000000000E+00 -0.00000000000E+00  0.11368683772E-12  0.17120000000E+03  0.17120000000E+03 0.  0.
         13    1    1    2    0    0  0.27013545083E+02  0.20044472609E+02  0.75100485705E+02  0.82289772252E+02  0.10566000000E+00 0.  1.
        994    1    1    2    0    0 -0.24426477258E+02 -0.75589066159E+01  0.94380458525E+01  0.17335601106E+03  0.17120000000E+03 0.  0.
        998    1    1    2    0    0 -0.25870678245E+01 -0.12485565993E+02  0.14154614647E+04  0.14155542167E+04  0.10000000000E+02 0.  1.
</event>
<event>
 5    1  0.1146201E-008  0.3702376E+03  0.7957747E-01  0.3494800E+00
         13   -1    0    0    0    0  0.00000000000E+00  0.00000000000E+00  0.14999999963E+04  0.15000000000E+04  0.10566000000E+00 0.  1.
        994   -1    0    0    0    0 -0.00000000000E+00 -0.00000000000E+00  0.11368683772E-12  0.17120000000E+03  0.17120000000E+03 0.  0.
         13    1    1    2    0    0  0.59073626282E+01  0.11364836405E+02  0.41543911652E+01  0.13465755446E+02  0.10566000000E+00 0.  1.
        994    1    1    2    0    0 -0.15804217341E+02 -0.50334776292E+02  0.18823176522E+02  0.18013082736E+03  0.17120000000E+03 0.  0.
        998    1    1    2    0    0  0.98968547130E+01  0.38969939887E+02  0.14770224286E+04  0.14776034172E+04  0.10000000000E+02 0.  1.
</event>
<event>
 5    1  0.1146201E-008  0.3809098E+03  0.7957747E-01  0.3447206E+00
         13   -1    0    0    0    0  0.00000000000E+00  0.00000000000E+00  0.14999999963E+04  0.15000000000E+04  0.10566000000E+00 0. -1.
        994   -1    0    0    0    0 -0.00000000000E+00 -0.00000000000E+00  0.11368683772E-12  0.17120000000E+03  0.17120000000E+03 0.  0.
         13    1    1    2    0    0  0.93615832524E+01  0.79382972595E+01  0.18780642966E+02  0.22436120846E+02  0.10566000000E+00 0. -1.
        994    1    1    2    0    0 -0.10426462484E+02 -0.71841623550E+01  0.42090909871E+01  0.17171918866E+03  0.17120000000E+03 0.  0.
        998    1    1    2    0    0  0.10648792320E+01 -0.75413490453E+00  0.14770102623E+04  0.14770446905E+04  0.10000000000E+02 0. -1.
</event>
<event>
 5    1  0.1146201E-008  0.3833499E+03  0.7957747E-01  0.3436701E+00
         13   -1    0    0    0    0  0.00000000000E+00  0.00000000000E+00  0.14999999963E+04  0.15000000000E+04  0.10566000000E+00 0.  1.
        994   -1    0    0    0    0 -0.00000000000E+00 -0.00000000000E+00  0.11368683772E-12  0.17120000000E+03  0.17120000000E+03 0.  0.
         13    1    1    2    0    0  0.79268502449E+01  0.86596445308E+01  0.27436980631E+02  0.29843315305E+02  0.10566000000E+00 0.  1.
        994    1    1    2    0    0  0.99867793266E+00 -0.99623973711E+01  0.27831355720E+01  0.17151510885E+03  0.17120000000E+03 0.  0.
        998    1    1    2    0    0 -0.89255281775E+01  0.13027528403E+01  0.14697798801E+04  0.14698415758E+04  0.10000000000E+02 0.  1.
</event>
<event>
 5    1  0.1146201E-008  0.3752290E+03  0.7957747E-01  0.3472199E+00
         13   -1    0    0    0    0  0.00000000000E+00  0.00000000000E+00  0.14999999963E+04  0.15000000000E+04  0.10566000000E+00 0. -1.
        994   -1    0    0    0    0 -0.00000000000E+00 -0.00000000000E+00  0.11368683772E-12  0.17120000000E+03  0.17120000000E+03 0.  0.
         13    1    1    2    0    0  0.11003501655E+02  0.79057526797E+01  0.11105037004E+02  0.17518875107E+02  0.10566000000E+00 0. -1.
        994    1    1    2    0    0 -0.21331289716E+01 -0.10664638682E+02  0.69630563550E+01  0.17168636787E+03  0.17120000000E+03 0.  0.
        998    1    1    2    0    0 -0.88703726835E+01  0.27588860024E+01  0.14819319029E+04  0.14819947570E+04  0.10000000000E+02 0. -1.
</event>
<event>
 5    1  0.1146201E-008  0.3851801E+03  0.7957747E-01  0.3428909E+00
         13   -1    0    0    0    0  0.00000000000E+00  0.00000000000E+00  0.14999999963E+04  0.15000000000E+04  0.10566000000E+00 0.  1.
        994   -1    0    0    0    0 -0.00000000000E+00 -0.00000000000E+00  0.11368683772E-12  0.17120000000E+03  0.17120000000E+03 0.  0.
         13    1    1    2    0    0 -0.11178067463E+02  0.18614171138E+01  0.41949218770E+02  0.43452988221E+02  0.10566000000E+00 0.  1.
        994    1    1    2    0    0  0.40005639892E+01 -0.15078480098E+02  0.23410378865E+01  0.17192523239E+03  0.17120000000E+03 0.  0.
        998    1    1    2    0    0  0.71775034740E+01  0.13217062984E+02  0.14557097396E+04  0.14558217794E+04  0.10000000000E+02 0.  1.
</event>
<event>
 5    1  0.1146201E-008  0.3772799E+03  0.7957747E-01  0.3463089E+00
         13   -1    0    0    0    0  0.00000000000E+00  0.00000000000E+00  0.14999999963E+04  0.15000000000E+04  0.10566000000E+00 0. -1.
        994   -1    0    0    0    0 -0.00000000000E+00 -0.00000000000E+00  0.11368683772E-12  0.17120000000E+03  0.17120000000E+03 0.  0.
         13    1    1    2    0    0 -0.10759489711E+02 -0.64590105256E+02  0.31543919147E+03  0.32216384495E+03  0.10566000000E+00 0. -1.
        994    1    1    2    0    0  0.46071557867E+01  0.62338967392E+02  0.18808708416E+02  0.18322276128E+03  0.17120000000E+03 0.  0.
        998    1    1    2    0    0  0.61523339247E+01  0.22511378637E+01  0.11657520964E+04  0.11658133938E+04  0.10000000000E+02 0. -1.
</event>
<event>
 5    1  0.1146201E-008  0.3843411E+03  0.7957747E-01  0.3432471E+00
         13   -1    0    0    0    0  0.00000000000E+00  0.00000000000E+00  0.14999999963E+04  0.15000000000E+04  0.10566000000E+00 0. -1.
        994   -1    0    0    0    0 -0.00000000000E+00 -0.00000000000E+00  0.11368683772E-12  0.17120000000E+03  0.17120000000E+03 0.  0.
         13    1    1    2    0    0 -0.13766397135E+02 -0.91738708284E+01  0.70977398023E+02  0.72879872325E+02  0.10566000000E+00 0. -1.
        994    1    1    2    0    0  0.10171488635E+02 -0.15245583667E+01  0.23063297717E+01  0.17152417502E+03  0.17120000000E+03 0.  0.
        998    1    1    2    0    0  0.35949084998E+01  0.10698429195E+02  0.14267162685E+04  0.14267959527E+04  0.10000000000E+02 0. -1.
</event>
<event>
 5    1  0.1146201E-008  0.3846105E+03  0.7957747E-01  0.3431326E+00
         13   -1    0    0    0    0  0.00000000000E+00  0.00000000000E+00  0.14999999963E+04  0.15000000000E+04  0.10566000000E+00 0.  1.
        994   -1    0    0    0    0 -0.00000000000E+00 -0.00000000000E+00  0.11368683772E-12  0.17120000000E+03  0.17120000000E+03 0.  0.
         13    1    1    2    0    0 -0.10848982152E+02  0.20494650867E+01  0.33791850158E+02  0.35549979213E+02  0.10566000000E+00 0.  1.
        994    1    1    2    0    0  0.50595080538E+01  0.12023745795E+02  0.23841995472E+01  0.17171282274E+03  0.17120000000E+03 0.  0.
        998    1    1    2    0    0  0.57894740985E+01 -0.14073210882E+02  0.14638239466E+04  0.14639371981E+04  0.10000000000E+02 0.  1.
</event>
<event>
 5    1  0.1146201E-008  0.3813760E+03  0.7957747E-01  0.3445189E+00
         13   -1    0    0    0    0  0.00000000000E+00  0.00000000000E+00  0.14999999963E+04  0.15000000000E+04  0.10566000000E+00 0. -1.
        994   -1    0    0    0    0 -0.00000000000E+00 -0.00000000000E+00  0.11368683772E-12  0.17120000000E+03  0.17120000000E+03 0.  0.
         13    1    1    2    0    0  0.15181493259E+02 -0.28813074106E+02  0.15029606288E+03  0.15378422760E+03  0.10566000000E+00 0. -1.
        994    1    1    2    0    0 -0.70508063154E+01  0.20977200851E+02  0.50716825663E+01  0.17269892527E+03  0.17120000000E+03 0.  0.
        998    1    1    2    0    0 -0.81306869435E+01  0.78358732546E+01  0.13446322508E+04  0.13447168471E+04  0.10000000000E+02 0. -1.
</event>
<event>
 5    1  0.1146201E-008  0.3723497E+03  0.7957747E-01  0.3485161E+00
         13   -1    0    0    0    0  0.00000000000E+00  0.00000000000E+00  0.14999999963E+04  0.15000000000E+04  0.10566000000E+00 0. -1.
        994   -1    0    0    0    0 -0.00000000000E+00 -0.00000000000E+00  0.11368683772E-12  0.17120000000E+03  0.17120000000E+03 0.  0.
         13    1    1    2    0    0  0.12975764537E+02 -0.43983102382E+01  0.78552750618E+01  0.15793419788E+02  0.10566000000E+00 0. -1.
        994    1    1    2    0    0 -0.16086815857E+02  0.10749294882E+02  0.93310111152E+01  0.17254228686E+03  0.17120000000E+03 0.  0.
        998    1    1    2    0    0  0.31110513204E+01 -0.63509846439E+01  0.14828137101E+04  0.14828642934E+04  0.10000000000E+02 0. -1.
</event>
<event>
 5    1  0.1146201E-008  0.3811766E+03  0.7957747E-01  0.3446051E+00
         13   -1    0    0    0    0  0.00000000000E+00  0.00000000000E+00  0.14999999963E+04  0.15000000000E+04  0.10566000000E+00 0. -1.
        994   -1    0    0    0    0 -0.00000000000E+00 -0.00000000000E+00  0.11368683772E-12  0.17120000000E+03  0.17120000000E+03 0.  0.
         13    1    1    2    0    0  0.12247941540E+02 -0.48117523356E+01  0.23064625700E+02  0.26554720018E+02  0.10566000000E+00 0. -1.
        994    1    1    2    0    0 -0.78172611264E+01  0.42503917116E+01  0.38040833247E+01  0.17147328203E+03  0.17120000000E+03 0.  0.
        998    1    1    2    0    0 -0.44306804140E+01  0.56136062403E+00  0.14731312873E+04  0.14731719979E+04  0.10000000000E+02 0. -1.
</event>
<event>
 5    1  0.1146201E-008  0.3713282E+03  0.7957747E-01  0.3489809E+00
         13   -1    0    0    0    0  0.00000000000E+00  0.00000000000E+00  0.14999999963E+04  0.15000000000E+04  0.10566000000E+00 0.  1.
        994   -1    0    0    0    0 -0.00000000000E+00 -0.00000000000E+00  0.11368683772E-12  0.17120000000E+03  0.17120000000E+03 0.  0.
         13    1    1    2    0    0  0.13964019977E+02 -0.28310160155E+02  0.37333132650E+02  0.48890008994E+02  0.10566000000E+00 0.  1.
        994    1    1    2    0    0 -0.12357311083E+02  0.28347759028E+02  0.15009055556E+02  0.17461675271E+03  0.17120000000E+03 0.  0.
        998    1    1    2    0    0 -0.16067088943E+01 -0.37598872683E-01  0.14476578081E+04  0.14476932383E+04  0.10000000000E+02 0.  1.
</event>
<event>
 5    1  0.1146201E-008  0.3849743E+03  0.7957747E-01  0.3429781E+00
         13   -1    0    0    0    0  0.00000000000E+00  0.00000000000E+00  0.14999999963E+04  0.15000000000E+04  0.10566000000E+00 0. -1.
        994   -1    0    0    0    0 -0.00000000000E+00 -0.00000000000E+00  0.11368683772E-12  0.17120000000E+03  0.17120000000E+03 0.  0.
         13    1    1    2    0    0  0.14025016919E+02  0.59992979578E+01  0.73437370343E+02  0.75005007850E+02  0.10566000000E+00 0. -1.
        994    1    1    2    0    0 -0.20002865174E+01 -0.72311692868E+01  0.18280749782E+01  0.17137407276E+03  0.17120000000E+03 0.  0.
        998    1    1    2    0    0 -0.12024730401E+02  0.12318713290E+01  0.14247345510E+04  0.14248209194E+04  0.10000000000E+02 0. -1.
</event>
<event>
 5    1  0.1146201E-008  0.3859819E+03  0.7957747E-01  0.3425519E+00
         13   -1    0    0    0    0  0.00000000000E+00  0.00000000000E+00  0.14999999963E+04  0.15000000000E+04  0.10566000000E+00 0.  1.
        994   -1    0    0    0    0 -0.00000000000E+00 -0.00000000000E+00  0.11368683772E-12  0.17120000000E+03  0.17120000000E+03 0.  0.
         13    1    1    2    0    0  0.10459402930E+02 -0.49066006810E+01  0.58920294845E+02  0.60042369611E+02  0.10566000000E+00 0.  1.
        994    1    1    2    0    0 -0.83252235331E+01  0.11353774721E+01  0.13748979985E+01  0.17141157713E+03  0.17120000000E+03 0.  0.
        998    1    1    2    0    0 -0.21341793968E+01  0.37712232089E+01  0.14397048034E+04  0.14397460533E+04  0.10000000000E+02 0.  1.
</event>
<event>
 5    1  0.1146201E-008  0.3748087E+03  0.7957747E-01  0.3474079E+00
         13   -1    0    0    0    0  0.00000000000E+00  0.00000000000E+00  0.14999999963E+04  0.15000000000E+04  0.10566000000E+00 0.  1.
        994   -1    0    0    0    0 -0.00000000000E+00 -0.00000000000E+00  0.11368683772E-12  0.17120000000E+03  0.17120000000E+03 0.  0.
         13    1    1    2    0    0  0.28017504106E+02 -0.22017975291E+02  0.83032299875E+02  0.90355662572E+02  0.10566000000E+00 0.  1.
        994    1    1    2    0    0 -0.41521330902E+02  0.22509170287E+02  0.14402538244E+02  0.17817844082E+03  0.17120000000E+03 0.  0.
        998    1    1    2    0    0  0.13503826796E+02 -0.49119499665E+00  0.14025651582E+04  0.14026658966E+04  0.10000000000E+02 0.  1.
</event>
<event>
 5    1  0.1146201E-008  0.3808848E+03  0.7957747E-01  0.3447315E+00
         13   -1    0    0    0    0  0.00000000000E+00  0.00000000000E+00  0.14999999963E+04  0.15000000000E+04  0.10566000000E+00 0. -1.
        994   -1    0    0    0    0 -0.00000000000E+00 -0.00000000000E+00  0.11368683772E-12  0.17120000000E+03  0.17120000000E+03 0.  0.
         13    1    1    2    0    0 -0.17318014136E+02 -0.19946672786E+02  0.90334531060E+02  0.94117596839E+02  0.10566000000E+00 0. -1.
        994    1    1    2    0    0  0.13930681885E+02  0.17967288150E+02  0.54119262230E+01  0.17278777818E+03  0.17120000000E+03 0.  0.
        998    1    1    2    0    0  0.33873322515E+01  0.19793846358E+01  0.14042535390E+04  0.14042946250E+04  0.10000000000E+02 0. -1.
</event>
<event>
 5    1  0.1146201E-008  0.3847543E+03  0.7957747E-01  0.3430715E+00
         13   -1    0    0    0    0  0.00000000000E+00  0.00000000000E+00  0.14999999963E+04  0.15000000000E+04  0.10566000000E+00 0. -1.
        994   -1    0    0    0    0 -0.00000000000E+00 -0.00000000000E+00  0.11368683772E-12  0.17120000000E+03  0.17120000000E+03 0.  0.
         13    1    1    2    0    0 -0.13916713065E+02 -0.23079513299E+01  0.54882048811E+02  0.56666144986E+02  0.10566000000E+00 0. -1.
        994    1    1    2    0    0  0.14926114793E+02  0.16302554987E+01  0.24945360656E+01  0.17187527264E+03  0.17120000000E+03 0.  0.
        998    1    1    2    0    0 -0.10094017271E+01  0.67769583114E+00  0.14426234114E+04  0.14426585824E+04  0.10000000000E+02 0. -1.
</event>
<event>
 5    1  0.1146201E-008  0.3722241E+03  0.7957747E-01  0.3485731E+00
         13   -1    0    0    0    0  0.00000000000E+00  0.00000000000E+00  0.14999999963E+04  0.15000000000E+04  0.10566000000E+00 0.  1.
        994   -1    0    0    0    0 -0.00000000000E+00 -0.00000000000E+00  0.11368683772E-12  0.17120000000E+03  0.17120000000E+03 0.  0.
         13    1    1    2    0    0  0.64780785695E+02  0.52229449649E+02  0.33035474524E+03  0.34067394158E+03  0.10566000000E+00 0.  1.
        994    1    1    2    0    0 -0.58707500278E+02 -0.59149276048E+02  0.32332617337E+02  0.19313219719E+03  0.17120000000E+03 0.  0.
        998    1    1    2    0    0 -0.60732854176E+01  0.69198263997E+01  0.11373126337E+04  0.11373938612E+04  0.10000000000E+02 0.  1.
</event>
<event>
 5    1  0.1146201E-008  0.3816592E+03  0.7957747E-01  0.3443966E+00
         13   -1    0    0    0    0  0.00000000000E+00  0.00000000000E+00  0.14999999963E+04  0.15000000000E+04  0.10566000000E+00 0.  1.
        994   -1    0    0    0    0 -0.00000000000E+00 -0.00000000000E+00  0.11368683772E-12  0.17120000000E+03  0.17120000000E+03 0.  0.
         13    1    1    2    0    0 -0.43386950803E+01 -0.11411964026E+02  0.22081010564E+02  0.25231713962E+02  0.10566000000E+00 0.  1.
        994    1    1    2    0    0  0.63372311166E+01 -0.64350740527E+01  0.35691963154E+01  0.17147521640E+03  0.17120000000E+03 0.  0.
        998    1    1    2    0    0 -0.19985360363E+01  0.17847038078E+02  0.14743497894E+04  0.14744930696E+04  0.10000000000E+02 0.  1.
</event>
<event>
 5    1  0.1146201E-008  0.3839438E+03  0.7957747E-01  0.3434164E+00
         13   -1    0    0    0    0  0.00000000000E+00  0.00000000000E+00  0.14999999963E+04  0.15000000000E+04  0.10566000000E+00 0. -1.
        994   -1    0    0    0    0 -0.00000000000E+00 -0.00000000000E+00  0.11368683772E-12  0.17120000000E+03  0.17120000000E+03 0.  0.
         13    1    1    2    0    0  0.55184109826E+02  0.47793347049E+02  0.12567434982E+03  0.14533940748E+03  0.10566000000E+00 0. -1.
        994    1    1    2    0    0 -0.57460591207E+02 -0.49312671079E+02  0.39909865798E+02  0.19140453615E+03  0.17120000000E+03 0.  0.
        998    1    1    2    0    0  0.22764813817E+01  0.15193240297E+01  0.13344157807E+04  0.13344560564E+04  0.10000000000E+02 0. -1.
</event>
<event>
 5    1  0.1146201E-008  0.3948964E+03  0.7957747E-01  0.3388755E+00
         13   -1    0    0    0    0  0.00000000000E+00  0.00000000000E+00  0.14999999963E+04  0.15000000000E+04  0.10566000000E+00 0. -1.
        994   -1    0    0    0    0 -0.00000000000E+00 -0.00000000000E+00  0.11368683772E-12  0.17120000000E+03  0.17120000000E+03 0.  0.
         13    1    1    2    0    0 -0.24316473802E+02  0.35167648328E+02  0.28618762463E+02  0.51449967114E+02  0.10566000000E+00 0. -1.
        994    1    1    2    0    0  0.30107714897E+02  0.13835184080E+01  0.28254226248E+02  0.17611396856E+03  0.17120000000E+03 0.  0.
        998    1    1    2    0    0 -0.57912410944E+01 -0.36551166736E+02  0.14431270076E+04  0.14436360643E+04  0.10000000000E+02 0. -1.
</event>
<event>
 5    1  0.1146201E-008  0.2977498E+03  0.7957747E-01  0.3912215E+00
         13   -1    0    0    0    0  0.00000000000E+00  0.00000000000E+00  0.14999999963E+04  0.15000000000E+04  0.10566000000E+00 0.  1.
        994   -1    0    0    0    0 -0.00000000000E+00 -0.00000000000E+00  0.11368683772E-12  0.17120000000E+03  0.17120000000E+03 0.  0.
         13    1    1    2    0    0 -0.17323573137E+03  0.47515908381E+02  0.70160053751E+03  0.72423180376E+03  0.10566000000E+00 0.  1.
        994    1    1    2    0    0  0.12674849083E+03 -0.34375782172E+02  0.85068054230E+02  0.23193293897E+03  0.17120000000E+03 0.  0.
        998    1    1    2    0    0  0.46487240536E+02 -0.13140126210E+02  0.71333140453E+03  0.71503525727E+03  0.10000000000E+02 0.  1.
</event>
<event>
 5    1  0.1146201E-008  0.3712335E+03  0.7957747E-01  0.3490241E+00
         13   -1    0    0    0    0  0.00000000000E+00  0.00000000000E+00  0.14999999963E+04  0.15000000000E+04  0.10566000000E+00 0. -1.
        994   -1    0    0    0    0 -0.00000000000E+00 -0.00000000000E+00  0.11368683772E-12  0.17120000000E+03  0.17120000000E+03 0.  0.
         13    1    1    2    0    0 -0.72848845882E+00 -0.43668446515E+02  0.10887932956E+03  0.11731233306E+03  0.10566000000E+00 0. -1.
        994    1    1    2    0    0 -0.13861728375E+02  0.24209198151E+02  0.11309878440E+02  0.17382631026E+03  0.17120000000E+03 0.  0.
        998    1    1    2    0    0  0.14590216834E+02  0.19459248364E+02  0.13798107883E+04  0.13800613567E+04  0.10000000000E+02 0. -1.
</event>
<event>
 5    1  0.1146201E-008  0.3844857E+03  0.7957747E-01  0.3431857E+00
         13   -1    0    0    0    0  0.00000000000E+00  0.00000000000E+00  0.14999999963E+04  0.15000000000E+04  0.10566000000E+00 0. -1.
        994   -1    0    0    0    0 -0.00000000000E+00 -0.00000000000E+00  0.11368683772E-12  0.17120000000E+03  0.17120000000E+03 0.  0.
         13    1    1    2    0    0  0.10006531879E+02 -0.84267540632E+01  0.44793948369E+02  0.46665295871E+02  0.10566000000E+00 0. -1.
        994    1    1    2    0    0 -0.10622054545E+02  0.29245820680E+01  0.22856657909E+01  0.17156936058E+03  0.17120000000E+03 0.  0.
        998    1    1    2    0    0  0.61552266656E+00  0.55021719952E+01  0.14529203821E+04  0.14529653435E+04  0.10000000000E+02 0. -1.
</event>
<event>
 5    1  0.1146201E-008  0.3847135E+03  0.7957747E-01  0.3430888E+00
         13   -1    0    0    0    0  0.00000000000E+00  0.00000000000E+00  0.14999999963E+04  0.15000000000E+04  0.10566000000E+00 0. -1.
        994   -1    0    0    0    0 -0.00000000000E+00 -0.00000000000E+00  0.11368683772E-12  0.17120000000E+03  0.17120000000E+03 0.  0.
         13    1    1    2    0    0  0.14532789484E+02 -0.59819065991E+01  0.66375636365E+02  0.68210860159E+02  0.10566000000E+00 0. -1.
        994    1    1    2    0    0 -0.19234766943E+02  0.54000638391E+00  0.29922248850E+01  0.17230397928E+03  0.17120000000E+03 0.  0.
        998    1    1    2    0    0  0.47019774581E+01  0.54419002152E+01  0.14306321350E+04  0.14306851606E+04  0.10000000000E+02 0. -1.
</event>
<event>
 5    1  0.1146201E-008  0.3817540E+03  0.7957747E-01  0.3443557E+00
         13   -1    0    0    0    0  0.00000000000E+00  0.00000000000E+00  0.14999999963E+04  0.15000000000E+04  0.10566000000E+00 0. -1.
        994   -1    0    0    0    0 -0.00000000000E+00 -0.00000000000E+00  0.11368683772E-12  0.17120000000E+03  0.17120000000E+03 0.  0.
         13    1    1    2    0    0 -0.82013553815E+01  0.77894934147E+01  0.18855436915E+02  0.21988112767E+02  0.10566000000E+00 0. -1.
        994    1    1    2    0    0 -0.69977402532E+01 -0.54913886543E+01  0.35133913499E+01  0.17146692870E+03  0.17120000000E+03 0.  0.
        998    1    1    2    0    0  0.15199095635E+02 -0.22981047603E+01  0.14776311680E+04  0.14777449585E+04  0.10000000000E+02 0. -1.
</event>
<event>
 5    1  0.1146201E-008  0.3857183E+03  0.7957747E-01  0.3426631E+00
         13   -1    0    0    0    0  0.00000000000E+00  0.00000000000E+00  0.14999999963E+04  0.15000000000E+04  0.10566000000E+00 0.  1.
        994   -1    0    0    0    0 -0.00000000000E+00 -0.00000000000E+00  0.11368683772E-12  0.17120000000E+03  0.17120000000E+03 0.  0.
         13    1    1    2    0    0  0.43880485690E+01  0.98946531909E+01  0.44904290597E+02  0.46190535936E+02  0.10566000000E+00 0.  1.
        994    1    1    2    0    0 -0.39511104188E+01 -0.11906422681E+02  0.17904462730E+01  0.17166834266E+03  0.17120000000E+03 0.  0.
        998    1    1    2    0    0 -0.43693815027E+00  0.20117694903E+01  0.14533052594E+04  0.14533411214E+04  0.10000000000E+02 0.  1.
</event>
<event>
 5    1  0.1146201E-008  0.3833317E+03  0.7957747E-01  0.3436779E+00
         13   -1    0    0    0    0  0.00000000000E+00  0.00000000000E+00  0.14999999963E+04  0.15000000000E+04  0.10566000000E+00 0.  1.
        994   -1    0    0    0    0 -0.00000000000E+00 -0.00000000000E+00  0.11368683772E-12  0.17120000000E+03  0.17120000000E+03 0.  0.
         13    1    1    2    0    0 -0.44440472447E+01 -0.24985206905E+02  0.12966173351E+03  0.13212186201E+03  0.10566000000E+00 0.  1.
        994    1    1    2    0    0  0.49036016059E+01  0.15333435980E+02  0.33180847273E+01  0.17198723573E+03  0.17120000000E+03 0.  0.
        998    1    1    2    0    0 -0.45955436120E+00  0.96517709242E+01  0.13670201780E+04  0.13670909023E+04  0.10000000000E+02 0.  1.
</event>
<event>
 5    1  0.1146201E-008  0.3851099E+03  0.7957747E-01  0.3429206E+00
         13   -1    0    0    0    0  0.00000000000E+00  0.00000000000E+00  0.14999999963E+04  0.15000000000E+04  0.10566000000E+00 0.  1.
        994   -1    0    0    0    0 -0.00000000000E+00 -0.00000000000E+00  0.11368683772E-12  0.17120000000E+03  0.17120000000E+03 0.  0.
         13    1    1    2    0    0  0.36949070169E+01 -0.15686893888E+02  0.85363257134E+02  0.86871329046E+02  0.10566000000E+00 0.  1.
        994    1    1    2    0    0 -0.44934192394E+01  0.50477982168E+01  0.17257598825E+01  0.17134202441E+03  0.17120000000E+03 0.  0.
        998    1    1    2    0    0  0.79851222250E+00  0.10639095671E+02  0.14129109793E+04  0.14129866465E+04  0.10000000000E+02 0.  1.
</event>
<event>
 5    1  0.1146201E-008  0.3769128E+03  0.7957747E-01  0.3464712E+00
         13   -1    0    0    0    0  0.00000000000E+00  0.00000000000E+00  0.14999999963E+04  0.15000000000E+04  0.10566000000E+00 0.  1.
        994   -1    0    0    0    0 -0.00000000000E+00 -0.00000000000E+00  0.11368683772E-12  0.17120000000E+03  0.17120000000E+03 0.  0.
         13    1    1    2    0    0  0.47162286522E+01  0.23016397807E+02  0.48401423560E+02  0.53802475291E+02  0.10566000000E+00 0.  1.
        994    1    1    2    0    0 -0.69828028708E+01  0.71213038403E-01  0.58644314880E+01  0.17144269061E+03  0.17120000000E+03 0.  0.
        998    1    1    2    0    0  0.22665742187E+01 -0.23087610846E+02  0.14457341412E+04  0.14459548341E+04  0.10000000000E+02 0.  1.
</event>
<event>
 5    1  0.1146201E-008  0.3836985E+03  0.7957747E-01  0.3435211E+00
         13   -1    0    0    0    0  0.00000000000E+00  0.00000000000E+00  0.14999999963E+04  0.15000000000E+04  0.10566000000E+00 0. -1.
        994   -1    0    0    0    0 -0.00000000000E+00 -0.00000000000E+00  0.11368683772E-12  0.17120000000E+03  0.17120000000E+03 0.  0.
         13    1    1    2    0    0 -0.41506628913E+01 -0.10597004522E+02  0.27847382574E+02  0.30083423800E+02  0.10566000000E+00 0. -1.
        994    1    1    2    0    0  0.52029698812E+01  0.51287584818E+01  0.24539920178E+01  0.17137338514E+03  0.17120000000E+03 0.  0.
        998    1    1    2    0    0 -0.10523069898E+01  0.54682460401E+01  0.14696986217E+04  0.14697431911E+04  0.10000000000E+02 0. -1.
</event>
<event>
 5    1  0.1146201E-008  0.3853067E+03  0.7957747E-01  0.3428372E+00
         13   -1    0    0    0    0  0.00000000000E+00  0.00000000000E+00  0.14999999963E+04  0.15000000000E+04  0.10566000000E+00 0. -1.
        994   -1    0    0    0    0 -0.00000000000E+00 -0.00000000000E+00  0.11368683772E-12  0.17120000000E+03  0.17120000000E+03 0.  0.
         13    1    1    2    0    0 -0.63444109050E+01  0.10445429516E+02  0.57133510759E+02  0.58426088036E+02  0.10566000000E+00 0. -1.
        994    1    1    2    0    0 -0.42036863209E+01  0.10036419068E+02  0.18670294224E+01  0.17155560756E+03  0.17120000000E+03 0.  0.
        998    1    1    2    0    0  0.10548097226E+02 -0.20481848584E+02  0.14409994561E+04  0.14412183044E+04  0.10000000000E+02 0. -1.
</event>
<event>
 5    1  0.1146201E-008  0.2744627E+03  0.7957747E-01  0.4097083E+00
         13   -1    0    0    0    0  0.00000000000E+00  0.00000000000E+00  0.14999999963E+04  0.15000000000E+04  0.10566000000E+00 0.  1.
        994   -1    0    0    0    0 -0.00000000000E+00 -0.00000000000E+00  0.11368683772E-12  0.17120000000E+03  0.17120000000E+03 0.  0.
         13    1    1    2    0    0  0.12131818658E+03  0.30092915988E+02  0.64144608456E+03  0.65351111433E+03  0.10566000000E+00 0.  1.
        994    1    1    2    0    0 -0.28000516762E+02 -0.22796267027E+02  0.22563250816E+02  0.17641496256E+03  0.17120000000E+03 0.  0.
        998    1    1    2    0    0 -0.93317669818E+02 -0.72966489616E+01  0.83599066090E+03  0.84127392310E+03  0.10000000000E+02 0.  1.
</event>
<event>
 5    1  0.1146201E-008  0.3703811E+03  0.7957747E-01  0.3494141E+00
         13   -1    0    0    0    0  0.00000000000E+00  0.00000000000E+00  0.14999999963E+04  0.15000000000E+04  0.10566000000E+00 0. -1.
        994   -1    0    0    0    0 -0.00000000000E+00 -0.00000000000E+00  0.11368683772E-12  0.17120000000E+03  0.17120000000E+03 0.  0.
         13    1    1    2    0    0 -0.50130766415E+02 -0.98391123634E+01  0.10596122376E+03  0.11763372806E+03  0.10566000000E+00 0. -1.
        994    1    1    2    0    0  0.49982775950E+02  0.90171371845E+01  0.20225909732E+02  0.17971676071E+03  0.17120000000E+03 0.  0.
        998    1    1    2    0    0  0.14799046460E+00  0.82197517890E+00  0.13738128628E+04  0.13738495112E+04  0.10000000000E+02 0. -1.
</event>
<event>
 5    1  0.1146201E-008  0.3762423E+03  0.7957747E-01  0.3467685E+00
         13   -1    0    0    0    0  0.00000000000E+00  0.00000000000E+00  0.14999999963E+04  0.15000000000E+04  0.10566000000E+00 0.  1.
        994   -1    0    0    0    0 -0.00000000000E+00 -0.00000000000E+00  0.11368683772E-12  0.17120000000E+03  0.17120000000E+03 0.  0.
         13    1    1    2    0    0 -0.13278247691E+03  0.75564143812E+01  0.76576387853E+03  0.77722751778E+03  0.10566000000E+00 0.  1.
        994    1    1    2    0    0  0.12878028538E+03  0.17966975259E+02  0.65605341226E+02  0.22476804689E+03  0.17120000000E+03 0.  0.
        998    1    1    2    0    0  0.40021915244E+01 -0.25523389641E+02  0.66863077652E+03  0.66920443533E+03  0.10000000000E+02 0.  1.
</event>
<event>
 5    1  0.1146201E-008  0.3798647E+03  0.7957747E-01  0.3451748E+00
         13   -1    0    0    0    0  0.00000000000E+00  0.00000000000E+00  0.14999999963E+04  0.15000000000E+04  0.10566000000E+00 0.  1.
        994   -1    0    0    0    0 -0.00000000000E+00 -0.00000000000E+00  0.11368683772E-12  0.17120000000E+03  0.17120000000E+03 0.  0.
         13    1    1    2    0    0 -0.78394691448E+01  0.11599611378E+02  0.21382067935E+02  0.25558017408E+02  0.10566000000E+00 0.  1.
        994    1    1    2    0    0  0.77458469999E+01 -0.10751778976E+02  0.47889668264E+01  0.17177884940E+03  0.17120000000E+03 0.  0.
        998    1    1    2    0    0  0.93622144886E-01 -0.84783240226E+00  0.14738289615E+04  0.14738631332E+04  0.10000000000E+02 0.  1.
</event>
<event>
 5    1  0.1146201E-008  0.3762454E+03  0.7957747E-01  0.3467672E+00
         13   -1    0    0    0    0  0.00000000000E+00  0.00000000000E+00  0.14999999963E+04  0.15000000000E+04  0.10566000000E+00 0. -1.
        994   -1    0    0    0    0 -0.00000000000E+00 -0.00000000000E+00  0.11368683772E-12  0.17120000000E+03  0.17120000000E+03 0.  0.
         13    1    1    2    0    0  0.80162849785E+02  0.20511792678E+02  0.22899438144E+03  0.24348563411E+03  0.10566000000E+00 0. -1.
        994    1    1    2    0    0 -0.55609290851E+02 -0.71242996692E+01  0.25601442713E+02  0.18195610114E+03  0.17120000000E+03 0.  0.
        998    1    1    2    0    0 -0.24553558934E+02 -0.13387493009E+02  0.12454041721E+04  0.12457582647E+04  0.10000000000E+02 0. -1.
</event>
<event>
 5    1  0.1146201E-008  0.3728090E+03  0.7957747E-01  0.3483080E+00
         13   -1    0    0    0    0  0.00000000000E+00  0.00000000000E+00  0.14999999963E+04  0.15000000000E+04  0.10566000000E+00 0. -1.
        994   -1    0    0    0    0 -0.00000000000E+00 -0.00000000000E+00  0.11368683772E-12  0.17120000000E+03  0.17120000000E+03 0.  0.
         13    1    1    2    0    0  0.12000334403E+02 -0.51501120063E+01  0.10634275929E+01  0.13102431902E+02  0.10566000000E+00 0. -1.
        994    1    1    2    0    0 -0.13529479740E+02  0.94423769413E+01  0.13393503853E+02  0.17251385814E+03  0.17120000000E+03 0.  0.
        998    1    1    2    0    0  0.15291453366E+01 -0.42922649351E+01  0.14855430648E+04  0.14855837100E+04  0.10000000000E+02 0. -1.
</event>
<event>
 5    1  0.1146201E-008  0.3852282E+03  0.7957747E-01  0.3428705E+00
         13   -1    0    0    0    0  0.00000000000E+00  0.00000000000E+00  0.14999999963E+04  0.15000000000E+04  0.10566000000E+00 0.  1.
        994   -1    0    0    0    0 -0.00000000000E+00 -0.00000000000E+00  0.11368683772E-12  0.17120000000E+03  0.17120000000E+03 0.  0.
         13    1    1    2    0    0 -0.14332715918E+02 -0.24489913761E+01  0.72317045880E+02  0.73764426339E+02  0.10566000000E+00 0.  1.
        994    1    1    2    0    0  0.55848341041E+01 -0.51921143588E+01  0.17079964602E+01  0.17137825322E+03  0.17120000000E+03 0.  0.
        998    1    1    2    0    0  0.87478818144E+01  0.76411057349E+01  0.14259749539E+04  0.14260573204E+04  0.10000000000E+02 0.  1.
</event>
<event>
 5    1  0.1146201E-008  0.3851828E+03  0.7957747E-01  0.3428897E+00
         13   -1    0    0    0    0  0.00000000000E+00  0.00000000000E+00  0.14999999963E+04  0.15000000000E+04  0.10566000000E+00 0. -1.
        994   -1    0    0    0    0 -0.00000000000E+00 -0.00000000000E+00  0.11368683772E-12  0.17120000000E+03  0.17120000000E+03 0.  0.
         13    1    1    2    0    0 -0.11298952195E+01  0.16084951376E+02  0.96368170392E+02  0.97707920624E+02  0.10566000000E+00 0. -1.
        994    1    1    2    0    0  0.64458552672E+01  0.59274203200E+01  0.17914735119E+01  0.17143317281E+03  0.17120000000E+03 0.  0.
        998    1    1    2    0    0 -0.53159600477E+01 -0.22012371696E+02  0.14018403524E+04  0.14020589066E+04  0.10000000000E+02 0. -1.
</event>
<event>
 5    1  0.1146201E-008  0.3830912E+03  0.7957747E-01  0.3437808E+00
         13   -1    0    0    0    0  0.00000000000E+00  0.00000000000E+00  0.14999999963E+04  0.15000000000E+04  0.10566000000E+00 0.  1.
        994   -1    0    0    0    0 -0.00000000000E+00 -0.00000000000E+00  0.11368683772E-12  0.17120000000E+03  0.17120000000E+03 0.  0.
         13    1    1    2    0    0  0.93959856973E+01  0.72565879281E+01  0.27420842798E+02  0.29880702792E+02  0.10566000000E+00 0.  1.
        994    1    1    2    0    0  0.11075022984E+02 -0.10441231039E+02  0.33478330957E+01  0.17190789227E+03  0.17120000000E+03 0.  0.
        998    1    1    2    0    0 -0.20471008681E+02  0.31846431109E+01  0.14692313204E+04  0.14694114049E+04  0.10000000000E+02 0.  1.
</event>
<event>
 5    1  0.1146201E-008  0.3849666E+03  0.7957747E-01  0.3429814E+00
         13   -1    0    0    0    0  0.00000000000E+00  0.00000000000E+00  0.14999999963E+04  0.15000000000E+04  0.10566000000E+00 0.  1.
        994   -1    0    0    0    0 -0.00000000000E+00 -0.00000000000E+00  0.11368683772E-12  0.17120000000E+03  0.17120000000E+03 0.  0.
         13    1    1    2    0    0 -0.85305921819E+01 -0.17477139550E+02  0.11178711276E+03  0.11346625557E+03  0.10566000000E+00 0.  1.
        994    1    1    2    0    0  0.74449741526E+01  0.13700796386E+02  0.24468397453E+01  0.17192604947E+03  0.17120000000E+03 0.  0.
        998    1    1    2    0    0  0.10856180292E+01  0.37763431636E+01  0.13857660438E+04  0.13858076950E+04  0.10000000000E+02 0.  1.
</event>
<event>
 5    1  0.1146201E-008  0.3826574E+03  0.7957747E-01  0.3439668E+00
         13   -1    0    0    0    0  0.00000000000E+00  0.00000000000E+00  0.14999999963E+04  0.15000000000E+04  0.10566000000E+00 0.  1.
        994   -1    0    0    0    0 -0.00000000000E+00 -0.00000000000E+00  0.11368683772E-12  0.17120000000E+03  0.17120000000E+03 0.  0.
         13    1    1    2    0    0 -0.12499193995E+02 -0.10216815989E+02  0.45176145983E+02  0.47974039952E+02  0.10566000000E+00 0.  1.
        994    1    1    2    0    0 -0.40740549305E+00  0.21752872539E+02  0.43678399815E+01  0.17263218550E+03  0.17120000000E+03 0.  0.
        998    1    1    2    0    0  0.12906599488E+02 -0.11536056550E+02  0.14504560103E+04  0.14505937746E+04  0.10000000000E+02 0.  1.
</event>
<event>
 5    1  0.1146201E-008  0.3769397E+03  0.7957747E-01  0.3464593E+00
         13   -1    0    0    0    0  0.00000000000E+00  0.00000000000E+00  0.14999999963E+04  0.15000000000E+04  0.10566000000E+00 0.  1.
        994   -1    0    0    0    0 -0.00000000000E+00 -0.00000000000E+00  0.11368683772E-12  0.17120000000E+03  0.17120000000E+03 0.  0.
         13    1    1    2    0    0  0.61450201643E+02  0.34621574427E+02  0.15646647988E+03  0.17162910938E+03  0.10566000000E+00 0.  1.
        994    1    1    2    0    0 -0.58880107315E+02 -0.13147110787E+02  0.27816332178E+02  0.18363796420E+03  0.17120000000E+03 0.  0.
        998    1    1    2    0    0 -0.25700943284E+01 -0.21474463640E+02  0.13157171842E+04  0.13159329264E+04  0.10000000000E+02 0.  1.
</event>
<event>
 5    1  0.1146201E-008  0.3779507E+03  0.7957747E-01  0.3460130E+00
         13   -1    0    0    0    0  0.00000000000E+00  0.00000000000E+00  0.14999999963E+04  0.15000000000E+04  0.10566000000E+00 0.  1.
        994   -1    0    0    0    0 -0.00000000000E+00 -0.00000000000E+00  0.11368683772E-12  0.17120000000E+03  0.17120000000E+03 0.  0.
         13    1    1    2    0    0  0.17429742040E+01 -0.11678390833E+02  0.11194130077E+02  0.16270909125E+02  0.10566000000E+00 0.  1.
        994    1    1    2    0    0 -0.32366397631E+01  0.76241986404E+01  0.54021289293E+01  0.17148535576E+03  0.17120000000E+03 0.  0.
        998    1    1    2    0    0  0.14936655590E+01  0.40541921925E+01  0.14834037373E+04  0.14834437351E+04  0.10000000000E+02 0.  1.
</event>
<event>
 5    1  0.1146201E-008  0.3696762E+03  0.7957747E-01  0.3497380E+00
         13   -1    0    0    0    0  0.00000000000E+00  0.00000000000E+00  0.14999999963E+04  0.15000000000E+04  0.10566000000E+00 0. -1.
        994   -1    0    0    0    0 -0.00000000000E+00 -0.00000000000E+00  0.11368683772E-12  0.17120000000E+03  0.17120000000E+03 0.  0.
         13    1    1    2    0    0 -0.11369094820E+03 -0.30452150348E+00  0.47148483584E+03  0.48499864539E+03  0.10566000000E+00 0. -1.
        994    1    1    2    0    0  0.10970988018E+03  0.15681747906E+01  0.52346010430E+02  0.20997205002E+03  0.17120000000E+03 0.  0.
        998    1    1    2    0    0  0.39810680168E+01 -0.12636532871E+01  0.97616915001E+03  0.97622930459E+03  0.10000000000E+02 0. -1.
</event>
<event>
 5    1  0.1146201E-008  0.3686445E+03  0.7957747E-01  0.3502144E+00
         13   -1    0    0    0    0  0.00000000000E+00  0.00000000000E+00  0.14999999963E+04  0.15000000000E+04  0.10566000000E+00 0. -1.
        994   -1    0    0    0    0 -0.00000000000E+00 -0.00000000000E+00  0.11368683772E-12  0.17120000000E+03  0.17120000000E+03 0.  0.
         13    1    1    2    0    0 -0.11347353196E+02 -0.18075637275E+02  0.17818746211E+02  0.27803056811E+02  0.10566000000E+00 0. -1.
        994    1    1    2    0    0  0.47992310275E+01  0.17242572681E+02  0.11339218684E+02  0.17250610659E+03  0.17120000000E+03 0.  0.
        998    1    1    2    0    0  0.65481221686E+01  0.83306459396E+00  0.14708420314E+04  0.14708908366E+04  0.10000000000E+02 0. -1.
</event>
<event>
 5    1  0.1146201E-008  0.3692535E+03  0.7957747E-01  0.3499329E+00
         13   -1    0    0    0    0  0.00000000000E+00  0.00000000000E+00  0.14999999963E+04  0.15000000000E+04  0.10566000000E+00 0.  1.
        994   -1    0    0    0    0 -0.00000000000E+00 -0.00000000000E+00  0.11368683772E-12  0.17120000000E+03  0.17120000000E+03 0.  0.
         13    1    1    2    0    0 -0.89846591211E+02  0.10058121917E+03  0.49300682033E+03  0.51112104991E+03  0.10566000000E+00 0.  1.
        994    1    1    2    0    0  0.42832843537E+02 -0.17030349010E+03  0.12730151293E+03  0.27632055012E+03  0.17120000000E+03 0.  0.
        998    1    1    2    0    0  0.47013747673E+02  0.69722270923E+02  0.87969166302E+03  0.88375839997E+03  0.10000000000E+02 0.  1.
</event>
<event>
 5    1  0.1146201E-008  0.3839021E+03  0.7957747E-01  0.3434342E+00
         13   -1    0    0    0    0  0.00000000000E+00  0.00000000000E+00  0.14999999963E+04  0.15000000000E+04  0.10566000000E+00 0. -1.
        994   -1    0    0    0    0 -0.00000000000E+00 -0.00000000000E+00  0.11368683772E-12  0.17120000000E+03  0.17120000000E+03 0.  0.
         13    1    1    2    0    0 -0.11188176591E+02 -0.40153500089E+01  0.31781352758E+02  0.33931753245E+02  0.10566000000E+00 0. -1.
        994    1    1    2    0    0 -0.16225330706E+01  0.31264220507E+02  0.54175859665E+01  0.17412315853E+03  0.17120000000E+03 0.  0.
        998    1    1    2    0    0  0.12810709662E+02 -0.27248870498E+02  0.14628010576E+04  0.14631450882E+04  0.10000000000E+02 0. -1.
</event>
<event>
 5    1  0.1146201E-008  0.3823829E+03  0.7957747E-01  0.3440848E+00
         13   -1    0    0    0    0  0.00000000000E+00  0.00000000000E+00  0.14999999963E+04  0.15000000000E+04  0.10566000000E+00 0. -1.
        994   -1    0    0    0    0 -0.00000000000E+00 -0.00000000000E+00  0.11368683772E-12  0.17120000000E+03  0.17120000000E+03 0.  0.
         13    1    1    2    0    0 -0.67082458323E+01  0.10332349185E+02  0.23594911371E+02  0.26617456837E+02  0.10566000000E+00 0. -1.
        994    1    1    2    0    0  0.12233677986E+02 -0.20249791887E+02  0.47937330554E+01  0.17289342621E+03  0.17120000000E+03 0.  0.
        998    1    1    2    0    0 -0.55254321537E+01  0.99174427027E+01  0.14716113519E+04  0.14716891170E+04  0.10000000000E+02 0. -1.
</event>
<event>
 5    1  0.1146201E-008  0.3844349E+03  0.7957747E-01  0.3432072E+00
         13   -1    0    0    0    0  0.00000000000E+00  0.00000000000E+00  0.14999999963E+04  0.15000000000E+04  0.10566000000E+00 0. -1.
        994   -1    0    0    0    0 -0.00000000000E+00 -0.00000000000E+00  0.11368683772E-12  0.17120000000E+03  0.17120000000E+03 0.  0.
         13    1    1    2    0    0  0.12444368133E+02 -0.54878341625E+01  0.48070464877E+02  0.49957575797E+02  0.10566000000E+00 0. -1.
        994    1    1    2    0    0 -0.75861230584E+01  0.54468718225E+01  0.21983649010E+01  0.17146862828E+03  0.17120000000E+03 0.  0.
        998    1    1    2    0    0 -0.48582450744E+01  0.40962340052E-01  0.14497311665E+04  0.14497737959E+04  0.10000000000E+02 0. -1.
</event>
<event>
 5    1  0.1164555E-008  0.3859355E+03  0.7957747E-01  0.3425714E+00
         13   -1    0    0    0    0  0.00000000000E+00  0.00000000000E+00  0.14999999963E+04  0.15000000000E+04  0.10566000000E+00 0.  1.
        994   -1    0    0    0    0 -0.00000000000E+00 -0.00000000000E+00  0.11368683772E-12  0.17120000000E+03  0.17120000000E+03 0.  0.
         13    1    1    2    0    0 -0.12074409931E+02  0.74652078545E+01  0.85537671873E+02  0.86707699640E+02  0.10566000000E+00 0.  1.
        994    1    1    2    0    0  0.11452383171E+02 -0.36015151127E+01  0.16390788602E+01  0.17162824526E+03  0.17120000000E+03 0.  0.
        998    1    1    2    0    0  0.62202675962E+00 -0.38636927418E+01  0.14128232455E+04  0.14128640551E+04  0.10000000000E+02 0.  1.
</event>
<event>
 5    1  0.1146201E-008  0.3834255E+03  0.7957747E-01  0.3436377E+00
         13   -1    0    0    0    0  0.00000000000E+00  0.00000000000E+00  0.14999999963E+04  0.15000000000E+04  0.10566000000E+00 0. -1.
        994   -1    0    0    0    0 -0.00000000000E+00 -0.00000000000E+00  0.11368683772E-12  0.17120000000E+03  0.17120000000E+03 0.  0.
         13    1    1    2    0    0  0.12626435641E+02 -0.13596392828E+02  0.69072390494E+02  0.71521291009E+02  0.10566000000E+00 0. -1.
        994    1    1    2    0    0 -0.17890853274E+02  0.56080737568E+01  0.35767376395E+01  0.17226075053E+03  0.17120000000E+03 0.  0.
        998    1    1    2    0    0  0.52644176336E+01  0.79883190711E+01  0.14273508681E+04  0.14274179585E+04  0.10000000000E+02 0. -1.
</event>
<event>
 5    1  0.1146201E-008  0.3816535E+03  0.7957747E-01  0.3443990E+00
         13   -1    0    0    0    0  0.00000000000E+00  0.00000000000E+00  0.14999999963E+04  0.15000000000E+04  0.10566000000E+00 0. -1.
        994   -1    0    0    0    0 -0.00000000000E+00 -0.00000000000E+00  0.11368683772E-12  0.17120000000E+03  0.17120000000E+03 0.  0.
         13    1    1    2    0    0 -0.16181031476E+02  0.19925423336E+02  0.97544789193E+02  0.10086548140E+03  0.10566000000E+00 0. -1.
        994    1    1    2    0    0  0.14371303974E+02 -0.11396479025E+02  0.44200788310E+01  0.17223643984E+03  0.17120000000E+03 0.  0.
        998    1    1    2    0    0  0.18097275015E+01 -0.85289443110E+01  0.13980351283E+04  0.13980980788E+04  0.10000000000E+02 0. -1.
</event>
<event>
 5    1  0.1146201E-008  0.3704786E+03  0.7957747E-01  0.3493694E+00
         13   -1    0    0    0    0  0.00000000000E+00  0.00000000000E+00  0.14999999963E+04  0.15000000000E+04  0.10566000000E+00 0. -1.
        994   -1    0    0    0    0 -0.00000000000E+00 -0.00000000000E+00  0.11368683772E-12  0.17120000000E+03  0.17120000000E+03 0.  0.
         13    1    1    2    0    0 -0.32328066386E+01 -0.53629101843E+02  0.19873639244E+03  0.20587058179E+03  0.10566000000E+00 0. -1.
        994    1    1    2    0    0  0.34386110438E+02 -0.58895161071E+02  0.27662211561E+02  0.18634828289E+03  0.17120000000E+03 0.  0.
        998    1    1    2    0    0 -0.31153303799E+02  0.11252426291E+03  0.12736013923E+04  0.12789811353E+04  0.10000000000E+02 0. -1.
</event>
<event>
 5    1  0.1146201E-008  0.3685922E+03  0.7957747E-01  0.3502386E+00
         13   -1    0    0    0    0  0.00000000000E+00  0.00000000000E+00  0.14999999963E+04  0.15000000000E+04  0.10566000000E+00 0. -1.
        994   -1    0    0    0    0 -0.00000000000E+00 -0.00000000000E+00  0.11368683772E-12  0.17120000000E+03  0.17120000000E+03 0.  0.
         13    1    1    2    0    0  0.33947240353E+02 -0.75121208514E+02  0.27916033408E+03  0.29107750580E+03  0.10566000000E+00 0. -1.
        994    1    1    2    0    0 -0.67355572650E+01  0.84353975955E+02  0.35318175664E+02  0.19421064472E+03  0.17120000000E+03 0.  0.
        998    1    1    2    0    0 -0.27211683088E+02 -0.92327674414E+01  0.11855214865E+04  0.11859118495E+04  0.10000000000E+02 0. -1.
</event>
<event>
 5    1  0.1146201E-008  0.3801333E+03  0.7957747E-01  0.3450578E+00
         13   -1    0    0    0    0  0.00000000000E+00  0.00000000000E+00  0.14999999963E+04  0.15000000000E+04  0.10566000000E+00 0.  1.
        994   -1    0    0    0    0 -0.00000000000E+00 -0.00000000000E+00  0.11368683772E-12  0.17120000000E+03  0.17120000000E+03 0.  0.
         13    1    1    2    0    0  0.40942081934E+02 -0.79751706471E-01  0.23561264674E+03  0.23914345256E+03  0.10566000000E+00 0.  1.
        994    1    1    2    0    0 -0.67848199870E+01 -0.47170652227E+00  0.42204354378E+01  0.17138701341E+03  0.17120000000E+03 0.  0.
        998    1    1    2    0    0 -0.34157261947E+02  0.55145822874E+00  0.12601669141E+04  0.12606695340E+04  0.10000000000E+02 0.  1.
</event>
<event>
 5    1  0.1146201E-008  0.3806973E+03  0.7957747E-01  0.3448128E+00
         13   -1    0    0    0    0  0.00000000000E+00  0.00000000000E+00  0.14999999963E+04  0.15000000000E+04  0.10566000000E+00 0.  1.
        994   -1    0    0    0    0 -0.00000000000E+00 -0.00000000000E+00  0.11368683772E-12  0.17120000000E+03  0.17120000000E+03 0.  0.
         13    1    1    2    0    0 -0.17624013205E+00  0.36934072660E+02  0.35031874302E+02  0.50905796968E+02  0.10566000000E+00 0.  1.
        994    1    1    2    0    0 -0.44851490275E+01 -0.18538701217E+02  0.18033506409E+02  0.17320059861E+03  0.17120000000E+03 0.  0.
        998    1    1    2    0    0  0.46613891595E+01 -0.18395371442E+02  0.14469346156E+04  0.14470936044E+04  0.10000000000E+02 0.  1.
</event>
<event>
 5    1  0.1146201E-008  0.3763722E+03  0.7957747E-01  0.3467109E+00
         13   -1    0    0    0    0  0.00000000000E+00  0.00000000000E+00  0.14999999963E+04  0.15000000000E+04  0.10566000000E+00 0.  1.
        994   -1    0    0    0    0 -0.00000000000E+00 -0.00000000000E+00  0.11368683772E-12  0.17120000000E+03  0.17120000000E+03 0.  0.
         13    1    1    2    0    0 -0.19257921500E+02 -0.73780750997E+01  0.31902962597E+02  0.37988336620E+02  0.10566000000E+00 0.  1.
        994    1    1    2    0    0  0.25067591217E+02  0.11770058012E+02  0.85750337258E+01  0.17363723563E+03  0.17120000000E+03 0.  0.
        998    1    1    2    0    0 -0.58096697175E+01 -0.43919829125E+01  0.14595220000E+04  0.14595744277E+04  0.10000000000E+02 0.  1.
</event>
<event>
 5    1  0.1146201E-008  0.3779671E+03  0.7957747E-01  0.3460058E+00
         13   -1    0    0    0    0  0.00000000000E+00  0.00000000000E+00  0.14999999963E+04  0.15000000000E+04  0.10566000000E+00 0.  1.
        994   -1    0    0    0    0 -0.00000000000E+00 -0.00000000000E+00  0.11368683772E-12  0.17120000000E+03  0.17120000000E+03 0.  0.
         13    1    1    2    0    0 -0.36104099242E+02  0.12466914399E+01  0.11506477593E+03  0.12060254576E+03  0.10566000000E+00 0.  1.
        994    1    1    2    0    0  0.37382170190E+02 -0.92952257787E+01  0.10173026317E+02  0.17577473748E+03  0.17120000000E+03 0.  0.
        998    1    1    2    0    0 -0.12780709475E+01  0.80485343389E+01  0.13747621940E+04  0.13748227168E+04  0.10000000000E+02 0. -1.
</event>
<event>
 5    1  0.1146201E-008  0.3811341E+03  0.7957747E-01  0.3446235E+00
         13   -1    0    0    0    0  0.00000000000E+00  0.00000000000E+00  0.14999999963E+04  0.15000000000E+04  0.10566000000E+00 0. -1.
        994   -1    0    0    0    0 -0.00000000000E+00 -0.00000000000E+00  0.11368683772E-12  0.17120000000E+03  0.17120000000E+03 0.  0.
         13    1    1    2    0    0  0.17149491572E+02  0.55379648377E+01  0.44827955576E+02  0.48314913649E+02  0.10566000000E+00 0. -1.
        994    1    1    2    0    0 -0.94719654411E+01  0.79384676835E+00  0.38626921077E+01  0.17150716811E+03  0.17120000000E+03 0.  0.
        998    1    1    2    0    0 -0.76775261312E+01 -0.63318116060E+01  0.14513093486E+04  0.14513779182E+04  0.10000000000E+02 0. -1.
</event>
<event>
 5    1  0.1146201E-008  0.3835303E+03  0.7957747E-01  0.3435929E+00
         13   -1    0    0    0    0  0.00000000000E+00  0.00000000000E+00  0.14999999963E+04  0.15000000000E+04  0.10566000000E+00 0.  1.
        994   -1    0    0    0    0 -0.00000000000E+00 -0.00000000000E+00  0.11368683772E-12  0.17120000000E+03  0.17120000000E+03 0.  0.
         13    1    1    2    0    0  0.19429678094E+01  0.15273586747E+02  0.48815110955E+02  0.51185777298E+02  0.10566000000E+00 0.  1.
        994    1    1    2    0    0 -0.12792806384E+01 -0.13391463144E+02  0.29597810237E+01  0.17175321874E+03  0.17120000000E+03 0.  0.
        998    1    1    2    0    0 -0.66368717099E+00 -0.18821236033E+01  0.14482251043E+04  0.14482610040E+04  0.10000000000E+02 0.  1.
</event>
<event>
 5    1  0.1146201E-008  0.3819175E+03  0.7957747E-01  0.3442851E+00
         13   -1    0    0    0    0  0.00000000000E+00  0.00000000000E+00  0.14999999963E+04  0.15000000000E+04  0.10566000000E+00 0. -1.
        994   -1    0    0    0    0 -0.00000000000E+00 -0.00000000000E+00  0.11368683772E-12  0.17120000000E+03  0.17120000000E+03 0.  0.
         13    1    1    2    0    0  0.15003108199E+02 -0.20037222799E+00  0.33927104426E+02  0.37097075133E+02  0.10566000000E+00 0. -1.
        994    1    1    2    0    0 -0.13905897251E+02 -0.16958229029E+01  0.38204862659E+01  0.17181468479E+03  0.17120000000E+03 0.  0.
        998    1    1    2    0    0 -0.10972109477E+01  0.18961951309E+01  0.14622524056E+04  0.14622882401E+04  0.10000000000E+02 0. -1.
</event>
<event>
 5    1  0.1146201E-008  0.3814677E+03  0.7957747E-01  0.3444792E+00
         13   -1    0    0    0    0  0.00000000000E+00  0.00000000000E+00  0.14999999963E+04  0.15000000000E+04  0.10566000000E+00 0. -1.
        994   -1    0    0    0    0 -0.00000000000E+00 -0.00000000000E+00  0.11368683772E-12  0.17120000000E+03  0.17120000000E+03 0.  0.
         13    1    1    2    0    0  0.15400769612E+02  0.10749185742E+02  0.55427404812E+02  0.58522961878E+02  0.10566000000E+00 0. -1.
        994    1    1    2    0    0  0.36045422673E+01  0.92054731542E+01  0.37192722745E+01  0.17152552710E+03  0.17120000000E+03 0.  0.
        998    1    1    2    0    0 -0.19005311879E+02 -0.19954658897E+02  0.14408533192E+04  0.14411515110E+04  0.10000000000E+02 0. -1.
</event>
<event>
 5    1  0.1146201E-008  0.3830053E+03  0.7957747E-01  0.3438176E+00
         13   -1    0    0    0    0  0.00000000000E+00  0.00000000000E+00  0.14999999963E+04  0.15000000000E+04  0.10566000000E+00 0.  1.
        994   -1    0    0    0    0 -0.00000000000E+00 -0.00000000000E+00  0.11368683772E-12  0.17120000000E+03  0.17120000000E+03 0.  0.
         13    1    1    2    0    0 -0.60963787010E+01  0.97571024125E+01  0.24273188842E+02  0.26861975752E+02  0.10566000000E+00 0.  1.
        994    1    1    2    0    0 -0.35312208676E+01 -0.11879765202E+02  0.31323219308E+01  0.17167658484E+03  0.17120000000E+03 0.  0.
        998    1    1    2    0    0  0.96275995686E+01  0.21226627891E+01  0.14725944855E+04  0.14726614394E+04  0.10000000000E+02 0.  1.
</event>
<event>
 5    1  0.1146201E-008  0.3774236E+03  0.7957747E-01  0.3462454E+00
         13   -1    0    0    0    0  0.00000000000E+00  0.00000000000E+00  0.14999999963E+04  0.15000000000E+04  0.10566000000E+00 0. -1.
        994   -1    0    0    0    0 -0.00000000000E+00 -0.00000000000E+00  0.11368683772E-12  0.17120000000E+03  0.17120000000E+03 0.  0.
         13    1    1    2    0    0  0.14938268466E+02 -0.96691122251E+01  0.27206080068E+02  0.32508853450E+02  0.10566000000E+00 0. -1.
        994    1    1    2    0    0 -0.13930624902E+02 -0.77746501321E+01  0.62979510120E+01  0.17205700126E+03  0.17120000000E+03 0.  0.
        998    1    1    2    0    0 -0.10076435639E+01  0.17443762357E+02  0.14664959652E+04  0.14666341453E+04  0.10000000000E+02 0. -1.
</event>
<event>
 5    1  0.1146201E-008  0.3767990E+03  0.7957747E-01  0.3465216E+00
         13   -1    0    0    0    0  0.00000000000E+00  0.00000000000E+00  0.14999999963E+04  0.15000000000E+04  0.10566000000E+00 0.  1.
        994   -1    0    0    0    0 -0.00000000000E+00 -0.00000000000E+00  0.11368683772E-12  0.17120000000E+03  0.17120000000E+03 0.  0.
         13    1    1    2    0    0 -0.21946580676E+02  0.14545477720E+01  0.40766428936E+02  0.46321496141E+02  0.10566000000E+00 0.  1.
        994    1    1    2    0    0  0.63737476609E+01  0.14381499285E+01  0.59020475772E+01  0.17142627307E+03  0.17120000000E+03 0.  0.
        998    1    1    2    0    0  0.15572833015E+02 -0.28926977006E+01  0.14533315198E+04  0.14534522308E+04  0.10000000000E+02 0.  1.
</event>
<event>
 5    1  0.1146201E-008  0.3721981E+03  0.7957747E-01  0.3485849E+00
         13   -1    0    0    0    0  0.00000000000E+00  0.00000000000E+00  0.14999999963E+04  0.15000000000E+04  0.10566000000E+00 0.  1.
        994   -1    0    0    0    0 -0.00000000000E+00 -0.00000000000E+00  0.11368683772E-12  0.17120000000E+03  0.17120000000E+03 0.  0.
         13    1    1    2    0    0  0.18308115126E+02 -0.73550934392E+02  0.33811854374E+03  0.34650986684E+03  0.10566000000E+00 0.  1.
        994    1    1    2    0    0 -0.36272533390E+02  0.41811419427E+02  0.18713061444E+02  0.18089640721E+03  0.17120000000E+03 0.  0.
        998    1    1    2    0    0  0.17964418264E+02  0.31739514965E+02  0.11431683911E+04  0.11437937260E+04  0.10000000000E+02 0.  1.
</event>
<event>
 5    1  0.1146201E-008  0.3824842E+03  0.7957747E-01  0.3440413E+00
         13   -1    0    0    0    0  0.00000000000E+00  0.00000000000E+00  0.14999999963E+04  0.15000000000E+04  0.10566000000E+00 0. -1.
        994   -1    0    0    0    0 -0.00000000000E+00 -0.00000000000E+00  0.11368683772E-12  0.17120000000E+03  0.17120000000E+03 0.  0.
         13    1    1    2    0    0 -0.24956926893E+02  0.40195956303E+01  0.10847985451E+03  0.11138624398E+03  0.10566000000E+00 0. -1.
        994    1    1    2    0    0  0.18070446041E+02  0.19566038744E+01  0.39805489747E+01  0.17220817080E+03  0.17120000000E+03 0.  0.
        998    1    1    2    0    0  0.68864808521E+01 -0.59761995047E+01  0.13875395928E+04  0.13876055852E+04  0.10000000000E+02 0. -1.
</event>
<event>
 5    1  0.1146201E-008  0.3768736E+03  0.7957747E-01  0.3464886E+00
         13   -1    0    0    0    0  0.00000000000E+00  0.00000000000E+00  0.14999999963E+04  0.15000000000E+04  0.10566000000E+00 0.  1.
        994   -1    0    0    0    0 -0.00000000000E+00 -0.00000000000E+00  0.11368683772E-12  0.17120000000E+03  0.17120000000E+03 0.  0.
         13    1    1    2    0    0  0.85715778583E+01 -0.11816978559E+02  0.16001811796E+02  0.21660611118E+02  0.10566000000E+00 0.  1.
        994    1    1    2    0    0 -0.93041106634E+01  0.10629067059E+02  0.63940412620E+01  0.17190074841E+03  0.17120000000E+03 0.  0.
        998    1    1    2    0    0  0.73253280506E+00  0.11879114997E+01  0.14776041432E+04  0.14776386405E+04  0.10000000000E+02 0.  1.
</event>
<event>
 5    1  0.1146201E-008  0.3732103E+03  0.7957747E-01  0.3481266E+00
         13   -1    0    0    0    0  0.00000000000E+00  0.00000000000E+00  0.14999999963E+04  0.15000000000E+04  0.10566000000E+00 0.  1.
        994   -1    0    0    0    0 -0.00000000000E+00 -0.00000000000E+00  0.11368683772E-12  0.17120000000E+03  0.17120000000E+03 0.  0.
         13    1    1    2    0    0  0.10676354124E+03 -0.40124599880E+02  0.47868014451E+03  0.49208040925E+03  0.10566000000E+00 0.  1.
        994    1    1    2    0    0 -0.11631562602E+03  0.60868014770E+02  0.69045895515E+02  0.22651934965E+03  0.17120000000E+03 0.  0.
        998    1    1    2    0    0  0.95520847840E+01 -0.20743414891E+02  0.95227395625E+03  0.95260024110E+03  0.10000000000E+02 0.  1.
</event>
<event>
 5    1  0.1146201E-008  0.3831062E+03  0.7957747E-01  0.3437744E+00
         13   -1    0    0    0    0  0.00000000000E+00  0.00000000000E+00  0.14999999963E+04  0.15000000000E+04  0.10566000000E+00 0.  1.
        994   -1    0    0    0    0 -0.00000000000E+00 -0.00000000000E+00  0.11368683772E-12  0.17120000000E+03  0.17120000000E+03 0.  0.
         13    1    1    2    0    0  0.21960607732E+02 -0.63094269975E+01  0.10691860127E+03  0.10933286616E+03  0.10566000000E+00 0.  1.
        994    1    1    2    0    0 -0.78580824169E+01 -0.82474607307E+01  0.30028313107E+01  0.17160485734E+03  0.17120000000E+03 0.  0.
        998    1    1    2    0    0 -0.14102525315E+02  0.14556887728E+02  0.13900785637E+04  0.13902622765E+04  0.10000000000E+02 0.  1.
</event>
<event>
 5    1  0.1146201E-008  0.3811827E+03  0.7957747E-01  0.3446025E+00
         13   -1    0    0    0    0  0.00000000000E+00  0.00000000000E+00  0.14999999963E+04  0.15000000000E+04  0.10566000000E+00 0. -1.
        994   -1    0    0    0    0 -0.00000000000E+00 -0.00000000000E+00  0.11368683772E-12  0.17120000000E+03  0.17120000000E+03 0.  0.
         13    1    1    2    0    0 -0.19672279279E+02 -0.89958559436E+01  0.63872531737E+02  0.67436158481E+02  0.10566000000E+00 0. -1.
        994    1    1    2    0    0  0.14343062233E+02  0.10601737651E+02  0.45973367599E+01  0.17218796642E+03  0.17120000000E+03 0.  0.
        998    1    1    2    0    0  0.53292170458E+01 -0.16058817074E+01  0.14315301278E+04  0.14315758751E+04  0.10000000000E+02 0. -1.
</event>
<event>
 5    1  0.1146201E-008  0.3827551E+03  0.7957747E-01  0.3439249E+00
         13   -1    0    0    0    0  0.00000000000E+00  0.00000000000E+00  0.14999999963E+04  0.15000000000E+04  0.10566000000E+00 0. -1.
        994   -1    0    0    0    0 -0.00000000000E+00 -0.00000000000E+00  0.11368683772E-12  0.17120000000E+03  0.17120000000E+03 0.  0.
         13    1    1    2    0    0 -0.23686455597E+02  0.78274086804E+01  0.12238580025E+03  0.12490240899E+03  0.10566000000E+00 0. -1.
        994    1    1    2    0    0 -0.20813353569E+01 -0.16769377234E+02  0.36953095914E+01  0.17207161091E+03  0.17120000000E+03 0.  0.
        998    1    1    2    0    0  0.25767790954E+02  0.89419685532E+01  0.13739188864E+04  0.13742259801E+04  0.10000000000E+02 0. -1.
</event>
<event>
 5    1  0.1146201E-008  0.3763145E+03  0.7957747E-01  0.3467365E+00
         13   -1    0    0    0    0  0.00000000000E+00  0.00000000000E+00  0.14999999963E+04  0.15000000000E+04  0.10566000000E+00 0.  1.
        994   -1    0    0    0    0 -0.00000000000E+00 -0.00000000000E+00  0.11368683772E-12  0.17120000000E+03  0.17120000000E+03 0.  0.
         13    1    1    2    0    0  0.54352987498E+01  0.44269555055E+02  0.19128515986E+03  0.19641629139E+03  0.10566000000E+00 0.  1.
        994    1    1    2    0    0 -0.31620286781E+01 -0.59013405026E+00  0.60402830841E+01  0.17133672024E+03  0.17120000000E+03 0.  0.
        998    1    1    2    0    0 -0.22732700716E+01 -0.43679421005E+02  0.13026745533E+04  0.13034469884E+04  0.10000000000E+02 0.  1.
</event>
<event>
 5    1  0.1146201E-008  0.3839563E+03  0.7957747E-01  0.3434111E+00
         13   -1    0    0    0    0  0.00000000000E+00  0.00000000000E+00  0.14999999963E+04  0.15000000000E+04  0.10566000000E+00 0. -1.
        994   -1    0    0    0    0 -0.00000000000E+00 -0.00000000000E+00  0.11368683772E-12  0.17120000000E+03  0.17120000000E+03 0.  0.
         13    1    1    2    0    0  0.13505641803E+02  0.23055946341E+01  0.44193666305E+02  0.46268881904E+02  0.10566000000E+00 0. -1.
        994    1    1    2    0    0 -0.25126617084E+01 -0.99229255994E+01  0.24950364615E+01  0.17152388501E+03  0.17120000000E+03 0.  0.
        998    1    1    2    0    0 -0.10992980095E+02  0.76173309653E+01  0.14533112935E+04  0.14534072331E+04  0.10000000000E+02 0. -1.
</event>
<event>
 5    1  0.1146201E-008  0.3778398E+03  0.7957747E-01  0.3460619E+00
         13   -1    0    0    0    0  0.00000000000E+00  0.00000000000E+00  0.14999999963E+04  0.15000000000E+04  0.10566000000E+00 0.  1.
        994   -1    0    0    0    0 -0.00000000000E+00 -0.00000000000E+00  0.11368683772E-12  0.17120000000E+03  0.17120000000E+03 0.  0.
         13    1    1    2    0    0  0.78208959999E+02 -0.20831426691E+02  0.44131359798E+03  0.44867392691E+03  0.10566000000E+00 0.  1.
        994    1    1    2    0    0 -0.78202941140E+02  0.18735176614E+02  0.27319554319E+02  0.19110862067E+03  0.17120000000E+03 0.  0.
        998    1    1    2    0    0 -0.60188593635E-02  0.20962500776E+01  0.10313668440E+04  0.10314174524E+04  0.10000000000E+02 0.  0.
</event>
<event>
 5    1  0.1146201E-008  0.3849121E+03  0.7957747E-01  0.3430045E+00
         13   -1    0    0    0    0  0.00000000000E+00  0.00000000000E+00  0.14999999963E+04  0.15000000000E+04  0.10566000000E+00 0. -1.
        994   -1    0    0    0    0 -0.00000000000E+00 -0.00000000000E+00  0.11368683772E-12  0.17120000000E+03  0.17120000000E+03 0.  0.
         13    1    1    2    0    0  0.12665416625E+02 -0.11553434579E+01  0.46613713016E+02  0.48317667596E+02  0.10566000000E+00 0. -1.
        994    1    1    2    0    0 -0.14856652230E+02  0.62020544109E+00  0.24014788213E+01  0.17186131581E+03  0.17120000000E+03 0.  0.
        998    1    1    2    0    0  0.21912356047E+01  0.53513801683E+00  0.14509848044E+04  0.14510210166E+04  0.10000000000E+02 0. -1.
</event>
<event>
 5    1  0.1146201E-008  0.3857105E+03  0.7957747E-01  0.3426664E+00
         13   -1    0    0    0    0  0.00000000000E+00  0.00000000000E+00  0.14999999963E+04  0.15000000000E+04  0.10566000000E+00 0.  1.
        994   -1    0    0    0    0 -0.00000000000E+00 -0.00000000000E+00  0.11368683772E-12  0.17120000000E+03  0.17120000000E+03 0.  0.
         13    1    1    2    0    0  0.10539685583E+02 -0.40797882633E+01  0.50361155155E+02  0.51613823314E+02  0.10566000000E+00 0.  1.
        994    1    1    2    0    0 -0.63224379704E+01  0.45482251632E+01  0.14768383499E+01  0.17138343160E+03  0.17120000000E+03 0.  0.
        998    1    1    2    0    0 -0.42172476126E+01 -0.46843689998E+00  0.14481620028E+04  0.14482027451E+04  0.10000000000E+02 0.  1.
</event>
<event>
 5    1  0.1146201E-008  0.3848704E+03  0.7957747E-01  0.3430222E+00
         13   -1    0    0    0    0  0.00000000000E+00  0.00000000000E+00  0.14999999963E+04  0.15000000000E+04  0.10566000000E+00 0.  1.
        994   -1    0    0    0    0 -0.00000000000E+00 -0.00000000000E+00  0.11368683772E-12  0.17120000000E+03  0.17120000000E+03 0.  0.
         13    1    1    2    0    0  0.26050998666E+01 -0.12435695968E+02  0.47004732301E+02  0.48691776536E+02  0.10566000000E+00 0.  1.
        994    1    1    2    0    0 -0.47370815666E+01  0.97312247796E+01  0.20799609710E+01  0.17155437306E+03  0.17120000000E+03 0.  0.
        998    1    1    2    0    0  0.21319817001E+01  0.27044711885E+01  0.14509153030E+04  0.14509538504E+04  0.10000000000E+02 0.  0.
</event>
<event>
 5    1  0.1146201E-008  0.3847699E+03  0.7957747E-01  0.3430649E+00
         13   -1    0    0    0    0  0.00000000000E+00  0.00000000000E+00  0.14999999963E+04  0.15000000000E+04  0.10566000000E+00 0. -1.
        994   -1    0    0    0    0 -0.00000000000E+00 -0.00000000000E+00  0.11368683772E-12  0.17120000000E+03  0.17120000000E+03 0.  0.
         13    1    1    2    0    0 -0.11706515622E+01 -0.12365360160E+02  0.41095432240E+02  0.42931553338E+02  0.10566000000E+00 0. -1.
        994    1    1    2    0    0  0.13435233513E+02  0.21291851737E+02  0.38332889263E+01  0.17308374434E+03  0.17120000000E+03 0.  0.
        998    1    1    2    0    0 -0.12264581951E+02 -0.89264915766E+01  0.14550712751E+04  0.14551847023E+04  0.10000000000E+02 0. -1.
</event>
<event>
 5    1  0.1146201E-008  0.3808125E+03  0.7957747E-01  0.3447628E+00
         13   -1    0    0    0    0  0.00000000000E+00  0.00000000000E+00  0.14999999963E+04  0.15000000000E+04  0.10566000000E+00 0. -1.
        994   -1    0    0    0    0 -0.00000000000E+00 -0.00000000000E+00  0.11368683772E-12  0.17120000000E+03  0.17120000000E+03 0.  0.
         13    1    1    2    0    0  0.20523419438E+02 -0.12034761577E+02  0.67425682033E+02  0.71500209743E+02  0.10566000000E+00 0. -1.
        994    1    1    2    0    0 -0.38976319952E+02  0.91192285867E+01  0.90841409542E+01  0.17605191128E+03  0.17120000000E+03 0.  0.
        998    1    1    2    0    0  0.18452900514E+02  0.29155329899E+01  0.14234901733E+04  0.14236478790E+04  0.10000000000E+02 0. -1.
</event>
<event>
 5    1  0.1698583E-008  0.3861218E+03  0.7957747E-01  0.3424928E+00
         13   -1    0    0    0    0  0.00000000000E+00  0.00000000000E+00  0.14999999963E+04  0.15000000000E+04  0.10566000000E+00 0.  1.
        994   -1    0    0    0    0 -0.00000000000E+00 -0.00000000000E+00  0.11368683772E-12  0.17120000000E+03  0.17120000000E+03 0.  0.
         13    1    1    2    0    0  0.94893913095E+01 -0.48953262065E+01  0.52496015581E+02  0.53571033050E+02  0.10566000000E+00 0.  1.
        994    1    1    2    0    0 -0.12148892842E+02 -0.21823766586E-01  0.15579922420E+01  0.17163759324E+03  0.17120000000E+03 0.  0.
        998    1    1    2    0    0  0.26595015320E+01  0.49171499731E+01  0.14459459885E+04  0.14459913737E+04  0.10000000000E+02 0.  1.
</event>
<event>
 5    1  0.1146201E-008  0.3769840E+03  0.7957747E-01  0.3464397E+00
         13   -1    0    0    0    0  0.00000000000E+00  0.00000000000E+00  0.14999999963E+04  0.15000000000E+04  0.10566000000E+00 0. -1.
        994   -1    0    0    0    0 -0.00000000000E+00 -0.00000000000E+00  0.11368683772E-12  0.17120000000E+03  0.17120000000E+03 0.  0.
         13    1    1    2    0    0 -0.10132256816E+02  0.49772208487E+01  0.86578264709E+01  0.14226892802E+02  0.10566000000E+00 0. -1.
        994    1    1    2    0    0  0.80404018364E+01 -0.59929612987E+01  0.60030297312E+01  0.17159848488E+03  0.17120000000E+03 0.  0.
        998    1    1    2    0    0  0.20918549797E+01  0.10157404501E+01  0.14853391401E+04  0.14853746223E+04  0.10000000000E+02 0. -1.
</event>
<event>
 5    1  0.1146201E-008  0.4424432E+03  0.7957747E-01  0.3217462E+00
         13   -1    0    0    0    0  0.00000000000E+00  0.00000000000E+00  0.14999999963E+04  0.15000000000E+04  0.10566000000E+00 0.  1.
        994   -1    0    0    0    0 -0.00000000000E+00 -0.00000000000E+00  0.11368683772E-12  0.17120000000E+03  0.17120000000E+03 0.  0.
         13    1    1    2    0    0 -0.74195587594E+02 -0.70348239076E+02  0.70062093128E+02  0.12394582694E+03  0.10566000000E+00 0.  1.
        994    1    1    2    0    0  0.78100658817E+02  0.84529476257E+02  0.12295574595E+03  0.24015099568E+03  0.17120000000E+03 0.  0.
        998    1    1    2    0    0 -0.39050712236E+01 -0.14181237182E+02  0.13069821572E+04  0.13071031774E+04  0.10000000000E+02 0.  1.
</event>
<event>
 5    1  0.1146201E-008  0.3839355E+03  0.7957747E-01  0.3434199E+00
         13   -1    0    0    0    0  0.00000000000E+00  0.00000000000E+00  0.14999999963E+04  0.15000000000E+04  0.10566000000E+00 0.  1.
        994   -1    0    0    0    0 -0.00000000000E+00 -0.00000000000E+00  0.11368683772E-12  0.17120000000E+03  0.17120000000E+03 0.  0.
         13    1    1    2    0    0  0.25343682270E+01 -0.22379400823E+02  0.12105721606E+03  0.12313456594E+03  0.10566000000E+00 0.  1.
        994    1    1    2    0    0 -0.10931550460E+02  0.84058534919E+01  0.27873195282E+01  0.17177708322E+03  0.17120000000E+03 0.  0.
        998    1    1    2    0    0  0.83971822335E+01  0.13973547332E+02  0.13761554607E+04  0.13762883508E+04  0.10000000000E+02 0.  1.
</event>
<event>
 5    1  0.1146201E-008  0.3753640E+03  0.7957747E-01  0.3471596E+00
         13   -1    0    0    0    0  0.00000000000E+00  0.00000000000E+00  0.14999999963E+04  0.15000000000E+04  0.10566000000E+00 0. -1.
        994   -1    0    0    0    0 -0.00000000000E+00 -0.00000000000E+00  0.11368683772E-12  0.17120000000E+03  0.17120000000E+03 0.  0.
         13    1    1    2    0    0 -0.24618516416E+02 -0.13942482849E+03  0.74670857818E+03  0.76001254334E+03  0.10566000000E+00 0. -1.
        994    1    1    2    0    0  0.34238429686E+02  0.13521748001E+03  0.75704141283E+02  0.23344505558E+03  0.17120000000E+03 0.  0.
        998    1    1    2    0    0 -0.96199132702E+01  0.42073484755E+01  0.67758727682E+03  0.67774240108E+03  0.10000000000E+02 0. -1.
</event>
<event>
 5    1  0.1146201E-008  0.3836323E+03  0.7957747E-01  0.3435494E+00
         13   -1    0    0    0    0  0.00000000000E+00  0.00000000000E+00  0.14999999963E+04  0.15000000000E+04  0.10566000000E+00 0. -1.
        994   -1    0    0    0    0 -0.00000000000E+00 -0.00000000000E+00  0.11368683772E-12  0.17120000000E+03  0.17120000000E+03 0.  0.
         13    1    1    2    0    0 -0.10444281067E+02 -0.10291732916E+02  0.44619304879E+02  0.46966970366E+02  0.10566000000E+00 0. -1.
        994    1    1    2    0    0  0.91972995399E+01  0.13603154170E+02  0.32018915459E+01  0.17201548835E+03  0.17120000000E+03 0.  0.
        998    1    1    2    0    0  0.12469815273E+01 -0.33114212541E+01  0.14521787999E+04  0.14522175413E+04  0.10000000000E+02 0. -1.
</event>
<event>
 5    1  0.1146201E-008  0.3820846E+03  0.7957747E-01  0.3442132E+00
         13   -1    0    0    0    0  0.00000000000E+00  0.00000000000E+00  0.14999999963E+04  0.15000000000E+04  0.10566000000E+00 0.  1.
        994   -1    0    0    0    0 -0.00000000000E+00 -0.00000000000E+00  0.11368683772E-12  0.17120000000E+03  0.17120000000E+03 0.  0.
         13    1    1    2    0    0  0.16012022072E+02  0.13251476968E+02  0.71284752354E+02  0.74253037479E+02  0.10566000000E+00 0.  1.
        994    1    1    2    0    0  0.54804601578E+01 -0.17570036462E+02  0.42099817400E+01  0.17223793302E+03  0.17120000000E+03 0.  0.
        998    1    1    2    0    0 -0.21492482230E+02  0.43185594940E+01  0.14245052622E+04  0.14247090295E+04  0.10000000000E+02 0.  1.
</event>
<event>
 5    1  0.1146201E-008  0.3815376E+03  0.7957747E-01  0.3444491E+00
         13   -1    0    0    0    0  0.00000000000E+00  0.00000000000E+00  0.14999999963E+04  0.15000000000E+04  0.10566000000E+00 0. -1.
        994   -1    0    0    0    0 -0.00000000000E+00 -0.00000000000E+00  0.11368683772E-12  0.17120000000E+03  0.17120000000E+03 0.  0.
         13    1    1    2    0    0 -0.48440473741E+01 -0.10206086516E+02  0.17595917340E+02  0.20910678325E+02  0.10566000000E+00 0. -1.
        994    1    1    2    0    0 -0.30272382937E+00  0.96268636370E+01  0.36675787529E+01  0.17150993930E+03  0.17120000000E+03 0.  0.
        998    1    1    2    0    0  0.51467712035E+01  0.57922287888E+00  0.14787365002E+04  0.14787793824E+04  0.10000000000E+02 0. -1.
</event>
<event>
 5    1  0.1146201E-008  0.3782393E+03  0.7957747E-01  0.3458861E+00
         13   -1    0    0    0    0  0.00000000000E+00  0.00000000000E+00  0.14999999963E+04  0.15000000000E+04  0.10566000000E+00 0.  1.
        994   -1    0    0    0    0 -0.00000000000E+00 -0.00000000000E+00  0.11368683772E-12  0.17120000000E+03  0.17120000000E+03 0.  0.
         13    1    1    2    0    0  0.31024927418E+00  0.37453739625E+02  0.15600937236E+03  0.16044255762E+03  0.10566000000E+00 0.  1.
        994    1    1    2    0    0  0.98865327765E+01 -0.17422690103E+01  0.53635365481E+01  0.17157793144E+03  0.17120000000E+03 0.  0.
        998    1    1    2    0    0 -0.10196782051E+02 -0.35711470614E+02  0.13386270874E+04  0.13391795109E+04  0.10000000000E+02 0. -1.
</event>
<event>
 5    1  0.1146201E-008  0.3708913E+03  0.7957747E-01  0.3491805E+00
         13   -1    0    0    0    0  0.00000000000E+00  0.00000000000E+00  0.14999999963E+04  0.15000000000E+04  0.10566000000E+00 0.  1.
        994   -1    0    0    0    0 -0.00000000000E+00 -0.00000000000E+00  0.11368683772E-12  0.17120000000E+03  0.17120000000E+03 0.  0.
         13    1    1    2    0    0 -0.33279029756E+02 -0.23602935126E+02  0.63906104464E+02  0.75819481137E+02  0.10566000000E+00 0.  1.
        994    1    1    2    0    0  0.47129509327E+02  0.22480125282E+02  0.21034704903E+02  0.18021777241E+03  0.17120000000E+03 0.  0.
        998    1    1    2    0    0 -0.13850479570E+02  0.11228098440E+01  0.14150591869E+04  0.14151627465E+04  0.10000000000E+02 0.  1.
</event>
<event>
 5    1  0.1146201E-008  0.3814204E+03  0.7957747E-01  0.3444997E+00
         13   -1    0    0    0    0  0.00000000000E+00  0.00000000000E+00  0.14999999963E+04  0.15000000000E+04  0.10566000000E+00 0. -1.
        994   -1    0    0    0    0 -0.00000000000E+00 -0.00000000000E+00  0.11368683772E-12  0.17120000000E+03  0.17120000000E+03 0.  0.
         13    1    1    2    0    0  0.16244234493E+02 -0.16942981063E+02  0.78713346037E+02  0.82138552276E+02  0.10566000000E+00 0. -1.
        994    1    1    2    0    0 -0.13760051444E+02  0.97660013068E+01  0.43657453734E+01  0.17208490210E+03  0.17120000000E+03 0.  0.
        998    1    1    2    0    0 -0.24841830487E+01  0.71769797560E+01  0.14169209049E+04  0.14169765456E+04  0.10000000000E+02 0. -1.
</event>
<event>
 5    1  0.1146201E-008  0.3686270E+03  0.7957747E-01  0.3502225E+00
         13   -1    0    0    0    0  0.00000000000E+00  0.00000000000E+00  0.14999999963E+04  0.15000000000E+04  0.10566000000E+00 0. -1.
        994   -1    0    0    0    0 -0.00000000000E+00 -0.00000000000E+00  0.11368683772E-12  0.17120000000E+03  0.17120000000E+03 0.  0.
         13    1    1    2    0    0 -0.11708931778E+03 -0.75714373295E+02  0.56712292657E+03  0.58401284204E+03  0.10566000000E+00 0. -1.
        994    1    1    2    0    0  0.11575545428E+03  0.73757872177E+02  0.78952157692E+02  0.23320041190E+03  0.17120000000E+03 0.  0.
        998    1    1    2    0    0  0.13338634969E+01  0.19565011180E+01  0.85392491202E+03  0.85398674606E+03  0.10000000000E+02 0.  0.
</event>
<event>
 5    1  0.1146201E-008  0.3837571E+03  0.7957747E-01  0.3434961E+00
         13   -1    0    0    0    0  0.00000000000E+00  0.00000000000E+00  0.14999999963E+04  0.15000000000E+04  0.10566000000E+00 0.  1.
        994   -1    0    0    0    0 -0.00000000000E+00 -0.00000000000E+00  0.11368683772E-12  0.17120000000E+03  0.17120000000E+03 0.  0.
         13    1    1    2    0    0  0.14248774285E+02  0.68557291351E+01  0.52814426564E+02  0.55130784575E+02  0.10566000000E+00 0.  1.
        994    1    1    2    0    0 -0.18380576464E+02 -0.53326095174E+01  0.34588511926E+01  0.17230114906E+03  0.17120000000E+03 0.  0.
        998    1    1    2    0    0  0.41318021799E+01 -0.15231196177E+01  0.14437267185E+04  0.14437680664E+04  0.10000000000E+02 0.  1.
</event>
<event>
 5    1  0.1146201E-008  0.3840462E+03  0.7957747E-01  0.3433727E+00
         13   -1    0    0    0    0  0.00000000000E+00  0.00000000000E+00  0.14999999963E+04  0.15000000000E+04  0.10566000000E+00 0. -1.
        994   -1    0    0    0    0 -0.00000000000E+00 -0.00000000000E+00  0.11368683772E-12  0.17120000000E+03  0.17120000000E+03 0.  0.
         13    1    1    2    0    0 -0.38484346718E+01 -0.10525669478E+02  0.33012795127E+02  0.34863390161E+02  0.10566000000E+00 0. -1.
        994    1    1    2    0    0 -0.84303951642E+01 -0.19483819420E+02  0.35925701199E+01  0.17254865210E+03  0.17120000000E+03 0.  0.
        998    1    1    2    0    0  0.12278829836E+02  0.30009488898E+02  0.14633946310E+04  0.14637879577E+04  0.10000000000E+02 0. -1.
</event>
<event>
 5    1  0.1146201E-008  0.3852654E+03  0.7957747E-01  0.3428547E+00
         13   -1    0    0    0    0  0.00000000000E+00  0.00000000000E+00  0.14999999963E+04  0.15000000000E+04  0.10566000000E+00 0.  1.
        994   -1    0    0    0    0 -0.00000000000E+00 -0.00000000000E+00  0.11368683772E-12  0.17120000000E+03  0.17120000000E+03 0.  0.
         13    1    1    2    0    0 -0.11323895390E+02  0.11383094347E+02  0.88051633161E+02  0.89503668696E+02  0.10566000000E+00 0.  1.
        994    1    1    2    0    0  0.17548841958E+01 -0.92312032637E+01  0.17886005416E+01  0.17146700506E+03  0.17120000000E+03 0.  0.
        998    1    1    2    0    0  0.95690111946E+01 -0.21518910833E+01  0.14101597626E+04  0.14102293262E+04  0.10000000000E+02 0.  1.
</event>
<event>
 5    1  0.1146201E-008  0.3858763E+03  0.7957747E-01  0.3425964E+00
         13   -1    0    0    0    0  0.00000000000E+00  0.00000000000E+00  0.14999999963E+04  0.15000000000E+04  0.10566000000E+00 0. -1.
        994   -1    0    0    0    0 -0.00000000000E+00 -0.00000000000E+00  0.11368683772E-12  0.17120000000E+03  0.17120000000E+03 0.  0.
         13    1    1    2    0    0 -0.21430089139E+00 -0.11701609283E+02  0.56504599796E+02  0.57704025395E+02  0.10566000000E+00 0. -1.
        994    1    1    2    0    0  0.10357602298E+02  0.11215140259E+02  0.19603691577E+01  0.17189049521E+03  0.17120000000E+03 0.  0.
        998    1    1    2    0    0 -0.10143301407E+02  0.48646902304E+00  0.14415350273E+04  0.14416054794E+04  0.10000000000E+02 0. -1.
</event>
<event>
 5    1  0.1146201E-008  0.3842629E+03  0.7957747E-01  0.3432804E+00
         13   -1    0    0    0    0  0.00000000000E+00  0.00000000000E+00  0.14999999963E+04  0.15000000000E+04  0.10566000000E+00 0.  1.
        994   -1    0    0    0    0 -0.00000000000E+00 -0.00000000000E+00  0.11368683772E-12  0.17120000000E+03  0.17120000000E+03 0.  0.
         13    1    1    2    0    0  0.13520585951E+02  0.20502739650E+01  0.47672242322E+02  0.49594996924E+02  0.10566000000E+00 0.  1.
        994    1    1    2    0    0 -0.30642121130E+01 -0.60555732312E+01  0.21483911451E+01  0.17134793535E+03  0.17120000000E+03 0.  0.
        998    1    1    2    0    0 -0.10456373838E+02  0.40052992662E+01  0.14501793628E+04  0.14502570677E+04  0.10000000000E+02 0.  1.
</event>
<event>
 5    1  0.1146201E-008  0.3812848E+03  0.7957747E-01  0.3445583E+00
         13   -1    0    0    0    0  0.00000000000E+00  0.00000000000E+00  0.14999999963E+04  0.15000000000E+04  0.10566000000E+00 0. -1.
        994   -1    0    0    0    0 -0.00000000000E+00 -0.00000000000E+00  0.11368683772E-12  0.17120000000E+03  0.17120000000E+03 0.  0.
         13    1    1    2    0    0  0.94012233925E+01  0.12254773166E+02  0.33444025625E+02  0.36838518981E+02  0.10566000000E+00 0. -1.
        994    1    1    2    0    0 -0.73471246031E+01 -0.14922177977E+01  0.36731384352E+01  0.17140343900E+03  0.17120000000E+03 0.  0.
        998    1    1    2    0    0 -0.20540987895E+01 -0.10762555369E+02  0.14628828322E+04  0.14629580420E+04  0.10000000000E+02 0. -1.
</event>
<event>
 5    1  0.1146201E-008  0.3841793E+03  0.7957747E-01  0.3433161E+00
         13   -1    0    0    0    0  0.00000000000E+00  0.00000000000E+00  0.14999999963E+04  0.15000000000E+04  0.10566000000E+00 0.  1.
        994   -1    0    0    0    0 -0.00000000000E+00 -0.00000000000E+00  0.11368683772E-12  0.17120000000E+03  0.17120000000E+03 0.  0.
         13    1    1    2    0    0  0.14188012742E+02  0.15438918307E+02  0.11263057617E+03  0.11456577917E+03  0.10566000000E+00 0.  1.
        994    1    1    2    0    0  0.29747910159E+02 -0.42291970328E+02  0.10904310802E+02  0.17917001118E+03  0.17120000000E+03 0.  0.
        998    1    1    2    0    0 -0.43935922902E+02  0.26853052021E+02  0.13764651093E+04  0.13774642096E+04  0.10000000000E+02 0.  1.
</event>
<event>
 5    1  0.1146201E-008  0.3701360E+03  0.7957747E-01  0.3495266E+00
         13   -1    0    0    0    0  0.00000000000E+00  0.00000000000E+00  0.14999999963E+04  0.15000000000E+04  0.10566000000E+00 0. -1.
        994   -1    0    0    0    0 -0.00000000000E+00 -0.00000000000E+00  0.11368683772E-12  0.17120000000E+03  0.17120000000E+03 0.  0.
         13    1    1    2    0    0  0.47453440385E+02 -0.18945200633E+02  0.10663269076E+03  0.11824251153E+03  0.10566000000E+00 0. -1.
        994    1    1    2    0    0 -0.52080681653E+02  0.10849896646E+02  0.20975984471E+02  0.18049805978E+03  0.17120000000E+03 0.  0.
        998    1    1    2    0    0  0.46272412690E+01  0.80953039870E+01  0.13723913210E+04  0.13724594287E+04  0.10000000000E+02 0. -1.
</event>
<event>
 5    1  0.1146201E-008  0.3739206E+03  0.7957747E-01  0.3478064E+00
         13   -1    0    0    0    0  0.00000000000E+00  0.00000000000E+00  0.14999999963E+04  0.15000000000E+04  0.10566000000E+00 0.  1.
        994   -1    0    0    0    0 -0.00000000000E+00 -0.00000000000E+00  0.11368683772E-12  0.17120000000E+03  0.17120000000E+03 0.  0.
         13    1    1    2    0    0  0.62064009263E+02  0.10625452911E+03  0.61938909312E+03  0.63149412193E+03  0.10566000000E+00 0.  1.
        994    1    1    2    0    0 -0.41133316397E+02 -0.52004239804E+02  0.28779424832E+02  0.18583348990E+03  0.17120000000E+03 0.  0.
        998    1    1    2    0    0 -0.20930692866E+02 -0.54250289305E+02  0.85183147833E+03  0.85387238816E+03  0.10000000000E+02 0.  1.
</event>
<event>
 5    1  0.1146201E-008  0.3839402E+03  0.7957747E-01  0.3434180E+00
         13   -1    0    0    0    0  0.00000000000E+00  0.00000000000E+00  0.14999999963E+04  0.15000000000E+04  0.10566000000E+00 0.  1.
        994   -1    0    0    0    0 -0.00000000000E+00 -0.00000000000E+00  0.11368683772E-12  0.17120000000E+03  0.17120000000E+03 0.  0.
         13    1    1    2    0    0 -0.11404898866E+02  0.10465880671E+02  0.58819803624E+02  0.60822584940E+02  0.10566000000E+00 0.  1.
        994    1    1    2    0    0  0.35341275955E+01  0.69176274690E+01  0.23564044288E+01  0.17139234601E+03  0.17120000000E+03 0.  0.
        998    1    1    2    0    0  0.78707712705E+01 -0.17383508140E+02  0.14388237882E+04  0.14389850691E+04  0.10000000000E+02 0.  1.
</event>
<event>
 5    1  0.1146201E-008  0.3686778E+03  0.7957747E-01  0.3501990E+00
         13   -1    0    0    0    0  0.00000000000E+00  0.00000000000E+00  0.14999999963E+04  0.15000000000E+04  0.10566000000E+00 0.  1.
        994   -1    0    0    0    0 -0.00000000000E+00 -0.00000000000E+00  0.11368683772E-12  0.17120000000E+03  0.17120000000E+03 0.  0.
         13    1    1    2    0    0 -0.93187644700E+02 -0.12423199981E+02  0.34805528166E+03  0.36052845003E+03  0.10566000000E+00 0.  1.
        994    1    1    2    0    0  0.87159659547E+02  0.18419378629E+02  0.38058284979E+02  0.19670778535E+03  0.17120000000E+03 0.  0.
        998    1    1    2    0    0  0.60279851531E+01 -0.59961786486E+01  0.11138864296E+04  0.11139637646E+04  0.10000000000E+02 0.  1.
</event>
<event>
 5    1  0.1146201E-008  0.3701488E+03  0.7957747E-01  0.3495207E+00
         13   -1    0    0    0    0  0.00000000000E+00  0.00000000000E+00  0.14999999963E+04  0.15000000000E+04  0.10566000000E+00 0.  1.
        994   -1    0    0    0    0 -0.00000000000E+00 -0.00000000000E+00  0.11368683772E-12  0.17120000000E+03  0.17120000000E+03 0.  0.
         13    1    1    2    0    0 -0.36836013015E+01  0.23996255907E+02  0.22056951959E+02  0.32801059585E+02  0.10566000000E+00 0.  1.
        994    1    1    2    0    0  0.83543646604E+01 -0.17607416921E+02  0.12347112491E+02  0.17274752596E+03  0.17120000000E+03 0.  0.
        998    1    1    2    0    0 -0.46707633589E+01 -0.63888389859E+01  0.14655959318E+04  0.14656514145E+04  0.10000000000E+02 0.  1.
</event>
<event>
 5    1  0.1146201E-008  0.3863158E+03  0.7957747E-01  0.3424111E+00
         13   -1    0    0    0    0  0.00000000000E+00  0.00000000000E+00  0.14999999963E+04  0.15000000000E+04  0.10566000000E+00 0.  1.
        994   -1    0    0    0    0 -0.00000000000E+00 -0.00000000000E+00  0.11368683772E-12  0.17120000000E+03  0.17120000000E+03 0.  0.
         13    1    1    2    0    0 -0.23662911787E+02  0.48379226610E+02  0.61497315885E+02  0.81746033462E+02  0.10566000000E+00 0.  1.
        994    1    1    2    0    0  0.14397879919E+02 -0.65368490455E+02  0.36657369816E+02  0.18743943356E+03  0.17120000000E+03 0.  0.
        998    1    1    2    0    0  0.92650318679E+01  0.16989263845E+02  0.14018453106E+04  0.14020145330E+04  0.10000000000E+02 0.  1.
</event>
<event>
 5    1  0.1146201E-008  0.3729784E+03  0.7957747E-01  0.3482314E+00
         13   -1    0    0    0    0  0.00000000000E+00  0.00000000000E+00  0.14999999963E+04  0.15000000000E+04  0.10566000000E+00 0. -1.
        994   -1    0    0    0    0 -0.00000000000E+00 -0.00000000000E+00  0.11368683772E-12  0.17120000000E+03  0.17120000000E+03 0.  0.
         13    1    1    2    0    0  0.58040262757E+02 -0.10575961146E+02  0.21831678773E+03  0.22614763767E+03  0.10566000000E+00 0. -1.
        994    1    1    2    0    0  0.53516183728E+02 -0.27344601234E+02  0.25393966975E+02  0.18321026908E+03  0.17120000000E+03 0.  0.
        998    1    1    2    0    0 -0.11155644649E+03  0.37920562380E+02  0.12562892416E+04  0.12618420933E+04  0.10000000000E+02 0.  1.
</event>
<event>
 5    1  0.1146201E-008  0.3798048E+03  0.7957747E-01  0.3452009E+00
         13   -1    0    0    0    0  0.00000000000E+00  0.00000000000E+00  0.14999999963E+04  0.15000000000E+04  0.10566000000E+00 0.  1.
        994   -1    0    0    0    0 -0.00000000000E+00 -0.00000000000E+00  0.11368683772E-12  0.17120000000E+03  0.17120000000E+03 0.  0.
         13    1    1    2    0    0  0.16290703195E+02 -0.12390948847E+02  0.51842670172E+02  0.55736848121E+02  0.10566000000E+00 0.  1.
        994    1    1    2    0    0  0.13935951101E+02  0.61309197820E+01  0.50074779829E+01  0.17194857879E+03  0.17120000000E+03 0.  0.
        998    1    1    2    0    0 -0.30226654296E+02  0.62600290648E+01  0.14431498481E+04  0.14435145731E+04  0.10000000000E+02 0.  1.
</event>
<event>
 5    1  0.1146201E-008  0.3772838E+03  0.7957747E-01  0.3463071E+00
         13   -1    0    0    0    0  0.00000000000E+00  0.00000000000E+00  0.14999999963E+04  0.15000000000E+04  0.10566000000E+00 0. -1.
        994   -1    0    0    0    0 -0.00000000000E+00 -0.00000000000E+00  0.11368683772E-12  0.17120000000E+03  0.17120000000E+03 0.  0.
         13    1    1    2    0    0 -0.26545881567E+02  0.15197662464E+02  0.80831976735E+02  0.86426109477E+02  0.10566000000E+00 0. -1.
        994    1    1    2    0    0  0.37615341616E+02  0.14435359665E+02  0.11005952465E+02  0.17622106719E+03  0.17120000000E+03 0.  0.
        998    1    1    2    0    0 -0.11069460049E+02 -0.29633022128E+02  0.14081620671E+04  0.14085528233E+04  0.10000000000E+02 0. -1.
</event>
<event>
 5    1  0.1146201E-008  0.3732039E+03  0.7957747E-01  0.3481295E+00
         13   -1    0    0    0    0  0.00000000000E+00  0.00000000000E+00  0.14999999963E+04  0.15000000000E+04  0.10566000000E+00 0. -1.
        994   -1    0    0    0    0 -0.00000000000E+00 -0.00000000000E+00  0.11368683772E-12  0.17120000000E+03  0.17120000000E+03 0.  0.
         13    1    1    2    0    0  0.47998608421E+02 -0.84534348650E+01  0.96712393428E+02  0.10829877736E+03  0.10566000000E+00 0. -1.
        994    1    1    2    0    0 -0.17414788736E+02 -0.50222447415E+02  0.22701400055E+02  0.18069411351E+03  0.17120000000E+03 0.  0.
        998    1    1    2    0    0 -0.30583819685E+02  0.58675882280E+02  0.13805862028E+04  0.13822071091E+04  0.10000000000E+02 0. -1.
</event>
<event>
 5    1  0.1177920E-008  0.3861805E+03  0.7957747E-01  0.3424681E+00
         13   -1    0    0    0    0  0.00000000000E+00  0.00000000000E+00  0.14999999963E+04  0.15000000000E+04  0.10566000000E+00 0.  1.
        994   -1    0    0    0    0 -0.00000000000E+00 -0.00000000000E+00  0.11368683772E-12  0.17120000000E+03  0.17120000000E+03 0.  0.
         13    1    1    2    0    0 -0.10257920260E+02 -0.39440585531E+01  0.60619359949E+02  0.61607617147E+02  0.10566000000E+00 0.  1.
        994    1    1    2    0    0  0.32157220903E+00  0.78398095656E+01  0.12468702262E+01  0.17138424872E+03  0.17120000000E+03 0.  0.
        998    1    1    2    0    0  0.99363480507E+01 -0.38957510125E+01  0.14381337661E+04  0.14382081341E+04  0.10000000000E+02 0.  1.
</event>
<event>
 5    1  0.1146201E-008  0.3799623E+03  0.7957747E-01  0.3451322E+00
         13   -1    0    0    0    0  0.00000000000E+00  0.00000000000E+00  0.14999999963E+04  0.15000000000E+04  0.10566000000E+00 0. -1.
        994   -1    0    0    0    0 -0.00000000000E+00 -0.00000000000E+00  0.11368683772E-12  0.17120000000E+03  0.17120000000E+03 0.  0.
         13    1    1    2    0    0 -0.26232345302E+02 -0.60257870152E+01  0.81906181325E+02  0.86215310430E+02  0.10566000000E+00 0. -1.
        994    1    1    2    0    0  0.26522068973E+02  0.33877460182E+01  0.65459652025E+01  0.17339892337E+03  0.17120000000E+03 0.  0.
        998    1    1    2    0    0 -0.28972367034E+00  0.26380409969E+01  0.14115478498E+04  0.14115857662E+04  0.10000000000E+02 0. -1.
</event>
<event>
 5    1  0.1146201E-008  0.3689422E+03  0.7957747E-01  0.3500766E+00
         13   -1    0    0    0    0  0.00000000000E+00  0.00000000000E+00  0.14999999963E+04  0.15000000000E+04  0.10566000000E+00 0. -1.
        994   -1    0    0    0    0 -0.00000000000E+00 -0.00000000000E+00  0.11368683772E-12  0.17120000000E+03  0.17120000000E+03 0.  0.
         13    1    1    2    0    0 -0.15129284887E+03  0.23763816330E+02  0.65768064372E+03  0.67527630298E+03  0.10566000000E+00 0. -1.
        994    1    1    2    0    0  0.14807749052E+03 -0.89453819578E+01  0.90587336607E+02  0.24397227017E+03  0.17120000000E+03 0.  0.
        998    1    1    2    0    0  0.32153583504E+01 -0.14818434372E+02  0.75173201595E+03  0.75195142685E+03  0.10000000000E+02 0. -1.
</event>
<event>
 5    1  0.1146201E-008  0.3799679E+03  0.7957747E-01  0.3451298E+00
         13   -1    0    0    0    0  0.00000000000E+00  0.00000000000E+00  0.14999999963E+04  0.15000000000E+04  0.10566000000E+00 0. -1.
        994   -1    0    0    0    0 -0.00000000000E+00 -0.00000000000E+00  0.11368683772E-12  0.17120000000E+03  0.17120000000E+03 0.  0.
         13    1    1    2    0    0  0.26921795777E+02  0.18370645926E+02  0.12375292054E+03  0.12797288864E+03  0.10566000000E+00 0. -1.
        994    1    1    2    0    0 -0.13800374413E+02 -0.21495737662E+02  0.63339371388E+01  0.17321107306E+03  0.17120000000E+03 0.  0.
        998    1    1    2    0    0 -0.13121421364E+02  0.31250917359E+01  0.13699131386E+04  0.13700160383E+04  0.10000000000E+02 0. -1.
</event>
<event>
 5    1  0.1146201E-008  0.3801352E+03  0.7957747E-01  0.3450570E+00
         13   -1    0    0    0    0  0.00000000000E+00  0.00000000000E+00  0.14999999963E+04  0.15000000000E+04  0.10566000000E+00 0. -1.
        994   -1    0    0    0    0 -0.00000000000E+00 -0.00000000000E+00  0.11368683772E-12  0.17120000000E+03  0.17120000000E+03 0.  0.
         13    1    1    2    0    0 -0.11122406231E+02 -0.64807937868E+01  0.18741229292E+02  0.22736610299E+02  0.10566000000E+00 0. -1.
        994    1    1    2    0    0  0.75688756920E+01  0.26017479258E+01  0.42789863263E+01  0.17144038817E+03  0.17120000000E+03 0.  0.
        998    1    1    2    0    0  0.35535305387E+01  0.38790458610E+01  0.14769797807E+04  0.14770230015E+04  0.10000000000E+02 0. -1.
</event>
<event>
 5    1  0.1146201E-008  0.3775705E+03  0.7957747E-01  0.3461806E+00
         13   -1    0    0    0    0  0.00000000000E+00  0.00000000000E+00  0.14999999963E+04  0.15000000000E+04  0.10566000000E+00 0. -1.
        994   -1    0    0    0    0 -0.00000000000E+00 -0.00000000000E+00  0.11368683772E-12  0.17120000000E+03  0.17120000000E+03 0.  0.
         13    1    1    2    0    0  0.54559016559E+01 -0.18415086622E+02  0.32879397036E+02  0.38078185247E+02  0.10566000000E+00 0. -1.
        994    1    1    2    0    0  0.11583749651E+02  0.96165281035E+01  0.61288086773E+01  0.17196994843E+03  0.17120000000E+03 0.  0.
        998    1    1    2    0    0 -0.17039651307E+02  0.87985585187E+01  0.14609917906E+04  0.14611518663E+04  0.10000000000E+02 0. -1.
</event>
<event>
 5    1  0.1146201E-008  0.3768617E+03  0.7957747E-01  0.3464938E+00
         13   -1    0    0    0    0  0.00000000000E+00  0.00000000000E+00  0.14999999963E+04  0.15000000000E+04  0.10566000000E+00 0. -1.
        994   -1    0    0    0    0 -0.00000000000E+00 -0.00000000000E+00  0.11368683772E-12  0.17120000000E+03  0.17120000000E+03 0.  0.
         13    1    1    2    0    0  0.44764127840E+02 -0.10895917490E+03  0.53459530396E+03  0.54741947272E+03  0.10566000000E+00 0. -1.
        994    1    1    2    0    0 -0.46094982395E+02  0.40395700519E+02  0.28196645999E+02  0.18401372467E+03  0.17120000000E+03 0.  0.
        998    1    1    2    0    0  0.13308545548E+01  0.68563474376E+02  0.93720804632E+03  0.93976680261E+03  0.10000000000E+02 0. -1.
</event>
<event>
 5    1  0.1146201E-008  0.3694948E+03  0.7957747E-01  0.3498216E+00
         13   -1    0    0    0    0  0.00000000000E+00  0.00000000000E+00  0.14999999963E+04  0.15000000000E+04  0.10566000000E+00 0.  1.
        994   -1    0    0    0    0 -0.00000000000E+00 -0.00000000000E+00  0.11368683772E-12  0.17120000000E+03  0.17120000000E+03 0.  0.
         13    1    1    2    0    0 -0.81445042368E+01  0.24477038500E+02  0.27922381923E+02  0.38014851562E+02  0.10566000000E+00 0.  1.
        994    1    1    2    0    0 -0.43808635727E+01 -0.23118427365E+01  0.10757594315E+02  0.17160915599E+03  0.17120000000E+03 0.  0.
        998    1    1    2    0    0  0.12525367809E+02 -0.22165195764E+02  0.14613200200E+04  0.14615759925E+04  0.10000000000E+02 0.  1.
</event>
<event>
 5    1  0.1146201E-008  0.3823549E+03  0.7957747E-01  0.3440968E+00
         13   -1    0    0    0    0  0.00000000000E+00  0.00000000000E+00  0.14999999963E+04  0.15000000000E+04  0.10566000000E+00 0.  1.
        994   -1    0    0    0    0 -0.00000000000E+00 -0.00000000000E+00  0.11368683772E-12  0.17120000000E+03  0.17120000000E+03 0.  0.
         13    1    1    2    0    0 -0.12013668768E+02  0.93055353255E+01  0.36296605665E+02  0.39349408786E+02  0.10566000000E+00 0.  1.
        994    1    1    2    0    0  0.21174499019E+02 -0.10904746316E+02  0.48330815095E+01  0.17291637163E+03  0.17120000000E+03 0.  0.
        998    1    1    2    0    0 -0.91608302501E+01  0.15992109909E+01  0.14588703091E+04  0.14589342196E+04  0.10000000000E+02 0.  1.
</event>
<event>
 5    1  0.1146201E-008  0.3858845E+03  0.7957747E-01  0.3425930E+00
         13   -1    0    0    0    0  0.00000000000E+00  0.00000000000E+00  0.14999999963E+04  0.15000000000E+04  0.10566000000E+00 0. -1.
        994   -1    0    0    0    0 -0.00000000000E+00 -0.00000000000E+00  0.11368683772E-12  0.17120000000E+03  0.17120000000E+03 0.  0.
         13    1    1    2    0    0 -0.10386810504E+02 -0.83159342575E+01  0.76856911399E+02  0.78000234544E+02  0.10566000000E+00 0. -1.
        994    1    1    2    0    0  0.78470610414E+01 -0.53076501956E+00  0.13945167594E+01  0.17138623852E+03  0.17120000000E+03 0.  0.
        998    1    1    2    0    0  0.25397494624E+01  0.88466992770E+01  0.14217485681E+04  0.14218135269E+04  0.10000000000E+02 0. -1.
</event>
<event>
 5    1  0.1146201E-008  0.3720262E+03  0.7957747E-01  0.3486631E+00
         13   -1    0    0    0    0  0.00000000000E+00  0.00000000000E+00  0.14999999963E+04  0.15000000000E+04  0.10566000000E+00 0.  1.
        994   -1    0    0    0    0 -0.00000000000E+00 -0.00000000000E+00  0.11368683772E-12  0.17120000000E+03  0.17120000000E+03 0.  0.
         13    1    1    2    0    0  0.49722163400E+02  0.72433803424E+02  0.17437994494E+03  0.19526219750E+03  0.10566000000E+00 0.  1.
        994    1    1    2    0    0 -0.12255865396E+03 -0.13613237591E+03  0.14163383431E+03  0.28796220316E+03  0.17120000000E+03 0.  0.
        998    1    1    2    0    0  0.72836490556E+02  0.63698572488E+02  0.11839862170E+04  0.11879755993E+04  0.10000000000E+02 0.  1.
</event>
<event>
 5    1  0.1146201E-008  0.3851706E+03  0.7957747E-01  0.3428949E+00
         13   -1    0    0    0    0  0.00000000000E+00  0.00000000000E+00  0.14999999963E+04  0.15000000000E+04  0.10566000000E+00 0.  1.
        994   -1    0    0    0    0 -0.00000000000E+00 -0.00000000000E+00  0.11368683772E-12  0.17120000000E+03  0.17120000000E+03 0.  0.
         13    1    1    2    0    0 -0.12730004518E+02 -0.14285420952E+02  0.11173088440E+03  0.11335752273E+03  0.10566000000E+00 0.  1.
        994    1    1    2    0    0  0.12192894202E+02  0.14855658702E+02  0.27604104048E+01  0.17229746699E+03  0.17120000000E+03 0.  0.
        998    1    1    2    0    0  0.53711031619E+00 -0.57023775031E+00  0.13855087015E+04  0.13855450103E+04  0.10000000000E+02 0.  0.
</event>
<event>
 5    1  0.1146201E-008  0.3821439E+03  0.7957747E-01  0.3441876E+00
         13   -1    0    0    0    0  0.00000000000E+00  0.00000000000E+00  0.14999999963E+04  0.15000000000E+04  0.10566000000E+00 0. -1.
        994   -1    0    0    0    0 -0.00000000000E+00 -0.00000000000E+00  0.11368683772E-12  0.17120000000E+03  0.17120000000E+03 0.  0.
         13    1    1    2    0    0  0.86834810245E+01  0.20057042230E+02  0.82830042611E+02  0.85665132397E+02  0.10566000000E+00 0. -1.
        994    1    1    2    0    0  0.55378232696E+01 -0.32680268611E+01  0.31920720610E+01  0.17135045028E+03  0.17120000000E+03 0.  0.
        998    1    1    2    0    0 -0.14221304294E+02 -0.16789015369E+02  0.14139778816E+04  0.14141844173E+04  0.10000000000E+02 0. -1.
</event>
<event>
 5    1  0.1146201E-008  0.3770373E+03  0.7957747E-01  0.3464161E+00
         13   -1    0    0    0    0  0.00000000000E+00  0.00000000000E+00  0.14999999963E+04  0.15000000000E+04  0.10566000000E+00 0. -1.
        994   -1    0    0    0    0 -0.00000000000E+00 -0.00000000000E+00  0.11368683772E-12  0.17120000000E+03  0.17120000000E+03 0.  0.
         13    1    1    2    0    0 -0.20116075360E+02  0.33425433105E+02  0.12879317308E+03  0.13457194605E+03  0.10566000000E+00 0. -1.
        994    1    1    2    0    0  0.68439866802E+01 -0.30549165878E+02  0.89521239543E+01  0.17426896515E+03  0.17120000000E+03 0.  0.
        998    1    1    2    0    0  0.13272088680E+02 -0.28762672267E+01  0.13622546992E+04  0.13623590888E+04  0.10000000000E+02 0. -1.
</event>
<event>
 5    1  0.2184383E-008  0.3859187E+03  0.7957747E-01  0.3425785E+00
         13   -1    0    0    0    0  0.00000000000E+00  0.00000000000E+00  0.14999999963E+04  0.15000000000E+04  0.10566000000E+00 0. -1.
        994   -1    0    0    0    0 -0.00000000000E+00 -0.00000000000E+00  0.11368683772E-12  0.17120000000E+03  0.17120000000E+03 0.  0.
         13    1    1    2    0    0  0.92065538931E+01 -0.77664787396E+01  0.63141985907E+02  0.64280637636E+02  0.10566000000E+00 0. -1.
        994    1    1    2    0    0 -0.64657913200E+01  0.23022479040E+01  0.13291721245E+01  0.17134267858E+03  0.17120000000E+03 0.  0.
        998    1    1    2    0    0 -0.27407625731E+01  0.54642308356E+01  0.14355288382E+04  0.14355766838E+04  0.10000000000E+02 0. -1.
</event>
<event>
 5    1  0.1146201E-008  0.3809193E+03  0.7957747E-01  0.3447166E+00
         13   -1    0    0    0    0  0.00000000000E+00  0.00000000000E+00  0.14999999963E+04  0.15000000000E+04  0.10566000000E+00 0. -1.
        994   -1    0    0    0    0 -0.00000000000E+00 -0.00000000000E+00  0.11368683772E-12  0.17120000000E+03  0.17120000000E+03 0.  0.
         13    1    1    2    0    0 -0.71656224378E+02 -0.25007011679E+03  0.88242598145E+03  0.91997027219E+03  0.10566000000E+00 0. -1.
        994    1    1    2    0    0  0.72295141052E+02  0.27343326626E+03  0.34632856712E+03  0.47879562960E+03  0.17120000000E+03 0.  0.
        998    1    1    2    0    0 -0.63891667368E+00 -0.23363149472E+02  0.27124544771E+03  0.27243409821E+03  0.10000000000E+02 0.  1.
</event>
<event>
 5    1  0.1146201E-008  0.3856585E+03  0.7957747E-01  0.3426884E+00
         13   -1    0    0    0    0  0.00000000000E+00  0.00000000000E+00  0.14999999963E+04  0.15000000000E+04  0.10566000000E+00 0. -1.
        994   -1    0    0    0    0 -0.00000000000E+00 -0.00000000000E+00  0.11368683772E-12  0.17120000000E+03  0.17120000000E+03 0.  0.
         13    1    1    2    0    0 -0.70092194434E+01 -0.12550123633E+02  0.74451867243E+02  0.75826950752E+02  0.10566000000E+00 0. -1.
        994    1    1    2    0    0  0.11223108395E+02  0.15225354713E+02  0.24785181571E+01  0.17225955022E+03  0.17120000000E+03 0.  0.
        998    1    1    2    0    0 -0.42138889512E+01 -0.26752310801E+01  0.14230696109E+04  0.14231134990E+04  0.10000000000E+02 0. -1.
</event>
<event>
 5    1  0.1146201E-008  0.3775461E+03  0.7957747E-01  0.3461913E+00
         13   -1    0    0    0    0  0.00000000000E+00  0.00000000000E+00  0.14999999963E+04  0.15000000000E+04  0.10566000000E+00 0.  1.
        994   -1    0    0    0    0 -0.00000000000E+00 -0.00000000000E+00  0.11368683772E-12  0.17120000000E+03  0.17120000000E+03 0.  0.
         13    1    1    2    0    0 -0.16777270141E+02 -0.15380508556E+02  0.46776312796E+02  0.52019913876E+02  0.10566000000E+00 0.  1.
        994    1    1    2    0    0  0.26586399615E+01  0.12581595820E+02  0.59345300512E+01  0.17178481763E+03  0.17120000000E+03 0.  0.
        998    1    1    2    0    0  0.14118630180E+02  0.27989127361E+01  0.14472891534E+04  0.14473952685E+04  0.10000000000E+02 0.  1.
</event>
<event>
 5    1  0.1146201E-008  0.3706159E+03  0.7957747E-01  0.3493065E+00
         13   -1    0    0    0    0  0.00000000000E+00  0.00000000000E+00  0.14999999963E+04  0.15000000000E+04  0.10566000000E+00 0.  1.
        994   -1    0    0    0    0 -0.00000000000E+00 -0.00000000000E+00  0.11368683772E-12  0.17120000000E+03  0.17120000000E+03 0.  0.
         13    1    1    2    0    0 -0.97582154009E+02 -0.45503594710E+01  0.44920647084E+03  0.45970582677E+03  0.10566000000E+00 0.  1.
        994    1    1    2    0    0  0.51836414630E+02 -0.33695037777E+02  0.24779557150E+02  0.18370039713E+03  0.17120000000E+03 0.  0.
        998    1    1    2    0    0  0.45745739379E+02  0.38245397248E+02  0.10260139683E+04  0.10277937761E+04  0.10000000000E+02 0.  1.
</event>
<event>
 5    1  0.1146201E-008  0.3792896E+03  0.7957747E-01  0.3454258E+00
         13   -1    0    0    0    0  0.00000000000E+00  0.00000000000E+00  0.14999999963E+04  0.15000000000E+04  0.10566000000E+00 0.  1.
        994   -1    0    0    0    0 -0.00000000000E+00 -0.00000000000E+00  0.11368683772E-12  0.17120000000E+03  0.17120000000E+03 0.  0.
         13    1    1    2    0    0 -0.93119616012E+01 -0.40044134092E+01 -0.42372381877E+01  0.10986960777E+02  0.10566000000E+00 0.  1.
        994    1    1    2    0    0  0.10817607699E+02  0.77986750732E+01  0.16580644115E+02  0.17251723893E+03  0.17120000000E+03 0.  0.
        998    1    1    2    0    0 -0.15056460974E+01 -0.37942616640E+01  0.14876565904E+04  0.14876958003E+04  0.10000000000E+02 0.  1.
</event>
<event>
 5    1  0.1146201E-008  0.3807145E+03  0.7957747E-01  0.3448053E+00
         13   -1    0    0    0    0  0.00000000000E+00  0.00000000000E+00  0.14999999963E+04  0.15000000000E+04  0.10566000000E+00 0. -1.
        994   -1    0    0    0    0 -0.00000000000E+00 -0.00000000000E+00  0.11368683772E-12  0.17120000000E+03  0.17120000000E+03 0.  0.
         13    1    1    2    0    0  0.11370675010E+02 -0.12877026560E+02  0.37780969917E+02  0.41503288003E+02  0.10566000000E+00 0. -1.
        994    1    1    2    0    0 -0.60527072179E+01  0.89886471035E+01  0.41646570592E+01  0.17159316831E+03  0.17120000000E+03 0.  0.
        998    1    1    2    0    0 -0.53179677917E+01  0.38883794563E+01  0.14580543693E+04  0.14581035437E+04  0.10000000000E+02 0. -1.
</event>
<event>
 5    1  0.1146201E-008  0.3835279E+03  0.7957747E-01  0.3435940E+00
         13   -1    0    0    0    0  0.00000000000E+00  0.00000000000E+00  0.14999999963E+04  0.15000000000E+04  0.10566000000E+00 0.  1.
        994   -1    0    0    0    0 -0.00000000000E+00 -0.00000000000E+00  0.11368683772E-12  0.17120000000E+03  0.17120000000E+03 0.  0.
         13    1    1    2    0    0 -0.38513365439E+01  0.10430281063E+02  0.24971106720E+02  0.27334792684E+02  0.10566000000E+00 0.  1.
        994    1    1    2    0    0  0.32956350823E+01 -0.11953878065E+02  0.28710152378E+01  0.17167247636E+03  0.17120000000E+03 0.  0.
        998    1    1    2    0    0  0.55570146160E+00  0.15235970027E+01  0.14721578743E+04  0.14721927310E+04  0.10000000000E+02 0.  1.
</event>
<event>
 5    1  0.1146201E-008  0.3832505E+03  0.7957747E-01  0.3437126E+00
         13   -1    0    0    0    0  0.00000000000E+00  0.00000000000E+00  0.14999999963E+04  0.15000000000E+04  0.10566000000E+00 0. -1.
        994   -1    0    0    0    0 -0.00000000000E+00 -0.00000000000E+00  0.11368683772E-12  0.17120000000E+03  0.17120000000E+03 0.  0.
         13    1    1    2    0    0 -0.21496642361E+02 -0.10723886631E+02  0.10337863021E+03  0.10613321688E+03  0.10566000000E+00 0. -1.
        994    1    1    2    0    0  0.25635650950E+02  0.17948696741E+02  0.57470436831E+01  0.17413159054E+03  0.17120000000E+03 0.  0.
        998    1    1    2    0    0 -0.41390085885E+01 -0.72248101100E+01  0.13908743224E+04  0.13909351926E+04  0.10000000000E+02 0. -1.
</event>
<event>
 5    1  0.1146201E-008  0.4245685E+03  0.7957747E-01  0.3277439E+00
         13   -1    0    0    0    0  0.00000000000E+00  0.00000000000E+00  0.14999999963E+04  0.15000000000E+04  0.10566000000E+00 0. -1.
        994   -1    0    0    0    0 -0.00000000000E+00 -0.00000000000E+00  0.11368683772E-12  0.17120000000E+03  0.17120000000E+03 0.  0.
         13    1    1    2    0    0  0.67703258369E+02 -0.68026390439E+02  0.88503382955E+02  0.13055336437E+03  0.10566000000E+00 0. -1.
        994    1    1    2    0    0 -0.84192900303E+02  0.48586788708E+02  0.85948150759E+02  0.21481537449E+03  0.17120000000E+03 0.  0.
        998    1    1    2    0    0  0.16489641934E+02  0.19439601731E+02  0.13255484626E+04  0.13258312611E+04  0.10000000000E+02 0. -1.
</event>
<event>
 5    1  0.1146201E-008  0.3774246E+03  0.7957747E-01  0.3462450E+00
         13   -1    0    0    0    0  0.00000000000E+00  0.00000000000E+00  0.14999999963E+04  0.15000000000E+04  0.10566000000E+00 0. -1.
        994   -1    0    0    0    0 -0.00000000000E+00 -0.00000000000E+00  0.11368683772E-12  0.17120000000E+03  0.17120000000E+03 0.  0.
         13    1    1    2    0    0  0.88021816333E+01 -0.99352790667E+01  0.13709906737E+02  0.19082999722E+02  0.10566000000E+00 0. -1.
        994    1    1    2    0    0 -0.81404532834E+01  0.95726071743E+01  0.59714305350E+01  0.17176437282E+03  0.17120000000E+03 0.  0.
        998    1    1    2    0    0 -0.66172834996E+00  0.36267189240E+00  0.14803186590E+04  0.14803526275E+04  0.10000000000E+02 0. -1.
</event>
<event>
 5    1  0.1146201E-008  0.3812027E+03  0.7957747E-01  0.3445939E+00
         13   -1    0    0    0    0  0.00000000000E+00  0.00000000000E+00  0.14999999963E+04  0.15000000000E+04  0.10566000000E+00 0.  1.
        994   -1    0    0    0    0 -0.00000000000E+00 -0.00000000000E+00  0.11368683772E-12  0.17120000000E+03  0.17120000000E+03 0.  0.
         13    1    1    2    0    0 -0.10641823135E+03  0.15534682591E+02  0.62669383693E+03  0.63585481262E+03  0.10566000000E+00 0.  1.
        994    1    1    2    0    0  0.13076704813E+03 -0.11031180572E+02  0.63171516966E+02  0.22477052382E+03  0.17120000000E+03 0.  0.
        998    1    1    2    0    0 -0.24348816782E+02 -0.45035020184E+01  0.81013464239E+03  0.81057466356E+03  0.10000000000E+02 0.  1.
</event>
<event>
 5    1  0.1146201E-008  0.3835058E+03  0.7957747E-01  0.3436034E+00
         13   -1    0    0    0    0  0.00000000000E+00  0.00000000000E+00  0.14999999963E+04  0.15000000000E+04  0.10566000000E+00 0.  1.
        994   -1    0    0    0    0 -0.00000000000E+00 -0.00000000000E+00  0.11368683772E-12  0.17120000000E+03  0.17120000000E+03 0.  0.
         13    1    1    2    0    0 -0.10654659303E+02 -0.56033068967E+00  0.23059455060E+02  0.25408371988E+02  0.10566000000E+00 0.  1.
        994    1    1    2    0    0  0.94510714108E+01 -0.10774513415E+02  0.30529081170E+01  0.17182599669E+03  0.17120000000E+03 0.  0.
        998    1    1    2    0    0  0.12035878918E+01  0.11334844104E+02  0.14738876331E+04  0.14739656313E+04  0.10000000000E+02 0.  1.
</event>
<event>
 5    1  0.1146201E-008  0.3820968E+03  0.7957747E-01  0.3442079E+00
         13   -1    0    0    0    0  0.00000000000E+00  0.00000000000E+00  0.14999999963E+04  0.15000000000E+04  0.10566000000E+00 0. -1.
        994   -1    0    0    0    0 -0.00000000000E+00 -0.00000000000E+00  0.11368683772E-12  0.17120000000E+03  0.17120000000E+03 0.  0.
         13    1    1    2    0    0  0.18557487819E+02 -0.33758129105E+01  0.54560740538E+02  0.57729213047E+02  0.10566000000E+00 0. -1.
        994    1    1    2    0    0 -0.19297380628E+02  0.13207963370E+02  0.48959657111E+01  0.17285904569E+03  0.17120000000E+03 0.  0.
        998    1    1    2    0    0  0.73989280885E+00 -0.98321504591E+01  0.14405432900E+04  0.14406117413E+04  0.10000000000E+02 0. -1.
</event>
<event>
 5    1  0.1146201E-008  0.3754648E+03  0.7957747E-01  0.3471147E+00
         13   -1    0    0    0    0  0.00000000000E+00  0.00000000000E+00  0.14999999963E+04  0.15000000000E+04  0.10566000000E+00 0.  1.
        994   -1    0    0    0    0 -0.00000000000E+00 -0.00000000000E+00  0.11368683772E-12  0.17120000000E+03  0.17120000000E+03 0.  0.
         13    1    1    2    0    0 -0.11740540587E+02 -0.30928450870E+02  0.87742911520E+02  0.93772272301E+02  0.10566000000E+00 0.  1.
        994    1    1    2    0    0 -0.33949887083E+01  0.74494103742E+01  0.66677535202E+01  0.17152527103E+03  0.17120000000E+03 0.  0.
        998    1    1    2    0    0  0.15135529296E+02  0.23479040496E+02  0.14055893312E+04  0.14059024567E+04  0.10000000000E+02 0.  1.
</event>
<event>
 5    1  0.1146201E-008  0.3850624E+03  0.7957747E-01  0.3429408E+00
         13   -1    0    0    0    0  0.00000000000E+00  0.00000000000E+00  0.14999999963E+04  0.15000000000E+04  0.10566000000E+00 0.  1.
        994   -1    0    0    0    0 -0.00000000000E+00 -0.00000000000E+00  0.11368683772E-12  0.17120000000E+03  0.17120000000E+03 0.  0.
         13    1    1    2    0    0 -0.29000281325E+01  0.11634137208E+02  0.45003016132E+02  0.46573017260E+02  0.10566000000E+00 0.  1.
        994    1    1    2    0    0 -0.12965902343E+02 -0.11262549355E+02  0.25696003213E+01  0.17207847770E+03  0.17120000000E+03 0.  0.
        998    1    1    2    0    0  0.15865930475E+02 -0.37158785310E+00  0.14524273798E+04  0.14525485050E+04  0.10000000000E+02 0.  1.
</event>
<event>
 5    1  0.1146201E-008  0.3806028E+03  0.7957747E-01  0.3448538E+00
         13   -1    0    0    0    0  0.00000000000E+00  0.00000000000E+00  0.14999999963E+04  0.15000000000E+04  0.10566000000E+00 0. -1.
        994   -1    0    0    0    0 -0.00000000000E+00 -0.00000000000E+00  0.11368683772E-12  0.17120000000E+03  0.17120000000E+03 0.  0.
         13    1    1    2    0    0 -0.12579903649E+02 -0.24230006579E+02  0.97629577119E+02  0.10137501017E+03  0.10566000000E+00 0. -1.
        994    1    1    2    0    0  0.37698147001E+02 -0.31781007675E+01  0.86189872352E+01  0.17554195383E+03  0.17120000000E+03 0.  0.
        998    1    1    2    0    0 -0.25118243351E+02  0.27408107347E+02  0.13937514319E+04  0.13942830360E+04  0.10000000000E+02 0. -1.
</event>
<event>
 5    1  0.1146201E-008  0.3721063E+03  0.7957747E-01  0.3486266E+00
         13   -1    0    0    0    0  0.00000000000E+00  0.00000000000E+00  0.14999999963E+04  0.15000000000E+04  0.10566000000E+00 0.  1.
        994   -1    0    0    0    0 -0.00000000000E+00 -0.00000000000E+00  0.11368683772E-12  0.17120000000E+03  0.17120000000E+03 0.  0.
         13    1    1    2    0    0 -0.28586092131E+02  0.73544716308E+01  0.47698470742E+02  0.56092853301E+02  0.10566000000E+00 0.  1.
        994    1    1    2    0    0  0.36057862858E+02 -0.60993443175E+01  0.12777005595E+02  0.17552795603E+03  0.17120000000E+03 0.  0.
        998    1    1    2    0    0 -0.74717707274E+01 -0.12551273133E+01  0.14395245199E+04  0.14395791907E+04  0.10000000000E+02 0.  1.
</event>
<event>
 5    1  0.1146201E-008  0.3819103E+03  0.7957747E-01  0.3442882E+00
         13   -1    0    0    0    0  0.00000000000E+00  0.00000000000E+00  0.14999999963E+04  0.15000000000E+04  0.10566000000E+00 0.  1.
        994   -1    0    0    0    0 -0.00000000000E+00 -0.00000000000E+00  0.11368683772E-12  0.17120000000E+03  0.17120000000E+03 0.  0.
         13    1    1    2    0    0  0.74272196878E+01  0.21949539930E+02  0.85344230799E+02  0.88434126841E+02  0.10566000000E+00 0.  1.
        994    1    1    2    0    0  0.64995839969E+01 -0.13526756999E+02  0.39204302251E+01  0.17190121442E+03  0.17120000000E+03 0.  0.
        998    1    1    2    0    0 -0.13926803685E+02 -0.84227829312E+01  0.14107353353E+04  0.14108646587E+04  0.10000000000E+02 0.  1.
</event>
<event>
 5    1  0.1146201E-008  0.3739983E+03  0.7957747E-01  0.3477715E+00
         13   -1    0    0    0    0  0.00000000000E+00  0.00000000000E+00  0.14999999963E+04  0.15000000000E+04  0.10566000000E+00 0.  1.
        994   -1    0    0    0    0 -0.00000000000E+00 -0.00000000000E+00  0.11368683772E-12  0.17120000000E+03  0.17120000000E+03 0.  0.
         13    1    1    2    0    0  0.34057011785E+02  0.36862219223E+02  0.86720214130E+02  0.10019535898E+03  0.10566000000E+00 0.  1.
        994    1    1    2    0    0 -0.35250208744E+02 -0.36494934329E+02  0.22253641850E+02  0.17994199628E+03  0.17120000000E+03 0.  0.
        998    1    1    2    0    0  0.11931969589E+01 -0.36728489375E+00  0.13910261403E+04  0.13910626447E+04  0.10000000000E+02 0.  0.
</event>
<event>
 5    1  0.1146201E-008  0.3756262E+03  0.7957747E-01  0.3470427E+00
         13   -1    0    0    0    0  0.00000000000E+00  0.00000000000E+00  0.14999999963E+04  0.15000000000E+04  0.10566000000E+00 0.  1.
        994   -1    0    0    0    0 -0.00000000000E+00 -0.00000000000E+00  0.11368683772E-12  0.17120000000E+03  0.17120000000E+03 0.  0.
         13    1    1    2    0    0  0.19630377067E+02  0.10471769915E+02  0.38720079674E+02  0.44657198781E+02  0.10566000000E+00 0.  1.
        994    1    1    2    0    0  0.12921792752E+02 -0.10493352203E+02  0.72979261031E+01  0.17216208321E+03  0.17120000000E+03 0.  0.
        998    1    1    2    0    0 -0.32552169819E+02  0.21582287986E-01  0.14539819905E+04  0.14543807180E+04  0.10000000000E+02 0.  1.
</event>
<event>
 5    1  0.1146201E-008  0.3795713E+03  0.7957747E-01  0.3453027E+00
         13   -1    0    0    0    0  0.00000000000E+00  0.00000000000E+00  0.14999999963E+04  0.15000000000E+04  0.10566000000E+00 0.  1.
        994   -1    0    0    0    0 -0.00000000000E+00 -0.00000000000E+00  0.11368683772E-12  0.17120000000E+03  0.17120000000E+03 0.  0.
         13    1    1    2    0    0  0.37570592284E+02  0.36528647796E+02  0.27393657515E+03  0.27890347772E+03  0.10566000000E+00 0.  1.
        994    1    1    2    0    0 -0.36638653579E+02 -0.28428076796E+02  0.11582871159E+02  0.17774743146E+03  0.17120000000E+03 0.  0.
        998    1    1    2    0    0 -0.93193870541E+00 -0.81005709994E+01  0.12144805500E+04  0.12145490908E+04  0.10000000000E+02 0.  1.
</event>
<event>
 5    1  0.1146201E-008  0.3787885E+03  0.7957747E-01  0.3456451E+00
         13   -1    0    0    0    0  0.00000000000E+00  0.00000000000E+00  0.14999999963E+04  0.15000000000E+04  0.10566000000E+00 0.  1.
        994   -1    0    0    0    0 -0.00000000000E+00 -0.00000000000E+00  0.11368683772E-12  0.17120000000E+03  0.17120000000E+03 0.  0.
         13    1    1    2    0    0  0.20480326512E+02  0.12330281901E+01  0.40401044048E+02  0.45312466902E+02  0.10566000000E+00 0.  1.
        994    1    1    2    0    0 -0.28955516953E+02 -0.24837355111E+01  0.75859031077E+01  0.17381477736E+03  0.17120000000E+03 0.  0.
        998    1    1    2    0    0  0.84751904407E+01  0.12507073210E+01  0.14520130491E+04  0.14520727557E+04  0.10000000000E+02 0.  1.
</event>
<event>
 5    1  0.1146201E-008  0.3834322E+03  0.7957747E-01  0.3436349E+00
         13   -1    0    0    0    0  0.00000000000E+00  0.00000000000E+00  0.14999999963E+04  0.15000000000E+04  0.10566000000E+00 0. -1.
        994   -1    0    0    0    0 -0.00000000000E+00 -0.00000000000E+00  0.11368683772E-12  0.17120000000E+03  0.17120000000E+03 0.  0.
         13    1    1    2    0    0  0.13136851444E+02 -0.12503124467E+02  0.67907743675E+02  0.70287821153E+02  0.10566000000E+00 0. -1.
        994    1    1    2    0    0 -0.54039007955E+01  0.10099429292E+02  0.28443218567E+01  0.17160632501E+03  0.17120000000E+03 0.  0.
        998    1    1    2    0    0 -0.77329506485E+01  0.24036951755E+01  0.14292479307E+04  0.14293058538E+04  0.10000000000E+02 0. -1.
</event>
<event>
 5    1  0.1146201E-008  0.3857023E+03  0.7957747E-01  0.3426699E+00
         13   -1    0    0    0    0  0.00000000000E+00  0.00000000000E+00  0.14999999963E+04  0.15000000000E+04  0.10566000000E+00 0. -1.
        994   -1    0    0    0    0 -0.00000000000E+00 -0.00000000000E+00  0.11368683772E-12  0.17120000000E+03  0.17120000000E+03 0.  0.
         13    1    1    2    0    0 -0.11244702166E+03 -0.69591413840E+01  0.27445044943E+03  0.29667460742E+03  0.10566000000E+00 0. -1.
        994    1    1    2    0    0  0.10228732689E+03 -0.21266573406E+02  0.61119962354E+02  0.20966653091E+03  0.17120000000E+03 0.  0.
        998    1    1    2    0    0  0.10159694769E+02  0.28225714790E+02  0.11644295845E+04  0.11648588617E+04  0.10000000000E+02 0. -1.
</event>
<event>
 5    1  0.1146201E-008  0.3839858E+03  0.7957747E-01  0.3433985E+00
         13   -1    0    0    0    0  0.00000000000E+00  0.00000000000E+00  0.14999999963E+04  0.15000000000E+04  0.10566000000E+00 0.  1.
        994   -1    0    0    0    0 -0.00000000000E+00 -0.00000000000E+00  0.11368683772E-12  0.17120000000E+03  0.17120000000E+03 0.  0.
         13    1    1    2    0    0 -0.11987942154E+02 -0.12389749870E+02  0.73981837789E+02  0.75964071413E+02  0.10566000000E+00 0.  1.
        994    1    1    2    0    0 -0.65482181432E+01  0.65284151171E+01  0.24166396489E+01  0.17146655508E+03  0.17120000000E+03 0.  0.
        998    1    1    2    0    0  0.18536160297E+02  0.58613347526E+01  0.14236015188E+04  0.14237693735E+04  0.10000000000E+02 0.  1.
</event>
<event>
 5    1  0.1146201E-008  0.4010704E+03  0.7957747E-01  0.3364250E+00
         13   -1    0    0    0    0  0.00000000000E+00  0.00000000000E+00  0.14999999963E+04  0.15000000000E+04  0.10566000000E+00 0.  1.
        994   -1    0    0    0    0 -0.00000000000E+00 -0.00000000000E+00  0.11368683772E-12  0.17120000000E+03  0.17120000000E+03 0.  0.
         13    1    1    2    0    0 -0.53913691858E+01 -0.61422631758E+02  0.70158074232E+02  0.93402211418E+02  0.10566000000E+00 0.  1.
        994    1    1    2    0    0 -0.32901662619E+02 -0.31960859399E+02  0.36737006889E+02  0.18100570050E+03  0.17120000000E+03 0.  0.
        998    1    1    2    0    0  0.38293031805E+02  0.93383491157E+02  0.13931049152E+04  0.13967920881E+04  0.10000000000E+02 0.  1.
</event>
<event>
 5    1  0.1146201E-008  0.3776481E+03  0.7957747E-01  0.3461464E+00
         13   -1    0    0    0    0  0.00000000000E+00  0.00000000000E+00  0.14999999963E+04  0.15000000000E+04  0.10566000000E+00 0.  1.
        994   -1    0    0    0    0 -0.00000000000E+00 -0.00000000000E+00  0.11368683772E-12  0.17120000000E+03  0.17120000000E+03 0.  0.
         13    1    1    2    0    0  0.59394149180E+01 -0.29431126806E+03  0.82158042290E+03  0.87272492896E+03  0.10566000000E+00 0.  1.
        994    1    1    2    0    0  0.23625985962E+00  0.30798319241E+03  0.46068180136E+03  0.57999212472E+03  0.17120000000E+03 0.  0.
        998    1    1    2    0    0 -0.61756747776E+01 -0.13671924349E+02  0.21773777201E+03  0.21848294633E+03  0.10000000000E+02 0.  1.
</event>
<event>
 5    1  0.1146201E-008  0.3781518E+03  0.7957747E-01  0.3459246E+00
         13   -1    0    0    0    0  0.00000000000E+00  0.00000000000E+00  0.14999999963E+04  0.15000000000E+04  0.10566000000E+00 0. -1.
        994   -1    0    0    0    0 -0.00000000000E+00 -0.00000000000E+00  0.11368683772E-12  0.17120000000E+03  0.17120000000E+03 0.  0.
         13    1    1    2    0    0 -0.31599543401E+02  0.30920932737E+02  0.19758420045E+03  0.20247015250E+03  0.10566000000E+00 0. -1.
        994    1    1    2    0    0  0.19845025620E+02 -0.92364290923E+01  0.66822569868E+01  0.17272298406E+03  0.17120000000E+03 0.  0.
        998    1    1    2    0    0  0.11754517781E+02 -0.21684503645E+02  0.12957335388E+04  0.12960068634E+04  0.10000000000E+02 0.  0.
</event>
<event>
 5    1  0.1146201E-008  0.3021470E+03  0.7957747E-01  0.3880809E+00
         13   -1    0    0    0    0  0.00000000000E+00  0.00000000000E+00  0.14999999963E+04  0.15000000000E+04  0.10566000000E+00 0.  1.
        994   -1    0    0    0    0 -0.00000000000E+00 -0.00000000000E+00  0.11368683772E-12  0.17120000000E+03  0.17120000000E+03 0.  0.
         13    1    1    2    0    0  0.10878500439E+03 -0.81672207087E+02  0.80727373199E+03  0.81865463788E+03  0.10566000000E+00 0.  1.
        994    1    1    2    0    0 -0.63988558430E+02  0.26945737720E+02  0.31423659117E+02  0.18739662415E+03  0.17120000000E+03 0.  0.
        998    1    1    2    0    0 -0.44796445956E+02  0.54726469367E+02  0.66130260517E+03  0.66514873797E+03  0.10000000000E+02 0.  1.
</event>
<event>
 5    1  0.1146201E-008  0.3823394E+03  0.7957747E-01  0.3441035E+00
         13   -1    0    0    0    0  0.00000000000E+00  0.00000000000E+00  0.14999999963E+04  0.15000000000E+04  0.10566000000E+00 0. -1.
        994   -1    0    0    0    0 -0.00000000000E+00 -0.00000000000E+00  0.11368683772E-12  0.17120000000E+03  0.17120000000E+03 0.  0.
         13    1    1    2    0    0 -0.18733962986E+00 -0.30106634103E+02  0.13182419240E+03  0.13521861329E+03  0.10566000000E+00 0. -1.
        994    1    1    2    0    0  0.13649902641E+02  0.39658784375E+02  0.88144879421E+01  0.17648307063E+03  0.17120000000E+03 0.  0.
        998    1    1    2    0    0 -0.13462563011E+02 -0.95521502721E+01  0.13593613159E+04  0.13594983161E+04  0.10000000000E+02 0. -1.
</event>
<event>
 5    1  0.1146201E-008  0.4027715E+03  0.7957747E-01  0.3357629E+00
         13   -1    0    0    0    0  0.00000000000E+00  0.00000000000E+00  0.14999999963E+04  0.15000000000E+04  0.10566000000E+00 0.  1.
        994   -1    0    0    0    0 -0.00000000000E+00 -0.00000000000E+00  0.11368683772E-12  0.17120000000E+03  0.17120000000E+03 0.  0.
         13    1    1    2    0    0  0.21345500933E+02  0.16410964999E+02 -0.13270205941E+00  0.26925433259E+02  0.10566000000E+00 0.  1.
        994    1    1    2    0    0 -0.18979339794E+02 -0.89269540520E+01  0.31190638620E+02  0.17527749937E+03  0.17120000000E+03 0.  0.
        998    1    1    2    0    0 -0.23661611394E+01 -0.74840109470E+01  0.14689420597E+04  0.14689970674E+04  0.10000000000E+02 0.  1.
</event>
<event>
 5    1  0.1146201E-008  0.3846873E+03  0.7957747E-01  0.3431000E+00
         13   -1    0    0    0    0  0.00000000000E+00  0.00000000000E+00  0.14999999963E+04  0.15000000000E+04  0.10566000000E+00 0. -1.
        994   -1    0    0    0    0 -0.00000000000E+00 -0.00000000000E+00  0.11368683772E-12  0.17120000000E+03  0.17120000000E+03 0.  0.
         13    1    1    2    0    0 -0.19120541448E+02  0.93059684961E+01  0.12021780555E+03  0.12208410253E+03  0.10566000000E+00 0. -1.
        994    1    1    2    0    0  0.16064349153E+02 -0.11474023211E+02  0.30694759111E+01  0.17236176550E+03  0.17120000000E+03 0.  0.
        998    1    1    2    0    0  0.30561922945E+01  0.21680547150E+01  0.13767127148E+04  0.13767541320E+04  0.10000000000E+02 0. -1.
</event>
<event>
 5    1  0.1146201E-008  0.3827388E+03  0.7957747E-01  0.3439319E+00
         13   -1    0    0    0    0  0.00000000000E+00  0.00000000000E+00  0.14999999963E+04  0.15000000000E+04  0.10566000000E+00 0. -1.
        994   -1    0    0    0    0 -0.00000000000E+00 -0.00000000000E+00  0.11368683772E-12  0.17120000000E+03  0.17120000000E+03 0.  0.
         13    1    1    2    0    0 -0.85329701966E+01 -0.13509842219E+02  0.48711703099E+02  0.51265666873E+02  0.10566000000E+00 0. -1.
        994    1    1    2    0    0 -0.59896899899E+01 -0.24243671308E+01  0.28952884753E+01  0.17134636453E+03  0.17120000000E+03 0.  0.
        998    1    1    2    0    0  0.14522660186E+02  0.15934209350E+02  0.14483930047E+04  0.14485879686E+04  0.10000000000E+02 0. -1.
</event>
<event>
 5    1  0.1146201E-008  0.3829784E+03  0.7957747E-01  0.3438292E+00
         13   -1    0    0    0    0  0.00000000000E+00  0.00000000000E+00  0.14999999963E+04  0.15000000000E+04  0.10566000000E+00 0.  1.
        994   -1    0    0    0    0 -0.00000000000E+00 -0.00000000000E+00  0.11368683772E-12  0.17120000000E+03  0.17120000000E+03 0.  0.
         13    1    1    2    0    0  0.60274521603E+01  0.18511441327E+02  0.69109039421E+02  0.71798844930E+02  0.10566000000E+00 0.  1.
        994    1    1    2    0    0 -0.13455655652E+02 -0.14510877974E+02  0.39346473414E+01  0.17238486505E+03  0.17120000000E+03 0.  0.
        998    1    1    2    0    0  0.74282034919E+01 -0.40005633527E+01  0.14269563095E+04  0.14270162900E+04  0.10000000000E+02 0.  1.
</event>
<event>
 5    1  0.1146201E-008  0.3838232E+03  0.7957747E-01  0.3434679E+00
         13   -1    0    0    0    0  0.00000000000E+00  0.00000000000E+00  0.14999999963E+04  0.15000000000E+04  0.10566000000E+00 0.  1.
        994   -1    0    0    0    0 -0.00000000000E+00 -0.00000000000E+00  0.11368683772E-12  0.17120000000E+03  0.17120000000E+03 0.  0.
         13    1    1    2    0    0 -0.70580974775E+01  0.16060470326E+02  0.62025030552E+02  0.64458289041E+02  0.10566000000E+00 0.  1.
        994    1    1    2    0    0  0.22150953189E+01 -0.33429142250E+02  0.59297126555E+01  0.17454803262E+03  0.17120000000E+03 0.  0.
        998    1    1    2    0    0  0.48430021587E+01  0.17368671924E+02  0.14320452531E+04  0.14321936783E+04  0.10000000000E+02 0.  1.
</event>
<event>
 5    1  0.1650534E-008  0.3847754E+03  0.7957747E-01  0.3430625E+00
         13   -1    0    0    0    0  0.00000000000E+00  0.00000000000E+00  0.14999999963E+04  0.15000000000E+04  0.10566000000E+00 0. -1.
        994   -1    0    0    0    0 -0.00000000000E+00 -0.00000000000E+00  0.11368683772E-12  0.17120000000E+03  0.17120000000E+03 0.  0.
         13    1    1    2    0    0  0.43658975003E+01 -0.10254194855E+02  0.35571272808E+02  0.37276483020E+02  0.10566000000E+00 0. -1.
        994    1    1    2    0    0 -0.18331908979E+01  0.62413387448E+01  0.18809546993E+01  0.17133386381E+03  0.17120000000E+03 0.  0.
        998    1    1    2    0    0 -0.25327066023E+01  0.40128561097E+01  0.14625477688E+04  0.14625896532E+04  0.10000000000E+02 0. -1.
</event>
<event>
 5    1  0.1146201E-008  0.3834650E+03  0.7957747E-01  0.3436209E+00
         13   -1    0    0    0    0  0.00000000000E+00  0.00000000000E+00  0.14999999963E+04  0.15000000000E+04  0.10566000000E+00 0.  1.
        994   -1    0    0    0    0 -0.00000000000E+00 -0.00000000000E+00  0.11368683772E-12  0.17120000000E+03  0.17120000000E+03 0.  0.
         13    1    1    2    0    0  0.18167144662E+02 -0.19549033300E+02  0.12574141649E+03  0.12854230756E+03  0.10566000000E+00 0.  1.
        994    1    1    2    0    0 -0.21157017916E+02  0.33595656974E+02  0.76214664164E+01  0.17590853966E+03  0.17120000000E+03 0.  0.
        998    1    1    2    0    0  0.29898732545E+01 -0.14046623674E+02  0.13666371134E+04  0.13667491528E+04  0.10000000000E+02 0.  1.
</event>
<event>
 5    1  0.1146201E-008  0.3800784E+03  0.7957747E-01  0.3450817E+00
         13   -1    0    0    0    0  0.00000000000E+00  0.00000000000E+00  0.14999999963E+04  0.15000000000E+04  0.10566000000E+00 0.  1.
        994   -1    0    0    0    0 -0.00000000000E+00 -0.00000000000E+00  0.11368683772E-12  0.17120000000E+03  0.17120000000E+03 0.  0.
         13    1    1    2    0    0  0.19989689240E+02  0.19782249620E+02  0.99522757081E+02  0.10342009194E+03  0.10566000000E+00 0.  1.
        994    1    1    2    0    0 -0.15897247277E+02  0.36429016961E+01  0.49830234503E+01  0.17204727178E+03  0.17120000000E+03 0.  0.
        998    1    1    2    0    0 -0.40924419632E+01 -0.23425151316E+02  0.13954942157E+04  0.13957326363E+04  0.10000000000E+02 0.  1.
</event>
<event>
 5    1  0.1146201E-008  0.3836655E+03  0.7957747E-01  0.3435352E+00
         13   -1    0    0    0    0  0.00000000000E+00  0.00000000000E+00  0.14999999963E+04  0.15000000000E+04  0.10566000000E+00 0. -1.
        994   -1    0    0    0    0 -0.00000000000E+00 -0.00000000000E+00  0.11368683772E-12  0.17120000000E+03  0.17120000000E+03 0.  0.
         13    1    1    2    0    0 -0.23489660595E+02  0.38660086811E+01  0.11598796368E+03  0.11840578136E+03  0.10566000000E+00 0. -1.
        994    1    1    2    0    0  0.23791117868E+02  0.38187687430E+01  0.42141998363E+01  0.17293871679E+03  0.17120000000E+03 0.  0.
        998    1    1    2    0    0 -0.30145727300E+00 -0.76847774242E+01  0.13797978328E+04  0.13798555018E+04  0.10000000000E+02 0. -1.
</event>
<event>
 5    1  0.1146201E-008  0.3829293E+03  0.7957747E-01  0.3438502E+00
         13   -1    0    0    0    0  0.00000000000E+00  0.00000000000E+00  0.14999999963E+04  0.15000000000E+04  0.10566000000E+00 0. -1.
        994   -1    0    0    0    0 -0.00000000000E+00 -0.00000000000E+00  0.11368683772E-12  0.17120000000E+03  0.17120000000E+03 0.  0.
         13    1    1    2    0    0 -0.28205564362E+02  0.52519770188E+01  0.14806519327E+03  0.15081926186E+03  0.10566000000E+00 0. -1.
        994    1    1    2    0    0  0.21134079678E+02 -0.74506103173E+01  0.43260633890E+01  0.17271454989E+03  0.17120000000E+03 0.  0.
        998    1    1    2    0    0  0.70714846839E+01  0.21986332984E+01  0.13476087396E+04  0.13476661883E+04  0.10000000000E+02 0. -1.
</event>
<event>
 5    1  0.1146201E-008  0.3712244E+03  0.7957747E-01  0.3490283E+00
         13   -1    0    0    0    0  0.00000000000E+00  0.00000000000E+00  0.14999999963E+04  0.15000000000E+04  0.10566000000E+00 0.  1.
        994   -1    0    0    0    0 -0.00000000000E+00 -0.00000000000E+00  0.11368683772E-12  0.17120000000E+03  0.17120000000E+03 0.  0.
         13    1    1    2    0    0  0.12117201562E+03 -0.13380277227E+03  0.70090490597E+03  0.72377727072E+03  0.10566000000E+00 0.  1.
        994    1    1    2    0    0 -0.11977530892E+03  0.15385943353E+03  0.15358840646E+03  0.30152560176E+03  0.17120000000E+03 0.  0.
        998    1    1    2    0    0 -0.13967067013E+01 -0.20056661265E+02  0.64550668385E+03  0.64589712753E+03  0.10000000000E+02 0.  1.
</event>
<event>
 5    1  0.1146201E-008  0.3815963E+03  0.7957747E-01  0.3444237E+00
         13   -1    0    0    0    0  0.00000000000E+00  0.00000000000E+00  0.14999999963E+04  0.15000000000E+04  0.10566000000E+00 0.  1.
        994   -1    0    0    0    0 -0.00000000000E+00 -0.00000000000E+00  0.11368683772E-12  0.17120000000E+03  0.17120000000E+03 0.  0.
         13    1    1    2    0    0 -0.17732059624E+02  0.58151795155E+01  0.51049731506E+02  0.54353734942E+02  0.10566000000E+00 0.  1.
        994    1    1    2    0    0  0.11843912033E+02 -0.43353484010E+01  0.38586697481E+01  0.17170731735E+03  0.17120000000E+03 0.  0.
        998    1    1    2    0    0  0.58881475913E+01 -0.14798311145E+01  0.14450915950E+04  0.14451389477E+04  0.10000000000E+02 0.  1.
</event>
<event>
 5    1  0.1146201E-008  0.3853532E+03  0.7957747E-01  0.3428176E+00
         13   -1    0    0    0    0  0.00000000000E+00  0.00000000000E+00  0.14999999963E+04  0.15000000000E+04  0.10566000000E+00 0. -1.
        994   -1    0    0    0    0 -0.00000000000E+00 -0.00000000000E+00  0.11368683772E-12  0.17120000000E+03  0.17120000000E+03 0.  0.
         13    1    1    2    0    0  0.12011102946E+02 -0.12439874126E+02  0.10209493315E+03  0.10354903960E+03  0.10566000000E+00 0. -1.
        994    1    1    2    0    0  0.57928225293E+00  0.17984188397E+02  0.25191615101E+01  0.17216141488E+03  0.17120000000E+03 0.  0.
        998    1    1    2    0    0 -0.12590385199E+02 -0.55443142716E+01  0.13953859016E+04  0.13954895455E+04  0.10000000000E+02 0. -1.
</event>
<event>
 5    1  0.1146201E-008  0.3804698E+03  0.7957747E-01  0.3449115E+00
         13   -1    0    0    0    0  0.00000000000E+00  0.00000000000E+00  0.14999999963E+04  0.15000000000E+04  0.10566000000E+00 0.  1.
        994   -1    0    0    0    0 -0.00000000000E+00 -0.00000000000E+00  0.11368683772E-12  0.17120000000E+03  0.17120000000E+03 0.  0.
         13    1    1    2    0    0 -0.74577696740E+01  0.23320979296E+02  0.76496706727E+02  0.80319634635E+02  0.10566000000E+00 0.  1.
        994    1    1    2    0    0  0.13898862956E+01 -0.12897871179E+02  0.44580665383E+01  0.17174865712E+03  0.17120000000E+03 0.  0.
        998    1    1    2    0    0  0.60678833784E+01 -0.10423108117E+02  0.14190452230E+04  0.14191317082E+04  0.10000000000E+02 0.  1.
</event>
<event>
 5    1  0.1146201E-008  0.3812635E+03  0.7957747E-01  0.3445675E+00
         13   -1    0    0    0    0  0.00000000000E+00  0.00000000000E+00  0.14999999963E+04  0.15000000000E+04  0.10566000000E+00 0. -1.
        994   -1    0    0    0    0 -0.00000000000E+00 -0.00000000000E+00  0.11368683772E-12  0.17120000000E+03  0.17120000000E+03 0.  0.
         13    1    1    2    0    0 -0.39405155968E+02  0.31953188176E+02  0.69276353112E+02  0.85866156406E+02  0.10566000000E+00 0. -1.
        994    1    1    2    0    0  0.35177941861E+02 -0.15315650894E+02  0.22400744536E+02  0.17687082889E+03  0.17120000000E+03 0.  0.
        998    1    1    2    0    0  0.42272141062E+01 -0.16637537282E+02  0.14083228986E+04  0.14084630147E+04  0.10000000000E+02 0. -1.
</event>
<event>
 5    1  0.1146201E-008  0.3850620E+03  0.7957747E-01  0.3429409E+00
         13   -1    0    0    0    0  0.00000000000E+00  0.00000000000E+00  0.14999999963E+04  0.15000000000E+04  0.10566000000E+00 0.  1.
        994   -1    0    0    0    0 -0.00000000000E+00 -0.00000000000E+00  0.11368683772E-12  0.17120000000E+03  0.17120000000E+03 0.  0.
         13    1    1    2    0    0 -0.11570113194E+02 -0.14254471592E+02  0.97685053784E+02  0.99395363959E+02  0.10566000000E+00 0.  1.
        994    1    1    2    0    0  0.10811948410E+02  0.19137352619E+02  0.31894964891E+01  0.17263472820E+03  0.17120000000E+03 0.  0.
        998    1    1    2    0    0  0.75816478359E+00 -0.48828810266E+01  0.13991254460E+04  0.13991699078E+04  0.10000000000E+02 0.  1.
</event>
<event>
 5    1  0.1146201E-008  0.3771995E+03  0.7957747E-01  0.3463444E+00
         13   -1    0    0    0    0  0.00000000000E+00  0.00000000000E+00  0.14999999963E+04  0.15000000000E+04  0.10566000000E+00 0.  1.
        994   -1    0    0    0    0 -0.00000000000E+00 -0.00000000000E+00  0.11368683772E-12  0.17120000000E+03  0.17120000000E+03 0.  0.
         13    1    1    2    0    0  0.53136863487E+02 -0.76954682810E+01  0.26949577621E+03  0.27479215974E+03  0.10566000000E+00 0.  1.
        994    1    1    2    0    0 -0.27179704964E+02 -0.11692563528E+02  0.85131435781E+01  0.17394644583E+03  0.17120000000E+03 0.  0.
        998    1    1    2    0    0 -0.25957158523E+02  0.19388031809E+02  0.12219910765E+04  0.12224613944E+04  0.10000000000E+02 0.  1.
</event>
<event>
 5    1  0.1146201E-008  0.3803656E+03  0.7957747E-01  0.3449568E+00
         13   -1    0    0    0    0  0.00000000000E+00  0.00000000000E+00  0.14999999963E+04  0.15000000000E+04  0.10566000000E+00 0.  1.
        994   -1    0    0    0    0 -0.00000000000E+00 -0.00000000000E+00  0.11368683772E-12  0.17120000000E+03  0.17120000000E+03 0.  0.
         13    1    1    2    0    0 -0.27957746139E+02 -0.23462125422E+02  0.17618068507E+03  0.17992151582E+03  0.10566000000E+00 0.  1.
        994    1    1    2    0    0  0.13731056120E+02  0.54820131742E+01  0.46788813502E+01  0.17190092001E+03  0.17120000000E+03 0.  0.
        998    1    1    2    0    0  0.14226690019E+02  0.17980112247E+02  0.13191404299E+04  0.13193775642E+04  0.10000000000E+02 0.  1.
</event>
<event>
 5    1  0.1146201E-008  0.3744496E+03  0.7957747E-01  0.3475688E+00
         13   -1    0    0    0    0  0.00000000000E+00  0.00000000000E+00  0.14999999963E+04  0.15000000000E+04  0.10566000000E+00 0. -1.
        994   -1    0    0    0    0 -0.00000000000E+00 -0.00000000000E+00  0.11368683772E-12  0.17120000000E+03  0.17120000000E+03 0.  0.
         13    1    1    2    0    0  0.17155786647E+02 -0.32903909420E+01  0.18572336506E+02  0.25496873050E+02  0.10566000000E+00 0. -1.
        994    1    1    2    0    0 -0.18433393895E+02  0.10232786612E+02  0.84768602671E+01  0.17270146812E+03  0.17120000000E+03 0.  0.
        998    1    1    2    0    0  0.12776072480E+01 -0.69423956701E+01  0.14729507995E+04  0.14730016588E+04  0.10000000000E+02 0. -1.
</event>
<event>
 5    1  0.1146201E-008  0.3699172E+03  0.7957747E-01  0.3496272E+00
         13   -1    0    0    0    0  0.00000000000E+00  0.00000000000E+00  0.14999999963E+04  0.15000000000E+04  0.10566000000E+00 0.  1.
        994   -1    0    0    0    0 -0.00000000000E+00 -0.00000000000E+00  0.11368683772E-12  0.17120000000E+03  0.17120000000E+03 0.  0.
         13    1    1    2    0    0 -0.62993320096E+02 -0.50962473336E+02  0.43243001606E+03  0.43995575007E+03  0.10566000000E+00 0.  1.
        994    1    1    2    0    0 -0.48573574216E+01  0.44707290284E+02  0.16339559541E+02  0.17776039191E+03  0.17120000000E+03 0.  0.
        998    1    1    2    0    0  0.67850677517E+02  0.62551830514E+01  0.10512304207E+04  0.10534838580E+04  0.10000000000E+02 0.  1.
</event>
<event>
 5    1  0.1146201E-008  0.3778578E+03  0.7957747E-01  0.3460540E+00
         13   -1    0    0    0    0  0.00000000000E+00  0.00000000000E+00  0.14999999963E+04  0.15000000000E+04  0.10566000000E+00 0.  1.
        994   -1    0    0    0    0 -0.00000000000E+00 -0.00000000000E+00  0.11368683772E-12  0.17120000000E+03  0.17120000000E+03 0.  0.
         13    1    1    2    0    0  0.14592854084E+02  0.68592086435E+01  0.23108857773E+02  0.28178548670E+02  0.10566000000E+00 0.  1.
        994    1    1    2    0    0  0.15703953286E+01 -0.14493930652E+02  0.59343538316E+01  0.17192206584E+03  0.17120000000E+03 0.  0.
        998    1    1    2    0    0 -0.16163249412E+02  0.76347220084E+01  0.14709567847E+04  0.14710993855E+04  0.10000000000E+02 0.  1.
</event>
<event>
 5    1  0.1146201E-008  0.3848759E+03  0.7957747E-01  0.3430199E+00
         13   -1    0    0    0    0  0.00000000000E+00  0.00000000000E+00  0.14999999963E+04  0.15000000000E+04  0.10566000000E+00 0. -1.
        994   -1    0    0    0    0 -0.00000000000E+00 -0.00000000000E+00  0.11368683772E-12  0.17120000000E+03  0.17120000000E+03 0.  0.
         13    1    1    2    0    0 -0.23218586358E+01 -0.16151393131E+02  0.82281142562E+02  0.83883586672E+02  0.10566000000E+00 0. -1.
        994    1    1    2    0    0  0.59135862342E+01  0.34555855784E+01  0.18461257414E+01  0.17134689888E+03  0.17120000000E+03 0.  0.
        998    1    1    2    0    0 -0.35917275984E+01  0.12695807552E+02  0.14158727280E+04  0.14159695145E+04  0.10000000000E+02 0. -1.
</event>
<event>
 5    1  0.1146201E-008  0.3694107E+03  0.7957747E-01  0.3498603E+00
         13   -1    0    0    0    0  0.00000000000E+00  0.00000000000E+00  0.14999999963E+04  0.15000000000E+04  0.10566000000E+00 0.  1.
        994   -1    0    0    0    0 -0.00000000000E+00 -0.00000000000E+00  0.11368683772E-12  0.17120000000E+03  0.17120000000E+03 0.  0.
         13    1    1    2    0    0 -0.76294674122E+01  0.82188679158E+02  0.31589594684E+03  0.32650183483E+03  0.10566000000E+00 0.  1.
        994    1    1    2    0    0  0.37043961592E+02 -0.62245471920E+02  0.27982443629E+02  0.18798726291E+03  0.17120000000E+03 0.  0.
        998    1    1    2    0    0 -0.29414494180E+02 -0.19943207238E+02  0.11561216058E+04  0.11567109023E+04  0.10000000000E+02 0.  1.
</event>
<event>
 5    1  0.1146201E-008  0.3847764E+03  0.7957747E-01  0.3430621E+00
         13   -1    0    0    0    0  0.00000000000E+00  0.00000000000E+00  0.14999999963E+04  0.15000000000E+04  0.10566000000E+00 0.  1.
        994   -1    0    0    0    0 -0.00000000000E+00 -0.00000000000E+00  0.11368683772E-12  0.17120000000E+03  0.17120000000E+03 0.  0.
         13    1    1    2    0    0  0.96378085158E+01 -0.13107143473E+02  0.81868469010E+02  0.83469407241E+02  0.10566000000E+00 0.  1.
        994    1    1    2    0    0  0.78567927106E+01  0.56498936402E+01  0.20494765413E+01  0.17148554121E+03  0.17120000000E+03 0.  0.
        998    1    1    2    0    0 -0.17494601226E+02  0.74572498333E+01  0.14160820507E+04  0.14162450515E+04  0.10000000000E+02 0.  1.
</event>
<event>
 5    1  0.1146201E-008  0.2928511E+03  0.7957747E-01  0.3948415E+00
         13   -1    0    0    0    0  0.00000000000E+00  0.00000000000E+00  0.14999999963E+04  0.15000000000E+04  0.10566000000E+00 0. -1.
        994   -1    0    0    0    0 -0.00000000000E+00 -0.00000000000E+00  0.11368683772E-12  0.17120000000E+03  0.17120000000E+03 0.  0.
         13    1    1    2    0    0 -0.16591548862E+03 -0.80640540764E+02  0.76228376700E+03  0.78428782903E+03  0.10566000000E+00 0. -1.
        994    1    1    2    0    0  0.75995032607E+02  0.22341821460E+02  0.56031089725E+02  0.19678243057E+03  0.17120000000E+03 0.  0.
        998    1    1    2    0    0  0.89920456010E+02  0.58298719304E+02  0.68168513955E+03  0.69012974039E+03  0.10000000000E+02 0. -1.
</event>
<event>
 5    1  0.1146201E-008  0.3688018E+03  0.7957747E-01  0.3501416E+00
         13   -1    0    0    0    0  0.00000000000E+00  0.00000000000E+00  0.14999999963E+04  0.15000000000E+04  0.10566000000E+00 0. -1.
        994   -1    0    0    0    0 -0.00000000000E+00 -0.00000000000E+00  0.11368683772E-12  0.17120000000E+03  0.17120000000E+03 0.  0.
         13    1    1    2    0    0  0.25637021755E+02 -0.33122009551E+02  0.76147121597E+02  0.86906384648E+02  0.10566000000E+00 0. -1.
        994    1    1    2    0    0 -0.33168170963E+02  0.34407292279E+02  0.18300632641E+02  0.17868503710E+03  0.17120000000E+03 0.  0.
        998    1    1    2    0    0  0.75311492087E+01 -0.12852827279E+01  0.14055522420E+04  0.14056085783E+04  0.10000000000E+02 0. -1.
</event>
<event>
 5    1  0.1146201E-008  0.3765618E+03  0.7957747E-01  0.3466267E+00
         13   -1    0    0    0    0  0.00000000000E+00  0.00000000000E+00  0.14999999963E+04  0.15000000000E+04  0.10566000000E+00 0.  1.
        994   -1    0    0    0    0 -0.00000000000E+00 -0.00000000000E+00  0.11368683772E-12  0.17120000000E+03  0.17120000000E+03 0.  0.
         13    1    1    2    0    0 -0.15720858103E+02 -0.29497794292E+01  0.19456269419E+02  0.25187381006E+02  0.10566000000E+00 0.  1.
        994    1    1    2    0    0  0.72128028526E+01 -0.17584359894E+01  0.60652822500E+01  0.17146820192E+03  0.17120000000E+03 0.  0.
        998    1    1    2    0    0  0.85080552506E+01  0.47082154186E+01  0.14744784446E+04  0.14745444171E+04  0.10000000000E+02 0.  1.
</event>
<event>
 5    1  0.1146201E-008  0.3894029E+03  0.7957747E-01  0.3411211E+00
         13   -1    0    0    0    0  0.00000000000E+00  0.00000000000E+00  0.14999999963E+04  0.15000000000E+04  0.10566000000E+00 0.  1.
        994   -1    0    0    0    0 -0.00000000000E+00 -0.00000000000E+00  0.11368683772E-12  0.17120000000E+03  0.17120000000E+03 0.  0.
         13    1    1    2    0    0  0.56695600640E+02 -0.20113575435E+02  0.74013427061E+02  0.95377909382E+02  0.10566000000E+00 0.  1.
        994    1    1    2    0    0 -0.51557971531E+02  0.19295251941E+02  0.33056143386E+02  0.18284605490E+03  0.17120000000E+03 0.  0.
        998    1    1    2    0    0 -0.51376291087E+01  0.81832349355E+00  0.13929304258E+04  0.13929760357E+04  0.10000000000E+02 0.  1.
</event>
<event>
 5    1  0.1146201E-008  0.3826172E+03  0.7957747E-01  0.3439841E+00
         13   -1    0    0    0    0  0.00000000000E+00  0.00000000000E+00  0.14999999963E+04  0.15000000000E+04  0.10566000000E+00 0. -1.
        994   -1    0    0    0    0 -0.00000000000E+00 -0.00000000000E+00  0.11368683772E-12  0.17120000000E+03  0.17120000000E+03 0.  0.
         13    1    1    2    0    0 -0.26053176109E+02 -0.78277090273E+01  0.15760498738E+03  0.15993556273E+03  0.10566000000E+00 0. -1.
        994    1    1    2    0    0 -0.14261258191E+02  0.27387405688E+02  0.59841861496E+01  0.17406522904E+03  0.17120000000E+03 0.  0.
        998    1    1    2    0    0  0.40314434300E+02 -0.19559696661E+02  0.13364108227E+04  0.13371992082E+04  0.10000000000E+02 0. -1.
</event>
<event>
 5    1  0.1146201E-008  0.3790757E+03  0.7957747E-01  0.3455193E+00
         13   -1    0    0    0    0  0.00000000000E+00  0.00000000000E+00  0.14999999963E+04  0.15000000000E+04  0.10566000000E+00 0.  1.
        994   -1    0    0    0    0 -0.00000000000E+00 -0.00000000000E+00  0.11368683772E-12  0.17120000000E+03  0.17120000000E+03 0.  0.
         13    1    1    2    0    0  0.52104827664E+02  0.17185086675E+02  0.29191028379E+03  0.29702165783E+03  0.10566000000E+00 0.  1.
        994    1    1    2    0    0 -0.42086196661E+02 -0.12553796549E+02  0.11095515691E+02  0.17709149112E+03  0.17120000000E+03 0.  0.
        998    1    1    2    0    0 -0.10018631004E+02 -0.46312901258E+01  0.11969941968E+04  0.11970868511E+04  0.10000000000E+02 0. -1.
</event>
<event>
 5    1  0.1146201E-008  0.3853546E+03  0.7957747E-01  0.3428169E+00
         13   -1    0    0    0    0  0.00000000000E+00  0.00000000000E+00  0.14999999963E+04  0.15000000000E+04  0.10566000000E+00 0. -1.
        994   -1    0    0    0    0 -0.00000000000E+00 -0.00000000000E+00  0.11368683772E-12  0.17120000000E+03  0.17120000000E+03 0.  0.
         13    1    1    2    0    0 -0.41981167335E+01  0.16397177739E+02  0.96815270197E+02  0.98283769409E+02  0.10566000000E+00 0. -1.
        994    1    1    2    0    0 -0.40318193725E+01 -0.14985627456E+02  0.22456407143E+01  0.17191657134E+03  0.17120000000E+03 0.  0.
        998    1    1    2    0    0  0.82299361060E+01 -0.14115502825E+01  0.14009390854E+04  0.14009996593E+04  0.10000000000E+02 0. -1.
</event>
<event>
 5    1  0.1146201E-008  0.3759465E+03  0.7957747E-01  0.3469001E+00
         13   -1    0    0    0    0  0.00000000000E+00  0.00000000000E+00  0.14999999963E+04  0.15000000000E+04  0.10566000000E+00 0. -1.
        994   -1    0    0    0    0 -0.00000000000E+00 -0.00000000000E+00  0.11368683772E-12  0.17120000000E+03  0.17120000000E+03 0.  0.
         13    1    1    2    0    0  0.99487521128E+01 -0.12978955687E+02  0.19414130813E+02  0.25384061901E+02  0.10566000000E+00 0. -1.
        994    1    1    2    0    0  0.16802839105E+02  0.13939683474E+02  0.78102260931E+01  0.17276310315E+03  0.17120000000E+03 0.  0.
        998    1    1    2    0    0 -0.26751591218E+02 -0.96072778660E+00  0.14727756394E+04  0.14730528350E+04  0.10000000000E+02 0. -1.
</event>
<event>
 5    1  0.1146201E-008  0.3737997E+03  0.7957747E-01  0.3478609E+00
         13   -1    0    0    0    0  0.00000000000E+00  0.00000000000E+00  0.14999999963E+04  0.15000000000E+04  0.10566000000E+00 0.  1.
        994   -1    0    0    0    0 -0.00000000000E+00 -0.00000000000E+00  0.11368683772E-12  0.17120000000E+03  0.17120000000E+03 0.  0.
         13    1    1    2    0    0  0.17091482126E+02  0.70009396229E+01  0.20327827152E+02  0.27465681088E+02  0.10566000000E+00 0.  1.
        994    1    1    2    0    0 -0.13073916804E+02  0.14421751018E+01  0.78871050656E+01  0.17188558286E+03  0.17120000000E+03 0.  0.
        998    1    1    2    0    0 -0.40175653223E+01 -0.84431147248E+01  0.14717850641E+04  0.14718487360E+04  0.10000000000E+02 0.  1.
</event>
<event>
 5    1  0.1146201E-008  0.2790336E+03  0.7957747E-01  0.4058091E+00
         13   -1    0    0    0    0  0.00000000000E+00  0.00000000000E+00  0.14999999963E+04  0.15000000000E+04  0.10566000000E+00 0. -1.
        994   -1    0    0    0    0 -0.00000000000E+00 -0.00000000000E+00  0.11368683772E-12  0.17120000000E+03  0.17120000000E+03 0.  0.
         13    1    1    2    0    0  0.17495853896E+02 -0.13128754573E+03  0.64070513470E+03  0.65425194334E+03  0.10566000000E+00 0. -1.
        994    1    1    2    0    0  0.46230413450E+01  0.64882334584E+02  0.31126377366E+02  0.18576700789E+03  0.17120000000E+03 0.  0.
        998    1    1    2    0    0 -0.22118895241E+02  0.66405211148E+02  0.82816848421E+03  0.83118104877E+03  0.10000000000E+02 0.  1.
</event>
<event>
 5    1  0.1146201E-008  0.4011396E+03  0.7957747E-01  0.3363979E+00
         13   -1    0    0    0    0  0.00000000000E+00  0.00000000000E+00  0.14999999963E+04  0.15000000000E+04  0.10566000000E+00 0. -1.
        994   -1    0    0    0    0 -0.00000000000E+00 -0.00000000000E+00  0.11368683772E-12  0.17120000000E+03  0.17120000000E+03 0.  0.
         13    1    1    2    0    0  0.54953046209E+02 -0.63709490127E+02  0.10837262565E+03  0.13719830018E+03  0.10566000000E+00 0. -1.
        994    1    1    2    0    0 -0.48454337275E+02  0.66237331528E+02  0.55474188834E+02  0.19779290310E+03  0.17120000000E+03 0.  0.
        998    1    1    2    0    0 -0.64987089340E+01 -0.25278414012E+01  0.13361531818E+04  0.13362087967E+04  0.10000000000E+02 0. -1.
</event>
<event>
 5    1  0.1149671E-008  0.3863818E+03  0.7957747E-01  0.3423833E+00
         13   -1    0    0    0    0  0.00000000000E+00  0.00000000000E+00  0.14999999963E+04  0.15000000000E+04  0.10566000000E+00 0.  1.
        994   -1    0    0    0    0 -0.00000000000E+00 -0.00000000000E+00  0.11368683772E-12  0.17120000000E+03  0.17120000000E+03 0.  0.
         13    1    1    2    0    0  0.55382122977E+01  0.93586857861E+01  0.65732938681E+02  0.66626475119E+02  0.10566000000E+00 0.  1.
        994    1    1    2    0    0  0.66208886625E+01 -0.82280400484E+01  0.13109060323E+01  0.17153045002E+03  0.17120000000E+03 0.  0.
        998    1    1    2    0    0 -0.12159100960E+02 -0.11306457378E+01  0.14329561516E+04  0.14330430749E+04  0.10000000000E+02 0.  1.
</event>
<event>
 5    1  0.1146201E-008  0.3847938E+03  0.7957747E-01  0.3430547E+00
         13   -1    0    0    0    0  0.00000000000E+00  0.00000000000E+00  0.14999999963E+04  0.15000000000E+04  0.10566000000E+00 0. -1.
        994   -1    0    0    0    0 -0.00000000000E+00 -0.00000000000E+00  0.11368683772E-12  0.17120000000E+03  0.17120000000E+03 0.  0.
         13    1    1    2    0    0  0.21241541715E+02 -0.67204323410E+01  0.13351641237E+03  0.13536251639E+03  0.10566000000E+00 0. -1.
        994    1    1    2    0    0 -0.18837857686E+02  0.12704788460E+02  0.34333985125E+01  0.17273536047E+03  0.17120000000E+03 0.  0.
        998    1    1    2    0    0 -0.24036840294E+01 -0.59843561186E+01  0.13630501854E+04  0.13631021231E+04  0.10000000000E+02 0. -1.
</event>
<event>
 5    1  0.1146201E-008  0.3824260E+03  0.7957747E-01  0.3440663E+00
         13   -1    0    0    0    0  0.00000000000E+00  0.00000000000E+00  0.14999999963E+04  0.15000000000E+04  0.10566000000E+00 0. -1.
        994   -1    0    0    0    0 -0.00000000000E+00 -0.00000000000E+00  0.11368683772E-12  0.17120000000E+03  0.17120000000E+03 0.  0.
         13    1    1    2    0    0  0.24709151916E+02 -0.29601327582E+02  0.21365045658E+03  0.21710207172E+03  0.10566000000E+00 0. -1.
        994    1    1    2    0    0 -0.29013897321E+02  0.30762400953E+02  0.88663167106E+01  0.17656778620E+03  0.17120000000E+03 0.  0.
        998    1    1    2    0    0  0.43047454050E+01 -0.11610733704E+01  0.12774832230E+04  0.12775301421E+04  0.10000000000E+02 0. -1.
</event>
<event>
 5    1  0.1146201E-008  0.3803133E+03  0.7957747E-01  0.3449796E+00
         13   -1    0    0    0    0  0.00000000000E+00  0.00000000000E+00  0.14999999963E+04  0.15000000000E+04  0.10566000000E+00 0. -1.
        994   -1    0    0    0    0 -0.00000000000E+00 -0.00000000000E+00  0.11368683772E-12  0.17120000000E+03  0.17120000000E+03 0.  0.
         13    1    1    2    0    0  0.25904461953E+02  0.25152139503E+01  0.77939965597E+02  0.82170656877E+02  0.10566000000E+00 0. -1.
        994    1    1    2    0    0 -0.29654629872E+02 -0.28734020507E+02  0.96900726995E+01  0.17637567439E+03  0.17120000000E+03 0.  0.
        998    1    1    2    0    0  0.37501679188E+01  0.26218806557E+02  0.14123699580E+04  0.14126536687E+04  0.10000000000E+02 0. -1.
</event>
<event>
 5    1  0.1146201E-008  0.3839461E+03  0.7957747E-01  0.3434154E+00
         13   -1    0    0    0    0  0.00000000000E+00  0.00000000000E+00  0.14999999963E+04  0.15000000000E+04  0.10566000000E+00 0. -1.
        994   -1    0    0    0    0 -0.00000000000E+00 -0.00000000000E+00  0.11368683772E-12  0.17120000000E+03  0.17120000000E+03 0.  0.
         13    1    1    2    0    0 -0.35238201505E+01 -0.96401348245E+01  0.23619750327E+02  0.25753704150E+02  0.10566000000E+00 0. -1.
        994    1    1    2    0    0  0.31998707327E+01  0.84587201783E+01  0.24242237354E+01  0.17145584265E+03  0.17120000000E+03 0.  0.
        998    1    1    2    0    0  0.32394941786E+00  0.11814146461E+01  0.14739560222E+04  0.14739904532E+04  0.10000000000E+02 0. -1.
</event>
<event>
 5    1  0.1146201E-008  0.3835915E+03  0.7957747E-01  0.3435668E+00
         13   -1    0    0    0    0  0.00000000000E+00  0.00000000000E+00  0.14999999963E+04  0.15000000000E+04  0.10566000000E+00 0.  1.
        994   -1    0    0    0    0 -0.00000000000E+00 -0.00000000000E+00  0.11368683772E-12  0.17120000000E+03  0.17120000000E+03 0.  0.
         13    1    1    2    0    0 -0.12609985541E+02 -0.80350195956E+01  0.47388937414E+02  0.49692009705E+02  0.10566000000E+00 0.  1.
        994    1    1    2    0    0  0.82714999393E+01  0.50742353845E+01  0.26422161424E+01  0.17149515119E+03  0.17120000000E+03 0.  0.
        998    1    1    2    0    0  0.43384856020E+01  0.29607842110E+01  0.14499688427E+04  0.14500128391E+04  0.10000000000E+02 0.  1.
</event>
<event>
 5    1  0.1146201E-008  0.3834493E+03  0.7957747E-01  0.3436276E+00
         13   -1    0    0    0    0  0.00000000000E+00  0.00000000000E+00  0.14999999963E+04  0.15000000000E+04  0.10566000000E+00 0. -1.
        994   -1    0    0    0    0 -0.00000000000E+00 -0.00000000000E+00  0.11368683772E-12  0.17120000000E+03  0.17120000000E+03 0.  0.
         13    1    1    2    0    0  0.19057223842E+02 -0.49035229959E+01  0.73591674448E+02  0.76177214641E+02  0.10566000000E+00 0. -1.
        994    1    1    2    0    0 -0.22412398399E+02  0.24691251225E+02  0.60860351433E+01  0.17452350361E+03  0.17120000000E+03 0.  0.
        998    1    1    2    0    0  0.33551745566E+01 -0.19787728229E+02  0.14203222867E+04  0.14204992817E+04  0.10000000000E+02 0. -1.
</event>
<event>
 5    1  0.1146201E-008  0.3828839E+03  0.7957747E-01  0.3438697E+00
         13   -1    0    0    0    0  0.00000000000E+00  0.00000000000E+00  0.14999999963E+04  0.15000000000E+04  0.10566000000E+00 0.  1.
        994   -1    0    0    0    0 -0.00000000000E+00 -0.00000000000E+00  0.11368683772E-12  0.17120000000E+03  0.17120000000E+03 0.  0.
         13    1    1    2    0    0 -0.87090264690E+01  0.98587605652E+01  0.31137487908E+02  0.33802316773E+02  0.10566000000E+00 0.  1.
        994    1    1    2    0    0  0.37208791680E+00 -0.13791263429E+02  0.33149081783E+01  0.17178697859E+03  0.17120000000E+03 0.  0.
        998    1    1    2    0    0  0.83369385522E+01  0.39325028634E+01  0.14655476002E+04  0.14656107046E+04  0.10000000000E+02 0.  1.
</event>
<event>
 5    1  0.1146201E-008  0.3749684E+03  0.7957747E-01  0.3473364E+00
         13   -1    0    0    0    0  0.00000000000E+00  0.00000000000E+00  0.14999999963E+04  0.15000000000E+04  0.10566000000E+00 0. -1.
        994   -1    0    0    0    0 -0.00000000000E+00 -0.00000000000E+00  0.11368683772E-12  0.17120000000E+03  0.17120000000E+03 0.  0.
         13    1    1    2    0    0  0.14489777247E+02  0.71483897547E+01  0.16710076452E+02  0.23244159262E+02  0.10566000000E+00 0. -1.
        994    1    1    2    0    0 -0.34048017947E+01 -0.11851222975E+02  0.72119918217E+01  0.17179492713E+03  0.17120000000E+03 0.  0.
        998    1    1    2    0    0 -0.11084975453E+02  0.47028332204E+01  0.14760779280E+04  0.14761609136E+04  0.10000000000E+02 0. -1.
</event>
<event>
 5    1  0.1146201E-008  0.3699846E+03  0.7957747E-01  0.3495962E+00
         13   -1    0    0    0    0  0.00000000000E+00  0.00000000000E+00  0.14999999963E+04  0.15000000000E+04  0.10566000000E+00 0.  1.
        994   -1    0    0    0    0 -0.00000000000E+00 -0.00000000000E+00  0.11368683772E-12  0.17120000000E+03  0.17120000000E+03 0.  0.
         13    1    1    2    0    0 -0.14258981981E+02  0.58101871509E+02  0.18108315584E+03  0.19070990151E+03  0.10566000000E+00 0.  1.
        994    1    1    2    0    0 -0.47270333019E+02 -0.23417465523E+02  0.20723120267E+02  0.18033787674E+03  0.17120000000E+03 0.  0.
        998    1    1    2    0    0  0.61529314999E+02 -0.34684405986E+02  0.12981937202E+04  0.13001522217E+04  0.10000000000E+02 0.  1.
</event>
<event>
 5    1  0.1146201E-008  0.3760442E+03  0.7957747E-01  0.3468566E+00
         13   -1    0    0    0    0  0.00000000000E+00  0.00000000000E+00  0.14999999963E+04  0.15000000000E+04  0.10566000000E+00 0. -1.
        994   -1    0    0    0    0 -0.00000000000E+00 -0.00000000000E+00  0.11368683772E-12  0.17120000000E+03  0.17120000000E+03 0.  0.
         13    1    1    2    0    0  0.75320194805E+01 -0.36034145691E+02  0.12986277731E+03  0.13497978762E+03  0.10566000000E+00 0. -1.
        994    1    1    2    0    0 -0.12925143072E+02 -0.16836453468E+02  0.76710182192E+01  0.17268123815E+03  0.17120000000E+03 0.  0.
        998    1    1    2    0    0  0.53931235916E+01  0.52870599159E+02  0.13624662008E+04  0.13635389742E+04  0.10000000000E+02 0. -1.
</event>
<event>
 5    1  0.1146201E-008  0.3998031E+03  0.7957747E-01  0.3369218E+00
         13   -1    0    0    0    0  0.00000000000E+00  0.00000000000E+00  0.14999999963E+04  0.15000000000E+04  0.10566000000E+00 0.  1.
        994   -1    0    0    0    0 -0.00000000000E+00 -0.00000000000E+00  0.11368683772E-12  0.17120000000E+03  0.17120000000E+03 0.  0.
         13    1    1    2    0    0  0.85113297561E+02  0.85757350627E+02  0.29066600177E+03  0.31477822726E+03  0.10566000000E+00 0.  1.
        994    1    1    2    0    0 -0.10596837292E+03  0.33076080944E+02  0.77706670388E+02  0.21833710132E+03  0.17120000000E+03 0.  0.
        998    1    1    2    0    0  0.20855075357E+02 -0.11883343157E+03  0.11316273241E+04  0.11380846714E+04  0.10000000000E+02 0.  1.
</event>
<event>
 5    1  0.1146201E-008  0.3722029E+03  0.7957747E-01  0.3485827E+00
         13   -1    0    0    0    0  0.00000000000E+00  0.00000000000E+00  0.14999999963E+04  0.15000000000E+04  0.10566000000E+00 0.  1.
        994   -1    0    0    0    0 -0.00000000000E+00 -0.00000000000E+00  0.11368683772E-12  0.17120000000E+03  0.17120000000E+03 0.  0.
         13    1    1    2    0    0 -0.76845133347E+02 -0.89966141115E+00  0.21447136371E+03  0.22782440810E+03  0.10566000000E+00 0.  1.
        994    1    1    2    0    0  0.13810040742E+03 -0.90896821518E+01  0.77014343743E+02  0.23322734401E+03  0.17120000000E+03 0.  0.
        998    1    1    2    0    0 -0.61255274069E+02  0.99893435630E+01  0.12085142888E+04  0.12101482479E+04  0.10000000000E+02 0.  1.
</event>
<event>
 5    1  0.1146201E-008  0.3833508E+03  0.7957747E-01  0.3436697E+00
         13   -1    0    0    0    0  0.00000000000E+00  0.00000000000E+00  0.14999999963E+04  0.15000000000E+04  0.10566000000E+00 0.  1.
        994   -1    0    0    0    0 -0.00000000000E+00 -0.00000000000E+00  0.11368683772E-12  0.17120000000E+03  0.17120000000E+03 0.  0.
         13    1    1    2    0    0  0.19611838233E+02 -0.40604680521E+01  0.79400496565E+02  0.81887493663E+02  0.10566000000E+00 0.  1.
        994    1    1    2    0    0 -0.14806229945E+02  0.10413126485E+02  0.35352435910E+01  0.17219057929E+03  0.17120000000E+03 0.  0.
        998    1    1    2    0    0 -0.48056082888E+01 -0.63526584328E+01  0.14170642561E+04  0.14171219270E+04  0.10000000000E+02 0.  1.
</event>
<event>
 5    1  0.1146201E-008  0.3855789E+03  0.7957747E-01  0.3427221E+00
         13   -1    0    0    0    0  0.00000000000E+00  0.00000000000E+00  0.14999999963E+04  0.15000000000E+04  0.10566000000E+00 0. -1.
        994   -1    0    0    0    0 -0.00000000000E+00 -0.00000000000E+00  0.11368683772E-12  0.17120000000E+03  0.17120000000E+03 0.  0.
         13    1    1    2    0    0  0.98310390817E+01 -0.47629247948E+01  0.48591940686E+02  0.49804845604E+02  0.10566000000E+00 0. -1.
        994    1    1    2    0    0  0.77022109068E+01  0.10796405527E+01  0.15415793540E+01  0.17138350604E+03  0.17120000000E+03 0.  0.
        998    1    1    2    0    0 -0.17533249988E+02  0.36832842421E+01  0.14498664762E+04  0.14500116484E+04  0.10000000000E+02 0. -1.
</event>
<event>
 5    1  0.1146201E-008  0.3828254E+03  0.7957747E-01  0.3438948E+00
         13   -1    0    0    0    0  0.00000000000E+00  0.00000000000E+00  0.14999999963E+04  0.15000000000E+04  0.10566000000E+00 0. -1.
        994   -1    0    0    0    0 -0.00000000000E+00 -0.00000000000E+00  0.11368683772E-12  0.17120000000E+03  0.17120000000E+03 0.  0.
         13    1    1    2    0    0  0.27122493614E+02  0.18997346607E+01  0.14246352317E+03  0.14503484150E+03  0.10566000000E+00 0. -1.
        994    1    1    2    0    0 -0.10319877536E+02  0.87267562899E+01  0.33188534248E+01  0.17176469642E+03  0.17120000000E+03 0.  0.
        998    1    1    2    0    0 -0.16802616078E+02 -0.10626490951E+02  0.13542176197E+04  0.13544004621E+04  0.10000000000E+02 0. -1.
</event>
<event>
 5    1  0.1146201E-008  0.3937819E+03  0.7957747E-01  0.3393260E+00
         13   -1    0    0    0    0  0.00000000000E+00  0.00000000000E+00  0.14999999963E+04  0.15000000000E+04  0.10566000000E+00 0. -1.
        994   -1    0    0    0    0 -0.00000000000E+00 -0.00000000000E+00  0.11368683772E-12  0.17120000000E+03  0.17120000000E+03 0.  0.
         13    1    1    2    0    0  0.65964002290E+02 -0.12109217916E+02  0.77844266228E+02  0.10275029784E+03  0.10566000000E+00 0. -1.
        994    1    1    2    0    0 -0.76411600864E+02  0.28963795441E+02  0.50089920660E+02  0.19620416495E+03  0.17120000000E+03 0.  0.
        998    1    1    2    0    0  0.10447598574E+02 -0.16854577525E+02  0.13720658094E+04  0.13722455372E+04  0.10000000000E+02 0.  1.
</event>
<event>
 5    1  0.1146201E-008  0.3850186E+03  0.7957747E-01  0.3429593E+00
         13   -1    0    0    0    0  0.00000000000E+00  0.00000000000E+00  0.14999999963E+04  0.15000000000E+04  0.10566000000E+00 0.  1.
        994   -1    0    0    0    0 -0.00000000000E+00 -0.00000000000E+00  0.11368683772E-12  0.17120000000E+03  0.17120000000E+03 0.  0.
         13    1    1    2    0    0  0.20077887874E+01  0.12212656395E+02  0.46150287537E+02  0.47781171980E+02  0.10566000000E+00 0.  1.
        994    1    1    2    0    0  0.89040386296E+00 -0.12753674134E+02  0.21585857883E+01  0.17169026913E+03  0.17120000000E+03 0.  0.
        998    1    1    2    0    0 -0.28981926503E+01  0.54101773902E+00  0.14516911230E+04  0.14517285589E+04  0.10000000000E+02 0.  1.
</event>
<event>
 5    1  0.1146201E-008  0.3791410E+03  0.7957747E-01  0.3454907E+00
         13   -1    0    0    0    0  0.00000000000E+00  0.00000000000E+00  0.14999999963E+04  0.15000000000E+04  0.10566000000E+00 0. -1.
        994   -1    0    0    0    0 -0.00000000000E+00 -0.00000000000E+00  0.11368683772E-12  0.17120000000E+03  0.17120000000E+03 0.  0.
         13    1    1    2    0    0  0.89509050099E+01  0.27061435689E+02  0.87897913338E+02  0.92403973591E+02  0.10566000000E+00 0. -1.
        994    1    1    2    0    0 -0.35991632863E+01 -0.15807430895E+02  0.54490014399E+01  0.17205220273E+03  0.17120000000E+03 0.  0.
        998    1    1    2    0    0 -0.53517417236E+01 -0.11254004794E+02  0.14066530815E+04  0.14067438237E+04  0.10000000000E+02 0. -1.
</event>
<event>
 5    1  0.1146201E-008  0.3857599E+03  0.7957747E-01  0.3426456E+00
         13   -1    0    0    0    0  0.00000000000E+00  0.00000000000E+00  0.14999999963E+04  0.15000000000E+04  0.10566000000E+00 0.  1.
        994   -1    0    0    0    0 -0.00000000000E+00 -0.00000000000E+00  0.11368683772E-12  0.17120000000E+03  0.17120000000E+03 0.  0.
         13    1    1    2    0    0 -0.31470916102E+01 -0.10066898586E+02  0.44432447116E+02  0.45667276616E+02  0.10566000000E+00 0.  1.
        994    1    1    2    0    0  0.14986626696E+01  0.80891585987E+01  0.14753913196E+01  0.17140390094E+03  0.17120000000E+03 0.  0.
        998    1    1    2    0    0  0.16484289406E+01  0.19777399872E+01  0.14540921578E+04  0.14541288224E+04  0.10000000000E+02 0.  1.
</event>
<event>
 5    1  0.1146201E-008  0.3739117E+03  0.7957747E-01  0.3478105E+00
         13   -1    0    0    0    0  0.00000000000E+00  0.00000000000E+00  0.14999999963E+04  0.15000000000E+04  0.10566000000E+00 0. -1.
        994   -1    0    0    0    0 -0.00000000000E+00 -0.00000000000E+00  0.11368683772E-12  0.17120000000E+03  0.17120000000E+03 0.  0.
         13    1    1    2    0    0  0.33094513962E+02 -0.41106557093E+01  0.69459522696E+02  0.77050508123E+02  0.10566000000E+00 0. -1.
        994    1    1    2    0    0 -0.37222056928E+02  0.23164625610E+02  0.13824745886E+02  0.17726433652E+03  0.17120000000E+03 0.  0.
        998    1    1    2    0    0  0.41275429655E+01 -0.19053969901E+02  0.14167157277E+04  0.14168851554E+04  0.10000000000E+02 0. -1.
</event>
<event>
 5    1  0.1146201E-008  0.3740632E+03  0.7957747E-01  0.3477423E+00
         13   -1    0    0    0    0  0.00000000000E+00  0.00000000000E+00  0.14999999963E+04  0.15000000000E+04  0.10566000000E+00 0. -1.
        994   -1    0    0    0    0 -0.00000000000E+00 -0.00000000000E+00  0.11368683772E-12  0.17120000000E+03  0.17120000000E+03 0.  0.
         13    1    1    2    0    0  0.23491698312E+02  0.93284422216E+02  0.29196520616E+03  0.30740451540E+03  0.10566000000E+00 0. -1.
        994    1    1    2    0    0 -0.27325219017E+02 -0.84447444702E+02  0.41598093742E+02  0.19727615141E+03  0.17120000000E+03 0.  0.
        998    1    1    2    0    0  0.38335207048E+01 -0.88369775136E+01  0.11664366964E+04  0.11665193332E+04  0.10000000000E+02 0. -1.
</event>
<event>
 5    1  0.1146201E-008  0.3725178E+03  0.7957747E-01  0.3484399E+00
         13   -1    0    0    0    0  0.00000000000E+00  0.00000000000E+00  0.14999999963E+04  0.15000000000E+04  0.10566000000E+00 0. -1.
        994   -1    0    0    0    0 -0.00000000000E+00 -0.00000000000E+00  0.11368683772E-12  0.17120000000E+03  0.17120000000E+03 0.  0.
         13    1    1    2    0    0 -0.18964402652E+02 -0.14582930962E+02  0.29564223682E+02  0.38031104761E+02  0.10566000000E+00 0. -1.
        994    1    1    2    0    0  0.57840776025E+02  0.13475821815E+02  0.20148094178E+02  0.18232536533E+03  0.17120000000E+03 0.  0.
        998    1    1    2    0    0 -0.38876373373E+02  0.11071091469E+01  0.14502876784E+04  0.14508435299E+04  0.10000000000E+02 0. -1.
</event>
<event>
 5    1  0.1146201E-008  0.3827450E+03  0.7957747E-01  0.3439293E+00
         13   -1    0    0    0    0  0.00000000000E+00  0.00000000000E+00  0.14999999963E+04  0.15000000000E+04  0.10566000000E+00 0. -1.
        994   -1    0    0    0    0 -0.00000000000E+00 -0.00000000000E+00  0.11368683772E-12  0.17120000000E+03  0.17120000000E+03 0.  0.
         13    1    1    2    0    0 -0.17386527155E+02  0.16065408147E+02  0.99216867895E+02  0.10200189559E+03  0.10566000000E+00 0. -1.
        994    1    1    2    0    0  0.12218813605E+02 -0.12448579678E+02  0.37625150479E+01  0.17212746167E+03  0.17120000000E+03 0.  0.
        998    1    1    2    0    0  0.51677135496E+01 -0.36168284691E+01  0.13970206133E+04  0.13970706427E+04  0.10000000000E+02 0. -1.
</event>
<event>
 5    1  0.1146201E-008  0.3830924E+03  0.7957747E-01  0.3437803E+00
         13   -1    0    0    0    0  0.00000000000E+00  0.00000000000E+00  0.14999999963E+04  0.15000000000E+04  0.10566000000E+00 0.  1.
        994   -1    0    0    0    0 -0.00000000000E+00 -0.00000000000E+00  0.11368683772E-12  0.17120000000E+03  0.17120000000E+03 0.  0.
         13    1    1    2    0    0 -0.11207620113E+02 -0.23022241098E+02  0.13510309169E+03  0.13750814842E+03  0.10566000000E+00 0.  1.
        994    1    1    2    0    0  0.84332261760E+01  0.32293027830E+01  0.28500774237E+01  0.17146168855E+03  0.17120000000E+03 0.  0.
        998    1    1    2    0    0  0.27743939372E+01  0.19792938315E+02  0.13620468272E+04  0.13622301630E+04  0.10000000000E+02 0.  1.
</event>
<event>
 5    1  0.1146201E-008  0.3775409E+03  0.7957747E-01  0.3461936E+00
         13   -1    0    0    0    0  0.00000000000E+00  0.00000000000E+00  0.14999999963E+04  0.15000000000E+04  0.10566000000E+00 0. -1.
        994   -1    0    0    0    0 -0.00000000000E+00 -0.00000000000E+00  0.11368683772E-12  0.17120000000E+03  0.17120000000E+03 0.  0.
         13    1    1    2    0    0 -0.10240797145E+02 -0.27448572082E+01  0.79872825214E+01  0.13274637975E+02  0.10566000000E+00 0. -1.
        994    1    1    2    0    0  0.80194712699E+01  0.41466456887E+01  0.56544135194E+01  0.17153110208E+03  0.17120000000E+03 0.  0.
        998    1    1    2    0    0  0.22213258749E+01 -0.14017884805E+01  0.14863583002E+04  0.14863942599E+04  0.10000000000E+02 0. -1.
</event>
<event>
 5    1  0.1146201E-008  0.3827869E+03  0.7957747E-01  0.3439113E+00
         13   -1    0    0    0    0  0.00000000000E+00  0.00000000000E+00  0.14999999963E+04  0.15000000000E+04  0.10566000000E+00 0.  1.
        994   -1    0    0    0    0 -0.00000000000E+00 -0.00000000000E+00  0.11368683772E-12  0.17120000000E+03  0.17120000000E+03 0.  0.
         13    1    1    2    0    0 -0.18330253715E+02  0.18357351919E+02  0.14725606000E+03  0.14952374040E+03  0.10566000000E+00 0.  1.
        994    1    1    2    0    0 -0.82167100264E+01  0.31749854917E+01  0.29899962447E+01  0.17145254426E+03  0.17120000000E+03 0.  0.
        998    1    1    2    0    0  0.26546963741E+02 -0.21532337411E+02  0.13497539400E+04  0.13502237153E+04  0.10000000000E+02 0.  1.
</event>
<event>
 5    1  0.1146201E-008  0.3792693E+03  0.7957747E-01  0.3454346E+00
         13   -1    0    0    0    0  0.00000000000E+00  0.00000000000E+00  0.14999999963E+04  0.15000000000E+04  0.10566000000E+00 0.  1.
        994   -1    0    0    0    0 -0.00000000000E+00 -0.00000000000E+00  0.11368683772E-12  0.17120000000E+03  0.17120000000E+03 0.  0.
         13    1    1    2    0    0 -0.61624123521E+01  0.38871448165E+02  0.13945597193E+03  0.14490322315E+03  0.10566000000E+00 0.  1.
        994    1    1    2    0    0  0.16338446877E+01 -0.58786780736E+02  0.16180610107E+02  0.18174104429E+03  0.17120000000E+03 0.  0.
        998    1    1    2    0    0  0.45285676644E+01  0.19915332571E+02  0.13443634142E+04  0.13445557326E+04  0.10000000000E+02 0.  1.
</event>
<event>
 5    1  0.1146201E-008  0.3699881E+03  0.7957747E-01  0.3495945E+00
         13   -1    0    0    0    0  0.00000000000E+00  0.00000000000E+00  0.14999999963E+04  0.15000000000E+04  0.10566000000E+00 0.  1.
        994   -1    0    0    0    0 -0.00000000000E+00 -0.00000000000E+00  0.11368683772E-12  0.17120000000E+03  0.17120000000E+03 0.  0.
         13    1    1    2    0    0 -0.50135539675E+02 -0.95833475031E+01  0.15544866536E+03  0.16361452140E+03  0.10566000000E+00 0.  1.
        994    1    1    2    0    0  0.26703531152E+01  0.77521593571E+01  0.95077751595E+01  0.17165973479E+03  0.17120000000E+03 0.  0.
        998    1    1    2    0    0  0.47465186560E+02  0.18311881460E+01  0.13350435558E+04  0.13359257438E+04  0.10000000000E+02 0.  1.
</event>
<event>
 5    1  0.1146201E-008  0.2725245E+03  0.7957747E-01  0.4114059E+00
         13   -1    0    0    0    0  0.00000000000E+00  0.00000000000E+00  0.14999999963E+04  0.15000000000E+04  0.10566000000E+00 0.  1.
        994   -1    0    0    0    0 -0.00000000000E+00 -0.00000000000E+00  0.11368683772E-12  0.17120000000E+03  0.17120000000E+03 0.  0.
         13    1    1    2    0    0  0.20963801297E+03 -0.67853568442E+02  0.20588698087E+03  0.30156535492E+03  0.10566000000E+00 0.  1.
        994    1    1    2    0    0 -0.18182170363E+03  0.56026899692E+02  0.39950004128E+03  0.47445533866E+03  0.17120000000E+03 0.  0.
        998    1    1    2    0    0 -0.27816309339E+02  0.11826668750E+02  0.89461297413E+03  0.89517930642E+03  0.10000000000E+02 0.  1.
</event>
<event>
 5    1  0.1146201E-008  0.3748984E+03  0.7957747E-01  0.3473677E+00
         13   -1    0    0    0    0  0.00000000000E+00  0.00000000000E+00  0.14999999963E+04  0.15000000000E+04  0.10566000000E+00 0.  1.
        994   -1    0    0    0    0 -0.00000000000E+00 -0.00000000000E+00  0.11368683772E-12  0.17120000000E+03  0.17120000000E+03 0.  0.
         13    1    1    2    0    0  0.11598657218E+02 -0.83458850081E+01  0.12407194939E+02  0.18924383639E+02  0.10566000000E+00 0.  1.
        994    1    1    2    0    0  0.12377454136E+02  0.19940826088E+02  0.86062043554E+01  0.17301544633E+03  0.17120000000E+03 0.  0.
        998    1    1    2    0    0 -0.23976111354E+02 -0.11594941080E+02  0.14789865970E+04  0.14792601700E+04  0.10000000000E+02 0.  1.
</event>
<event>
 5    1  0.1146201E-008  0.3940196E+03  0.7957747E-01  0.3392297E+00
         13   -1    0    0    0    0  0.00000000000E+00  0.00000000000E+00  0.14999999963E+04  0.15000000000E+04  0.10566000000E+00 0.  1.
        994   -1    0    0    0    0 -0.00000000000E+00 -0.00000000000E+00  0.11368683772E-12  0.17120000000E+03  0.17120000000E+03 0.  0.
         13    1    1    2    0    0 -0.14517268924E+03  0.54420342158E+02  0.34666433313E+03  0.37975367592E+03  0.10566000000E+00 0.  1.
        994    1    1    2    0    0  0.14466058165E+03 -0.64734876997E+02  0.12817924199E+03  0.26618911747E+03  0.17120000000E+03 0.  0.
        998    1    1    2    0    0  0.51210758807E+00  0.10314534838E+02  0.10251564212E+04  0.10252572066E+04  0.10000000000E+02 0.  0.
</event>
<event>
 5    1  0.1146201E-008  0.3744021E+03  0.7957747E-01  0.3475901E+00
         13   -1    0    0    0    0  0.00000000000E+00  0.00000000000E+00  0.14999999963E+04  0.15000000000E+04  0.10566000000E+00 0. -1.
        994   -1    0    0    0    0 -0.00000000000E+00 -0.00000000000E+00  0.11368683772E-12  0.17120000000E+03  0.17120000000E+03 0.  0.
         13    1    1    2    0    0 -0.35858826319E+01  0.35999422731E+02  0.44209763664E+02  0.57125575345E+02  0.10566000000E+00 0. -1.
        994    1    1    2    0    0  0.39362867669E+01 -0.24545628063E+02  0.15483025656E+02  0.17368692033E+03  0.17120000000E+03 0.  0.
        998    1    1    2    0    0 -0.35040413501E+00 -0.11453794668E+02  0.14403072070E+04  0.14403875043E+04  0.10000000000E+02 0. -1.
</event>
<event>
 5    1  0.1146201E-008  0.3686768E+03  0.7957747E-01  0.3501994E+00
         13   -1    0    0    0    0  0.00000000000E+00  0.00000000000E+00  0.14999999963E+04  0.15000000000E+04  0.10566000000E+00 0.  1.
        994   -1    0    0    0    0 -0.00000000000E+00 -0.00000000000E+00  0.11368683772E-12  0.17120000000E+03  0.17120000000E+03 0.  0.
         13    1    1    2    0    0 -0.45712590876E+01 -0.12864603864E+02  0.43927179595E+01  0.14342300280E+02  0.10566000000E+00 0.  1.
        994    1    1    2    0    0  0.59271203607E+01  0.10398864932E+02  0.10739529376E+02  0.17195361188E+03  0.17120000000E+03 0.  0.
        998    1    1    2    0    0 -0.13558612730E+01  0.24657389324E+01  0.14848677489E+04  0.14849040878E+04  0.10000000000E+02 0.  1.
</event>
<event>
 5    1  0.1146201E-008  0.3764958E+03  0.7957747E-01  0.3466560E+00
         13   -1    0    0    0    0  0.00000000000E+00  0.00000000000E+00  0.14999999963E+04  0.15000000000E+04  0.10566000000E+00 0. -1.
        994   -1    0    0    0    0 -0.00000000000E+00 -0.00000000000E+00  0.11368683772E-12  0.17120000000E+03  0.17120000000E+03 0.  0.
         13    1    1    2    0    0  0.22013834254E+02  0.23774389694E+02  0.31317097459E+02  0.45062204353E+02  0.10566000000E+00 0. -1.
        994    1    1    2    0    0  0.63890719895E+01 -0.25206644706E+02  0.16838406684E+02  0.17398036417E+03  0.17120000000E+03 0.  0.
        998    1    1    2    0    0 -0.28402906243E+02  0.14322550121E+01  0.14518444921E+04  0.14521574315E+04  0.10000000000E+02 0. -1.
</event>
<event>
 5    1  0.1501232E-008  0.3863768E+03  0.7957747E-01  0.3423854E+00
         13   -1    0    0    0    0  0.00000000000E+00  0.00000000000E+00  0.14999999963E+04  0.15000000000E+04  0.10566000000E+00 0. -1.
        994   -1    0    0    0    0 -0.00000000000E+00 -0.00000000000E+00  0.11368683772E-12  0.17120000000E+03  0.17120000000E+03 0.  0.
         13    1    1    2    0    0  0.11830342588E+02  0.22380243913E+01  0.72418265967E+02  0.73412411544E+02  0.10566000000E+00 0. -1.
        994    1    1    2    0    0 -0.16197184166E+02 -0.27050615125E+01  0.18314991701E+01  0.17199552471E+03  0.17120000000E+03 0.  0.
        998    1    1    2    0    0  0.43668415782E+01  0.46703712129E+00  0.14257502311E+04  0.14257920637E+04  0.10000000000E+02 0. -1.
</event>
<event>
 5    1  0.1146201E-008  0.3711325E+03  0.7957747E-01  0.3490702E+00
         13   -1    0    0    0    0  0.00000000000E+00  0.00000000000E+00  0.14999999963E+04  0.15000000000E+04  0.10566000000E+00 0. -1.
        994   -1    0    0    0    0 -0.00000000000E+00 -0.00000000000E+00  0.11368683772E-12  0.17120000000E+03  0.17120000000E+03 0.  0.
         13    1    1    2    0    0  0.24941624608E+02 -0.26177821558E+02  0.79446864550E+02  0.87287905408E+02  0.10566000000E+00 0. -1.
        994    1    1    2    0    0 -0.68243967585E+00 -0.70713748570E+01  0.88521490041E+01  0.17157584506E+03  0.17120000000E+03 0.  0.
        998    1    1    2    0    0 -0.24259184932E+02  0.33249196415E+02  0.14117009827E+04  0.14123362495E+04  0.10000000000E+02 0. -1.
</event>
<event>
 5    1  0.1146201E-008  0.3020959E+03  0.7957747E-01  0.3881169E+00
         13   -1    0    0    0    0  0.00000000000E+00  0.00000000000E+00  0.14999999963E+04  0.15000000000E+04  0.10566000000E+00 0. -1.
        994   -1    0    0    0    0 -0.00000000000E+00 -0.00000000000E+00  0.11368683772E-12  0.17120000000E+03  0.17120000000E+03 0.  0.
         13    1    1    2    0    0  0.82146478227E+02  0.16630530693E+03  0.66429272439E+03  0.68970307658E+03  0.10566000000E+00 0. -1.
        994    1    1    2    0    0 -0.31615899624E+02 -0.18985398133E+03  0.15961292413E+03  0.30303436255E+03  0.17120000000E+03 0.  0.
        998    1    1    2    0    0 -0.50530578603E+02  0.23548674397E+02  0.67609434776E+03  0.67846256088E+03  0.10000000000E+02 0. -1.
</event>
<event>
 5    1  0.1146201E-008  0.3941804E+03  0.7957747E-01  0.3391646E+00
         13   -1    0    0    0    0  0.00000000000E+00  0.00000000000E+00  0.14999999963E+04  0.15000000000E+04  0.10566000000E+00 0. -1.
        994   -1    0    0    0    0 -0.00000000000E+00 -0.00000000000E+00  0.11368683772E-12  0.17120000000E+03  0.17120000000E+03 0.  0.
         13    1    1    2    0    0  0.33791519824E+02 -0.89764805891E+01  0.15551780038E+02  0.38266343465E+02  0.10566000000E+00 0. -1.
        994    1    1    2    0    0 -0.22644742969E+02 -0.10194996752E+01  0.26312966542E+02  0.17468725189E+03  0.17120000000E+03 0.  0.
        998    1    1    2    0    0 -0.11146776855E+02  0.99959802643E+01  0.14581352497E+04  0.14582464046E+04  0.10000000000E+02 0. -1.
</event>
<event>
 5    1  0.1146201E-008  0.3815585E+03  0.7957747E-01  0.3444400E+00
         13   -1    0    0    0    0  0.00000000000E+00  0.00000000000E+00  0.14999999963E+04  0.15000000000E+04  0.10566000000E+00 0. -1.
        994   -1    0    0    0    0 -0.00000000000E+00 -0.00000000000E+00  0.11368683772E-12  0.17120000000E+03  0.17120000000E+03 0.  0.
         13    1    1    2    0    0 -0.13012577934E+02 -0.22478768706E+01  0.24019448852E+02  0.27410312331E+02  0.10566000000E+00 0. -1.
        994    1    1    2    0    0  0.19130502256E+02 -0.82908137786E+00  0.45688879577E+01  0.17232811213E+03  0.17120000000E+03 0.  0.
        998    1    1    2    0    0 -0.61179243217E+01  0.30769582484E+01  0.14714116595E+04  0.14714615755E+04  0.10000000000E+02 0. -1.
</event>
<event>
 5    1  0.1146201E-008  0.3836724E+03  0.7957747E-01  0.3435322E+00
         13   -1    0    0    0    0  0.00000000000E+00  0.00000000000E+00  0.14999999963E+04  0.15000000000E+04  0.10566000000E+00 0.  1.
        994   -1    0    0    0    0 -0.00000000000E+00 -0.00000000000E+00  0.11368683772E-12  0.17120000000E+03  0.17120000000E+03 0.  0.
         13    1    1    2    0    0  0.18289049078E+01  0.16234794927E+02  0.57385173281E+02  0.59665590888E+02  0.10566000000E+00 0.  1.
        994    1    1    2    0    0 -0.97525353224E+01 -0.10814601095E+02  0.29914318015E+01  0.17184427895E+03  0.17120000000E+03 0.  0.
        998    1    1    2    0    0  0.79236304146E+01 -0.54201938320E+01  0.14396233912E+04  0.14396901302E+04  0.10000000000E+02 0.  1.
</event>
<event>
 5    1  0.1146201E-008  0.3815885E+03  0.7957747E-01  0.3444271E+00
         13   -1    0    0    0    0  0.00000000000E+00  0.00000000000E+00  0.14999999963E+04  0.15000000000E+04  0.10566000000E+00 0.  1.
        994   -1    0    0    0    0 -0.00000000000E+00 -0.00000000000E+00  0.11368683772E-12  0.17120000000E+03  0.17120000000E+03 0.  0.
         13    1    1    2    0    0 -0.94657844223E+01 -0.45872299283E+01  0.15348873673E+02  0.18607601678E+02  0.10566000000E+00 0.  1.
        994    1    1    2    0    0  0.54407313607E+01 -0.19533520918E+01  0.34445878583E+01  0.17133219875E+03  0.17120000000E+03 0.  0.
        998    1    1    2    0    0  0.40250530616E+01  0.65405820201E+01  0.14812065347E+04  0.14812601996E+04  0.10000000000E+02 0.  1.
</event>
<event>
 5    1  0.1146201E-008  0.3744260E+03  0.7957747E-01  0.3475794E+00
         13   -1    0    0    0    0  0.00000000000E+00  0.00000000000E+00  0.14999999963E+04  0.15000000000E+04  0.10566000000E+00 0. -1.
        994   -1    0    0    0    0 -0.00000000000E+00 -0.00000000000E+00  0.11368683772E-12  0.17120000000E+03  0.17120000000E+03 0.  0.
         13    1    1    2    0    0  0.59593383211E+02  0.70934130750E+01  0.11923079457E+03  0.13348288793E+03  0.10566000000E+00 0. -1.
        994    1    1    2    0    0 -0.58706749901E+02 -0.49084717108E+02  0.34396619946E+02  0.19065245711E+03  0.17120000000E+03 0.  0.
        998    1    1    2    0    0 -0.88663330936E+00  0.41991304033E+02  0.13463725818E+04  0.13470646550E+04  0.10000000000E+02 0. -1.
</event>
<event>
 5    1  0.1146201E-008  0.3811295E+03  0.7957747E-01  0.3446255E+00
         13   -1    0    0    0    0  0.00000000000E+00  0.00000000000E+00  0.14999999963E+04  0.15000000000E+04  0.10566000000E+00 0. -1.
        994   -1    0    0    0    0 -0.00000000000E+00 -0.00000000000E+00  0.11368683772E-12  0.17120000000E+03  0.17120000000E+03 0.  0.
         13    1    1    2    0    0  0.15153541445E+03 -0.13490152972E+03  0.87067050832E+03  0.89399583320E+03  0.10566000000E+00 0. -1.
        994    1    1    2    0    0 -0.16926919717E+03  0.15597467916E+03  0.20673324517E+03  0.35359332051E+03  0.17120000000E+03 0.  0.
        998    1    1    2    0    0  0.17733782728E+02 -0.21073149439E+02  0.42259624279E+03  0.42361084629E+03  0.10000000000E+02 0. -1.
</event>
<event>
 5    1  0.1146201E-008  0.3780913E+03  0.7957747E-01  0.3459512E+00
         13   -1    0    0    0    0  0.00000000000E+00  0.00000000000E+00  0.14999999963E+04  0.15000000000E+04  0.10566000000E+00 0. -1.
        994   -1    0    0    0    0 -0.00000000000E+00 -0.00000000000E+00  0.11368683772E-12  0.17120000000E+03  0.17120000000E+03 0.  0.
         13    1    1    2    0    0  0.12066048837E+02  0.82530574942E+00  0.12009390001E+02  0.17044274005E+02  0.10566000000E+00 0. -1.
        994    1    1    2    0    0 -0.11421045131E+02 -0.32822378977E+00  0.55390654876E+01  0.17167023402E+03  0.17120000000E+03 0.  0.
        998    1    1    2    0    0 -0.64500370643E+00 -0.49708195966E+00  0.14824515408E+04  0.14824854920E+04  0.10000000000E+02 0. -1.
</event>
<event>
 5    1  0.1146201E-008  0.3851451E+03  0.7957747E-01  0.3429057E+00
         13   -1    0    0    0    0  0.00000000000E+00  0.00000000000E+00  0.14999999963E+04  0.15000000000E+04  0.10566000000E+00 0.  1.
        994   -1    0    0    0    0 -0.00000000000E+00 -0.00000000000E+00  0.11368683772E-12  0.17120000000E+03  0.17120000000E+03 0.  0.
         13    1    1    2    0    0 -0.44415798759E+01  0.15809404833E+02  0.78556401788E+02  0.80254497313E+02  0.10566000000E+00 0.  1.
        994    1    1    2    0    0  0.66787121164E+01 -0.23856994702E+02  0.35782024245E+01  0.17302024426E+03  0.17120000000E+03 0.  0.
        998    1    1    2    0    0 -0.22371322405E+01  0.80475898692E+01  0.14178653921E+04  0.14179252584E+04  0.10000000000E+02 0.  1.
</event>
<event>
 5    1  0.1146201E-008  0.3991594E+03  0.7957747E-01  0.3371754E+00
         13   -1    0    0    0    0  0.00000000000E+00  0.00000000000E+00  0.14999999963E+04  0.15000000000E+04  0.10566000000E+00 0. -1.
        994   -1    0    0    0    0 -0.00000000000E+00 -0.00000000000E+00  0.11368683772E-12  0.17120000000E+03  0.17120000000E+03 0.  0.
         13    1    1    2    0    0  0.16412480941E+02  0.59454583333E+02  0.58757903123E+02  0.85186380093E+02  0.10566000000E+00 0. -1.
        994    1    1    2    0    0 -0.99821612600E+01 -0.57227972181E+02  0.40562828580E+02  0.18528212921E+03  0.17120000000E+03 0.  0.
        998    1    1    2    0    0 -0.64303196811E+01 -0.22266111520E+01  0.14006792646E+04  0.14007314907E+04  0.10000000000E+02 0. -1.
</event>
<event>
 5    1  0.1146201E-008  0.3828002E+03  0.7957747E-01  0.3439056E+00
         13   -1    0    0    0    0  0.00000000000E+00  0.00000000000E+00  0.14999999963E+04  0.15000000000E+04  0.10566000000E+00 0. -1.
        994   -1    0    0    0    0 -0.00000000000E+00 -0.00000000000E+00  0.11368683772E-12  0.17120000000E+03  0.17120000000E+03 0.  0.
         13    1    1    2    0    0  0.48128882592E+01 -0.13259428249E+02  0.35247327580E+02  0.37965268291E+02  0.10566000000E+00 0. -1.
        994    1    1    2    0    0 -0.93534769856E+01  0.94044606763E+01  0.33092209119E+01  0.17174493400E+03  0.17120000000E+03 0.  0.
        998    1    1    2    0    0  0.45405887264E+01  0.38549675725E+01  0.14614434478E+04  0.14614897977E+04  0.10000000000E+02 0. -1.
</event>
<event>
 5    1  0.1146201E-008  0.3846489E+03  0.7957747E-01  0.3431163E+00
         13   -1    0    0    0    0  0.00000000000E+00  0.00000000000E+00  0.14999999963E+04  0.15000000000E+04  0.10566000000E+00 0.  1.
        994   -1    0    0    0    0 -0.00000000000E+00 -0.00000000000E+00  0.11368683772E-12  0.17120000000E+03  0.17120000000E+03 0.  0.
         13    1    1    2    0    0  0.99549976694E+01 -0.11595791889E+02  0.69261334218E+02  0.70927483741E+02  0.10566000000E+00 0.  1.
        994    1    1    2    0    0 -0.59466094534E+01 -0.64823018515E+01  0.20593555205E+01  0.17143822020E+03  0.17120000000E+03 0.  0.
        998    1    1    2    0    0 -0.40083882160E+01  0.18078093740E+02  0.14286793065E+04  0.14288342961E+04  0.10000000000E+02 0.  1.
</event>
<event>
 5    1  0.1146201E-008  0.3722439E+03  0.7957747E-01  0.3485641E+00
         13   -1    0    0    0    0  0.00000000000E+00  0.00000000000E+00  0.14999999963E+04  0.15000000000E+04  0.10566000000E+00 0.  1.
        994   -1    0    0    0    0 -0.00000000000E+00 -0.00000000000E+00  0.11368683772E-12  0.17120000000E+03  0.17120000000E+03 0.  0.
         13    1    1    2    0    0  0.60553432598E+02 -0.40272526012E+02  0.36624751734E+03  0.37339770979E+03  0.10566000000E+00 0.  1.
        994    1    1    2    0    0 -0.23808007672E+02  0.11748789242E+02  0.10523108884E+02  0.17356563916E+03  0.17120000000E+03 0.  0.
        998    1    1    2    0    0 -0.36745424927E+02  0.28523736770E+02  0.11232293701E+04  0.11242366511E+04  0.10000000000E+02 0.  1.
</event>
<event>
 5    1  0.1674855E-008  0.3856299E+03  0.7957747E-01  0.3427005E+00
         13   -1    0    0    0    0  0.00000000000E+00  0.00000000000E+00  0.14999999963E+04  0.15000000000E+04  0.10566000000E+00 0.  1.
        994   -1    0    0    0    0 -0.00000000000E+00 -0.00000000000E+00  0.11368683772E-12  0.17120000000E+03  0.17120000000E+03 0.  0.
         13    1    1    2    0    0  0.32513633669E+01  0.14057721621E+02  0.81386522933E+02  0.82655720794E+02  0.10566000000E+00 0.  1.
        994    1    1    2    0    0  0.80749501108E-01 -0.66757200626E+01  0.14639988215E+01  0.17133637982E+03  0.17120000000E+03 0.  0.
        998    1    1    2    0    0 -0.33321128680E+01 -0.73820015587E+01  0.14171494745E+04  0.14172078994E+04  0.10000000000E+02 0.  1.
</event>
<event>
 5    1  0.1146201E-008  0.3800538E+03  0.7957747E-01  0.3450924E+00
         13   -1    0    0    0    0  0.00000000000E+00  0.00000000000E+00  0.14999999963E+04  0.15000000000E+04  0.10566000000E+00 0.  1.
        994   -1    0    0    0    0 -0.00000000000E+00 -0.00000000000E+00  0.11368683772E-12  0.17120000000E+03  0.17120000000E+03 0.  0.
         13    1    1    2    0    0  0.33065824009E+01  0.32460071300E+02  0.12765748415E+03  0.13176127709E+03  0.10566000000E+00 0.  1.
        994    1    1    2    0    0 -0.51957028175E+02 -0.17557183929E+02  0.14225264462E+02  0.18033187636E+03  0.17120000000E+03 0.  0.
        998    1    1    2    0    0  0.48650445774E+02 -0.14902887371E+02  0.13581172477E+04  0.13591068465E+04  0.10000000000E+02 0.  1.
</event>
<event>
 5    1  0.1146201E-008  0.3841792E+03  0.7957747E-01  0.3433161E+00
         13   -1    0    0    0    0  0.00000000000E+00  0.00000000000E+00  0.14999999963E+04  0.15000000000E+04  0.10566000000E+00 0. -1.
        994   -1    0    0    0    0 -0.00000000000E+00 -0.00000000000E+00  0.11368683772E-12  0.17120000000E+03  0.17120000000E+03 0.  0.
         13    1    1    2    0    0  0.14309024732E+01  0.14788958154E+02  0.49755777617E+02  0.51926961547E+02  0.10566000000E+00 0. -1.
        994    1    1    2    0    0 -0.14729620020E+02 -0.24191397623E+02  0.46878401633E+01  0.17359032597E+03  0.17120000000E+03 0.  0.
        998    1    1    2    0    0  0.13298717547E+02  0.94024394692E+01  0.14455563785E+04  0.14456827125E+04  0.10000000000E+02 0. -1.
</event>
<event>
 5    1  0.1146201E-008  0.3834253E+03  0.7957747E-01  0.3436378E+00
         13   -1    0    0    0    0  0.00000000000E+00  0.00000000000E+00  0.14999999963E+04  0.15000000000E+04  0.10566000000E+00 0.  1.
        994   -1    0    0    0    0 -0.00000000000E+00 -0.00000000000E+00  0.11368683772E-12  0.17120000000E+03  0.17120000000E+03 0.  0.
         13    1    1    2    0    0  0.16365414581E+01  0.16843291606E+02  0.60265648282E+02  0.62596599484E+02  0.10566000000E+00 0.  1.
        994    1    1    2    0    0 -0.26808115714E+01 -0.56070689753E+01  0.25416639955E+01  0.17133162589E+03  0.17120000000E+03 0.  0.
        998    1    1    2    0    0  0.10442701133E+01 -0.11236222631E+02  0.14371926840E+04  0.14372717746E+04  0.10000000000E+02 0.  1.
</event>
<event>
 5    1  0.1146201E-008  0.3762640E+03  0.7957747E-01  0.3467589E+00
         13   -1    0    0    0    0  0.00000000000E+00  0.00000000000E+00  0.14999999963E+04  0.15000000000E+04  0.10566000000E+00 0. -1.
        994   -1    0    0    0    0 -0.00000000000E+00 -0.00000000000E+00  0.11368683772E-12  0.17120000000E+03  0.17120000000E+03 0.  0.
         13    1    1    2    0    0 -0.98856835958E+01  0.35599631843E+02  0.12368098142E+03  0.12908158992E+03  0.10566000000E+00 0. -1.
        994    1    1    2    0    0  0.14487327408E+02  0.34658479347E+01  0.67825059733E+01  0.17198063014E+03  0.17120000000E+03 0.  0.
        998    1    1    2    0    0 -0.46016438122E+01 -0.39065479777E+02  0.13695365089E+04  0.13701377799E+04  0.10000000000E+02 0. -1.
</event>
<event>
 5    1  0.1146201E-008  0.3837171E+03  0.7957747E-01  0.3435131E+00
         13   -1    0    0    0    0  0.00000000000E+00  0.00000000000E+00  0.14999999963E+04  0.15000000000E+04  0.10566000000E+00 0.  1.
        994   -1    0    0    0    0 -0.00000000000E+00 -0.00000000000E+00  0.11368683772E-12  0.17120000000E+03  0.17120000000E+03 0.  0.
         13    1    1    2    0    0 -0.12594406332E+01 -0.10654481703E+02  0.24338020613E+02  0.26598018393E+02  0.10566000000E+00 0.  1.
        994    1    1    2    0    0  0.37368710286E+00  0.10980264365E+02  0.26671388876E+01  0.17157289844E+03  0.17120000000E+03 0.  0.
        998    1    1    2    0    0  0.88575353035E+00 -0.32578266237E+00  0.14729948368E+04  0.14730290832E+04  0.10000000000E+02 0.  1.
</event>
<event>
 5    1  0.1146201E-008  0.3706784E+03  0.7957747E-01  0.3492779E+00
         13   -1    0    0    0    0  0.00000000000E+00  0.00000000000E+00  0.14999999963E+04  0.15000000000E+04  0.10566000000E+00 0. -1.
        994   -1    0    0    0    0 -0.00000000000E+00 -0.00000000000E+00  0.11368683772E-12  0.17120000000E+03  0.17120000000E+03 0.  0.
         13    1    1    2    0    0  0.43256537048E+02  0.12384777386E+03  0.63123944261E+03  0.64472679808E+03  0.10566000000E+00 0. -1.
        994    1    1    2    0    0 -0.36685687161E+02 -0.11101981858E+03  0.57665222651E+02  0.21518819127E+03  0.17120000000E+03 0.  0.
        998    1    1    2    0    0 -0.65708498868E+01 -0.12827955279E+02  0.81109533102E+03  0.81128501065E+03  0.10000000000E+02 0.  1.
</event>
<event>
 5    1  0.1146201E-008  0.3784422E+03  0.7957747E-01  0.3457970E+00
         13   -1    0    0    0    0  0.00000000000E+00  0.00000000000E+00  0.14999999963E+04  0.15000000000E+04  0.10566000000E+00 0.  1.
        994   -1    0    0    0    0 -0.00000000000E+00 -0.00000000000E+00  0.11368683772E-12  0.17120000000E+03  0.17120000000E+03 0.  0.
         13    1    1    2    0    0  0.18013584136E+02  0.16271951494E+03  0.98989368293E+03  0.10033402436E+04  0.10566000000E+00 0.  1.
        994    1    1    2    0    0 -0.10408685190E+02 -0.15539206997E+03  0.91294394981E+02  0.24879538318E+03  0.17120000000E+03 0.  0.
        998    1    1    2    0    0 -0.76048989465E+01 -0.73274449794E+01  0.41881191837E+03  0.41906437322E+03  0.10000000000E+02 0.  0.
</event>
<event>
 5    1  0.1146201E-008  0.3838942E+03  0.7957747E-01  0.3434375E+00
         13   -1    0    0    0    0  0.00000000000E+00  0.00000000000E+00  0.14999999963E+04  0.15000000000E+04  0.10566000000E+00 0. -1.
        994   -1    0    0    0    0 -0.00000000000E+00 -0.00000000000E+00  0.11368683772E-12  0.17120000000E+03  0.17120000000E+03 0.  0.
         13    1    1    2    0    0 -0.60695072764E+01 -0.14708280899E+02  0.57188201894E+02  0.59360542834E+02  0.10566000000E+00 0. -1.
        994    1    1    2    0    0  0.13215522316E+02  0.73493930634E+01  0.29351887408E+01  0.17189159067E+03  0.17120000000E+03 0.  0.
        998    1    1    2    0    0 -0.71460150391E+01  0.73588878358E+01  0.14398766056E+04  0.14399478665E+04  0.10000000000E+02 0. -1.
</event>
<event>
 5    1  0.1146201E-008  0.3853231E+03  0.7957747E-01  0.3428303E+00
         13   -1    0    0    0    0  0.00000000000E+00  0.00000000000E+00  0.14999999963E+04  0.15000000000E+04  0.10566000000E+00 0.  1.
        994   -1    0    0    0    0 -0.00000000000E+00 -0.00000000000E+00  0.11368683772E-12  0.17120000000E+03  0.17120000000E+03 0.  0.
         13    1    1    2    0    0 -0.69367184449E+01  0.89182585470E+01  0.45481661570E+02  0.46864123821E+02  0.10566000000E+00 0.  1.
        994    1    1    2    0    0  0.10047924001E+02  0.80499873155E+01  0.20145774583E+01  0.17169525793E+03  0.17120000000E+03 0.  0.
        998    1    1    2    0    0 -0.31112055558E+01 -0.16968245862E+02  0.14525037573E+04  0.14526406183E+04  0.10000000000E+02 0.  1.
</event>
<event>
 5    1  0.1146201E-008  0.3821970E+03  0.7957747E-01  0.3441648E+00
         13   -1    0    0    0    0  0.00000000000E+00  0.00000000000E+00  0.14999999963E+04  0.15000000000E+04  0.10566000000E+00 0. -1.
        994   -1    0    0    0    0 -0.00000000000E+00 -0.00000000000E+00  0.11368683772E-12  0.17120000000E+03  0.17120000000E+03 0.  0.
         13    1    1    2    0    0 -0.81344573782E+01  0.12520469949E+02  0.42210768277E+02  0.44773783481E+02  0.10566000000E+00 0. -1.
        994    1    1    2    0    0 -0.91675555974E+01  0.31515991601E+02  0.66118169161E+01  0.17444327997E+03  0.17120000000E+03 0.  0.
        998    1    1    2    0    0  0.17302012976E+02 -0.44036461550E+02  0.14511774111E+04  0.14519829366E+04  0.10000000000E+02 0. -1.
</event>
<event>
 5    1  0.1146201E-008  0.3819140E+03  0.7957747E-01  0.3442867E+00
         13   -1    0    0    0    0  0.00000000000E+00  0.00000000000E+00  0.14999999963E+04  0.15000000000E+04  0.10566000000E+00 0.  1.
        994   -1    0    0    0    0 -0.00000000000E+00 -0.00000000000E+00  0.11368683772E-12  0.17120000000E+03  0.17120000000E+03 0.  0.
         13    1    1    2    0    0  0.25535355583E+02  0.12174146919E+02  0.13410401840E+03  0.13705532880E+03  0.10566000000E+00 0.  1.
        994    1    1    2    0    0 -0.51477413985E+01 -0.51321528910E+01  0.33456179507E+01  0.17138690555E+03  0.17120000000E+03 0.  0.
        998    1    1    2    0    0 -0.20387614184E+02 -0.70419940276E+01  0.13625503599E+04  0.13627577657E+04  0.10000000000E+02 0.  1.
</event>
<event>
 5    1  0.1146201E-008  0.3827107E+03  0.7957747E-01  0.3439440E+00
         13   -1    0    0    0    0  0.00000000000E+00  0.00000000000E+00  0.14999999963E+04  0.15000000000E+04  0.10566000000E+00 0.  1.
        994   -1    0    0    0    0 -0.00000000000E+00 -0.00000000000E+00  0.11368683772E-12  0.17120000000E+03  0.17120000000E+03 0.  0.
         13    1    1    2    0    0 -0.11745568140E+02  0.42678421467E+01  0.26909627816E+02  0.29670053602E+02  0.10566000000E+00 0.  1.
        994    1    1    2    0    0  0.38257480949E+01 -0.23679239587E+02  0.46796048516E+01  0.17293548345E+03  0.17120000000E+03 0.  0.
        998    1    1    2    0    0  0.79198200454E+01  0.19411397441E+02  0.14684107636E+04  0.14685944629E+04  0.10000000000E+02 0.  1.
</event>
<event>
 5    1  0.1146201E-008  0.3774438E+03  0.7957747E-01  0.3462365E+00
         13   -1    0    0    0    0  0.00000000000E+00  0.00000000000E+00  0.14999999963E+04  0.15000000000E+04  0.10566000000E+00 0.  1.
        994   -1    0    0    0    0 -0.00000000000E+00 -0.00000000000E+00  0.11368683772E-12  0.17120000000E+03  0.17120000000E+03 0.  0.
         13    1    1    2    0    0 -0.14877386304E+03  0.13095581168E+03  0.97288810552E+03  0.99287177620E+03  0.10566000000E+00 0.  1.
        994    1    1    2    0    0  0.15631512188E+03 -0.12148091382E+03  0.15155020647E+03  0.30243831575E+03  0.17120000000E+03 0.  0.
        998    1    1    2    0    0 -0.75412588392E+01 -0.94748978548E+01  0.37556168428E+03  0.37588990805E+03  0.10000000000E+02 0.  1.
</event>
<event>
 5    1  0.1146201E-008  0.3831239E+03  0.7957747E-01  0.3437668E+00
         13   -1    0    0    0    0  0.00000000000E+00  0.00000000000E+00  0.14999999963E+04  0.15000000000E+04  0.10566000000E+00 0.  1.
        994   -1    0    0    0    0 -0.00000000000E+00 -0.00000000000E+00  0.11368683772E-12  0.17120000000E+03  0.17120000000E+03 0.  0.
         13    1    1    2    0    0 -0.58278056517E+01  0.15336635958E+02  0.52446743139E+02  0.54953141413E+02  0.10566000000E+00 0.  1.
        994    1    1    2    0    0  0.12097762308E+01 -0.79569479619E+01  0.27788338622E+01  0.17141160549E+03  0.17120000000E+03 0.  0.
        998    1    1    2    0    0  0.46180294209E+01 -0.73796879959E+01  0.14447744193E+04  0.14448352531E+04  0.10000000000E+02 0.  1.
</event>
<event>
 5    1  0.1146201E-008  0.3855074E+03  0.7957747E-01  0.3427523E+00
         13   -1    0    0    0    0  0.00000000000E+00  0.00000000000E+00  0.14999999963E+04  0.15000000000E+04  0.10566000000E+00 0. -1.
        994   -1    0    0    0    0 -0.00000000000E+00 -0.00000000000E+00  0.11368683772E-12  0.17120000000E+03  0.17120000000E+03 0.  0.
         13    1    1    2    0    0  0.10252486546E+02  0.61688115279E+01  0.51149018445E+02  0.52530000647E+02  0.10566000000E+00 0. -1.
        994    1    1    2    0    0 -0.10890793499E+02 -0.37931373808E+01  0.18152104926E+01  0.17159758816E+03  0.17120000000E+03 0.  0.
        998    1    1    2    0    0  0.63830695322E+00 -0.23756741471E+01  0.14470357673E+04  0.14470724112E+04  0.10000000000E+02 0. -1.
</event>
<event>
 5    1  0.1146201E-008  0.3861034E+03  0.7957747E-01  0.3425006E+00
         13   -1    0    0    0    0  0.00000000000E+00  0.00000000000E+00  0.14999999963E+04  0.15000000000E+04  0.10566000000E+00 0. -1.
        994   -1    0    0    0    0 -0.00000000000E+00 -0.00000000000E+00  0.11368683772E-12  0.17120000000E+03  0.17120000000E+03 0.  0.
         13    1    1    2    0    0 -0.15174069894E+01  0.12498403658E+02  0.71785923053E+02  0.72881702303E+02  0.10566000000E+00 0. -1.
        994    1    1    2    0    0 -0.49292203873E+01 -0.13083196197E+02  0.17240900774E+01  0.17177857760E+03  0.17120000000E+03 0.  0.
        998    1    1    2    0    0  0.64466273767E+01  0.58479253859E+00  0.14264899831E+04  0.14265397201E+04  0.10000000000E+02 0. -1.
</event>
<event>
 5    1  0.1146201E-008  0.3817998E+03  0.7957747E-01  0.3443359E+00
         13   -1    0    0    0    0  0.00000000000E+00  0.00000000000E+00  0.14999999963E+04  0.15000000000E+04  0.10566000000E+00 0.  1.
        994   -1    0    0    0    0 -0.00000000000E+00 -0.00000000000E+00  0.11368683772E-12  0.17120000000E+03  0.17120000000E+03 0.  0.
         13    1    1    2    0    0 -0.14820913242E+02 -0.49718566441E+01  0.36325569610E+02  0.39546643338E+02  0.10566000000E+00 0.  1.
        994    1    1    2    0    0  0.13407384975E+02  0.18515814502E+01  0.38363570197E+01  0.17177701814E+03  0.17120000000E+03 0.  0.
        998    1    1    2    0    0  0.14135282675E+01  0.31202751939E+01  0.14598380696E+04  0.14598763385E+04  0.10000000000E+02 0.  1.
</event>
<event>
 5    1  0.1146201E-008  0.3782538E+03  0.7957747E-01  0.3458797E+00
         13   -1    0    0    0    0  0.00000000000E+00  0.00000000000E+00  0.14999999963E+04  0.15000000000E+04  0.10566000000E+00 0. -1.
        994   -1    0    0    0    0 -0.00000000000E+00 -0.00000000000E+00  0.11368683772E-12  0.17120000000E+03  0.17120000000E+03 0.  0.
         13    1    1    2    0    0 -0.36134386338E+02  0.15849050922E+02  0.15148271280E+03  0.15653724711E+03  0.10566000000E+00 0. -1.
        994    1    1    2    0    0  0.69632433992E+01 -0.52317414694E+02  0.14441094863E+02  0.17973197784E+03  0.17120000000E+03 0.  0.
        998    1    1    2    0    0  0.29171142939E+02  0.36468363772E+02  0.13340761886E+04  0.13349307750E+04  0.10000000000E+02 0. -1.
</event>
<event>
 5    1  0.1146201E-008  0.3759518E+03  0.7957747E-01  0.3468977E+00
         13   -1    0    0    0    0  0.00000000000E+00  0.00000000000E+00  0.14999999963E+04  0.15000000000E+04  0.10566000000E+00 0.  1.
        994   -1    0    0    0    0 -0.00000000000E+00 -0.00000000000E+00  0.11368683772E-12  0.17120000000E+03  0.17120000000E+03 0.  0.
         13    1    1    2    0    0 -0.76953690626E+02 -0.16161403331E+02  0.19218659099E+03  0.20765056797E+03  0.10566000000E+00 0.  1.
        994    1    1    2    0    0  0.78961228560E+02 -0.19077223095E+02  0.38076107499E+02  0.19328229619E+03  0.17120000000E+03 0.  0.
        998    1    1    2    0    0 -0.20075379339E+01  0.35238626426E+02  0.12697372978E+04  0.12702671358E+04  0.10000000000E+02 0.  1.
</event>
<event>
 5    1  0.1146201E-008  0.3699874E+03  0.7957747E-01  0.3495949E+00
         13   -1    0    0    0    0  0.00000000000E+00  0.00000000000E+00  0.14999999963E+04  0.15000000000E+04  0.10566000000E+00 0. -1.
        994   -1    0    0    0    0 -0.00000000000E+00 -0.00000000000E+00  0.11368683772E-12  0.17120000000E+03  0.17120000000E+03 0.  0.
         13    1    1    2    0    0 -0.57306080487E+00 -0.32214255864E+02  0.51294948348E+02  0.60574496032E+02  0.10566000000E+00 0. -1.
        994    1    1    2    0    0  0.70270718464E+00  0.28769403829E+02  0.12144646332E+02  0.17402616133E+03  0.17120000000E+03 0.  0.
        998    1    1    2    0    0 -0.12964637977E+00  0.34448520345E+01  0.14365604016E+04  0.14365993426E+04  0.10000000000E+02 0. -1.
</event>
<event>
 5    1  0.1146201E-008  0.3861161E+03  0.7957747E-01  0.3424952E+00
         13   -1    0    0    0    0  0.00000000000E+00  0.00000000000E+00  0.14999999963E+04  0.15000000000E+04  0.10566000000E+00 0.  1.
        994   -1    0    0    0    0 -0.00000000000E+00 -0.00000000000E+00  0.11368683772E-12  0.17120000000E+03  0.17120000000E+03 0.  0.
         13    1    1    2    0    0  0.51075189389E+01  0.10359257373E+02  0.62537271327E+02  0.63594987477E+02  0.10566000000E+00 0.  1.
        994    1    1    2    0    0 -0.44347270676E+01 -0.69913452176E+01  0.13016509890E+01  0.17140501745E+03  0.17120000000E+03 0.  0.
        998    1    1    2    0    0 -0.67279187137E+00 -0.33679121558E+01  0.14361610740E+04  0.14361999951E+04  0.10000000000E+02 0.  1.
</event>
<event>
 5    1  0.1146201E-008  0.3703777E+03  0.7957747E-01  0.3494157E+00
         13   -1    0    0    0    0  0.00000000000E+00  0.00000000000E+00  0.14999999963E+04  0.15000000000E+04  0.10566000000E+00 0. -1.
        994   -1    0    0    0    0 -0.00000000000E+00 -0.00000000000E+00  0.11368683772E-12  0.17120000000E+03  0.17120000000E+03 0.  0.
         13    1    1    2    0    0 -0.20591657933E+02  0.47028368217E+02  0.13633905372E+03  0.14568470244E+03  0.10566000000E+00 0. -1.
        994    1    1    2    0    0  0.25250583748E+02 -0.33557867685E+02  0.15186856799E+02  0.17692880795E+03  0.17120000000E+03 0.  0.
        998    1    1    2    0    0 -0.46589258142E+01 -0.13470500532E+02  0.13484740858E+04  0.13485864896E+04  0.10000000000E+02 0. -1.
</event>
<event>
 5    1  0.1146201E-008  0.3709416E+03  0.7957747E-01  0.3491574E+00
         13   -1    0    0    0    0  0.00000000000E+00  0.00000000000E+00  0.14999999963E+04  0.15000000000E+04  0.10566000000E+00 0. -1.
        994   -1    0    0    0    0 -0.00000000000E+00 -0.00000000000E+00  0.11368683772E-12  0.17120000000E+03  0.17120000000E+03 0.  0.
         13    1    1    2    0    0  0.31022805566E+01 -0.17535179946E+02  0.14104941833E+02  0.22717113121E+02  0.10566000000E+00 0. -1.
        994    1    1    2    0    0 -0.56327520932E+01  0.15555283823E+02  0.97215381947E+01  0.17227200311E+03  0.17120000000E+03 0.  0.
        998    1    1    2    0    0  0.25304715365E+01  0.19798961231E+01  0.14761735163E+04  0.14762108838E+04  0.10000000000E+02 0. -1.
</event>
<event>
 5    1  0.1146201E-008  0.3854846E+03  0.7957747E-01  0.3427620E+00
         13   -1    0    0    0    0  0.00000000000E+00  0.00000000000E+00  0.14999999963E+04  0.15000000000E+04  0.10566000000E+00 0. -1.
        994   -1    0    0    0    0 -0.00000000000E+00 -0.00000000000E+00  0.11368683772E-12  0.17120000000E+03  0.17120000000E+03 0.  0.
         13    1    1    2    0    0  0.15475586647E+02 -0.21803384721E+01  0.84835458309E+02  0.86263050077E+02  0.10566000000E+00 0. -1.
        994    1    1    2    0    0 -0.15241206811E+02  0.15911904659E+01  0.21611575688E+01  0.17189804209E+03  0.17120000000E+03 0.  0.
        998    1    1    2    0    0 -0.23437983584E+00  0.58914800613E+00  0.14130033804E+04  0.14130389078E+04  0.10000000000E+02 0.  0.
</event>
<event>
 5    1  0.1146201E-008  0.3869962E+03  0.7957747E-01  0.3421250E+00
         13   -1    0    0    0    0  0.00000000000E+00  0.00000000000E+00  0.14999999963E+04  0.15000000000E+04  0.10566000000E+00 0. -1.
        994   -1    0    0    0    0 -0.00000000000E+00 -0.00000000000E+00  0.11368683772E-12  0.17120000000E+03  0.17120000000E+03 0.  0.
         13    1    1    2    0    0  0.63253494666E+01 -0.40377669233E+02  0.32307558150E+02  0.52097559408E+02  0.10566000000E+00 0. -1.
        994    1    1    2    0    0 -0.18303090596E+02  0.43184935321E+02  0.28451869212E+02  0.17977455500E+03  0.17120000000E+03 0.  0.
        998    1    1    2    0    0  0.11977741129E+02 -0.28072660872E+01  0.14392405689E+04  0.14393278856E+04  0.10000000000E+02 0. -1.
</event>
<event>
 5    1  0.1146201E-008  0.3787245E+03  0.7957747E-01  0.3456731E+00
         13   -1    0    0    0    0  0.00000000000E+00  0.00000000000E+00  0.14999999963E+04  0.15000000000E+04  0.10566000000E+00 0.  1.
        994   -1    0    0    0    0 -0.00000000000E+00 -0.00000000000E+00  0.11368683772E-12  0.17120000000E+03  0.17120000000E+03 0.  0.
         13    1    1    2    0    0 -0.11539858899E+02 -0.34913657630E+02  0.13075796301E+03  0.13582999627E+03  0.10566000000E+00 0.  1.
        994    1    1    2    0    0  0.13036990989E+02  0.31560240701E+02  0.87027204330E+01  0.17478898498E+03  0.17120000000E+03 0.  0.
        998    1    1    2    0    0 -0.14971320900E+01  0.33534169292E+01  0.13605393128E+04  0.13605810187E+04  0.10000000000E+02 0.  0.
</event>
<event>
 5    1  0.1146201E-008  0.3727752E+03  0.7957747E-01  0.3483233E+00
         13   -1    0    0    0    0  0.00000000000E+00  0.00000000000E+00  0.14999999963E+04  0.15000000000E+04  0.10566000000E+00 0. -1.
        994   -1    0    0    0    0 -0.00000000000E+00 -0.00000000000E+00  0.11368683772E-12  0.17120000000E+03  0.17120000000E+03 0.  0.
         13    1    1    2    0    0  0.56325134303E+01 -0.85941149641E+01  0.30669192699E+01  0.10723860191E+02  0.10566000000E+00 0. -1.
        994    1    1    2    0    0 -0.69935974020E+01  0.87819929099E+01  0.82574504294E+01  0.17176629265E+03  0.17120000000E+03 0.  0.
        998    1    1    2    0    0  0.13610839718E+01 -0.18787794583E+00  0.14886756266E+04  0.14887098472E+04  0.10000000000E+02 0. -1.
</event>
<event>
 5    1  0.1146201E-008  0.3827540E+03  0.7957747E-01  0.3439254E+00
         13   -1    0    0    0    0  0.00000000000E+00  0.00000000000E+00  0.14999999963E+04  0.15000000000E+04  0.10566000000E+00 0.  1.
        994   -1    0    0    0    0 -0.00000000000E+00 -0.00000000000E+00  0.11368683772E-12  0.17120000000E+03  0.17120000000E+03 0.  0.
         13    1    1    2    0    0 -0.13064602616E+02 -0.20856551810E+02  0.10529563537E+03  0.10813353590E+03  0.10566000000E+00 0.  1.
        994    1    1    2    0    0  0.14387346924E+02  0.15888792584E+02  0.42728933286E+01  0.17258953357E+03  0.17120000000E+03 0.  0.
        998    1    1    2    0    0 -0.13227443082E+01  0.49677592252E+01  0.13904314676E+04  0.13904769305E+04  0.10000000000E+02 0.  1.
</event>
<event>
 5    1  0.1146201E-008  0.3840273E+03  0.7957747E-01  0.3433808E+00
         13   -1    0    0    0    0  0.00000000000E+00  0.00000000000E+00  0.14999999963E+04  0.15000000000E+04  0.10566000000E+00 0. -1.
        994   -1    0    0    0    0 -0.00000000000E+00 -0.00000000000E+00  0.11368683772E-12  0.17120000000E+03  0.17120000000E+03 0.  0.
         13    1    1    2    0    0 -0.88021787442E+01 -0.14612250438E+02  0.66271858943E+02  0.68432204884E+02  0.10566000000E+00 0. -1.
        994    1    1    2    0    0  0.14556633767E+02  0.10803859997E+02  0.31987272614E+01  0.17218679053E+03  0.17120000000E+03 0.  0.
        998    1    1    2    0    0 -0.57544550231E+01  0.38083904405E+01  0.14305294101E+04  0.14305810046E+04  0.10000000000E+02 0. -1.
</event>
<event>
 5    1  0.1146201E-008  0.3859089E+03  0.7957747E-01  0.3425826E+00
         13   -1    0    0    0    0  0.00000000000E+00  0.00000000000E+00  0.14999999963E+04  0.15000000000E+04  0.10566000000E+00 0.  1.
        994   -1    0    0    0    0 -0.00000000000E+00 -0.00000000000E+00  0.11368683772E-12  0.17120000000E+03  0.17120000000E+03 0.  0.
         13    1    1    2    0    0 -0.98575592620E+01 -0.75564463061E+01  0.63465138121E+02  0.64669206553E+02  0.10566000000E+00 0.  1.
        994    1    1    2    0    0  0.10746509090E+02  0.86848187812E+01  0.18057952321E+01  0.17176616207E+03  0.17120000000E+03 0.  0.
        998    1    1    2    0    0 -0.88894982824E+00 -0.11283724751E+01  0.14347290629E+04  0.14347646314E+04  0.10000000000E+02 0.  1.
</event>
<event>
 5    1  0.1146201E-008  0.3828942E+03  0.7957747E-01  0.3438652E+00
         13   -1    0    0    0    0  0.00000000000E+00  0.00000000000E+00  0.14999999963E+04  0.15000000000E+04  0.10566000000E+00 0. -1.
        994   -1    0    0    0    0 -0.00000000000E+00 -0.00000000000E+00  0.11368683772E-12  0.17120000000E+03  0.17120000000E+03 0.  0.
         13    1    1    2    0    0 -0.27143501147E+02 -0.18935826023E+02  0.19447533067E+03  0.19727138810E+03  0.10566000000E+00 0. -1.
        994    1    1    2    0    0  0.23283887410E+02  0.96004249049E+01  0.47824084741E+01  0.17310869130E+03  0.17120000000E+03 0.  0.
        998    1    1    2    0    0  0.38596137374E+01  0.93354011178E+01  0.13007422571E+04  0.13008199206E+04  0.10000000000E+02 0. -1.
</event>
<event>
 5    1  0.1146201E-008  0.2707208E+03  0.7957747E-01  0.4130105E+00
         13   -1    0    0    0    0  0.00000000000E+00  0.00000000000E+00  0.14999999963E+04  0.15000000000E+04  0.10566000000E+00 0. -1.
        994   -1    0    0    0    0 -0.00000000000E+00 -0.00000000000E+00  0.11368683772E-12  0.17120000000E+03  0.17120000000E+03 0.  0.
         13    1    1    2    0    0  0.79228676425E+02  0.15323684157E+03  0.42855477212E+03  0.46197177041E+03  0.10566000000E+00 0. -1.
        994    1    1    2    0    0 -0.81102278608E+02 -0.16549663981E+03  0.16103321883E+03  0.29867684033E+03  0.17120000000E+03 0.  0.
        998    1    1    2    0    0  0.18736021832E+01  0.12259798247E+02  0.91041200533E+03  0.91055138926E+03  0.10000000000E+02 0.  0.
</event>
<event>
 5    1  0.1146201E-008  0.3850017E+03  0.7957747E-01  0.3429665E+00
         13   -1    0    0    0    0  0.00000000000E+00  0.00000000000E+00  0.14999999963E+04  0.15000000000E+04  0.10566000000E+00 0.  1.
        994   -1    0    0    0    0 -0.00000000000E+00 -0.00000000000E+00  0.11368683772E-12  0.17120000000E+03  0.17120000000E+03 0.  0.
         13    1    1    2    0    0  0.27703870306E+01  0.12363823066E+02  0.49690490140E+02  0.51280553229E+02  0.10566000000E+00 0.  1.
        994    1    1    2    0    0  0.29701852938E+01 -0.75781911762E+01  0.18471936078E+01  0.17140333458E+03  0.17120000000E+03 0.  0.
        998    1    1    2    0    0 -0.57405723244E+01 -0.47856318899E+01  0.14484623125E+04  0.14485161122E+04  0.10000000000E+02 0.  1.
</event>
<event>
 5    1  0.1146201E-008  0.3779981E+03  0.7957747E-01  0.3459922E+00
         13   -1    0    0    0    0  0.00000000000E+00  0.00000000000E+00  0.14999999963E+04  0.15000000000E+04  0.10566000000E+00 0. -1.
        994   -1    0    0    0    0 -0.00000000000E+00 -0.00000000000E+00  0.11368683772E-12  0.17120000000E+03  0.17120000000E+03 0.  0.
         13    1    1    2    0    0 -0.44488906800E+02  0.45409030729E+02  0.28345524044E+03  0.29049634662E+03  0.10566000000E+00 0. -1.
        994    1    1    2    0    0  0.55272213890E+02 -0.54224188255E+02  0.25595322603E+02  0.18963080119E+03  0.17120000000E+03 0.  0.
        998    1    1    2    0    0 -0.10783307090E+02  0.88151575262E+01  0.11909494332E+04  0.11910728522E+04  0.10000000000E+02 0. -1.
</event>
<event>
 5    1  0.1146201E-008  0.3860332E+03  0.7957747E-01  0.3425302E+00
         13   -1    0    0    0    0  0.00000000000E+00  0.00000000000E+00  0.14999999963E+04  0.15000000000E+04  0.10566000000E+00 0. -1.
        994   -1    0    0    0    0 -0.00000000000E+00 -0.00000000000E+00  0.11368683772E-12  0.17120000000E+03  0.17120000000E+03 0.  0.
         13    1    1    2    0    0 -0.83325354961E+01 -0.56985055753E+01  0.45446417872E+02  0.46554185366E+02  0.10566000000E+00 0. -1.
        994    1    1    2    0    0  0.88686502772E+01  0.32425996549E+01  0.14103672474E+01  0.17146602155E+03  0.17120000000E+03 0.  0.
        998    1    1    2    0    0 -0.53611478112E+00  0.24559059204E+01  0.14531432112E+04  0.14531797931E+04  0.10000000000E+02 0. -1.
</event>
<event>
 5    1  0.1146201E-008  0.3793343E+03  0.7957747E-01  0.3454062E+00
         13   -1    0    0    0    0  0.00000000000E+00  0.00000000000E+00  0.14999999963E+04  0.15000000000E+04  0.10566000000E+00 0.  1.
        994   -1    0    0    0    0 -0.00000000000E+00 -0.00000000000E+00  0.11368683772E-12  0.17120000000E+03  0.17120000000E+03 0.  0.
         13    1    1    2    0    0 -0.94241520394E+01  0.64498209138E+02  0.34456269704E+03  0.35067406089E+03  0.10566000000E+00 0.  1.
        994    1    1    2    0    0  0.68694590111E+01 -0.70991779674E+02  0.21705602985E+02  0.18672866799E+03  0.17120000000E+03 0.  0.
        998    1    1    2    0    0  0.25546930283E+01  0.64935705361E+01  0.11337316963E+04  0.11337972711E+04  0.10000000000E+02 0.  1.
</event>
<event>
 5    1  0.1146201E-008  0.3989759E+03  0.7957747E-01  0.3372478E+00
         13   -1    0    0    0    0  0.00000000000E+00  0.00000000000E+00  0.14999999963E+04  0.15000000000E+04  0.10566000000E+00 0. -1.
        994   -1    0    0    0    0 -0.00000000000E+00 -0.00000000000E+00  0.11368683772E-12  0.17120000000E+03  0.17120000000E+03 0.  0.
         13    1    1    2    0    0 -0.51420098870E+01 -0.32372650054E+02  0.84824896383E+01  0.33858418919E+02  0.10566000000E+00 0. -1.
        994    1    1    2    0    0  0.27086420517E+01  0.30907485006E+02  0.30929272316E+02  0.17671635255E+03  0.17120000000E+03 0.  0.
        998    1    1    2    0    0  0.24333678353E+01  0.14651650474E+01  0.14605882343E+04  0.14606252285E+04  0.10000000000E+02 0. -1.
</event>
<event>
 5    1  0.1146201E-008  0.3834452E+03  0.7957747E-01  0.3436293E+00
         13   -1    0    0    0    0  0.00000000000E+00  0.00000000000E+00  0.14999999963E+04  0.15000000000E+04  0.10566000000E+00 0. -1.
        994   -1    0    0    0    0 -0.00000000000E+00 -0.00000000000E+00  0.11368683772E-12  0.17120000000E+03  0.17120000000E+03 0.  0.
         13    1    1    2    0    0  0.13534138514E+02 -0.13046098117E+02  0.72356923617E+02  0.74759007088E+02  0.10566000000E+00 0. -1.
        994    1    1    2    0    0 -0.62076153215E+01  0.12836926404E+02  0.30763607113E+01  0.17182032814E+03  0.17120000000E+03 0.  0.
        998    1    1    2    0    0 -0.73265231921E+01  0.20917171290E+00  0.14245667119E+04  0.14246206648E+04  0.10000000000E+02 0. -1.
</event>
<event>
 5    1  0.1146201E-008  0.3733351E+03  0.7957747E-01  0.3480702E+00
         13   -1    0    0    0    0  0.00000000000E+00  0.00000000000E+00  0.14999999963E+04  0.15000000000E+04  0.10566000000E+00 0. -1.
        994   -1    0    0    0    0 -0.00000000000E+00 -0.00000000000E+00  0.11368683772E-12  0.17120000000E+03  0.17120000000E+03 0.  0.
         13    1    1    2    0    0  0.78229607091E+02 -0.45373210183E+01  0.20469490768E+03  0.21918137490E+03  0.10566000000E+00 0. -1.
        994    1    1    2    0    0 -0.77068605489E+02  0.41127572537E+02  0.40222934580E+02  0.19636285708E+03  0.17120000000E+03 0.  0.
        998    1    1    2    0    0 -0.11610016020E+01 -0.36590251518E+02  0.12550821540E+04  0.12556557680E+04  0.10000000000E+02 0. -1.
</event>
<event>
 5    1  0.1146201E-008  0.3833723E+03  0.7957747E-01  0.3436605E+00
         13   -1    0    0    0    0  0.00000000000E+00  0.00000000000E+00  0.14999999963E+04  0.15000000000E+04  0.10566000000E+00 0.  1.
        994   -1    0    0    0    0 -0.00000000000E+00 -0.00000000000E+00  0.11368683772E-12  0.17120000000E+03  0.17120000000E+03 0.  0.
         13    1    1    2    0    0  0.16778836748E+02 -0.16127348758E+02  0.10643540999E+03  0.10895011888E+03  0.10566000000E+00 0.  1.
        994    1    1    2    0    0 -0.10501084795E+02  0.17621820236E+02  0.38328564391E+01  0.17246719143E+03  0.17120000000E+03 0.  0.
        998    1    1    2    0    0 -0.62777519525E+01 -0.14944714774E+01  0.13897317298E+04  0.13897826897E+04  0.10000000000E+02 0.  1.
</event>
<event>
 5    1  0.2154670E-008  0.3864274E+03  0.7957747E-01  0.3423641E+00
         13   -1    0    0    0    0  0.00000000000E+00  0.00000000000E+00  0.14999999963E+04  0.15000000000E+04  0.10566000000E+00 0. -1.
        994   -1    0    0    0    0 -0.00000000000E+00 -0.00000000000E+00  0.11368683772E-12  0.17120000000E+03  0.17120000000E+03 0.  0.
         13    1    1    2    0    0 -0.38019643048E+01  0.11008348792E+02  0.69119392365E+02  0.70093796021E+02  0.10566000000E+00 0. -1.
        994    1    1    2    0    0  0.62557654079E+01 -0.16078422584E+02  0.18980685578E+01  0.17207757825E+03  0.17120000000E+03 0.  0.
        998    1    1    2    0    0 -0.24538011030E+01  0.50700737916E+01  0.14289825354E+04  0.14290286257E+04  0.10000000000E+02 0. -1.
</event>
<event>
 5    1  0.1146201E-008  0.3817676E+03  0.7957747E-01  0.3443498E+00
         13   -1    0    0    0    0  0.00000000000E+00  0.00000000000E+00  0.14999999963E+04  0.15000000000E+04  0.10566000000E+00 0. -1.
        994   -1    0    0    0    0 -0.00000000000E+00 -0.00000000000E+00  0.11368683772E-12  0.17120000000E+03  0.17120000000E+03 0.  0.
         13    1    1    2    0    0  0.14726937307E+02 -0.12725414552E+02  0.54163788682E+02  0.57554722016E+02  0.10566000000E+00 0. -1.
        994    1    1    2    0    0 -0.19457804936E+02  0.16921564897E+02  0.54566128764E+01  0.17321708968E+03  0.17120000000E+03 0.  0.
        998    1    1    2    0    0  0.47308676283E+01 -0.41961503454E+01  0.14403795947E+04  0.14404281883E+04  0.10000000000E+02 0. -1.
</event>
<event>
 5    1  0.1146201E-008  0.3838104E+03  0.7957747E-01  0.3434733E+00
         13   -1    0    0    0    0  0.00000000000E+00  0.00000000000E+00  0.14999999963E+04  0.15000000000E+04  0.10566000000E+00 0.  1.
        994   -1    0    0    0    0 -0.00000000000E+00 -0.00000000000E+00  0.11368683772E-12  0.17120000000E+03  0.17120000000E+03 0.  0.
         13    1    1    2    0    0 -0.15444572664E+02 -0.29145433931E+01  0.54063540624E+02  0.56301926937E+02  0.10566000000E+00 0.  1.
        994    1    1    2    0    0  0.14254795093E+02  0.10871541270E+00  0.28930729740E+01  0.17181682360E+03  0.17120000000E+03 0.  0.
        998    1    1    2    0    0  0.11897775707E+01  0.28058279804E+01  0.14430433827E+04  0.14430812495E+04  0.10000000000E+02 0.  1.
</event>
<event>
 5    1  0.1146201E-008  0.3808249E+03  0.7957747E-01  0.3447574E+00
         13   -1    0    0    0    0  0.00000000000E+00  0.00000000000E+00  0.14999999963E+04  0.15000000000E+04  0.10566000000E+00 0. -1.
        994   -1    0    0    0    0 -0.00000000000E+00 -0.00000000000E+00  0.11368683772E-12  0.17120000000E+03  0.17120000000E+03 0.  0.
         13    1    1    2    0    0  0.94155194647E+01 -0.13478322601E+02  0.33761941433E+02  0.37552590327E+02  0.10566000000E+00 0. -1.
        994    1    1    2    0    0 -0.13344590192E+02  0.16756155963E+02  0.52485259442E+01  0.17261469774E+03  0.17120000000E+03 0.  0.
        998    1    1    2    0    0  0.39290707272E+01 -0.32778333624E+01  0.14609895289E+04  0.14610327119E+04  0.10000000000E+02 0. -1.
</event>
<event>
 5    1  0.1543280E-008  0.3860632E+03  0.7957747E-01  0.3425175E+00
         13   -1    0    0    0    0  0.00000000000E+00  0.00000000000E+00  0.14999999963E+04  0.15000000000E+04  0.10566000000E+00 0. -1.
        994   -1    0    0    0    0 -0.00000000000E+00 -0.00000000000E+00  0.11368683772E-12  0.17120000000E+03  0.17120000000E+03 0.  0.
         13    1    1    2    0    0  0.25567145335E+01 -0.12347515631E+02  0.72943724029E+02  0.74025644007E+02  0.10566000000E+00 0. -1.
        994    1    1    2    0    0 -0.55539380451E+01  0.74411953287E+01  0.13857989301E+01  0.17145721931E+03  0.17120000000E+03 0.  0.
        998    1    1    2    0    0  0.29972235116E+01  0.49063203022E+01  0.14256704733E+04  0.14257171367E+04  0.10000000000E+02 0. -1.
</event>
<event>
 5    1  0.1146201E-008  0.3841110E+03  0.7957747E-01  0.3433451E+00
         13   -1    0    0    0    0  0.00000000000E+00  0.00000000000E+00  0.14999999963E+04  0.15000000000E+04  0.10566000000E+00 0. -1.
        994   -1    0    0    0    0 -0.00000000000E+00 -0.00000000000E+00  0.11368683772E-12  0.17120000000E+03  0.17120000000E+03 0.  0.
         13    1    1    2    0    0  0.10912232450E+01 -0.19869091960E+02  0.97358944869E+02  0.99371761047E+02  0.10566000000E+00 0. -1.
        994    1    1    2    0    0  0.52317956077E+01  0.96315757776E+01  0.24684963151E+01  0.17156827332E+03  0.17120000000E+03 0.  0.
        998    1    1    2    0    0 -0.63230188527E+01  0.10237516182E+02  0.14001725551E+04  0.14002599656E+04  0.10000000000E+02 0. -1.
</event>
<event>
 5    1  0.1146201E-008  0.3846107E+03  0.7957747E-01  0.3431325E+00
         13   -1    0    0    0    0  0.00000000000E+00  0.00000000000E+00  0.14999999963E+04  0.15000000000E+04  0.10566000000E+00 0.  1.
        994   -1    0    0    0    0 -0.00000000000E+00 -0.00000000000E+00  0.11368683772E-12  0.17120000000E+03  0.17120000000E+03 0.  0.
         13    1    1    2    0    0 -0.11272253177E+02  0.11219018716E+02  0.76972119365E+02  0.78598017763E+02  0.10566000000E+00 0.  1.
        994    1    1    2    0    0 -0.12116714750E+02 -0.44086018106E+01  0.23711563801E+01  0.17170123159E+03  0.17120000000E+03 0.  0.
        998    1    1    2    0    0  0.23388967927E+02 -0.68104169050E+01  0.14206567205E+04  0.14209007506E+04  0.10000000000E+02 0.  1.
</event>
<event>
 5    1  0.1146201E-008  0.3756969E+03  0.7957747E-01  0.3470112E+00
         13   -1    0    0    0    0  0.00000000000E+00  0.00000000000E+00  0.14999999963E+04  0.15000000000E+04  0.10566000000E+00 0.  1.
        994   -1    0    0    0    0 -0.00000000000E+00 -0.00000000000E+00  0.11368683772E-12  0.17120000000E+03  0.17120000000E+03 0.  0.
         13    1    1    2    0    0  0.28212521831E+02 -0.73448101451E+02  0.39511192562E+03  0.40286972451E+03  0.10566000000E+00 0.  1.
        994    1    1    2    0    0 -0.32740565414E+02  0.60948368200E+02  0.22730744022E+02  0.18604508844E+03  0.17120000000E+03 0.  0.
        998    1    1    2    0    0  0.45280435829E+01  0.12499733251E+02  0.10821573266E+04  0.10822851870E+04  0.10000000000E+02 0.  1.
</event>
<event>
 5    1  0.1146201E-008  0.3827244E+03  0.7957747E-01  0.3439381E+00
         13   -1    0    0    0    0  0.00000000000E+00  0.00000000000E+00  0.14999999963E+04  0.15000000000E+04  0.10566000000E+00 0.  1.
        994   -1    0    0    0    0 -0.00000000000E+00 -0.00000000000E+00  0.11368683772E-12  0.17120000000E+03  0.17120000000E+03 0.  0.
         13    1    1    2    0    0 -0.22078181015E+02 -0.14673661939E+02  0.13447354933E+03  0.13706169803E+03  0.10566000000E+00 0.  1.
        994    1    1    2    0    0  0.17098905231E+02 -0.11548800097E+02  0.41759924715E+01  0.17248949608E+03  0.17120000000E+03 0.  0.
        998    1    1    2    0    0  0.49792757837E+01  0.26222462036E+02  0.13613504545E+04  0.13616488059E+04  0.10000000000E+02 0.  1.
</event>
<event>
 5    1  0.1146201E-008  0.3734593E+03  0.7957747E-01  0.3480142E+00
         13   -1    0    0    0    0  0.00000000000E+00  0.00000000000E+00  0.14999999963E+04  0.15000000000E+04  0.10566000000E+00 0.  1.
        994   -1    0    0    0    0 -0.00000000000E+00 -0.00000000000E+00  0.11368683772E-12  0.17120000000E+03  0.17120000000E+03 0.  0.
         13    1    1    2    0    0 -0.31538311322E+02 -0.30415764753E+02  0.15570533354E+03  0.16175273068E+03  0.10566000000E+00 0.  1.
        994    1    1    2    0    0 -0.11628169463E+02 -0.99412946836E+01  0.82721408059E+01  0.17208112034E+03  0.17120000000E+03 0.  0.
        998    1    1    2    0    0  0.43166480785E+02  0.40357059436E+02  0.13360225219E+04  0.13373661490E+04  0.10000000000E+02 0.  1.
</event>
<event>
 5    1  0.1146201E-008  0.3859208E+03  0.7957747E-01  0.3425776E+00
         13   -1    0    0    0    0  0.00000000000E+00  0.00000000000E+00  0.14999999963E+04  0.15000000000E+04  0.10566000000E+00 0. -1.
        994   -1    0    0    0    0 -0.00000000000E+00 -0.00000000000E+00  0.11368683772E-12  0.17120000000E+03  0.17120000000E+03 0.  0.
         13    1    1    2    0    0  0.74480849397E+01 -0.75221080589E+01  0.48026686436E+02  0.49179567433E+02  0.10566000000E+00 0. -1.
        994    1    1    2    0    0 -0.15102327005E+01  0.95249960231E+01  0.14786751986E+01  0.17147779108E+03  0.17120000000E+03 0.  0.
        998    1    1    2    0    0 -0.59378522393E+01 -0.20028879642E+01  0.14504946346E+04  0.14505426415E+04  0.10000000000E+02 0. -1.
</event>
<event>
 5    1  0.1146201E-008  0.3824394E+03  0.7957747E-01  0.3440605E+00
         13   -1    0    0    0    0  0.00000000000E+00  0.00000000000E+00  0.14999999963E+04  0.15000000000E+04  0.10566000000E+00 0.  1.
        994   -1    0    0    0    0 -0.00000000000E+00 -0.00000000000E+00  0.11368683772E-12  0.17120000000E+03  0.17120000000E+03 0.  0.
         13    1    1    2    0    0 -0.85245220379E+01  0.63593435111E+01  0.18433577760E+02  0.21281839181E+02  0.10566000000E+00 0.  1.
        994    1    1    2    0    0  0.72957798112E+01  0.91872384498E+00  0.30861370096E+01  0.17138563737E+03  0.17120000000E+03 0.  0.
        998    1    1    2    0    0  0.12287422267E+01 -0.72780673561E+01  0.14784802815E+04  0.14785325234E+04  0.10000000000E+02 0.  1.
</event>
<event>
 5    1  0.1146201E-008  0.3832243E+03  0.7957747E-01  0.3437238E+00
         13   -1    0    0    0    0  0.00000000000E+00  0.00000000000E+00  0.14999999963E+04  0.15000000000E+04  0.10566000000E+00 0. -1.
        994   -1    0    0    0    0 -0.00000000000E+00 -0.00000000000E+00  0.11368683772E-12  0.17120000000E+03  0.17120000000E+03 0.  0.
         13    1    1    2    0    0  0.17303087489E+02  0.98042213839E+00  0.58445283577E+02  0.60960810368E+02  0.10566000000E+00 0. -1.
        994    1    1    2    0    0 -0.12997419200E+02 -0.63110806977E+01  0.32051222792E+01  0.17183851563E+03  0.17120000000E+03 0.  0.
        998    1    1    2    0    0 -0.43056682888E+01  0.53306585593E+01  0.14383495904E+04  0.14384006740E+04  0.10000000000E+02 0. -1.
</event>
<event>
 5    1  0.1146201E-008  0.3771421E+03  0.7957747E-01  0.3463697E+00
         13   -1    0    0    0    0  0.00000000000E+00  0.00000000000E+00  0.14999999963E+04  0.15000000000E+04  0.10566000000E+00 0. -1.
        994   -1    0    0    0    0 -0.00000000000E+00 -0.00000000000E+00  0.11368683772E-12  0.17120000000E+03  0.17120000000E+03 0.  0.
         13    1    1    2    0    0 -0.12811040723E+02  0.16659954240E+01  0.12282357085E+02  0.17825985660E+02  0.10566000000E+00 0. -1.
        994    1    1    2    0    0  0.15772551318E+02 -0.29885058340E+01  0.64529654216E+01  0.17207203522E+03  0.17120000000E+03 0.  0.
        998    1    1    2    0    0 -0.29615105953E+01  0.13225104100E+01  0.14812646738E+04  0.14813019791E+04  0.10000000000E+02 0. -1.
</event>
<event>
 5    1  0.1146201E-008  0.3829783E+03  0.7957747E-01  0.3438292E+00
         13   -1    0    0    0    0  0.00000000000E+00  0.00000000000E+00  0.14999999963E+04  0.15000000000E+04  0.10566000000E+00 0.  1.
        994   -1    0    0    0    0 -0.00000000000E+00 -0.00000000000E+00  0.11368683772E-12  0.17120000000E+03  0.17120000000E+03 0.  0.
         13    1    1    2    0    0 -0.11304551019E+02 -0.13892204765E+02  0.61650493233E+02  0.64199538214E+02  0.10566000000E+00 0.  1.
        994    1    1    2    0    0  0.49744052899E+01  0.41256627890E+01  0.27754628555E+01  0.17134441630E+03  0.17120000000E+03 0.  0.
        998    1    1    2    0    0  0.63301457288E+01  0.97665419758E+01  0.14355740402E+04  0.14356560455E+04  0.10000000000E+02 0.  1.
</event>
<event>
 5    1  0.1146201E-008  0.3812968E+03  0.7957747E-01  0.3445531E+00
         13   -1    0    0    0    0  0.00000000000E+00  0.00000000000E+00  0.14999999963E+04  0.15000000000E+04  0.10566000000E+00 0. -1.
        994   -1    0    0    0    0 -0.00000000000E+00 -0.00000000000E+00  0.11368683772E-12  0.17120000000E+03  0.17120000000E+03 0.  0.
         13    1    1    2    0    0 -0.29619142424E+02  0.30427089849E+00  0.14781616174E+03  0.15075481755E+03  0.10566000000E+00 0. -1.
        994    1    1    2    0    0 -0.57532907289E+01  0.19633627904E+02  0.48745112841E+01  0.17248704461E+03  0.17120000000E+03 0.  0.
        998    1    1    2    0    0  0.35372433153E+02 -0.19937898803E+02  0.13473093233E+04  0.13479581378E+04  0.10000000000E+02 0. -1.
</event>
<event>
 5    1  0.1146201E-008  0.3842330E+03  0.7957747E-01  0.3432932E+00
         13   -1    0    0    0    0  0.00000000000E+00  0.00000000000E+00  0.14999999963E+04  0.15000000000E+04  0.10566000000E+00 0. -1.
        994   -1    0    0    0    0 -0.00000000000E+00 -0.00000000000E+00  0.11368683772E-12  0.17120000000E+03  0.17120000000E+03 0.  0.
         13    1    1    2    0    0  0.17660015878E+02 -0.10633684017E+02  0.29530730412E+01  0.20825061849E+02  0.10566000000E+00 0. -1.
        994    1    1    2    0    0 -0.21007078373E+02  0.15866871403E+02  0.21227054255E+02  0.17450811667E+03  0.17120000000E+03 0.  0.
        998    1    1    2    0    0  0.33470624948E+01 -0.52331873862E+01  0.14758198690E+04  0.14758668215E+04  0.10000000000E+02 0. -1.
</event>
<event>
 5    1  0.1146201E-008  0.3799946E+03  0.7957747E-01  0.3451182E+00
         13   -1    0    0    0    0  0.00000000000E+00  0.00000000000E+00  0.14999999963E+04  0.15000000000E+04  0.10566000000E+00 0.  1.
        994   -1    0    0    0    0 -0.00000000000E+00 -0.00000000000E+00  0.11368683772E-12  0.17120000000E+03  0.17120000000E+03 0.  0.
         13    1    1    2    0    0  0.88502280078E+01 -0.35613703119E+02  0.17150263435E+03  0.17538479734E+03  0.10566000000E+00 0.  1.
        994    1    1    2    0    0 -0.25059435628E+00  0.12889522552E+02  0.46916873491E+01  0.17174881228E+03  0.17120000000E+03 0.  0.
        998    1    1    2    0    0 -0.85996336515E+01  0.22724180567E+02  0.13238056746E+04  0.13240663904E+04  0.10000000000E+02 0.  1.
</event>
<event>
 5    1  0.1146201E-008  0.3752853E+03  0.7957747E-01  0.3471948E+00
         13   -1    0    0    0    0  0.00000000000E+00  0.00000000000E+00  0.14999999963E+04  0.15000000000E+04  0.10566000000E+00 0.  1.
        994   -1    0    0    0    0 -0.00000000000E+00 -0.00000000000E+00  0.11368683772E-12  0.17120000000E+03  0.17120000000E+03 0.  0.
         13    1    1    2    0    0  0.33205674579E+01  0.15274091624E+02  0.16255639167E+02  0.22551740774E+02  0.10566000000E+00 0.  1.
        994    1    1    2    0    0  0.28455907918E+01 -0.10834772194E+01  0.65638102428E+01  0.17135283749E+03  0.17120000000E+03 0.  0.
        998    1    1    2    0    0 -0.61661582497E+01 -0.14190614404E+02  0.14771805469E+04  0.14772954217E+04  0.10000000000E+02 0.  1.
</event>
<event>
 5    1  0.1146201E-008  0.3847220E+03  0.7957747E-01  0.3430852E+00
         13   -1    0    0    0    0  0.00000000000E+00  0.00000000000E+00  0.14999999963E+04  0.15000000000E+04  0.10566000000E+00 0.  1.
        994   -1    0    0    0    0 -0.00000000000E+00 -0.00000000000E+00  0.11368683772E-12  0.17120000000E+03  0.17120000000E+03 0.  0.
         13    1    1    2    0    0 -0.11363739771E+02 -0.14593018667E+02  0.95022783293E+02  0.96806153132E+02  0.10566000000E+00 0.  1.
        994    1    1    2    0    0  0.14030273583E+02  0.70058081362E+01  0.25781607768E+01  0.17193608358E+03  0.17120000000E+03 0.  0.
        998    1    1    2    0    0 -0.26665338126E+01  0.75872105306E+01  0.14023990522E+04  0.14024577633E+04  0.10000000000E+02 0.  1.
</event>
<event>
 5    1  0.1146201E-008  0.3758494E+03  0.7957747E-01  0.3469433E+00
         13   -1    0    0    0    0  0.00000000000E+00  0.00000000000E+00  0.14999999963E+04  0.15000000000E+04  0.10566000000E+00 0. -1.
        994   -1    0    0    0    0 -0.00000000000E+00 -0.00000000000E+00  0.11368683772E-12  0.17120000000E+03  0.17120000000E+03 0.  0.
         13    1    1    2    0    0 -0.15723769079E+02  0.30607439835E+01  0.17860307654E+02  0.23991807379E+02  0.10566000000E+00 0. -1.
        994    1    1    2    0    0  0.10025758431E+02 -0.71356309272E+01  0.67566503636E+01  0.17177463545E+03  0.17120000000E+03 0.  0.
        998    1    1    2    0    0  0.56980106476E+01  0.40748869437E+01  0.14753830383E+04  0.14754335572E+04  0.10000000000E+02 0. -1.
</event>
<event>
 5    1  0.1146201E-008  0.3841204E+03  0.7957747E-01  0.3433411E+00
         13   -1    0    0    0    0  0.00000000000E+00  0.00000000000E+00  0.14999999963E+04  0.15000000000E+04  0.10566000000E+00 0. -1.
        994   -1    0    0    0    0 -0.00000000000E+00 -0.00000000000E+00  0.11368683772E-12  0.17120000000E+03  0.17120000000E+03 0.  0.
         13    1    1    2    0    0 -0.12163471249E+02 -0.49672555446E+01  0.40539990715E+02  0.42616025996E+02  0.10566000000E+00 0. -1.
        994    1    1    2    0    0  0.12315150858E+02  0.37043085197E+01  0.26131298912E+01  0.17170222273E+03  0.17120000000E+03 0.  0.
        998    1    1    2    0    0 -0.15167960878E+00  0.12629470249E+01  0.14568468757E+04  0.14568817513E+04  0.10000000000E+02 0. -1.
</event>
<event>
 5    1  0.1146201E-008  0.3718786E+03  0.7957747E-01  0.3487302E+00
         13   -1    0    0    0    0  0.00000000000E+00  0.00000000000E+00  0.14999999963E+04  0.15000000000E+04  0.10566000000E+00 0.  1.
        994   -1    0    0    0    0 -0.00000000000E+00 -0.00000000000E+00  0.11368683772E-12  0.17120000000E+03  0.17120000000E+03 0.  0.
         13    1    1    2    0    0  0.30999796753E+02  0.54052445489E+02  0.17340335675E+03  0.18425902843E+03  0.10566000000E+00 0.  1.
        994    1    1    2    0    0 -0.53640835751E+02 -0.78140437618E+02  0.39813382557E+02  0.19969429807E+03  0.17120000000E+03 0.  0.
        998    1    1    2    0    0  0.22641038998E+02  0.24087992130E+02  0.12867832570E+04  0.12872466735E+04  0.10000000000E+02 0.  1.
</event>
<event>
 5    1  0.1146201E-008  0.3844016E+03  0.7957747E-01  0.3432214E+00
         13   -1    0    0    0    0  0.00000000000E+00  0.00000000000E+00  0.14999999963E+04  0.15000000000E+04  0.10566000000E+00 0. -1.
        994   -1    0    0    0    0 -0.00000000000E+00 -0.00000000000E+00  0.11368683772E-12  0.17120000000E+03  0.17120000000E+03 0.  0.
         13    1    1    2    0    0  0.16718898684E+02 -0.13640412212E+02  0.11536846343E+03  0.11736897348E+03  0.10566000000E+00 0. -1.
        994    1    1    2    0    0 -0.17014391921E+02  0.92854868651E+01  0.31664790600E+01  0.17232288411E+03  0.17120000000E+03 0.  0.
        998    1    1    2    0    0  0.29549323761E+00  0.43549253464E+01  0.13814650538E+04  0.13815081424E+04  0.10000000000E+02 0. -1.
</event>
<event>
 5    1  0.1146201E-008  0.3856582E+03  0.7957747E-01  0.3426885E+00
         13   -1    0    0    0    0  0.00000000000E+00  0.00000000000E+00  0.14999999963E+04  0.15000000000E+04  0.10566000000E+00 0.  1.
        994   -1    0    0    0    0 -0.00000000000E+00 -0.00000000000E+00  0.11368683772E-12  0.17120000000E+03  0.17120000000E+03 0.  0.
         13    1    1    2    0    0 -0.11865230444E+02 -0.48527175901E+01  0.60746142359E+02  0.62084116625E+02  0.10566000000E+00 0.  1.
        994    1    1    2    0    0  0.10155480577E+02  0.15167693038E+02  0.23978655601E+01  0.17218705659E+03  0.17120000000E+03 0.  0.
        998    1    1    2    0    0  0.17097498670E+01 -0.10314975447E+02  0.14368559884E+04  0.14369288268E+04  0.10000000000E+02 0.  1.
</event>
<event>
 5    1  0.1146201E-008  0.3208093E+03  0.7957747E-01  0.3757817E+00
         13   -1    0    0    0    0  0.00000000000E+00  0.00000000000E+00  0.14999999963E+04  0.15000000000E+04  0.10566000000E+00 0.  1.
        994   -1    0    0    0    0 -0.00000000000E+00 -0.00000000000E+00  0.11368683772E-12  0.17120000000E+03  0.17120000000E+03 0.  0.
         13    1    1    2    0    0 -0.26130689127E+03  0.27354736645E+02  0.42456166088E+03  0.49928167210E+03  0.10566000000E+00 0.  1.
        994    1    1    2    0    0  0.28229388176E+03 -0.43981303615E+01  0.52293214214E+03  0.61844696176E+03  0.17120000000E+03 0.  0.
        998    1    1    2    0    0 -0.20986990489E+02 -0.22956606284E+02  0.55250619326E+03  0.55347136614E+03  0.10000000000E+02 0.  1.
</event>
<event>
 5    1  0.1146201E-008  0.3854317E+03  0.7957747E-01  0.3427844E+00
         13   -1    0    0    0    0  0.00000000000E+00  0.00000000000E+00  0.14999999963E+04  0.15000000000E+04  0.10566000000E+00 0.  1.
        994   -1    0    0    0    0 -0.00000000000E+00 -0.00000000000E+00  0.11368683772E-12  0.17120000000E+03  0.17120000000E+03 0.  0.
         13    1    1    2    0    0  0.36045228093E+01 -0.15370656851E+02  0.84022405905E+02  0.85492839085E+02  0.10566000000E+00 0.  1.
        994    1    1    2    0    0 -0.43625119048E+01  0.16333201685E+02  0.23551360665E+01  0.17204880602E+03  0.17120000000E+03 0.  0.
        998    1    1    2    0    0  0.75798909552E+00 -0.96254483431E+00  0.14136224543E+04  0.14136583549E+04  0.10000000000E+02 0.  1.
</event>
<event>
 5    1  0.1146201E-008  0.3704419E+03  0.7957747E-01  0.3493862E+00
         13   -1    0    0    0    0  0.00000000000E+00  0.00000000000E+00  0.14999999963E+04  0.15000000000E+04  0.10566000000E+00 0.  1.
        994   -1    0    0    0    0 -0.00000000000E+00 -0.00000000000E+00  0.11368683772E-12  0.17120000000E+03  0.17120000000E+03 0.  0.
         13    1    1    2    0    0 -0.30703891578E+02 -0.63816891610E+02  0.29122076567E+03  0.29970797476E+03  0.10566000000E+00 0.  1.
        994    1    1    2    0    0 -0.37791650155E+01  0.37753545868E+02  0.14024706909E+02  0.17591402649E+03  0.17120000000E+03 0.  0.
        998    1    1    2    0    0  0.34483056594E+02  0.26063345742E+02  0.11947545237E+04  0.11955779987E+04  0.10000000000E+02 0.  1.
</event>
<event>
 5    1  0.1146201E-008  0.3811568E+03  0.7957747E-01  0.3446137E+00
         13   -1    0    0    0    0  0.00000000000E+00  0.00000000000E+00  0.14999999963E+04  0.15000000000E+04  0.10566000000E+00 0. -1.
        994   -1    0    0    0    0 -0.00000000000E+00 -0.00000000000E+00  0.11368683772E-12  0.17120000000E+03  0.17120000000E+03 0.  0.
         13    1    1    2    0    0 -0.26705497022E+02 -0.48089365856E+01  0.99148461241E+02  0.10279463981E+03  0.10566000000E+00 0. -1.
        994    1    1    2    0    0  0.22787410521E+02  0.14329029672E+01  0.52883623006E+01  0.17279677678E+03  0.17120000000E+03 0.  0.
        998    1    1    2    0    0  0.39180865009E+01  0.33760336184E+01  0.13955631727E+04  0.13956085834E+04  0.10000000000E+02 0.  0.
</event>
<event>
 5    1  0.1146201E-008  0.3929719E+03  0.7957747E-01  0.3396550E+00
         13   -1    0    0    0    0  0.00000000000E+00  0.00000000000E+00  0.14999999963E+04  0.15000000000E+04  0.10566000000E+00 0. -1.
        994   -1    0    0    0    0 -0.00000000000E+00 -0.00000000000E+00  0.11368683772E-12  0.17120000000E+03  0.17120000000E+03 0.  0.
         13    1    1    2    0    0  0.32751783746E+02  0.13559636840E+02  0.16765483812E+02  0.39212698214E+02  0.10566000000E+00 0. -1.
        994    1    1    2    0    0 -0.27157990582E+02 -0.23712029875E+02  0.28605958550E+02  0.17727819290E+03  0.17120000000E+03 0.  0.
        998    1    1    2    0    0 -0.55937931631E+01  0.10152393035E+02  0.14546285539E+04  0.14547091089E+04  0.10000000000E+02 0. -1.
</event>
<event>
 5    1  0.1146201E-008  0.3857404E+03  0.7957747E-01  0.3426538E+00
         13   -1    0    0    0    0  0.00000000000E+00  0.00000000000E+00  0.14999999963E+04  0.15000000000E+04  0.10566000000E+00 0.  1.
        994   -1    0    0    0    0 -0.00000000000E+00 -0.00000000000E+00  0.11368683772E-12  0.17120000000E+03  0.17120000000E+03 0.  0.
         13    1    1    2    0    0  0.11355411077E+02 -0.84154501744E+01  0.81506037487E+02  0.82722490734E+02  0.10566000000E+00 0.  1.
        994    1    1    2    0    0 -0.20427192829E+01  0.81998987494E+01  0.14973255820E+01  0.17141497317E+03  0.17120000000E+03 0.  0.
        998    1    1    2    0    0 -0.93126917941E+01  0.21555142500E+00  0.14169966332E+04  0.14170625361E+04  0.10000000000E+02 0.  1.
</event>
<event>
 5    1  0.1146201E-008  0.3804442E+03  0.7957747E-01  0.3449227E+00
         13   -1    0    0    0    0  0.00000000000E+00  0.00000000000E+00  0.14999999963E+04  0.15000000000E+04  0.10566000000E+00 0. -1.
        994   -1    0    0    0    0 -0.00000000000E+00 -0.00000000000E+00  0.11368683772E-12  0.17120000000E+03  0.17120000000E+03 0.  0.
         13    1    1    2    0    0  0.92419918406E+02 -0.32327670495E+02  0.21066580584E+03  0.23230715123E+03  0.10566000000E+00 0. -1.
        994    1    1    2    0    0 -0.11710288388E+03  0.49697194410E+02  0.77943317844E+02  0.22708478008E+03  0.17120000000E+03 0.  0.
        998    1    1    2    0    0  0.24682965478E+02 -0.17369523916E+02  0.12113908726E+04  0.12118080687E+04  0.10000000000E+02 0. -1.
</event>
<event>
 5    1  0.1146201E-008  0.3748010E+03  0.7957747E-01  0.3474113E+00
         13   -1    0    0    0    0  0.00000000000E+00  0.00000000000E+00  0.14999999963E+04  0.15000000000E+04  0.10566000000E+00 0. -1.
        994   -1    0    0    0    0 -0.00000000000E+00 -0.00000000000E+00  0.11368683772E-12  0.17120000000E+03  0.17120000000E+03 0.  0.
         13    1    1    2    0    0 -0.97353981853E+00  0.14311112982E+02  0.12087390258E+02  0.18758248901E+02  0.10566000000E+00 0. -1.
        994    1    1    2    0    0 -0.10464189215E+01 -0.13055470420E+02  0.73646715243E+01  0.17185813535E+03  0.17120000000E+03 0.  0.
        998    1    1    2    0    0  0.20199587401E+01 -0.12556425621E+01  0.14805479345E+04  0.14805836157E+04  0.10000000000E+02 0. -1.
</event>
<event>
 5    1  0.1146201E-008  0.3854313E+03  0.7957747E-01  0.3427845E+00
         13   -1    0    0    0    0  0.00000000000E+00  0.00000000000E+00  0.14999999963E+04  0.15000000000E+04  0.10566000000E+00 0.  1.
        994   -1    0    0    0    0 -0.00000000000E+00 -0.00000000000E+00  0.11368683772E-12  0.17120000000E+03  0.17120000000E+03 0.  0.
         13    1    1    2    0    0 -0.95697177820E+01  0.76291692092E+01  0.61731506947E+02  0.62933090146E+02  0.10566000000E+00 0.  1.
        994    1    1    2    0    0 -0.12265245302E+02  0.71070780649E+01  0.20763743109E+01  0.17179842296E+03  0.17120000000E+03 0.  0.
        998    1    1    2    0    0  0.21834963084E+02 -0.14736247274E+02  0.14361921150E+04  0.14364684869E+04  0.10000000000E+02 0.  1.
</event>
<event>
 5    1  0.1146201E-008  0.3766512E+03  0.7957747E-01  0.3465871E+00
         13   -1    0    0    0    0  0.00000000000E+00  0.00000000000E+00  0.14999999963E+04  0.15000000000E+04  0.10566000000E+00 0.  1.
        994   -1    0    0    0    0 -0.00000000000E+00 -0.00000000000E+00  0.11368683772E-12  0.17120000000E+03  0.17120000000E+03 0.  0.
         13    1    1    2    0    0  0.58807873099E+02 -0.17759115196E+02  0.32380485248E+03  0.32958056036E+03  0.10566000000E+00 0.  1.
        994    1    1    2    0    0 -0.23887682327E+02  0.48267257825E+02  0.15701150530E+02  0.18015636451E+03  0.17120000000E+03 0.  0.
        998    1    1    2    0    0 -0.34920190772E+02 -0.30508142629E+02  0.11604939933E+04  0.11614630751E+04  0.10000000000E+02 0.  1.
</event>
<event>
 5    1  0.1146201E-008  0.3792651E+03  0.7957747E-01  0.3454365E+00
         13   -1    0    0    0    0  0.00000000000E+00  0.00000000000E+00  0.14999999963E+04  0.15000000000E+04  0.10566000000E+00 0. -1.
        994   -1    0    0    0    0 -0.00000000000E+00 -0.00000000000E+00  0.11368683772E-12  0.17120000000E+03  0.17120000000E+03 0.  0.
         13    1    1    2    0    0 -0.60883406412E+01 -0.12144699329E+02  0.18877545058E+02  0.23257998302E+02  0.10566000000E+00 0. -1.
        994    1    1    2    0    0  0.52720271814E+01  0.11692918601E+01  0.46022940066E+01  0.17134696561E+03  0.17120000000E+03 0.  0.
        998    1    1    2    0    0  0.81631345980E+00  0.10975407469E+02  0.14765201572E+04  0.14765950361E+04  0.10000000000E+02 0. -1.
</event>
<event>
 5    1  0.1146201E-008  0.3842631E+03  0.7957747E-01  0.3432803E+00
         13   -1    0    0    0    0  0.00000000000E+00  0.00000000000E+00  0.14999999963E+04  0.15000000000E+04  0.10566000000E+00 0.  1.
        994   -1    0    0    0    0 -0.00000000000E+00 -0.00000000000E+00  0.11368683772E-12  0.17120000000E+03  0.17120000000E+03 0.  0.
         13    1    1    2    0    0  0.42544588582E+01  0.20333711079E+02  0.10370868056E+03  0.10576890760E+03  0.10566000000E+00 0.  1.
        994    1    1    2    0    0 -0.14265712895E+01 -0.18431691203E+02  0.31238586616E+01  0.17222357806E+03  0.17120000000E+03 0.  0.
        998    1    1    2    0    0 -0.28278875687E+01 -0.19020198768E+01  0.13931674571E+04  0.13932075143E+04  0.10000000000E+02 0.  1.
</event>
<event>
 5    1  0.1146201E-008  0.3815160E+03  0.7957747E-01  0.3444584E+00
         13   -1    0    0    0    0  0.00000000000E+00  0.00000000000E+00  0.14999999963E+04  0.15000000000E+04  0.10566000000E+00 0. -1.
        994   -1    0    0    0    0 -0.00000000000E+00 -0.00000000000E+00  0.11368683772E-12  0.17120000000E+03  0.17120000000E+03 0.  0.
         13    1    1    2    0    0 -0.31389984337E+01  0.14471546990E+02  0.30954958329E+02  0.34314713938E+02  0.10566000000E+00 0. -1.
        994    1    1    2    0    0 -0.20333588927E+01 -0.13815921153E+02  0.40187702974E+01  0.17181561262E+03  0.17120000000E+03 0.  0.
        998    1    1    2    0    0  0.51723573264E+01 -0.65562583627E+00  0.14650262677E+04  0.14650696734E+04  0.10000000000E+02 0. -1.
</event>
<event>
 5    1  0.1146201E-008  0.3850607E+03  0.7957747E-01  0.3429415E+00
         13   -1    0    0    0    0  0.00000000000E+00  0.00000000000E+00  0.14999999963E+04  0.15000000000E+04  0.10566000000E+00 0. -1.
        994   -1    0    0    0    0 -0.00000000000E+00 -0.00000000000E+00  0.11368683772E-12  0.17120000000E+03  0.17120000000E+03 0.  0.
         13    1    1    2    0    0 -0.91847230759E+01 -0.12263718205E+03  0.28124179562E+03  0.30695471380E+03  0.10566000000E+00 0. -1.
        994    1    1    2    0    0  0.47931773240E+01  0.13981002678E+03  0.95546651453E+02  0.24084937355E+03  0.17120000000E+03 0.  0.
        998    1    1    2    0    0  0.43915457519E+01 -0.17172844731E+02  0.11232115492E+04  0.11233959126E+04  0.10000000000E+02 0. -1.
</event>
<event>
 5    1  0.1146201E-008  0.3719091E+03  0.7957747E-01  0.3487163E+00
         13   -1    0    0    0    0  0.00000000000E+00  0.00000000000E+00  0.14999999963E+04  0.15000000000E+04  0.10566000000E+00 0. -1.
        994   -1    0    0    0    0 -0.00000000000E+00 -0.00000000000E+00  0.11368683772E-12  0.17120000000E+03  0.17120000000E+03 0.  0.
         13    1    1    2    0    0 -0.27073941714E+02 -0.37778963458E+02  0.12517769437E+03  0.13352795487E+03  0.10566000000E+00 0. -1.
        994    1    1    2    0    0  0.15035960457E+02  0.29639722875E+02  0.12078378499E+02  0.17481395970E+03  0.17120000000E+03 0.  0.
        998    1    1    2    0    0  0.12037981257E+02  0.81392405827E+01  0.13627439234E+04  0.13628580854E+04  0.10000000000E+02 0. -1.
</event>
<event>
 5    1  0.1146201E-008  0.3841763E+03  0.7957747E-01  0.3433173E+00
         13   -1    0    0    0    0  0.00000000000E+00  0.00000000000E+00  0.14999999963E+04  0.15000000000E+04  0.10566000000E+00 0. -1.
        994   -1    0    0    0    0 -0.00000000000E+00 -0.00000000000E+00  0.11368683772E-12  0.17120000000E+03  0.17120000000E+03 0.  0.
         13    1    1    2    0    0  0.57458474583E+01 -0.14717034142E+02  0.57585137385E+02  0.59713190072E+02  0.10566000000E+00 0. -1.
        994    1    1    2    0    0 -0.77442255508E+01  0.19072228668E+02  0.34381141389E+01  0.17246734057E+03  0.17120000000E+03 0.  0.
        998    1    1    2    0    0  0.19983780925E+01 -0.43551945257E+01  0.14389767448E+04  0.14390194694E+04  0.10000000000E+02 0. -1.
</event>
<event>
 5    1  0.1146201E-008  0.3706632E+03  0.7957747E-01  0.3492848E+00
         13   -1    0    0    0    0  0.00000000000E+00  0.00000000000E+00  0.14999999963E+04  0.15000000000E+04  0.10566000000E+00 0. -1.
        994   -1    0    0    0    0 -0.00000000000E+00 -0.00000000000E+00  0.11368683772E-12  0.17120000000E+03  0.17120000000E+03 0.  0.
         13    1    1    2    0    0  0.20571729954E+02 -0.10426753025E+03  0.36670543459E+03  0.38179549612E+03  0.10566000000E+00 0. -1.
        994    1    1    2    0    0 -0.26298627218E+02  0.10378496753E+03  0.52615971748E+02  0.20866436630E+03  0.17120000000E+03 0.  0.
        998    1    1    2    0    0  0.57268972631E+01  0.48256272216E+00  0.10806785899E+04  0.10807401376E+04  0.10000000000E+02 0.  0.
</event>
<event>
 5    1  0.1146201E-008  0.3784417E+03  0.7957747E-01  0.3457972E+00
         13   -1    0    0    0    0  0.00000000000E+00  0.00000000000E+00  0.14999999963E+04  0.15000000000E+04  0.10566000000E+00 0. -1.
        994   -1    0    0    0    0 -0.00000000000E+00 -0.00000000000E+00  0.11368683772E-12  0.17120000000E+03  0.17120000000E+03 0.  0.
         13    1    1    2    0    0  0.28618369649E+01  0.27964850003E+02  0.79992885981E+02  0.84788536479E+02  0.10566000000E+00 0. -1.
        994    1    1    2    0    0 -0.32275742786E+01 -0.12862545847E+02  0.55129851046E+01  0.17180132516E+03  0.17120000000E+03 0.  0.
        998    1    1    2    0    0  0.36573731373E+00 -0.15102304156E+02  0.14144941252E+04  0.14146101384E+04  0.10000000000E+02 0. -1.
</event>
<event>
 5    1  0.1146201E-008  0.3794274E+03  0.7957747E-01  0.3453656E+00
         13   -1    0    0    0    0  0.00000000000E+00  0.00000000000E+00  0.14999999963E+04  0.15000000000E+04  0.10566000000E+00 0. -1.
        994   -1    0    0    0    0 -0.00000000000E+00 -0.00000000000E+00  0.11368683772E-12  0.17120000000E+03  0.17120000000E+03 0.  0.
         13    1    1    2    0    0 -0.41316416004E+01 -0.32058475939E+02  0.10646123884E+03  0.11126015856E+03  0.10566000000E+00 0. -1.
        994    1    1    2    0    0 -0.21969999982E+01  0.37918208072E+02  0.92693590231E+01  0.17560745522E+03  0.17120000000E+03 0.  0.
        998    1    1    2    0    0  0.63286415986E+01 -0.58597321330E+01  0.13842693984E+04  0.13843323862E+04  0.10000000000E+02 0. -1.
</event>
<event>
 5    1  0.1146201E-008  0.3835896E+03  0.7957747E-01  0.3435676E+00
         13   -1    0    0    0    0  0.00000000000E+00  0.00000000000E+00  0.14999999963E+04  0.15000000000E+04  0.10566000000E+00 0.  1.
        994   -1    0    0    0    0 -0.00000000000E+00 -0.00000000000E+00  0.11368683772E-12  0.17120000000E+03  0.17120000000E+03 0.  0.
         13    1    1    2    0    0  0.18368914999E+02 -0.79624252407E+01  0.94431292317E+02  0.96530292585E+02  0.10566000000E+00 0.  1.
        994    1    1    2    0    0  0.66149280793E+01  0.88367822670E+01  0.27346465858E+01  0.17157728371E+03  0.17120000000E+03 0.  0.
        998    1    1    2    0    0 -0.24983843078E+02 -0.87435702629E+00  0.14028340574E+04  0.14030924237E+04  0.10000000000E+02 0.  1.
</event>
<event>
 5    1  0.1146201E-008  0.3819138E+03  0.7957747E-01  0.3442867E+00
         13   -1    0    0    0    0  0.00000000000E+00  0.00000000000E+00  0.14999999963E+04  0.15000000000E+04  0.10566000000E+00 0.  1.
        994   -1    0    0    0    0 -0.00000000000E+00 -0.00000000000E+00  0.11368683772E-12  0.17120000000E+03  0.17120000000E+03 0.  0.
         13    1    1    2    0    0 -0.20524536218E+02 -0.17352312781E+02  0.11640823881E+03  0.11947070173E+03  0.10566000000E+00 0.  1.
        994    1    1    2    0    0 -0.14291308100E+01  0.19848548616E+02  0.44867689095E+01  0.17241107387E+03  0.17120000000E+03 0.  0.
        998    1    1    2    0    0  0.21953667028E+02 -0.24962358355E+01  0.13791049886E+04  0.13793182244E+04  0.10000000000E+02 0.  1.
</event>
<event>
 5    1  0.1146201E-008  0.3785656E+03  0.7957747E-01  0.3457428E+00
         13   -1    0    0    0    0  0.00000000000E+00  0.00000000000E+00  0.14999999963E+04  0.15000000000E+04  0.10566000000E+00 0.  1.
        994   -1    0    0    0    0 -0.00000000000E+00 -0.00000000000E+00  0.11368683772E-12  0.17120000000E+03  0.17120000000E+03 0.  0.
         13    1    1    2    0    0 -0.69917818667E+00 -0.83812114818E+02  0.33095702877E+03  0.34140522183E+03  0.10566000000E+00 0.  1.
        994    1    1    2    0    0 -0.11574400124E+02 -0.17463675227E+02  0.17125350589E+02  0.17332531357E+03  0.17120000000E+03 0.  0.
        998    1    1    2    0    0  0.12273578311E+02  0.10127579005E+03  0.11519176169E+04  0.11564694646E+04  0.10000000000E+02 0.  1.
</event>
<event>
 5    1  0.1146201E-008  0.3831729E+03  0.7957747E-01  0.3437458E+00
         13   -1    0    0    0    0  0.00000000000E+00  0.00000000000E+00  0.14999999963E+04  0.15000000000E+04  0.10566000000E+00 0.  1.
        994   -1    0    0    0    0 -0.00000000000E+00 -0.00000000000E+00  0.11368683772E-12  0.17120000000E+03  0.17120000000E+03 0.  0.
         13    1    1    2    0    0  0.11687757538E+03  0.13678438071E+03  0.87693173096E+03  0.89519808219E+03  0.10566000000E+00 0.  1.
        994    1    1    2    0    0 -0.14068446688E+03 -0.15793431034E+03  0.16817749092E+03  0.31988822119E+03  0.17120000000E+03 0.  0.
        998    1    1    2    0    0  0.23806891504E+02  0.21149929631E+02  0.45489077440E+03  0.45611369662E+03  0.10000000000E+02 0.  1.
</event>
<event>
 5    1  0.1146201E-008  0.3787116E+03  0.7957747E-01  0.3456788E+00
         13   -1    0    0    0    0  0.00000000000E+00  0.00000000000E+00  0.14999999963E+04  0.15000000000E+04  0.10566000000E+00 0. -1.
        994   -1    0    0    0    0 -0.00000000000E+00 -0.00000000000E+00  0.11368683772E-12  0.17120000000E+03  0.17120000000E+03 0.  0.
         13    1    1    2    0    0 -0.17299266263E+02  0.26302381242E+01  0.32622244328E+02  0.37018978306E+02  0.10566000000E+00 0. -1.
        994    1    1    2    0    0 -0.15948636889E+02 -0.31762433050E+01  0.56732638778E+01  0.17206415508E+03  0.17120000000E+03 0.  0.
        998    1    1    2    0    0  0.33247903152E+02  0.54600518082E+00  0.14617044881E+04  0.14621168666E+04  0.10000000000E+02 0. -1.
</event>
<event>
 5    1  0.1146201E-008  0.3820994E+03  0.7957747E-01  0.3442068E+00
         13   -1    0    0    0    0  0.00000000000E+00  0.00000000000E+00  0.14999999963E+04  0.15000000000E+04  0.10566000000E+00 0. -1.
        994   -1    0    0    0    0 -0.00000000000E+00 -0.00000000000E+00  0.11368683772E-12  0.17120000000E+03  0.17120000000E+03 0.  0.
         13    1    1    2    0    0 -0.10772417861E+02  0.10505060734E+01  0.17741015026E+02  0.20782283988E+02  0.10566000000E+00 0. -1.
        994    1    1    2    0    0  0.95289808447E+01  0.63161442176E+01  0.35111485786E+01  0.17161719995E+03  0.17120000000E+03 0.  0.
        998    1    1    2    0    0  0.12434370158E+01 -0.73666502910E+01  0.14787478327E+04  0.14788005161E+04  0.10000000000E+02 0. -1.
</event>
<event>
 5    1  0.1146201E-008  0.3735161E+03  0.7957747E-01  0.3479886E+00
         13   -1    0    0    0    0  0.00000000000E+00  0.00000000000E+00  0.14999999963E+04  0.15000000000E+04  0.10566000000E+00 0.  1.
        994   -1    0    0    0    0 -0.00000000000E+00 -0.00000000000E+00  0.11368683772E-12  0.17120000000E+03  0.17120000000E+03 0.  0.
         13    1    1    2    0    0 -0.38307138048E+02  0.45835044370E+02  0.13018024887E+03  0.14323126920E+03  0.10566000000E+00 0.  1.
        994    1    1    2    0    0  0.68202121952E+01 -0.56009869166E+02  0.24165926486E+02  0.18187097828E+03  0.17120000000E+03 0.  0.
        998    1    1    2    0    0  0.31486925853E+02  0.10174824796E+02  0.13456538209E+04  0.13460977525E+04  0.10000000000E+02 0.  1.
</event>
<event>
 5    1  0.1146201E-008  0.2645746E+03  0.7957747E-01  0.4186644E+00
         13   -1    0    0    0    0  0.00000000000E+00  0.00000000000E+00  0.14999999963E+04  0.15000000000E+04  0.10566000000E+00 0. -1.
        994   -1    0    0    0    0 -0.00000000000E+00 -0.00000000000E+00  0.11368683772E-12  0.17120000000E+03  0.17120000000E+03 0.  0.
         13    1    1    2    0    0  0.13096652756E+03  0.21903534702E+03  0.29774089347E+03  0.39214584709E+03  0.10566000000E+00 0. -1.
        994    1    1    2    0    0  0.10307105679E+02 -0.15351356591E+03  0.39775461931E+03  0.45955503319E+03  0.17120000000E+03 0.  0.
        998    1    1    2    0    0 -0.14127363324E+03 -0.65521781103E+02  0.80450448350E+03  0.81949911972E+03  0.10000000000E+02 0. -1.
</event>
<event>
 5    1  0.1448676E-008  0.3860123E+03  0.7957747E-01  0.3425390E+00
         13   -1    0    0    0    0  0.00000000000E+00  0.00000000000E+00  0.14999999963E+04  0.15000000000E+04  0.10566000000E+00 0. -1.
        994   -1    0    0    0    0 -0.00000000000E+00 -0.00000000000E+00  0.11368683772E-12  0.17120000000E+03  0.17120000000E+03 0.  0.
         13    1    1    2    0    0  0.54348693287E+01  0.97791949745E+01  0.54356337904E+02  0.55495883571E+02  0.10566000000E+00 0. -1.
        994    1    1    2    0    0 -0.62700908547E+01 -0.10455963302E+02  0.16157387157E+01  0.17164117169E+03  0.17120000000E+03 0.  0.
        998    1    1    2    0    0  0.83522152602E+00  0.67676832704E+00  0.14440279197E+04  0.14440629447E+04  0.10000000000E+02 0. -1.
</event>
<event>
 5    1  0.1146201E-008  0.3687643E+03  0.7957747E-01  0.3501589E+00
         13   -1    0    0    0    0  0.00000000000E+00  0.00000000000E+00  0.14999999963E+04  0.15000000000E+04  0.10566000000E+00 0.  1.
        994   -1    0    0    0    0 -0.00000000000E+00 -0.00000000000E+00  0.11368683772E-12  0.17120000000E+03  0.17120000000E+03 0.  0.
         13    1    1    2    0    0 -0.24889690254E+02  0.28477409634E+02  0.66539220122E+02  0.76537170831E+02  0.10566000000E+00 0.  1.
        994    1    1    2    0    0  0.19605588108E+02 -0.27847689603E+02  0.13954667975E+02  0.17511152349E+03  0.17120000000E+03 0.  0.
        998    1    1    2    0    0  0.52841021452E+01 -0.62972003113E+00  0.14195061082E+04  0.14195513057E+04  0.10000000000E+02 0.  1.
</event>
<event>
 5    1  0.1146201E-008  0.4069434E+03  0.7957747E-01  0.3341625E+00
         13   -1    0    0    0    0  0.00000000000E+00  0.00000000000E+00  0.14999999963E+04  0.15000000000E+04  0.10566000000E+00 0.  1.
        994   -1    0    0    0    0 -0.00000000000E+00 -0.00000000000E+00  0.11368683772E-12  0.17120000000E+03  0.17120000000E+03 0.  0.
         13    1    1    2    0    0 -0.40114486169E+02 -0.66822657014E+02  0.10203251307E+03  0.12839425368E+03  0.10566000000E+00 0.  1.
        994    1    1    2    0    0 -0.31428815485E+02  0.94983449945E+01  0.36350787200E+02  0.17806967381E+03  0.17120000000E+03 0.  0.
        998    1    1    2    0    0  0.71543301654E+02  0.57324312019E+02  0.13616166960E+04  0.13647360725E+04  0.10000000000E+02 0.  1.
</event>
<event>
 5    1  0.1146201E-008  0.4218858E+03  0.7957747E-01  0.3286869E+00
         13   -1    0    0    0    0  0.00000000000E+00  0.00000000000E+00  0.14999999963E+04  0.15000000000E+04  0.10566000000E+00 0. -1.
        994   -1    0    0    0    0 -0.00000000000E+00 -0.00000000000E+00  0.11368683772E-12  0.17120000000E+03  0.17120000000E+03 0.  0.
         13    1    1    2    0    0 -0.47040205151E+02  0.98019317116E+02  0.19304922303E+03  0.22155943019E+03  0.10566000000E+00 0. -1.
        994    1    1    2    0    0 -0.10550987396E+03 -0.36481888770E+01  0.91474800158E+02  0.22095864285E+03  0.17120000000E+03 0.  0.
        998    1    1    2    0    0  0.15255007911E+03 -0.94371128239E+02  0.12154759731E+04  0.12286819270E+04  0.10000000000E+02 0. -1.
</event>
<event>
 5    1  0.1146201E-008  0.3798439E+03  0.7957747E-01  0.3451839E+00
         13   -1    0    0    0    0  0.00000000000E+00  0.00000000000E+00  0.14999999963E+04  0.15000000000E+04  0.10566000000E+00 0. -1.
        994   -1    0    0    0    0 -0.00000000000E+00 -0.00000000000E+00  0.11368683772E-12  0.17120000000E+03  0.17120000000E+03 0.  0.
         13    1    1    2    0    0  0.15481776101E+02  0.23181249151E+02  0.86630461730E+02  0.91004965618E+02  0.10566000000E+00 0. -1.
        994    1    1    2    0    0 -0.17742540839E+02 -0.20624479747E+02  0.66915124345E+01  0.17347732780E+03  0.17120000000E+03 0.  0.
        998    1    1    2    0    0  0.22607647379E+01 -0.25567694041E+01  0.14066780221E+04  0.14067177066E+04  0.10000000000E+02 0. -1.
</event>
<event>
 5    1  0.1146201E-008  0.3717768E+03  0.7957747E-01  0.3487765E+00
         13   -1    0    0    0    0  0.00000000000E+00  0.00000000000E+00  0.14999999963E+04  0.15000000000E+04  0.10566000000E+00 0. -1.
        994   -1    0    0    0    0 -0.00000000000E+00 -0.00000000000E+00  0.11368683772E-12  0.17120000000E+03  0.17120000000E+03 0.  0.
         13    1    1    2    0    0  0.37866328316E+02 -0.40086006121E+02  0.18154111208E+03  0.18973121316E+03  0.10566000000E+00 0. -1.
        994    1    1    2    0    0 -0.31083985417E+02  0.12530592805E+02  0.12213198988E+02  0.17487661975E+03  0.17120000000E+03 0.  0.
        998    1    1    2    0    0 -0.67823428985E+01  0.27555413317E+02  0.13062456852E+04  0.13065921671E+04  0.10000000000E+02 0. -1.
</event>
<event>
 5    1  0.1146201E-008  0.3770300E+03  0.7957747E-01  0.3464194E+00
         13   -1    0    0    0    0  0.00000000000E+00  0.00000000000E+00  0.14999999963E+04  0.15000000000E+04  0.10566000000E+00 0. -1.
        994   -1    0    0    0    0 -0.00000000000E+00 -0.00000000000E+00  0.11368683772E-12  0.17120000000E+03  0.17120000000E+03 0.  0.
         13    1    1    2    0    0 -0.38981520680E+02 -0.23220060589E+02  0.16533926972E+03  0.17145207915E+03  0.10566000000E+00 0. -1.
        994    1    1    2    0    0  0.38358271493E+02  0.17427279966E+02  0.11656314375E+02  0.17669288821E+03  0.17120000000E+03 0.  0.
        998    1    1    2    0    0  0.62324918658E+00  0.57927806235E+01  0.13230044122E+04  0.13230550326E+04  0.10000000000E+02 0. -1.
</event>
<event>
 5    1  0.1146201E-008  0.3791246E+03  0.7957747E-01  0.3454979E+00
         13   -1    0    0    0    0  0.00000000000E+00  0.00000000000E+00  0.14999999963E+04  0.15000000000E+04  0.10566000000E+00 0. -1.
        994   -1    0    0    0    0 -0.00000000000E+00 -0.00000000000E+00  0.11368683772E-12  0.17120000000E+03  0.17120000000E+03 0.  0.
         13    1    1    2    0    0 -0.64167731433E+02  0.23681336213E+02  0.37241652127E+03  0.37864545412E+03  0.10566000000E+00 0. -1.
        994    1    1    2    0    0  0.61709770427E+02 -0.40229395442E+02  0.22989159136E+02  0.18778828894E+03  0.17120000000E+03 0.  0.
        998    1    1    2    0    0  0.24579610061E+01  0.16548059229E+02  0.11045943159E+04  0.11047662569E+04  0.10000000000E+02 0. -1.
</event>
<event>
 5    1  0.1146201E-008  0.3756477E+03  0.7957747E-01  0.3470331E+00
         13   -1    0    0    0    0  0.00000000000E+00  0.00000000000E+00  0.14999999963E+04  0.15000000000E+04  0.10566000000E+00 0.  1.
        994   -1    0    0    0    0 -0.00000000000E+00 -0.00000000000E+00  0.11368683772E-12  0.17120000000E+03  0.17120000000E+03 0.  0.
         13    1    1    2    0    0  0.31191196396E+02  0.18443831095E+02  0.10292184227E+03  0.10911453807E+03  0.10566000000E+00 0.  1.
        994    1    1    2    0    0 -0.21609825046E+02  0.54112997608E+00  0.79330147228E+01  0.17274157022E+03  0.17120000000E+03 0.  0.
        998    1    1    2    0    0 -0.95813713495E+01 -0.18984961071E+02  0.13891451393E+04  0.13893438917E+04  0.10000000000E+02 0.  1.
</event>
<event>
 5    1  0.1146201E-008  0.3717967E+03  0.7957747E-01  0.3487674E+00
         13   -1    0    0    0    0  0.00000000000E+00  0.00000000000E+00  0.14999999963E+04  0.15000000000E+04  0.10566000000E+00 0.  1.
        994   -1    0    0    0    0 -0.00000000000E+00 -0.00000000000E+00  0.11368683772E-12  0.17120000000E+03  0.17120000000E+03 0.  0.
         13    1    1    2    0    0  0.48129631343E+02  0.65892362629E+02  0.32142413844E+03  0.33161989205E+03  0.10566000000E+00 0.  1.
        994    1    1    2    0    0 -0.20162388164E+02 -0.82248586268E+02  0.33394438849E+02  0.19389682923E+03  0.17120000000E+03 0.  0.
        998    1    1    2    0    0 -0.27967243179E+02  0.16356223639E+02  0.11451814190E+04  0.11456832787E+04  0.10000000000E+02 0.  1.
</event>
<event>
 5    1  0.1154387E-008  0.3863273E+03  0.7957747E-01  0.3424063E+00
         13   -1    0    0    0    0  0.00000000000E+00  0.00000000000E+00  0.14999999963E+04  0.15000000000E+04  0.10566000000E+00 0.  1.
        994   -1    0    0    0    0 -0.00000000000E+00 -0.00000000000E+00  0.11368683772E-12  0.17120000000E+03  0.17120000000E+03 0.  0.
         13    1    1    2    0    0  0.24096657177E+01 -0.98733477031E+01  0.49106810437E+02  0.50147577001E+02  0.10566000000E+00 0.  1.
        994    1    1    2    0    0  0.24443794594E+01  0.21972129366E+02  0.25746720170E+01  0.17264072056E+03  0.17120000000E+03 0.  0.
        998    1    1    2    0    0 -0.48540451771E+01 -0.12098781663E+02  0.14483185138E+04  0.14484117024E+04  0.10000000000E+02 0.  1.
</event>
<event>
 5    1  0.1146201E-008  0.3850036E+03  0.7957747E-01  0.3429657E+00
         13   -1    0    0    0    0  0.00000000000E+00  0.00000000000E+00  0.14999999963E+04  0.15000000000E+04  0.10566000000E+00 0. -1.
        994   -1    0    0    0    0 -0.00000000000E+00 -0.00000000000E+00  0.11368683772E-12  0.17120000000E+03  0.17120000000E+03 0.  0.
         13    1    1    2    0    0  0.16004757262E+02 -0.11116828239E+02  0.11323758734E+03  0.11490212564E+03  0.10566000000E+00 0. -1.
        994    1    1    2    0    0 -0.12640830361E+02  0.96034590070E+01  0.24575864021E+01  0.17195201874E+03  0.17120000000E+03 0.  0.
        998    1    1    2    0    0 -0.33639269012E+01  0.15133692321E+01  0.13843048225E+04  0.13843458556E+04  0.10000000000E+02 0. -1.
</event>
<event>
 5    1  0.1146201E-008  0.3690105E+03  0.7957747E-01  0.3500451E+00
         13   -1    0    0    0    0  0.00000000000E+00  0.00000000000E+00  0.14999999963E+04  0.15000000000E+04  0.10566000000E+00 0.  1.
        994   -1    0    0    0    0 -0.00000000000E+00 -0.00000000000E+00  0.11368683772E-12  0.17120000000E+03  0.17120000000E+03 0.  0.
         13    1    1    2    0    0 -0.47036335903E+02 -0.21384885918E+02  0.11236250803E+03  0.12367325748E+03  0.10566000000E+00 0.  1.
        994    1    1    2    0    0  0.91553284595E+02 -0.18553878614E+02  0.40704929130E+02  0.19922997161E+03  0.17120000000E+03 0.  0.
        998    1    1    2    0    0 -0.44516948692E+02  0.39938764532E+02  0.13469325591E+04  0.13482967709E+04  0.10000000000E+02 0.  1.
</event>
<event>
 5    1  0.1146201E-008  0.3855888E+03  0.7957747E-01  0.3427179E+00
         13   -1    0    0    0    0  0.00000000000E+00  0.00000000000E+00  0.14999999963E+04  0.15000000000E+04  0.10566000000E+00 0.  1.
        994   -1    0    0    0    0 -0.00000000000E+00 -0.00000000000E+00  0.11368683772E-12  0.17120000000E+03  0.17120000000E+03 0.  0.
         13    1    1    2    0    0 -0.68821270625E+01 -0.13282334572E+02  0.83549097674E+02  0.84877835568E+02  0.10566000000E+00 0.  1.
        994    1    1    2    0    0 -0.48217105413E+01  0.14681682096E+02  0.21223203312E+01  0.17190911821E+03  0.17120000000E+03 0.  0.
        998    1    1    2    0    0  0.11703837604E+02 -0.13993475236E+01  0.14143285783E+04  0.14144130462E+04  0.10000000000E+02 0.  1.
</event>
<event>
 5    1  0.1146201E-008  0.3833690E+03  0.7957747E-01  0.3436619E+00
         13   -1    0    0    0    0  0.00000000000E+00  0.00000000000E+00  0.14999999963E+04  0.15000000000E+04  0.10566000000E+00 0.  1.
        994   -1    0    0    0    0 -0.00000000000E+00 -0.00000000000E+00  0.11368683772E-12  0.17120000000E+03  0.17120000000E+03 0.  0.
         13    1    1    2    0    0 -0.13072298144E+02  0.40732781516E+01  0.37018299238E+02  0.39469509956E+02  0.10566000000E+00 0.  1.
        994    1    1    2    0    0  0.12983090374E+02 -0.33830610574E+01  0.30373932591E+01  0.17175177290E+03  0.17120000000E+03 0.  0.
        998    1    1    2    0    0  0.89207770657E-01 -0.69021709419E+00  0.14599443038E+04  0.14599787171E+04  0.10000000000E+02 0.  1.
</event>
<event>
 5    1  0.1146201E-008  0.3850818E+03  0.7957747E-01  0.3429325E+00
         13   -1    0    0    0    0  0.00000000000E+00  0.00000000000E+00  0.14999999963E+04  0.15000000000E+04  0.10566000000E+00 0. -1.
        994   -1    0    0    0    0 -0.00000000000E+00 -0.00000000000E+00  0.11368683772E-12  0.17120000000E+03  0.17120000000E+03 0.  0.
         13    1    1    2    0    0 -0.64425880709E+00  0.18691992996E+02  0.10725446578E+03  0.10887303278E+03  0.10566000000E+00 0. -1.
        994    1    1    2    0    0 -0.71967367060E+01 -0.15477678473E+02  0.25480291075E+01  0.17206767274E+03  0.17120000000E+03 0.  0.
        998    1    1    2    0    0  0.78409955131E+01 -0.32143145235E+01  0.13901975014E+04  0.13902592945E+04  0.10000000000E+02 0. -1.
</event>
<event>
 5    1  0.1146201E-008  0.3752984E+03  0.7957747E-01  0.3471889E+00
         13   -1    0    0    0    0  0.00000000000E+00  0.00000000000E+00  0.14999999963E+04  0.15000000000E+04  0.10566000000E+00 0. -1.
        994   -1    0    0    0    0 -0.00000000000E+00 -0.00000000000E+00  0.11368683772E-12  0.17120000000E+03  0.17120000000E+03 0.  0.
         13    1    1    2    0    0  0.29275037410E+02 -0.10469467790E+03  0.63136973212E+03  0.64066040395E+03  0.10566000000E+00 0. -1.
        994    1    1    2    0    0  0.25213279848E+01  0.10014554800E+03  0.41405467235E+02  0.20263104549E+03  0.17120000000E+03 0.  0.
        998    1    1    2    0    0 -0.31796365395E+02  0.45491299015E+01  0.82722479693E+03  0.82790855056E+03  0.10000000000E+02 0. -1.
</event>
<event>
 5    1  0.1768663E-008  0.3864363E+03  0.7957747E-01  0.3423604E+00
         13   -1    0    0    0    0  0.00000000000E+00  0.00000000000E+00  0.14999999963E+04  0.15000000000E+04  0.10566000000E+00 0.  1.
        994   -1    0    0    0    0 -0.00000000000E+00 -0.00000000000E+00  0.11368683772E-12  0.17120000000E+03  0.17120000000E+03 0.  0.
         13    1    1    2    0    0 -0.37975554048E+01  0.10831456681E+02  0.66942176044E+02  0.67919128222E+02  0.10566000000E+00 0.  1.
        994    1    1    2    0    0  0.11300914788E+02 -0.15420073696E+02  0.21160414442E+01  0.17227712262E+03  0.17120000000E+03 0.  0.
        998    1    1    2    0    0 -0.75033593832E+01  0.45886170152E+01  0.14309417788E+04  0.14310037492E+04  0.10000000000E+02 0.  1.
</event>
<event>
 5    1  0.1146201E-008  0.3849112E+03  0.7957747E-01  0.3430049E+00
         13   -1    0    0    0    0  0.00000000000E+00  0.00000000000E+00  0.14999999963E+04  0.15000000000E+04  0.10566000000E+00 0.  1.
        994   -1    0    0    0    0 -0.00000000000E+00 -0.00000000000E+00  0.11368683772E-12  0.17120000000E+03  0.17120000000E+03 0.  0.
         13    1    1    2    0    0 -0.72750886748E+01 -0.14795205758E+02  0.77887087208E+02  0.79613030004E+02  0.10566000000E+00 0.  1.
        994    1    1    2    0    0  0.95462162235E+01  0.14033313322E+02  0.26224213503E+01  0.17205923753E+03  0.17120000000E+03 0.  0.
        998    1    1    2    0    0 -0.22711275486E+01  0.76189243631E+00  0.14194904877E+04  0.14195277325E+04  0.10000000000E+02 0.  1.
</event>
<event>
 5    1  0.1146201E-008  0.3706555E+03  0.7957747E-01  0.3492884E+00
         13   -1    0    0    0    0  0.00000000000E+00  0.00000000000E+00  0.14999999963E+04  0.15000000000E+04  0.10566000000E+00 0. -1.
        994   -1    0    0    0    0 -0.00000000000E+00 -0.00000000000E+00  0.11368683772E-12  0.17120000000E+03  0.17120000000E+03 0.  0.
         13    1    1    2    0    0  0.91284478566E+01 -0.94755770734E+01  0.55248569144E+01  0.14270610677E+02  0.10566000000E+00 0. -1.
        994    1    1    2    0    0 -0.91984446848E+01  0.12950854680E+02  0.97978196769E+01  0.17221432371E+03  0.17120000000E+03 0.  0.
        998    1    1    2    0    0  0.69996828212E-01 -0.34752776061E+01  0.14846773197E+04  0.14847150656E+04  0.10000000000E+02 0. -1.
</event>
<event>
 5    1  0.1146201E-008  0.3751970E+03  0.7957747E-01  0.3472342E+00
         13   -1    0    0    0    0  0.00000000000E+00  0.00000000000E+00  0.14999999963E+04  0.15000000000E+04  0.10566000000E+00 0.  1.
        994   -1    0    0    0    0 -0.00000000000E+00 -0.00000000000E+00  0.11368683772E-12  0.17120000000E+03  0.17120000000E+03 0.  0.
         13    1    1    2    0    0  0.34563388808E+02 -0.27042698123E+02  0.59466302645E+02  0.73906614602E+02  0.10566000000E+00 0.  1.
        994    1    1    2    0    0 -0.40878735487E+02  0.48754190513E+02  0.28272306254E+02  0.18481559839E+03  0.17120000000E+03 0.  0.
        998    1    1    2    0    0  0.63153466792E+01 -0.21711492390E+02  0.14122613874E+04  0.14124777870E+04  0.10000000000E+02 0.  1.
</event>
<event>
 5    1  0.1146201E-008  0.3711334E+03  0.7957747E-01  0.3490698E+00
         13   -1    0    0    0    0  0.00000000000E+00  0.00000000000E+00  0.14999999963E+04  0.15000000000E+04  0.10566000000E+00 0. -1.
        994   -1    0    0    0    0 -0.00000000000E+00 -0.00000000000E+00  0.11368683772E-12  0.17120000000E+03  0.17120000000E+03 0.  0.
         13    1    1    2    0    0 -0.15509276011E+03  0.21819953484E+03  0.10747418021E+04  0.11075805856E+04  0.10566000000E+00 0. -1.
        994    1    1    2    0    0  0.14781673672E+03 -0.21115788053E+03  0.27890264937E+03  0.41657360213E+03  0.17120000000E+03 0.  0.
        998    1    1    2    0    0  0.72760233861E+01 -0.70416543153E+01  0.14635554484E+03  0.14704581230E+03  0.10000000000E+02 0. -1.
</event>
<event>
 5    1  0.1146201E-008  0.3844727E+03  0.7957747E-01  0.3431912E+00
         13   -1    0    0    0    0  0.00000000000E+00  0.00000000000E+00  0.14999999963E+04  0.15000000000E+04  0.10566000000E+00 0.  1.
        994   -1    0    0    0    0 -0.00000000000E+00 -0.00000000000E+00  0.11368683772E-12  0.17120000000E+03  0.17120000000E+03 0.  0.
         13    1    1    2    0    0 -0.50284525609E+01 -0.10569470259E+02  0.35058410986E+02  0.36960822253E+02  0.10566000000E+00 0.  1.
        994    1    1    2    0    0  0.61215282963E+01  0.11259503811E+02  0.24334421934E+01  0.17169627595E+03  0.17120000000E+03 0.  0.
        998    1    1    2    0    0 -0.10930757355E+01 -0.69003355290E+00  0.14625081431E+04  0.14625429018E+04  0.10000000000E+02 0.  1.
</event>
<event>
 5    1  0.1146201E-008  0.3706089E+03  0.7957747E-01  0.3493097E+00
         13   -1    0    0    0    0  0.00000000000E+00  0.00000000000E+00  0.14999999963E+04  0.15000000000E+04  0.10566000000E+00 0. -1.
        994   -1    0    0    0    0 -0.00000000000E+00 -0.00000000000E+00  0.11368683772E-12  0.17120000000E+03  0.17120000000E+03 0.  0.
         13    1    1    2    0    0  0.10312472753E+03  0.21200755160E+02  0.43921852761E+03  0.45166038968E+03  0.10566000000E+00 0. -1.
        994    1    1    2    0    0 -0.67490236914E+02 -0.55986583436E+02  0.38710665972E+02  0.19620750562E+03  0.17120000000E+03 0.  0.
        998    1    1    2    0    0 -0.35634490617E+02  0.34785828276E+02  0.10220708027E+04  0.10233321047E+04  0.10000000000E+02 0. -1.
</event>
<event>
 5    1  0.1146201E-008  0.3791514E+03  0.7957747E-01  0.3454862E+00
         13   -1    0    0    0    0  0.00000000000E+00  0.00000000000E+00  0.14999999963E+04  0.15000000000E+04  0.10566000000E+00 0. -1.
        994   -1    0    0    0    0 -0.00000000000E+00 -0.00000000000E+00  0.11368683772E-12  0.17120000000E+03  0.17120000000E+03 0.  0.
         13    1    1    2    0    0 -0.13494448183E+02 -0.85742604474E+02  0.49612240653E+03  0.50365796705E+03  0.10566000000E+00 0. -1.
        994    1    1    2    0    0  0.15733356946E+02  0.92976667116E+02  0.34973506340E+02  0.19855675585E+03  0.17120000000E+03 0.  0.
        998    1    1    2    0    0 -0.22389087629E+01 -0.72340626421E+01  0.96890408341E+03  0.96898527709E+03  0.10000000000E+02 0. -1.
</event>
<event>
 5    1  0.1146201E-008  0.3842532E+03  0.7957747E-01  0.3432846E+00
         13   -1    0    0    0    0  0.00000000000E+00  0.00000000000E+00  0.14999999963E+04  0.15000000000E+04  0.10566000000E+00 0.  1.
        994   -1    0    0    0    0 -0.00000000000E+00 -0.00000000000E+00  0.11368683772E-12  0.17120000000E+03  0.17120000000E+03 0.  0.
         13    1    1    2    0    0  0.23263132402E+02 -0.56314391006E+01  0.13345803768E+03  0.13558740879E+03  0.10566000000E+00 0.  1.
        994    1    1    2    0    0 -0.21454439873E+02  0.86516586267E+01  0.37675320863E+01  0.17279692846E+03  0.17120000000E+03 0.  0.
        998    1    1    2    0    0 -0.18086925290E+01 -0.30202195261E+01  0.13627744265E+04  0.13628156628E+04  0.10000000000E+02 0.  1.
</event>
<event>
 5    1  0.1146201E-008  0.3844608E+03  0.7957747E-01  0.3431962E+00
         13   -1    0    0    0    0  0.00000000000E+00  0.00000000000E+00  0.14999999963E+04  0.15000000000E+04  0.10566000000E+00 0.  1.
        994   -1    0    0    0    0 -0.00000000000E+00 -0.00000000000E+00  0.11368683772E-12  0.17120000000E+03  0.17120000000E+03 0.  0.
         13    1    1    2    0    0 -0.14810782057E+02  0.10822357799E+01  0.57137821785E+02  0.59036195184E+02  0.10566000000E+00 0.  1.
        994    1    1    2    0    0  0.12058499088E+02  0.71505605969E+00  0.23789525482E+01  0.17164212222E+03  0.17120000000E+03 0.  0.
        998    1    1    2    0    0  0.27522829691E+01 -0.17972918396E+01  0.14404832219E+04  0.14405216826E+04  0.10000000000E+02 0.  1.
</event>
<event>
 5    1  0.1146201E-008  0.3823992E+03  0.7957747E-01  0.3440778E+00
         13   -1    0    0    0    0  0.00000000000E+00  0.00000000000E+00  0.14999999963E+04  0.15000000000E+04  0.10566000000E+00 0.  1.
        994   -1    0    0    0    0 -0.00000000000E+00 -0.00000000000E+00  0.11368683772E-12  0.17120000000E+03  0.17120000000E+03 0.  0.
         13    1    1    2    0    0  0.10807484202E+02  0.20545184035E+01  0.19457902195E+02  0.22352715327E+02  0.10566000000E+00 0.  1.
        994    1    1    2    0    0 -0.68206507269E+01 -0.12619359232E+02  0.36096567494E+01  0.17183782798E+03  0.17120000000E+03 0.  0.
        998    1    1    2    0    0 -0.39868334749E+01  0.10564840829E+02  0.14769324373E+04  0.14770094567E+04  0.10000000000E+02 0.  1.
</event>
<event>
 5    1  0.1146201E-008  0.3747941E+03  0.7957747E-01  0.3474144E+00
         13   -1    0    0    0    0  0.00000000000E+00  0.00000000000E+00  0.14999999963E+04  0.15000000000E+04  0.10566000000E+00 0.  1.
        994   -1    0    0    0    0 -0.00000000000E+00 -0.00000000000E+00  0.11368683772E-12  0.17120000000E+03  0.17120000000E+03 0.  0.
         13    1    1    2    0    0 -0.13109919962E+02 -0.11586680058E+02  0.20302444808E+02  0.26801522072E+02  0.10566000000E+00 0.  1.
        994    1    1    2    0    0 -0.14228875458E+01 -0.70872227252E-01  0.67914168185E+01  0.17134057597E+03  0.17120000000E+03 0.  0.
        998    1    1    2    0    0  0.14532807508E+02  0.11657552285E+02  0.14729061347E+04  0.14730579020E+04  0.10000000000E+02 0.  1.
</event>
<event>
 5    1  0.1146201E-008  0.3818680E+03  0.7957747E-01  0.3443065E+00
         13   -1    0    0    0    0  0.00000000000E+00  0.00000000000E+00  0.14999999963E+04  0.15000000000E+04  0.10566000000E+00 0. -1.
        994   -1    0    0    0    0 -0.00000000000E+00 -0.00000000000E+00  0.11368683772E-12  0.17120000000E+03  0.17120000000E+03 0.  0.
         13    1    1    2    0    0 -0.19908420332E+01  0.15046880417E+02  0.35871322335E+02  0.38950417101E+02  0.10566000000E+00 0. -1.
        994    1    1    2    0    0  0.62989801315E+01 -0.19670882309E+01  0.33378712196E+01  0.17135964511E+03  0.17120000000E+03 0.  0.
        998    1    1    2    0    0 -0.43081380982E+01 -0.13079792186E+02  0.14607908027E+04  0.14608899378E+04  0.10000000000E+02 0. -1.
</event>
<event>
 5    1  0.1146201E-008  0.3809473E+03  0.7957747E-01  0.3447044E+00
         13   -1    0    0    0    0  0.00000000000E+00  0.00000000000E+00  0.14999999963E+04  0.15000000000E+04  0.10566000000E+00 0.  1.
        994   -1    0    0    0    0 -0.00000000000E+00 -0.00000000000E+00  0.11368683772E-12  0.17120000000E+03  0.17120000000E+03 0.  0.
         13    1    1    2    0    0  0.12155248605E+02  0.25012742503E+02  0.10988207742E+03  0.11334667820E+03  0.10566000000E+00 0.  1.
        994    1    1    2    0    0 -0.81902892342E+01 -0.51480729347E+01  0.39676606860E+01  0.17151899552E+03  0.17120000000E+03 0.  0.
        998    1    1    2    0    0 -0.39649593706E+01 -0.19864669568E+02  0.13861502582E+04  0.13863343263E+04  0.10000000000E+02 0.  1.
</event>
<event>
 5    1  0.1146201E-008  0.3831477E+03  0.7957747E-01  0.3437566E+00
         13   -1    0    0    0    0  0.00000000000E+00  0.00000000000E+00  0.14999999963E+04  0.15000000000E+04  0.10566000000E+00 0. -1.
        994   -1    0    0    0    0 -0.00000000000E+00 -0.00000000000E+00  0.11368683772E-12  0.17120000000E+03  0.17120000000E+03 0.  0.
         13    1    1    2    0    0  0.23472661873E+02  0.98610880498E+01  0.13390327489E+03  0.13630225641E+03  0.10566000000E+00 0. -1.
        994    1    1    2    0    0 -0.18236052163E+02  0.21065178589E+02  0.51252165155E+01  0.17352810490E+03  0.17120000000E+03 0.  0.
        998    1    1    2    0    0 -0.52366097104E+01 -0.30926266639E+02  0.13609715049E+04  0.13613696387E+04  0.10000000000E+02 0. -1.
</event>
<event>
 5    1  0.1146201E-008  0.3802283E+03  0.7957747E-01  0.3450165E+00
         13   -1    0    0    0    0  0.00000000000E+00  0.00000000000E+00  0.14999999963E+04  0.15000000000E+04  0.10566000000E+00 0. -1.
        994   -1    0    0    0    0 -0.00000000000E+00 -0.00000000000E+00  0.11368683772E-12  0.17120000000E+03  0.17120000000E+03 0.  0.
         13    1    1    2    0    0 -0.11785319688E+03 -0.10085617806E+03  0.92502363331E+03  0.93793927202E+03  0.10566000000E+00 0. -1.
        994    1    1    2    0    0  0.11861392966E+03  0.10436299407E+03  0.92476098129E+02  0.25064350693E+03  0.17120000000E+03 0.  0.
        998    1    1    2    0    0 -0.76073278549E+00 -0.35068160145E+01  0.48250026484E+03  0.48261722104E+03  0.10000000000E+02 0.  0.
</event>
<event>
 5    1  0.1146201E-008  0.3813866E+03  0.7957747E-01  0.3445143E+00
         13   -1    0    0    0    0  0.00000000000E+00  0.00000000000E+00  0.14999999963E+04  0.15000000000E+04  0.10566000000E+00 0.  1.
        994   -1    0    0    0    0 -0.00000000000E+00 -0.00000000000E+00  0.11368683772E-12  0.17120000000E+03  0.17120000000E+03 0.  0.
         13    1    1    2    0    0 -0.92183504253E+01  0.99421262973E+01  0.25822439445E+02  0.29165620219E+02  0.10566000000E+00 0.  1.
        994    1    1    2    0    0  0.73989684784E+01  0.10590100847E+01  0.36207817429E+01  0.17140133108E+03  0.17120000000E+03 0.  0.
        998    1    1    2    0    0  0.18193819469E+01 -0.11001136382E+02  0.14705567751E+04  0.14706330487E+04  0.10000000000E+02 0.  1.
</event>
<event>
 5    1  0.1146201E-008  0.3756826E+03  0.7957747E-01  0.3470176E+00
         13   -1    0    0    0    0  0.00000000000E+00  0.00000000000E+00  0.14999999963E+04  0.15000000000E+04  0.10566000000E+00 0.  1.
        994   -1    0    0    0    0 -0.00000000000E+00 -0.00000000000E+00  0.11368683772E-12  0.17120000000E+03  0.17120000000E+03 0.  0.
         13    1    1    2    0    0  0.21474115182E+03  0.49490359779E+01  0.90851184741E+03  0.93355880548E+03  0.10566000000E+00 0.  1.
        994    1    1    2    0    0 -0.21898198643E+03 -0.40195537761E+01  0.19164280395E+03  0.33764725898E+03  0.17120000000E+03 0.  0.
        998    1    1    2    0    0  0.42408346115E+01 -0.92948220178E+00  0.39984534492E+03  0.39999393554E+03  0.10000000000E+02 0.  0.
</event>
<event>
 5    1  0.1146201E-008  0.3718367E+03  0.7957747E-01  0.3487492E+00
         13   -1    0    0    0    0  0.00000000000E+00  0.00000000000E+00  0.14999999963E+04  0.15000000000E+04  0.10566000000E+00 0.  1.
        994   -1    0    0    0    0 -0.00000000000E+00 -0.00000000000E+00  0.11368683772E-12  0.17120000000E+03  0.17120000000E+03 0.  0.
         13    1    1    2    0    0  0.22473924151E+02 -0.14400807972E+01  0.15945816268E+02  0.27594045008E+02  0.10566000000E+00 0.  1.
        994    1    1    2    0    0 -0.22512610586E+02  0.71129748693E+00  0.13700377692E+02  0.17321796653E+03  0.17120000000E+03 0.  0.
        998    1    1    2    0    0  0.38686435101E-01  0.72878331028E+00  0.14703538023E+04  0.14703879885E+04  0.10000000000E+02 0.  1.
</event>
<event>
 5    1  0.1146201E-008  0.3815268E+03  0.7957747E-01  0.3444537E+00
         13   -1    0    0    0    0  0.00000000000E+00  0.00000000000E+00  0.14999999963E+04  0.15000000000E+04  0.10566000000E+00 0. -1.
        994   -1    0    0    0    0 -0.00000000000E+00 -0.00000000000E+00  0.11368683772E-12  0.17120000000E+03  0.17120000000E+03 0.  0.
         13    1    1    2    0    0  0.33888222045E+01 -0.31418906690E+02  0.13563447045E+03  0.13926719840E+03  0.10566000000E+00 0. -1.
        994    1    1    2    0    0 -0.14246978779E+01  0.31505688231E+02  0.66797493302E+01  0.17420877477E+03  0.17120000000E+03 0.  0.
        998    1    1    2    0    0 -0.19641243266E+01 -0.86781540502E-01  0.13576857765E+04  0.13577240268E+04  0.10000000000E+02 0. -1.
</event>
<event>
 5    1  0.1146201E-008  0.3806827E+03  0.7957747E-01  0.3448191E+00
         13   -1    0    0    0    0  0.00000000000E+00  0.00000000000E+00  0.14999999963E+04  0.15000000000E+04  0.10566000000E+00 0. -1.
        994   -1    0    0    0    0 -0.00000000000E+00 -0.00000000000E+00  0.11368683772E-12  0.17120000000E+03  0.17120000000E+03 0.  0.
         13    1    1    2    0    0  0.37173338905E+02  0.18757269059E+03  0.10576375717E+04  0.10747849160E+04  0.10566000000E+00 0. -1.
        994    1    1    2    0    0 -0.44178016191E+02 -0.18586312041E+03  0.13702712474E+03  0.29083099828E+03  0.17120000000E+03 0.  0.
        998    1    1    2    0    0  0.70046772863E+01 -0.17095701822E+01  0.30533529979E+03  0.30558408570E+03  0.10000000000E+02 0.  0.
</event>
<event>
 5    1  0.1146201E-008  0.3858106E+03  0.7957747E-01  0.3426242E+00
         13   -1    0    0    0    0  0.00000000000E+00  0.00000000000E+00  0.14999999963E+04  0.15000000000E+04  0.10566000000E+00 0. -1.
        994   -1    0    0    0    0 -0.00000000000E+00 -0.00000000000E+00  0.11368683772E-12  0.17120000000E+03  0.17120000000E+03 0.  0.
         13    1    1    2    0    0 -0.23092847172E+01 -0.10833624450E+02  0.49357762532E+02  0.50585572061E+02  0.10566000000E+00 0. -1.
        994    1    1    2    0    0  0.91706096213E+01  0.90543126213E+01  0.17731734802E+01  0.17169351998E+03  0.17120000000E+03 0.  0.
        998    1    1    2    0    0 -0.68613249041E+01  0.17793118283E+01  0.14488690603E+04  0.14489209080E+04  0.10000000000E+02 0. -1.
</event>
<event>
 5    1  0.1146201E-008  0.3813093E+03  0.7957747E-01  0.3445477E+00
         13   -1    0    0    0    0  0.00000000000E+00  0.00000000000E+00  0.14999999963E+04  0.15000000000E+04  0.10566000000E+00 0. -1.
        994   -1    0    0    0    0 -0.00000000000E+00 -0.00000000000E+00  0.11368683772E-12  0.17120000000E+03  0.17120000000E+03 0.  0.
         13    1    1    2    0    0 -0.10877524979E+02 -0.34773100807E+02  0.21487199523E+03  0.21793915341E+03  0.10566000000E+00 0. -1.
        994    1    1    2    0    0 -0.11815114901E+00  0.69661387247E+01  0.36352436166E+01  0.17138026737E+03  0.17120000000E+03 0.  0.
        998    1    1    2    0    0  0.10995676128E+02  0.27806962082E+02  0.12814927574E+04  0.12818805792E+04  0.10000000000E+02 0. -1.
</event>
<event>
 5    1  0.1146201E-008  0.3815905E+03  0.7957747E-01  0.3444262E+00
         13   -1    0    0    0    0  0.00000000000E+00  0.00000000000E+00  0.14999999963E+04  0.15000000000E+04  0.10566000000E+00 0.  1.
        994   -1    0    0    0    0 -0.00000000000E+00 -0.00000000000E+00  0.11368683772E-12  0.17120000000E+03  0.17120000000E+03 0.  0.
         13    1    1    2    0    0 -0.18319521927E+02 -0.86495304686E-02  0.47592553652E+02  0.50996737990E+02  0.10566000000E+00 0.  1.
        994    1    1    2    0    0  0.20265681329E+02  0.12408008049E+01  0.47044872754E+01  0.17246393718E+03  0.17120000000E+03 0.  0.
        998    1    1    2    0    0 -0.19461594022E+01 -0.12321512744E+01  0.14477029554E+04  0.14477393248E+04  0.10000000000E+02 0.  1.
</event>
<event>
 5    1  0.1146201E-008  0.3798343E+03  0.7957747E-01  0.3451880E+00
         13   -1    0    0    0    0  0.00000000000E+00  0.00000000000E+00  0.14999999963E+04  0.15000000000E+04  0.10566000000E+00 0.  1.
        994   -1    0    0    0    0 -0.00000000000E+00 -0.00000000000E+00  0.11368683772E-12  0.17120000000E+03  0.17120000000E+03 0.  0.
         13    1    1    2    0    0 -0.22177486770E+02 -0.22396478976E+01  0.64306853937E+02  0.68060558104E+02  0.10566000000E+00 0.  1.
        994    1    1    2    0    0 -0.91395303855E+01 -0.33345792976E+02  0.82257285486E+01  0.17485015166E+03  0.17120000000E+03 0.  0.
        998    1    1    2    0    0  0.31317017155E+02  0.35585440874E+02  0.14274674138E+04  0.14282892902E+04  0.10000000000E+02 0.  1.
</event>
<event>
 5    1  0.1146201E-008  0.3847368E+03  0.7957747E-01  0.3430789E+00
         13   -1    0    0    0    0  0.00000000000E+00  0.00000000000E+00  0.14999999963E+04  0.15000000000E+04  0.10566000000E+00 0.  1.
        994   -1    0    0    0    0 -0.00000000000E+00 -0.00000000000E+00  0.11368683772E-12  0.17120000000E+03  0.17120000000E+03 0.  0.
         13    1    1    2    0    0  0.14104044815E+02  0.83606777854E+01  0.76964078239E+02  0.78691203551E+02  0.10566000000E+00 0.  1.
        994    1    1    2    0    0 -0.85064468902E+01 -0.37214672653E+01  0.20446907857E+01  0.17146378544E+03  0.17120000000E+03 0.  0.
        998    1    1    2    0    0 -0.55975979247E+01 -0.46392105201E+01  0.14209912273E+04  0.14210450110E+04  0.10000000000E+02 0.  1.
</event>
<event>
 5    1  0.1146201E-008  0.3843530E+03  0.7957747E-01  0.3432421E+00
         13   -1    0    0    0    0  0.00000000000E+00  0.00000000000E+00  0.14999999963E+04  0.15000000000E+04  0.10566000000E+00 0.  1.
        994   -1    0    0    0    0 -0.00000000000E+00 -0.00000000000E+00  0.11368683772E-12  0.17120000000E+03  0.17120000000E+03 0.  0.
         13    1    1    2    0    0  0.52115651294E+01 -0.15212834882E+02  0.68410918561E+02  0.70275569714E+02  0.10566000000E+00 0.  1.
        994    1    1    2    0    0 -0.98363227182E+01  0.13930422317E+01  0.22770335668E+01  0.17150311570E+03  0.17120000000E+03 0.  0.
        998    1    1    2    0    0  0.46247575888E+01  0.13819792650E+02  0.14293120442E+04  0.14294213146E+04  0.10000000000E+02 0.  1.
</event>
<event>
 5    1  0.1146201E-008  0.3787212E+03  0.7957747E-01  0.3456746E+00
         13   -1    0    0    0    0  0.00000000000E+00  0.00000000000E+00  0.14999999963E+04  0.15000000000E+04  0.10566000000E+00 0. -1.
        994   -1    0    0    0    0 -0.00000000000E+00 -0.00000000000E+00  0.11368683772E-12  0.17120000000E+03  0.17120000000E+03 0.  0.
         13    1    1    2    0    0  0.17592499966E+02 -0.52212502024E+00  0.32185315163E+02  0.36683434215E+02  0.10566000000E+00 0. -1.
        994    1    1    2    0    0  0.60963737261E+01 -0.56879748830E+01  0.50134894544E+01  0.17147621966E+03  0.17120000000E+03 0.  0.
        998    1    1    2    0    0 -0.23688873693E+02  0.62100999032E+01  0.14628011917E+04  0.14630403461E+04  0.10000000000E+02 0. -1.
</event>
<event>
 5    1  0.1146201E-008  0.3819648E+03  0.7957747E-01  0.3442648E+00
         13   -1    0    0    0    0  0.00000000000E+00  0.00000000000E+00  0.14999999963E+04  0.15000000000E+04  0.10566000000E+00 0.  1.
        994   -1    0    0    0    0 -0.00000000000E+00 -0.00000000000E+00  0.11368683772E-12  0.17120000000E+03  0.17120000000E+03 0.  0.
         13    1    1    2    0    0 -0.24764027504E+02  0.14580582895E+01  0.84448171688E+02  0.88016406753E+02  0.10566000000E+00 0.  1.
        994    1    1    2    0    0  0.41470835636E+02 -0.67833938176E+00  0.88794280463E+01  0.17637623024E+03  0.17120000000E+03 0.  0.
        998    1    1    2    0    0 -0.16706808132E+02 -0.77971890771E+00  0.14066723965E+04  0.14068073630E+04  0.10000000000E+02 0.  1.
</event>
<event>
 5    1  0.1146201E-008  0.3743552E+03  0.7957747E-01  0.3476111E+00
         13   -1    0    0    0    0  0.00000000000E+00  0.00000000000E+00  0.14999999963E+04  0.15000000000E+04  0.10566000000E+00 0.  1.
        994   -1    0    0    0    0 -0.00000000000E+00 -0.00000000000E+00  0.11368683772E-12  0.17120000000E+03  0.17120000000E+03 0.  0.
         13    1    1    2    0    0  0.15215660059E+01  0.55489187124E+02  0.19650462328E+03  0.20419462085E+03  0.10566000000E+00 0.  1.
        994    1    1    2    0    0  0.14580819859E+02 -0.50557610255E+02  0.16501191312E+02  0.17986217384E+03  0.17120000000E+03 0.  0.
        998    1    1    2    0    0 -0.16102385865E+02 -0.49315768698E+01  0.12869941817E+04  0.12871432053E+04  0.10000000000E+02 0.  1.
</event>
<event>
 5    1  0.1146201E-008  0.3794233E+03  0.7957747E-01  0.3453673E+00
         13   -1    0    0    0    0  0.00000000000E+00  0.00000000000E+00  0.14999999963E+04  0.15000000000E+04  0.10566000000E+00 0.  1.
        994   -1    0    0    0    0 -0.00000000000E+00 -0.00000000000E+00  0.11368683772E-12  0.17120000000E+03  0.17120000000E+03 0.  0.
         13    1    1    2    0    0 -0.31252519652E+01 -0.10249255525E+02  0.11048964876E+02  0.15391725944E+02  0.10566000000E+00 0.  1.
        994    1    1    2    0    0  0.95417148223E+01  0.39082508495E+01  0.47807061716E+01  0.17157684546E+03  0.17120000000E+03 0.  0.
        998    1    1    2    0    0 -0.64164628571E+01  0.63410046758E+01  0.14841703252E+04  0.14842314286E+04  0.10000000000E+02 0.  1.
</event>
<event>
 5    1  0.1146201E-008  0.3775988E+03  0.7957747E-01  0.3461681E+00
         13   -1    0    0    0    0  0.00000000000E+00  0.00000000000E+00  0.14999999963E+04  0.15000000000E+04  0.10566000000E+00 0. -1.
        994   -1    0    0    0    0 -0.00000000000E+00 -0.00000000000E+00  0.11368683772E-12  0.17120000000E+03  0.17120000000E+03 0.  0.
         13    1    1    2    0    0  0.81774978892E+01  0.13081973940E+02  0.20417306863E+02  0.25590761956E+02  0.10566000000E+00 0. -1.
        994    1    1    2    0    0 -0.53041837390E+01  0.91739027867E+00  0.54478601677E+01  0.17137122031E+03  0.17120000000E+03 0.  0.
        998    1    1    2    0    0 -0.28733141502E+01 -0.13999364219E+02  0.14741348292E+04  0.14742380177E+04  0.10000000000E+02 0. -1.
</event>
<event>
 5    1  0.1146201E-008  0.3853479E+03  0.7957747E-01  0.3428198E+00
         13   -1    0    0    0    0  0.00000000000E+00  0.00000000000E+00  0.14999999963E+04  0.15000000000E+04  0.10566000000E+00 0. -1.
        994   -1    0    0    0    0 -0.00000000000E+00 -0.00000000000E+00  0.11368683772E-12  0.17120000000E+03  0.17120000000E+03 0.  0.
         13    1    1    2    0    0 -0.74751159218E+01  0.13008398884E+02  0.73483761505E+02  0.74999801123E+02  0.10566000000E+00 0. -1.
        994    1    1    2    0    0  0.96081549824E+01 -0.14537315935E+02  0.24556281403E+01  0.17210206363E+03  0.17120000000E+03 0.  0.
        998    1    1    2    0    0 -0.21330390606E+01  0.15289170501E+01  0.14240606066E+04  0.14240981352E+04  0.10000000000E+02 0. -1.
</event>
<event>
 5    1  0.1146201E-008  0.3757108E+03  0.7957747E-01  0.3470050E+00
         13   -1    0    0    0    0  0.00000000000E+00  0.00000000000E+00  0.14999999963E+04  0.15000000000E+04  0.10566000000E+00 0.  1.
        994   -1    0    0    0    0 -0.00000000000E+00 -0.00000000000E+00  0.11368683772E-12  0.17120000000E+03  0.17120000000E+03 0.  0.
         13    1    1    2    0    0 -0.44226728721E+01 -0.95020848567E+01  0.59897944974E+01  0.12072218276E+02  0.10566000000E+00 0.  1.
        994    1    1    2    0    0 -0.12611539545E+01 -0.65064021373E+01  0.64631213577E+01  0.17145009687E+03  0.17120000000E+03 0.  0.
        998    1    1    2    0    0  0.56838268266E+01  0.16008486994E+02  0.14875470804E+04  0.14876776849E+04  0.10000000000E+02 0.  1.
</event>
<event>
 5    1  0.1146201E-008  0.3846959E+03  0.7957747E-01  0.3430963E+00
         13   -1    0    0    0    0  0.00000000000E+00  0.00000000000E+00  0.14999999963E+04  0.15000000000E+04  0.10566000000E+00 0. -1.
        994   -1    0    0    0    0 -0.00000000000E+00 -0.00000000000E+00  0.11368683772E-12  0.17120000000E+03  0.17120000000E+03 0.  0.
         13    1    1    2    0    0 -0.17647746245E+02 -0.91721082678E+01  0.11360165225E+03  0.11532960190E+03  0.10566000000E+00 0. -1.
        994    1    1    2    0    0  0.46231420068E+01  0.12088666544E+02  0.23327956547E+01  0.17170437163E+03  0.17120000000E+03 0.  0.
        998    1    1    2    0    0  0.13024604238E+02 -0.29165582761E+01  0.13840655484E+04  0.13841660265E+04  0.10000000000E+02 0. -1.
</event>
<event>
 5    1  0.1146201E-008  0.3739551E+03  0.7957747E-01  0.3477909E+00
         13   -1    0    0    0    0  0.00000000000E+00  0.00000000000E+00  0.14999999963E+04  0.15000000000E+04  0.10566000000E+00 0. -1.
        994   -1    0    0    0    0 -0.00000000000E+00 -0.00000000000E+00  0.11368683772E-12  0.17120000000E+03  0.17120000000E+03 0.  0.
         13    1    1    2    0    0 -0.60351459746E+02  0.60890846822E+02  0.28618449141E+03  0.29875000955E+03  0.10566000000E+00 0. -1.
        994    1    1    2    0    0  0.17837324882E+02 -0.46427807918E+02  0.21867487568E+02  0.17961441624E+03  0.17120000000E+03 0.  0.
        998    1    1    2    0    0  0.42514134863E+02 -0.14463038904E+02  0.11919480173E+04  0.11928355742E+04  0.10000000000E+02 0. -1.
</event>
<event>
 5    1  0.1146201E-008  0.3814972E+03  0.7957747E-01  0.3444665E+00
         13   -1    0    0    0    0  0.00000000000E+00  0.00000000000E+00  0.14999999963E+04  0.15000000000E+04  0.10566000000E+00 0.  1.
        994   -1    0    0    0    0 -0.00000000000E+00 -0.00000000000E+00  0.11368683772E-12  0.17120000000E+03  0.17120000000E+03 0.  0.
         13    1    1    2    0    0  0.20255564823E+02  0.24079586956E+02  0.17721696682E+03  0.17998882995E+03  0.10566000000E+00 0.  1.
        994    1    1    2    0    0  0.14776075595E+01  0.74577535030E+01  0.35715598592E+01  0.17140594345E+03  0.17120000000E+03 0.  0.
        998    1    1    2    0    0 -0.21733172383E+02 -0.31537340459E+02  0.13192114696E+04  0.13198052266E+04  0.10000000000E+02 0.  1.
</event>
<event>
 5    1  0.1146201E-008  0.3749416E+03  0.7957747E-01  0.3473484E+00
         13   -1    0    0    0    0  0.00000000000E+00  0.00000000000E+00  0.14999999963E+04  0.15000000000E+04  0.10566000000E+00 0. -1.
        994   -1    0    0    0    0 -0.00000000000E+00 -0.00000000000E+00  0.11368683772E-12  0.17120000000E+03  0.17120000000E+03 0.  0.
         13    1    1    2    0    0  0.25196230859E+02 -0.33895430683E+02  0.15365197032E+03  0.15935083752E+03  0.10566000000E+00 0. -1.
        994    1    1    2    0    0 -0.52474785806E+00 -0.72761678868E+01  0.68896655590E+01  0.17149380593E+03  0.17120000000E+03 0.  0.
        998    1    1    2    0    0 -0.24671483001E+02  0.41171598569E+02  0.13394583604E+04  0.13403553566E+04  0.10000000000E+02 0. -1.
</event>
<event>
 5    1  0.1146201E-008  0.3737735E+03  0.7957747E-01  0.3478726E+00
         13   -1    0    0    0    0  0.00000000000E+00  0.00000000000E+00  0.14999999963E+04  0.15000000000E+04  0.10566000000E+00 0. -1.
        994   -1    0    0    0    0 -0.00000000000E+00 -0.00000000000E+00  0.11368683772E-12  0.17120000000E+03  0.17120000000E+03 0.  0.
         13    1    1    2    0    0 -0.10795132402E+03  0.21667569155E+02  0.51066760777E+03  0.52240251598E+03  0.10566000000E+00 0. -1.
        994    1    1    2    0    0  0.10978590212E+03 -0.30225766785E+02  0.52948629048E+02  0.21231942587E+03  0.17120000000E+03 0.  0.
        998    1    1    2    0    0 -0.18345780995E+01  0.85581976302E+01  0.93638375946E+03  0.93647805815E+03  0.10000000000E+02 0. -1.
</event>
<event>
 5    1  0.1146201E-008  0.3761588E+03  0.7957747E-01  0.3468056E+00
         13   -1    0    0    0    0  0.00000000000E+00  0.00000000000E+00  0.14999999963E+04  0.15000000000E+04  0.10566000000E+00 0.  1.
        994   -1    0    0    0    0 -0.00000000000E+00 -0.00000000000E+00  0.11368683772E-12  0.17120000000E+03  0.17120000000E+03 0.  0.
         13    1    1    2    0    0 -0.15593804033E+02  0.67311354695E+01  0.22519910719E+02  0.28206957506E+02  0.10566000000E+00 0.  1.
        994    1    1    2    0    0 -0.11533625885E+02  0.80408848309E+01  0.67544768776E+01  0.17190911352E+03  0.17120000000E+03 0.  0.
        998    1    1    2    0    0  0.27127429919E+02 -0.14772020300E+02  0.14707256087E+04  0.14710839290E+04  0.10000000000E+02 0.  1.
</event>
<event>
 5    1  0.1146201E-008  0.3746458E+03  0.7957747E-01  0.3474808E+00
         13   -1    0    0    0    0  0.00000000000E+00  0.00000000000E+00  0.14999999963E+04  0.15000000000E+04  0.10566000000E+00 0. -1.
        994   -1    0    0    0    0 -0.00000000000E+00 -0.00000000000E+00  0.11368683772E-12  0.17120000000E+03  0.17120000000E+03 0.  0.
         13    1    1    2    0    0 -0.11871641376E+03  0.14271082485E+03  0.97934549803E+03  0.99678361850E+03  0.10566000000E+00 0. -1.
        994    1    1    2    0    0  0.81970804623E+02 -0.16953436339E+03  0.13910833560E+03  0.29003738072E+03  0.17120000000E+03 0.  0.
        998    1    1    2    0    0  0.36745609137E+02  0.26823538542E+02  0.38154616265E+03  0.38437900078E+03  0.10000000000E+02 0. -1.
</event>
<event>
 5    1  0.1146201E-008  0.3771023E+03  0.7957747E-01  0.3463874E+00
         13   -1    0    0    0    0  0.00000000000E+00  0.00000000000E+00  0.14999999963E+04  0.15000000000E+04  0.10566000000E+00 0. -1.
        994   -1    0    0    0    0 -0.00000000000E+00 -0.00000000000E+00  0.11368683772E-12  0.17120000000E+03  0.17120000000E+03 0.  0.
         13    1    1    2    0    0 -0.31388540531E+01 -0.37531739009E+02  0.13591622438E+03  0.14103799152E+03  0.10566000000E+00 0. -1.
        994    1    1    2    0    0 -0.18077833138E+02  0.79616482598E+01  0.69212341569E+01  0.17247474997E+03  0.17120000000E+03 0.  0.
        998    1    1    2    0    0  0.21216687191E+02  0.29570090750E+02  0.13571625377E+04  0.13576872585E+04  0.10000000000E+02 0. -1.
</event>
<event>
 5    1  0.1146201E-008  0.3828029E+03  0.7957747E-01  0.3439044E+00
         13   -1    0    0    0    0  0.00000000000E+00  0.00000000000E+00  0.14999999963E+04  0.15000000000E+04  0.10566000000E+00 0.  1.
        994   -1    0    0    0    0 -0.00000000000E+00 -0.00000000000E+00  0.11368683772E-12  0.17120000000E+03  0.17120000000E+03 0.  0.
         13    1    1    2    0    0  0.16732159422E+02  0.78295822853E+01  0.59934807198E+02  0.62717300608E+02  0.10566000000E+00 0.  1.
        994    1    1    2    0    0 -0.16580616797E+02 -0.78197967854E+01  0.38388032679E+01  0.17222149252E+03  0.17120000000E+03 0.  0.
        998    1    1    2    0    0 -0.15154262556E+00 -0.97854998937E-02  0.14362263858E+04  0.14362612069E+04  0.10000000000E+02 0.  0.
</event>
<event>
 5    1  0.1146201E-008  0.3789281E+03  0.7957747E-01  0.3455839E+00
         13   -1    0    0    0    0  0.00000000000E+00  0.00000000000E+00  0.14999999963E+04  0.15000000000E+04  0.10566000000E+00 0.  1.
        994   -1    0    0    0    0 -0.00000000000E+00 -0.00000000000E+00  0.11368683772E-12  0.17120000000E+03  0.17120000000E+03 0.  0.
         13    1    1    2    0    0  0.43012035820E+02  0.19717263193E+02  0.28143415454E+03  0.28538395224E+03  0.10566000000E+00 0.  1.
        994    1    1    2    0    0  0.13174883061E+01 -0.23909013502E+02  0.66011676544E+01  0.17299246260E+03  0.17120000000E+03 0.  0.
        998    1    1    2    0    0 -0.44329524126E+02  0.41917503094E+01  0.12119646741E+04  0.12128235852E+04  0.10000000000E+02 0.  1.
</event>
<event>
 5    1  0.1146201E-008  0.3823438E+03  0.7957747E-01  0.3441016E+00
         13   -1    0    0    0    0  0.00000000000E+00  0.00000000000E+00  0.14999999963E+04  0.15000000000E+04  0.10566000000E+00 0.  1.
        994   -1    0    0    0    0 -0.00000000000E+00 -0.00000000000E+00  0.11368683772E-12  0.17120000000E+03  0.17120000000E+03 0.  0.
         13    1    1    2    0    0 -0.11607969974E+02  0.12086710272E+02  0.50607005853E+02  0.53309602677E+02  0.10566000000E+00 0.  1.
        994    1    1    2    0    0 -0.11735707799E+02 -0.15149089502E-01  0.34116420457E+01  0.17163567918E+03  0.17120000000E+03 0.  0.
        998    1    1    2    0    0  0.23343677773E+02 -0.12071561182E+02  0.14459813484E+04  0.14462547181E+04  0.10000000000E+02 0.  1.
</event>
<event>
 5    1  0.1146201E-008  0.3834913E+03  0.7957747E-01  0.3436096E+00
         13   -1    0    0    0    0  0.00000000000E+00  0.00000000000E+00  0.14999999963E+04  0.15000000000E+04  0.10566000000E+00 0.  1.
        994   -1    0    0    0    0 -0.00000000000E+00 -0.00000000000E+00  0.11368683772E-12  0.17120000000E+03  0.17120000000E+03 0.  0.
         13    1    1    2    0    0  0.22105886585E+02 -0.88077969537E+01  0.11156207651E+03  0.11407171248E+03  0.10566000000E+00 0.  1.
        994    1    1    2    0    0 -0.21266593589E+02  0.91320101446E+01  0.41533111331E+01  0.17280726722E+03  0.17120000000E+03 0.  0.
        998    1    1    2    0    0 -0.83929299573E+00 -0.32421319091E+00  0.13842846086E+04  0.13843210203E+04  0.10000000000E+02 0.  0.
</event>
<event>
 5    1  0.1146201E-008  0.3830585E+03  0.7957747E-01  0.3437948E+00
         13   -1    0    0    0    0  0.00000000000E+00  0.00000000000E+00  0.14999999963E+04  0.15000000000E+04  0.10566000000E+00 0.  1.
        994   -1    0    0    0    0 -0.00000000000E+00 -0.00000000000E+00  0.11368683772E-12  0.17120000000E+03  0.17120000000E+03 0.  0.
         13    1    1    2    0    0 -0.73230662231E+01  0.14175177464E+02  0.50364481294E+02  0.52831383619E+02  0.10566000000E+00 0.  1.
        994    1    1    2    0    0 -0.95510763657E+01 -0.62469150958E+01  0.30282894344E+01  0.17160669435E+03  0.17120000000E+03 0.  0.
        998    1    1    2    0    0  0.16874142589E+02 -0.79282623682E+01  0.14466072256E+04  0.14467619220E+04  0.10000000000E+02 0.  1.
</event>
<event>
 5    1  0.1486591E-008  0.3861875E+03  0.7957747E-01  0.3424651E+00
         13   -1    0    0    0    0  0.00000000000E+00  0.00000000000E+00  0.14999999963E+04  0.15000000000E+04  0.10566000000E+00 0.  1.
        994   -1    0    0    0    0 -0.00000000000E+00 -0.00000000000E+00  0.11368683772E-12  0.17120000000E+03  0.17120000000E+03 0.  0.
         13    1    1    2    0    0  0.10099528991E+02  0.70525145493E+01  0.72768457592E+02  0.73803780605E+02  0.10566000000E+00 0.  1.
        994    1    1    2    0    0  0.45183644813E+01 -0.25738978652E+02  0.32821530340E+01  0.17321409633E+03  0.17120000000E+03 0.  0.
        998    1    1    2    0    0 -0.14617893472E+02  0.18686464102E+02  0.14239493857E+04  0.14241821231E+04  0.10000000000E+02 0.  1.
</event>
<event>
 5    1  0.1146201E-008  0.3759705E+03  0.7957747E-01  0.3468894E+00
         13   -1    0    0    0    0  0.00000000000E+00  0.00000000000E+00  0.14999999963E+04  0.15000000000E+04  0.10566000000E+00 0. -1.
        994   -1    0    0    0    0 -0.00000000000E+00 -0.00000000000E+00  0.11368683772E-12  0.17120000000E+03  0.17120000000E+03 0.  0.
         13    1    1    2    0    0  0.21770260590E+02  0.18351634798E+02  0.68878863778E+02  0.74532112444E+02  0.10566000000E+00 0. -1.
        994    1    1    2    0    0  0.77215684981E+01 -0.16587449331E+01  0.63925534760E+01  0.17150125013E+03  0.17120000000E+03 0.  0.
        998    1    1    2    0    0 -0.29491829088E+02 -0.16692889865E+02  0.14247285790E+04  0.14251666374E+04  0.10000000000E+02 0. -1.
</event>
<event>
 5    1  0.1146201E-008  0.3803596E+03  0.7957747E-01  0.3449594E+00
         13   -1    0    0    0    0  0.00000000000E+00  0.00000000000E+00  0.14999999963E+04  0.15000000000E+04  0.10566000000E+00 0. -1.
        994   -1    0    0    0    0 -0.00000000000E+00 -0.00000000000E+00  0.11368683772E-12  0.17120000000E+03  0.17120000000E+03 0.  0.
         13    1    1    2    0    0  0.61753643156E+00  0.21298784529E+02  0.54024679402E+02  0.58074923351E+02  0.10566000000E+00 0. -1.
        994    1    1    2    0    0 -0.75026095014E+01 -0.22715753034E+02  0.58649193512E+01  0.17296280486E+03  0.17120000000E+03 0.  0.
        998    1    1    2    0    0  0.68850730699E+01  0.14169685053E+01  0.14401103975E+04  0.14401622718E+04  0.10000000000E+02 0. -1.
</event>
<event>
 5    1  0.1146201E-008  0.3843122E+03  0.7957747E-01  0.3432594E+00
         13   -1    0    0    0    0  0.00000000000E+00  0.00000000000E+00  0.14999999963E+04  0.15000000000E+04  0.10566000000E+00 0. -1.
        994   -1    0    0    0    0 -0.00000000000E+00 -0.00000000000E+00  0.11368683772E-12  0.17120000000E+03  0.17120000000E+03 0.  0.
         13    1    1    2    0    0  0.17368631578E+01  0.11884205611E+02  0.36016614431E+02  0.37966547324E+02  0.10566000000E+00 0. -1.
        994    1    1    2    0    0 -0.17814146935E+01 -0.87419016202E+01  0.22343751083E+01  0.17144686266E+03  0.17120000000E+03 0.  0.
        998    1    1    2    0    0  0.44551535670E-01 -0.31423039909E+01  0.14617490067E+04  0.14617865900E+04  0.10000000000E+02 0. -1.
</event>
<event>
 5    1  0.1146201E-008  0.3791898E+03  0.7957747E-01  0.3454694E+00
         13   -1    0    0    0    0  0.00000000000E+00  0.00000000000E+00  0.14999999963E+04  0.15000000000E+04  0.10566000000E+00 0. -1.
        994   -1    0    0    0    0 -0.00000000000E+00 -0.00000000000E+00  0.11368683772E-12  0.17120000000E+03  0.17120000000E+03 0.  0.
         13    1    1    2    0    0 -0.40880663788E+02 -0.76311806494E+01  0.47976041753E+02  0.63491537516E+02  0.10566000000E+00 0. -1.
        994    1    1    2    0    0  0.33879651126E+02  0.25858870666E+01  0.20065261271E+02  0.17568885076E+03  0.17120000000E+03 0.  0.
        998    1    1    2    0    0  0.70010126626E+01  0.50452935828E+01  0.14319586933E+04  0.14320196117E+04  0.10000000000E+02 0. -1.
</event>
<event>
 5    1  0.1146201E-008  0.3833675E+03  0.7957747E-01  0.3436625E+00
         13   -1    0    0    0    0  0.00000000000E+00  0.00000000000E+00  0.14999999963E+04  0.15000000000E+04  0.10566000000E+00 0.  1.
        994   -1    0    0    0    0 -0.00000000000E+00 -0.00000000000E+00  0.11368683772E-12  0.17120000000E+03  0.17120000000E+03 0.  0.
         13    1    1    2    0    0 -0.72561684389E+00  0.15295507708E+02  0.48598069934E+02  0.50953534139E+02  0.10566000000E+00 0.  1.
        994    1    1    2    0    0  0.13014669105E+02 -0.38073524003E+01  0.30509577271E+01  0.17176328446E+03  0.17120000000E+03 0.  0.
        998    1    1    2    0    0 -0.12289052261E+02 -0.11488155308E+02  0.14483509686E+04  0.14484831814E+04  0.10000000000E+02 0.  1.
</event>
<event>
 5    1  0.1146201E-008  0.3839988E+03  0.7957747E-01  0.3433930E+00
         13   -1    0    0    0    0  0.00000000000E+00  0.00000000000E+00  0.14999999963E+04  0.15000000000E+04  0.10566000000E+00 0. -1.
        994   -1    0    0    0    0 -0.00000000000E+00 -0.00000000000E+00  0.11368683772E-12  0.17120000000E+03  0.17120000000E+03 0.  0.
         13    1    1    2    0    0 -0.15091133694E+02 -0.16443839788E+02  0.10761699392E+03  0.10990710044E+03  0.10566000000E+00 0. -1.
        994    1    1    2    0    0  0.11185444211E+02  0.24005067821E+02  0.44454945627E+01  0.17329327703E+03  0.17120000000E+03 0.  0.
        998    1    1    2    0    0  0.39056894832E+01 -0.75612280327E+01  0.13879375078E+04  0.13879996225E+04  0.10000000000E+02 0. -1.
</event>
<event>
 5    1  0.1146201E-008  0.3720290E+03  0.7957747E-01  0.3486618E+00
         13   -1    0    0    0    0  0.00000000000E+00  0.00000000000E+00  0.14999999963E+04  0.15000000000E+04  0.10566000000E+00 0.  1.
        994   -1    0    0    0    0 -0.00000000000E+00 -0.00000000000E+00  0.11368683772E-12  0.17120000000E+03  0.17120000000E+03 0.  0.
         13    1    1    2    0    0 -0.26584621757E+02  0.35460086551E+01  0.24583044865E+02  0.36382049835E+02  0.10566000000E+00 0.  1.
        994    1    1    2    0    0  0.25950089187E+02  0.96415722912E-01  0.14390429102E+02  0.17375252768E+03  0.17120000000E+03 0.  0.
        998    1    1    2    0    0  0.63453257005E+00 -0.36424243780E+01  0.14610265223E+04  0.14610654225E+04  0.10000000000E+02 0.  1.
</event>
<event>
 5    1  0.1146201E-008  0.3749232E+03  0.7957747E-01  0.3473566E+00
         13   -1    0    0    0    0  0.00000000000E+00  0.00000000000E+00  0.14999999963E+04  0.15000000000E+04  0.10566000000E+00 0. -1.
        994   -1    0    0    0    0 -0.00000000000E+00 -0.00000000000E+00  0.11368683772E-12  0.17120000000E+03  0.17120000000E+03 0.  0.
         13    1    1    2    0    0  0.27818171884E+02  0.23357844324E+02  0.11139750868E+03  0.11717019964E+03  0.10566000000E+00 0. -1.
        994    1    1    2    0    0  0.95437851196E+01  0.62863275912E+01  0.71623502214E+01  0.17173043123E+03  0.17120000000E+03 0.  0.
        998    1    1    2    0    0 -0.37361957003E+02 -0.29644171916E+02  0.13814401374E+04  0.13822993691E+04  0.10000000000E+02 0. -1.
</event>
<event>
 5    1  0.1146201E-008  0.3815073E+03  0.7957747E-01  0.3444622E+00
         13   -1    0    0    0    0  0.00000000000E+00  0.00000000000E+00  0.14999999963E+04  0.15000000000E+04  0.10566000000E+00 0. -1.
        994   -1    0    0    0    0 -0.00000000000E+00 -0.00000000000E+00  0.11368683772E-12  0.17120000000E+03  0.17120000000E+03 0.  0.
         13    1    1    2    0    0 -0.10800796159E+02  0.21799691646E+02  0.83324287915E+02  0.86803409346E+02  0.10566000000E+00 0. -1.
        994    1    1    2    0    0  0.12057247392E+02 -0.19279084217E+02  0.50960208406E+01  0.17277867268E+03  0.17120000000E+03 0.  0.
        998    1    1    2    0    0 -0.12564512332E+01 -0.25206074285E+01  0.14115796875E+04  0.14116179180E+04  0.10000000000E+02 0. -1.
</event>
<event>
 5    1  0.1146201E-008  0.3801687E+03  0.7957747E-01  0.3450424E+00
         13   -1    0    0    0    0  0.00000000000E+00  0.00000000000E+00  0.14999999963E+04  0.15000000000E+04  0.10566000000E+00 0.  1.
        994   -1    0    0    0    0 -0.00000000000E+00 -0.00000000000E+00  0.11368683772E-12  0.17120000000E+03  0.17120000000E+03 0.  0.
         13    1    1    2    0    0  0.17393719859E+02  0.25776820067E+02  0.11304880294E+03  0.11724772472E+03  0.10566000000E+00 0.  1.
        994    1    1    2    0    0 -0.32229282378E+02 -0.10784406160E+02  0.79166432055E+01  0.17472018572E+03  0.17120000000E+03 0.  0.
        998    1    1    2    0    0  0.14835562519E+02 -0.14992413906E+02  0.13790345501E+04  0.13792320896E+04  0.10000000000E+02 0.  1.
</event>
<event>
 5    1  0.1146201E-008  0.3711732E+03  0.7957747E-01  0.3490517E+00
         13   -1    0    0    0    0  0.00000000000E+00  0.00000000000E+00  0.14999999963E+04  0.15000000000E+04  0.10566000000E+00 0. -1.
        994   -1    0    0    0    0 -0.00000000000E+00 -0.00000000000E+00  0.11368683772E-12  0.17120000000E+03  0.17120000000E+03 0.  0.
         13    1    1    2    0    0  0.90217937642E+00 -0.27232682977E+02  0.38580174441E+02  0.47232128617E+02  0.10566000000E+00 0. -1.
        994    1    1    2    0    0  0.29285054069E+01  0.26608529174E+02  0.11128829430E+02  0.17363721034E+03  0.17120000000E+03 0.  0.
        998    1    1    2    0    0 -0.38306847833E+01  0.62415380292E+00  0.14502909924E+04  0.14503306610E+04  0.10000000000E+02 0. -1.
</event>
<event>
 5    1  0.1146201E-008  0.3799744E+03  0.7957747E-01  0.3451270E+00
         13   -1    0    0    0    0  0.00000000000E+00  0.00000000000E+00  0.14999999963E+04  0.15000000000E+04  0.10566000000E+00 0. -1.
        994   -1    0    0    0    0 -0.00000000000E+00 -0.00000000000E+00  0.11368683772E-12  0.17120000000E+03  0.17120000000E+03 0.  0.
         13    1    1    2    0    0 -0.16297515509E+03 -0.13781496041E+03  0.99317958671E+03  0.10158541072E+04  0.10566000000E+00 0. -1.
        994    1    1    2    0    0  0.15365549605E+03  0.16784055203E+03  0.20293484906E+03  0.34967478510E+03  0.17120000000E+03 0.  0.
        998    1    1    2    0    0  0.93196590328E+01 -0.30025591616E+02  0.30388556052E+03  0.30567110771E+03  0.10000000000E+02 0.  1.
</event>
<event>
 5    1  0.1146201E-008  0.3773425E+03  0.7957747E-01  0.3462812E+00
         13   -1    0    0    0    0  0.00000000000E+00  0.00000000000E+00  0.14999999963E+04  0.15000000000E+04  0.10566000000E+00 0. -1.
        994   -1    0    0    0    0 -0.00000000000E+00 -0.00000000000E+00  0.11368683772E-12  0.17120000000E+03  0.17120000000E+03 0.  0.
         13    1    1    2    0    0  0.20256972651E+02  0.98201880241E+01  0.41750943943E+02  0.47433464115E+02  0.10566000000E+00 0. -1.
        994    1    1    2    0    0 -0.28340705216E+02 -0.14970278611E+02  0.89531341059E+01  0.17440442490E+03  0.17120000000E+03 0.  0.
        998    1    1    2    0    0  0.80837325655E+01  0.51500905872E+01  0.14492959182E+04  0.14493621110E+04  0.10000000000E+02 0. -1.
</event>
<event>
 5    1  0.1146201E-008  0.3859100E+03  0.7957747E-01  0.3425822E+00
         13   -1    0    0    0    0  0.00000000000E+00  0.00000000000E+00  0.14999999963E+04  0.15000000000E+04  0.10566000000E+00 0.  1.
        994   -1    0    0    0    0 -0.00000000000E+00 -0.00000000000E+00  0.11368683772E-12  0.17120000000E+03  0.17120000000E+03 0.  0.
         13    1    1    2    0    0  0.65575902036E+01  0.88907268832E+01  0.58735544611E+02  0.59765561811E+02  0.10566000000E+00 0.  1.
        994    1    1    2    0    0  0.15460020099E+02 -0.86574415653E+00  0.19655634379E+01  0.17191004966E+03  0.17120000000E+03 0.  0.
        998    1    1    2    0    0 -0.22017610302E+02 -0.80249827266E+01  0.14392988882E+04  0.14395243885E+04  0.10000000000E+02 0.  1.
</event>
<event>
 5    1  0.1146201E-008  0.3765328E+03  0.7957747E-01  0.3466396E+00
         13   -1    0    0    0    0  0.00000000000E+00  0.00000000000E+00  0.14999999963E+04  0.15000000000E+04  0.10566000000E+00 0. -1.
        994   -1    0    0    0    0 -0.00000000000E+00 -0.00000000000E+00  0.11368683772E-12  0.17120000000E+03  0.17120000000E+03 0.  0.
         13    1    1    2    0    0 -0.19543441831E+02 -0.14338406757E+02  0.47245200184E+02  0.53100434381E+02  0.10566000000E+00 0. -1.
        994    1    1    2    0    0  0.20366038836E+02  0.25265575376E+01  0.73192248004E+01  0.17258090880E+03  0.17120000000E+03 0.  0.
        998    1    1    2    0    0 -0.82259700475E+00  0.11811849220E+02  0.14454355713E+04  0.14455186568E+04  0.10000000000E+02 0. -1.
</event>
<event>
 5    1  0.1146201E-008  0.3839412E+03  0.7957747E-01  0.3434175E+00
         13   -1    0    0    0    0  0.00000000000E+00  0.00000000000E+00  0.14999999963E+04  0.15000000000E+04  0.10566000000E+00 0.  1.
        994   -1    0    0    0    0 -0.00000000000E+00 -0.00000000000E+00  0.11368683772E-12  0.17120000000E+03  0.17120000000E+03 0.  0.
         13    1    1    2    0    0 -0.13421269829E+02  0.57009155491E+01  0.48756410218E+02  0.50890368669E+02  0.10566000000E+00 0.  1.
        994    1    1    2    0    0  0.12703404669E+02  0.45004993538E+01  0.27563367846E+01  0.17175176383E+03  0.17120000000E+03 0.  0.
        998    1    1    2    0    0  0.71786515957E+00 -0.10201414903E+02  0.14484872493E+04  0.14485578675E+04  0.10000000000E+02 0.  1.
</event>
<event>
 5    1  0.1146201E-008  0.4425273E+03  0.7957747E-01  0.3217191E+00
         13   -1    0    0    0    0  0.00000000000E+00  0.00000000000E+00  0.14999999963E+04  0.15000000000E+04  0.10566000000E+00 0. -1.
        994   -1    0    0    0    0 -0.00000000000E+00 -0.00000000000E+00  0.11368683772E-12  0.17120000000E+03  0.17120000000E+03 0.  0.
         13    1    1    2    0    0  0.68100535115E+02 -0.56884721489E+02  0.53182238647E+02  0.10345006570E+03  0.10566000000E+00 0. -1.
        994    1    1    2    0    0 -0.61898787116E+02  0.49497039204E+02  0.86807939570E+02  0.20766914819E+03  0.17120000000E+03 0.  0.
        998    1    1    2    0    0 -0.62017479994E+01  0.73876822858E+01  0.13600098181E+04  0.13600807861E+04  0.10000000000E+02 0. -1.
</event>
<event>
 5    1  0.1146201E-008  0.3714377E+03  0.7957747E-01  0.3489310E+00
         13   -1    0    0    0    0  0.00000000000E+00  0.00000000000E+00  0.14999999963E+04  0.15000000000E+04  0.10566000000E+00 0.  1.
        994   -1    0    0    0    0 -0.00000000000E+00 -0.00000000000E+00  0.11368683772E-12  0.17120000000E+03  0.17120000000E+03 0.  0.
         13    1    1    2    0    0  0.44628367481E+01 -0.11015390663E+03  0.44894812755E+03  0.46228587741E+03  0.10566000000E+00 0.  1.
        994    1    1    2    0    0 -0.54128730269E+02  0.12018296122E+03  0.70894219201E+02  0.22739677641E+03  0.17120000000E+03 0.  0.
        998    1    1    2    0    0  0.49665893521E+02 -0.10029054582E+02  0.98015764953E+03  0.98151734618E+03  0.10000000000E+02 0. -1.
</event>
<event>
 5    1  0.1146201E-008  0.3815189E+03  0.7957747E-01  0.3444572E+00
         13   -1    0    0    0    0  0.00000000000E+00  0.00000000000E+00  0.14999999963E+04  0.15000000000E+04  0.10566000000E+00 0.  1.
        994   -1    0    0    0    0 -0.00000000000E+00 -0.00000000000E+00  0.11368683772E-12  0.17120000000E+03  0.17120000000E+03 0.  0.
         13    1    1    2    0    0 -0.11465661513E+02  0.10092030265E+02  0.33229768961E+02  0.36572382723E+02  0.10566000000E+00 0.  1.
        994    1    1    2    0    0  0.23184943205E+01 -0.14975231067E+02  0.41325722711E+01  0.17191902488E+03  0.17120000000E+03 0.  0.
        998    1    1    2    0    0  0.91471671923E+01  0.48832008023E+01  0.14626376550E+04  0.14627085924E+04  0.10000000000E+02 0.  1.
</event>
<event>
 5    1  0.1146201E-008  0.3703593E+03  0.7957747E-01  0.3494241E+00
         13   -1    0    0    0    0  0.00000000000E+00  0.00000000000E+00  0.14999999963E+04  0.15000000000E+04  0.10566000000E+00 0.  1.
        994   -1    0    0    0    0 -0.00000000000E+00 -0.00000000000E+00  0.11368683772E-12  0.17120000000E+03  0.17120000000E+03 0.  0.
         13    1    1    2    0    0 -0.17984818166E+02  0.66252201656E+02  0.18790391433E+03  0.20005174354E+03  0.10566000000E+00 0.  1.
        994    1    1    2    0    0 -0.63035406221E+02 -0.85650074072E+02  0.51839349672E+02  0.20810131139E+03  0.17120000000E+03 0.  0.
        998    1    1    2    0    0  0.81020224387E+02  0.19397872416E+02  0.12602567323E+04  0.12630469451E+04  0.10000000000E+02 0.  1.
</event>
<event>
 5    1  0.1146201E-008  0.3831959E+03  0.7957747E-01  0.3437360E+00
         13   -1    0    0    0    0  0.00000000000E+00  0.00000000000E+00  0.14999999963E+04  0.15000000000E+04  0.10566000000E+00 0. -1.
        994   -1    0    0    0    0 -0.00000000000E+00 -0.00000000000E+00  0.11368683772E-12  0.17120000000E+03  0.17120000000E+03 0.  0.
         13    1    1    2    0    0 -0.18411754759E+02  0.58504158925E+01  0.72807002700E+02  0.75326561621E+02  0.10566000000E+00 0. -1.
        994    1    1    2    0    0  0.12516440429E+02 -0.39328513387E+01  0.30980815430E+01  0.17172992375E+03  0.17120000000E+03 0.  0.
        998    1    1    2    0    0  0.58953143307E+01 -0.19175645538E+01  0.14240949120E+04  0.14241435146E+04  0.10000000000E+02 0. -1.
</event>
<event>
 5    1  0.1146201E-008  0.3856737E+03  0.7957747E-01  0.3426820E+00
         13   -1    0    0    0    0  0.00000000000E+00  0.00000000000E+00  0.14999999963E+04  0.15000000000E+04  0.10566000000E+00 0. -1.
        994   -1    0    0    0    0 -0.00000000000E+00 -0.00000000000E+00  0.11368683772E-12  0.17120000000E+03  0.17120000000E+03 0.  0.
         13    1    1    2    0    0  0.37744183598E+01 -0.97489874619E+01  0.45834328982E+02  0.47011550366E+02  0.10566000000E+00 0. -1.
        994    1    1    2    0    0  0.10247447530E+02 -0.21412450986E+01  0.16557521880E+01  0.17152777217E+03  0.17120000000E+03 0.  0.
        998    1    1    2    0    0 -0.14021865890E+02  0.11890232561E+02  0.14525099151E+04  0.14526606775E+04  0.10000000000E+02 0. -1.
</event>
<event>
 5    1  0.1146201E-008  0.3848983E+03  0.7957747E-01  0.3430103E+00
         13   -1    0    0    0    0  0.00000000000E+00  0.00000000000E+00  0.14999999963E+04  0.15000000000E+04  0.10566000000E+00 0.  1.
        994   -1    0    0    0    0 -0.00000000000E+00 -0.00000000000E+00  0.11368683772E-12  0.17120000000E+03  0.17120000000E+03 0.  0.
         13    1    1    2    0    0  0.29414096577E+00  0.12803871625E+02  0.50754365696E+02  0.52345414782E+02  0.10566000000E+00 0.  1.
        994    1    1    2    0    0  0.70820426699E+01 -0.13290112907E+01  0.18514432028E+01  0.17136157516E+03  0.17120000000E+03 0.  0.
        998    1    1    2    0    0 -0.73761836357E+01 -0.11474860334E+02  0.14473941874E+04  0.14474930101E+04  0.10000000000E+02 0.  1.
</event>
<event>
 5    1  0.1146201E-008  0.3740134E+03  0.7957747E-01  0.3477647E+00
         13   -1    0    0    0    0  0.00000000000E+00  0.00000000000E+00  0.14999999963E+04  0.15000000000E+04  0.10566000000E+00 0.  1.
        994   -1    0    0    0    0 -0.00000000000E+00 -0.00000000000E+00  0.11368683772E-12  0.17120000000E+03  0.17120000000E+03 0.  0.
         13    1    1    2    0    0  0.88369962226E+01 -0.22369969811E+02  0.38728212005E+02  0.45589402505E+02  0.10566000000E+00 0.  1.
        994    1    1    2    0    0 -0.70312306609E+02 -0.25840567143E+02  0.26572974152E+02  0.18875147238E+03  0.17120000000E+03 0.  0.
        998    1    1    2    0    0  0.61475310386E+02  0.48210536954E+02  0.14346988101E+04  0.14368591251E+04  0.10000000000E+02 0.  1.
</event>
<event>
 5    1  0.1146201E-008  0.3701828E+03  0.7957747E-01  0.3495051E+00
         13   -1    0    0    0    0  0.00000000000E+00  0.00000000000E+00  0.14999999963E+04  0.15000000000E+04  0.10566000000E+00 0.  1.
        994   -1    0    0    0    0 -0.00000000000E+00 -0.00000000000E+00  0.11368683772E-12  0.17120000000E+03  0.17120000000E+03 0.  0.
         13    1    1    2    0    0  0.18698003724E+02 -0.19925458823E+02  0.31421299886E+02  0.41640707285E+02  0.10566000000E+00 0.  1.
        994    1    1    2    0    0  0.39479010768E+02  0.22411943456E+02  0.18279886570E+02  0.17805752372E+03  0.17120000000E+03 0.  0.
        998    1    1    2    0    0 -0.58177014493E+02 -0.24864846327E+01  0.14502988098E+04  0.14515017690E+04  0.10000000000E+02 0.  1.
</event>
<event>
 5    1  0.1146201E-008  0.3853479E+03  0.7957747E-01  0.3428198E+00
         13   -1    0    0    0    0  0.00000000000E+00  0.00000000000E+00  0.14999999963E+04  0.15000000000E+04  0.10566000000E+00 0. -1.
        994   -1    0    0    0    0 -0.00000000000E+00 -0.00000000000E+00  0.11368683772E-12  0.17120000000E+03  0.17120000000E+03 0.  0.
         13    1    1    2    0    0 -0.11780573006E+02 -0.58801182877E+01  0.57368872684E+02  0.58860482571E+02  0.10566000000E+00 0. -1.
        994    1    1    2    0    0  0.12609687645E+02  0.84457257785E+01  0.22144966719E+01  0.17188565531E+03  0.17120000000E+03 0.  0.
        998    1    1    2    0    0 -0.82911463873E+00 -0.25656074908E+01  0.14404166269E+04  0.14404538621E+04  0.10000000000E+02 0. -1.
</event>
<event>
 5    1  0.1146201E-008  0.3953091E+03  0.7957747E-01  0.3387093E+00
         13   -1    0    0    0    0  0.00000000000E+00  0.00000000000E+00  0.14999999963E+04  0.15000000000E+04  0.10566000000E+00 0. -1.
        994   -1    0    0    0    0 -0.00000000000E+00 -0.00000000000E+00  0.11368683772E-12  0.17120000000E+03  0.17120000000E+03 0.  0.
         13    1    1    2    0    0  0.64028661085E+02  0.40549943520E+02  0.10746252219E+03  0.13149970418E+03  0.10566000000E+00 0. -1.
        994    1    1    2    0    0 -0.46360884635E+02 -0.24654975594E+02  0.35672242966E+02  0.18259011026E+03  0.17120000000E+03 0.  0.
        998    1    1    2    0    0 -0.17667776450E+02 -0.15894967925E+02  0.13568652311E+04  0.13571101856E+04  0.10000000000E+02 0. -1.
</event>
<event>
 5    1  0.1146201E-008  0.3836786E+03  0.7957747E-01  0.3435296E+00
         13   -1    0    0    0    0  0.00000000000E+00  0.00000000000E+00  0.14999999963E+04  0.15000000000E+04  0.10566000000E+00 0.  1.
        994   -1    0    0    0    0 -0.00000000000E+00 -0.00000000000E+00  0.11368683772E-12  0.17120000000E+03  0.17120000000E+03 0.  0.
         13    1    1    2    0    0  0.19578384001E+02  0.18030629201E+01  0.85688344255E+02  0.87915116227E+02  0.10566000000E+00 0.  1.
        994    1    1    2    0    0 -0.91661343085E+01 -0.75700196185E+00  0.25670610143E+01  0.17146609249E+03  0.17120000000E+03 0.  0.
        998    1    1    2    0    0 -0.10412249693E+02 -0.10460609583E+01  0.14117445910E+04  0.14118187913E+04  0.10000000000E+02 0.  1.
</event>
<event>
 5    1  0.1146201E-008  0.3841677E+03  0.7957747E-01  0.3433210E+00
         13   -1    0    0    0    0  0.00000000000E+00  0.00000000000E+00  0.14999999963E+04  0.15000000000E+04  0.10566000000E+00 0. -1.
        994   -1    0    0    0    0 -0.00000000000E+00 -0.00000000000E+00  0.11368683772E-12  0.17120000000E+03  0.17120000000E+03 0.  0.
         13    1    1    2    0    0 -0.14278515582E+02  0.12311569485E+02  0.82886446070E+02  0.85003675547E+02  0.10566000000E+00 0. -1.
        994    1    1    2    0    0  0.11128967079E+02 -0.16094219413E+02  0.33074884821E+01  0.17234632948E+03  0.17120000000E+03 0.  0.
        998    1    1    2    0    0  0.31495485035E+01  0.37826499285E+01  0.14138060617E+04  0.14138499950E+04  0.10000000000E+02 0. -1.
</event>
<event>
 5    1  0.1146201E-008  0.3820455E+03  0.7957747E-01  0.3442300E+00
         13   -1    0    0    0    0  0.00000000000E+00  0.00000000000E+00  0.14999999963E+04  0.15000000000E+04  0.10566000000E+00 0.  1.
        994   -1    0    0    0    0 -0.00000000000E+00 -0.00000000000E+00  0.11368683772E-12  0.17120000000E+03  0.17120000000E+03 0.  0.
         13    1    1    2    0    0  0.19279353994E+02 -0.72540172998E+01  0.79931384415E+02  0.82543028996E+02  0.10566000000E+00 0.  1.
        994    1    1    2    0    0  0.30684456189E+02  0.32303058959E+02  0.97235438265E+01  0.17716944086E+03  0.17120000000E+03 0.  0.
        998    1    1    2    0    0 -0.49963810183E+02 -0.25049041659E+02  0.14103450680E+04  0.14114875301E+04  0.10000000000E+02 0.  1.
</event>
<event>
 5    1  0.1146201E-008  0.3756749E+03  0.7957747E-01  0.3470210E+00
         13   -1    0    0    0    0  0.00000000000E+00  0.00000000000E+00  0.14999999963E+04  0.15000000000E+04  0.10566000000E+00 0. -1.
        994   -1    0    0    0    0 -0.00000000000E+00 -0.00000000000E+00  0.11368683772E-12  0.17120000000E+03  0.17120000000E+03 0.  0.
         13    1    1    2    0    0 -0.20191534674E+02 -0.24385288352E+02  0.72947148987E+02  0.79521305761E+02  0.10566000000E+00 0. -1.
        994    1    1    2    0    0  0.23524402106E+02  0.24267434833E+02  0.10216462207E+02  0.17480309490E+03  0.17120000000E+03 0.  0.
        998    1    1    2    0    0 -0.33328674311E+01  0.11785351963E+00  0.14168363851E+04  0.14168755993E+04  0.10000000000E+02 0. -1.
</event>
<event>
 5    1  0.1146201E-008  0.3736797E+03  0.7957747E-01  0.3479149E+00
         13   -1    0    0    0    0  0.00000000000E+00  0.00000000000E+00  0.14999999963E+04  0.15000000000E+04  0.10566000000E+00 0.  1.
        994   -1    0    0    0    0 -0.00000000000E+00 -0.00000000000E+00  0.11368683772E-12  0.17120000000E+03  0.17120000000E+03 0.  0.
         13    1    1    2    0    0  0.10625231454E+02 -0.11586959674E+02  0.13412711037E+02  0.20665554900E+02  0.10566000000E+00 0.  1.
        994    1    1    2    0    0 -0.12223828739E+02  0.10103644920E+02  0.82175025569E+01  0.17212923336E+03  0.17120000000E+03 0.  0.
        998    1    1    2    0    0  0.15985972842E+01  0.14833147540E+01  0.14783697827E+04  0.14784052117E+04  0.10000000000E+02 0.  1.
</event>
<event>
 5    1  0.1146201E-008  0.3850416E+03  0.7957747E-01  0.3429496E+00
         13   -1    0    0    0    0  0.00000000000E+00  0.00000000000E+00  0.14999999963E+04  0.15000000000E+04  0.10566000000E+00 0.  1.
        994   -1    0    0    0    0 -0.00000000000E+00 -0.00000000000E+00  0.11368683772E-12  0.17120000000E+03  0.17120000000E+03 0.  0.
         13    1    1    2    0    0  0.51475310954E+01 -0.11102045651E+02  0.46761798016E+02  0.48336625986E+02  0.10566000000E+00 0.  1.
        994    1    1    2    0    0 -0.41432516262E+01  0.58347612261E+01  0.17778992972E+01  0.17135872286E+03  0.17120000000E+03 0.  0.
        998    1    1    2    0    0 -0.10042794692E+01  0.52672844247E+01  0.14514602990E+04  0.14515046512E+04  0.10000000000E+02 0.  1.
</event>
<event>
 5    1  0.1146201E-008  0.3834905E+03  0.7957747E-01  0.3436099E+00
         13   -1    0    0    0    0  0.00000000000E+00  0.00000000000E+00  0.14999999963E+04  0.15000000000E+04  0.10566000000E+00 0.  1.
        994   -1    0    0    0    0 -0.00000000000E+00 -0.00000000000E+00  0.11368683772E-12  0.17120000000E+03  0.17120000000E+03 0.  0.
         13    1    1    2    0    0 -0.28295682746E+01 -0.22695328816E+02  0.11408808535E+03  0.11635801128E+03  0.10566000000E+00 0.  1.
        994    1    1    2    0    0  0.18459910853E+01  0.77993705724E+01  0.25937472949E+01  0.17140713343E+03  0.17120000000E+03 0.  0.
        998    1    1    2    0    0  0.98357718934E+00  0.14895958244E+02  0.13833181636E+04  0.13834348553E+04  0.10000000000E+02 0.  1.
</event>
<event>
 5    1  0.1146201E-008  0.3758295E+03  0.7957747E-01  0.3469521E+00
         13   -1    0    0    0    0  0.00000000000E+00  0.00000000000E+00  0.14999999963E+04  0.15000000000E+04  0.10566000000E+00 0. -1.
        994   -1    0    0    0    0 -0.00000000000E+00 -0.00000000000E+00  0.11368683772E-12  0.17120000000E+03  0.17120000000E+03 0.  0.
         13    1    1    2    0    0  0.41132598960E+02  0.16416215146E+02  0.62540623149E+02  0.76633697059E+02  0.10566000000E+00 0. -1.
        994    1    1    2    0    0 -0.37745356262E+02 -0.18995531294E+02  0.20454842238E+02  0.17752009097E+03  0.17120000000E+03 0.  0.
        998    1    1    2    0    0 -0.33872426982E+01  0.25793161484E+01  0.14170045309E+04  0.14170462120E+04  0.10000000000E+02 0. -1.
</event>
<event>
 5    1  0.1146201E-008  0.3819021E+03  0.7957747E-01  0.3442918E+00
         13   -1    0    0    0    0  0.00000000000E+00  0.00000000000E+00  0.14999999963E+04  0.15000000000E+04  0.10566000000E+00 0. -1.
        994   -1    0    0    0    0 -0.00000000000E+00 -0.00000000000E+00  0.11368683772E-12  0.17120000000E+03  0.17120000000E+03 0.  0.
         13    1    1    2    0    0  0.20636872115E+02 -0.56435634379E+01  0.70334671657E+02  0.73516715787E+02  0.10566000000E+00 0. -1.
        994    1    1    2    0    0 -0.89767875956E+01  0.27719238902E+02  0.60013893014E+01  0.17376534636E+03  0.17120000000E+03 0.  0.
        998    1    1    2    0    0 -0.11660084519E+02 -0.22075675464E+02  0.14236639353E+04  0.14239179379E+04  0.10000000000E+02 0. -1.
</event>
<event>
 5    1  0.1146201E-008  0.3685296E+03  0.7957747E-01  0.3502676E+00
         13   -1    0    0    0    0  0.00000000000E+00  0.00000000000E+00  0.14999999963E+04  0.15000000000E+04  0.10566000000E+00 0.  1.
        994   -1    0    0    0    0 -0.00000000000E+00 -0.00000000000E+00  0.11368683772E-12  0.17120000000E+03  0.17120000000E+03 0.  0.
         13    1    1    2    0    0  0.23963531214E+02  0.65239581261E+02  0.19256311040E+03  0.20472180255E+03  0.10566000000E+00 0.  1.
        994    1    1    2    0    0 -0.34391343631E+02 -0.73959520626E+02  0.33674104990E+02  0.19260363588E+03  0.17120000000E+03 0.  0.
        998    1    1    2    0    0  0.10427812417E+02  0.87199393651E+01  0.12737627809E+04  0.12738745616E+04  0.10000000000E+02 0. -1.
</event>
<event>
 5    1  0.1146201E-008  0.3717969E+03  0.7957747E-01  0.3487673E+00
         13   -1    0    0    0    0  0.00000000000E+00  0.00000000000E+00  0.14999999963E+04  0.15000000000E+04  0.10566000000E+00 0.  1.
        994   -1    0    0    0    0 -0.00000000000E+00 -0.00000000000E+00  0.11368683772E-12  0.17120000000E+03  0.17120000000E+03 0.  0.
         13    1    1    2    0    0  0.35979692082E+02 -0.52554103217E+02  0.24187088984E+03  0.25011599414E+03  0.10566000000E+00 0.  1.
        994    1    1    2    0    0  0.26718833933E+02  0.66471242798E+02  0.26181144604E+02  0.18742255611E+03  0.17120000000E+03 0.  0.
        998    1    1    2    0    0 -0.62698526015E+02 -0.13917139581E+02  0.12319479618E+04  0.12336614498E+04  0.10000000000E+02 0.  1.
</event>
<event>
 5    1  0.1146201E-008  0.3844578E+03  0.7957747E-01  0.3431975E+00
         13   -1    0    0    0    0  0.00000000000E+00  0.00000000000E+00  0.14999999963E+04  0.15000000000E+04  0.10566000000E+00 0. -1.
        994   -1    0    0    0    0 -0.00000000000E+00 -0.00000000000E+00  0.11368683772E-12  0.17120000000E+03  0.17120000000E+03 0.  0.
         13    1    1    2    0    0 -0.20553442602E+01  0.98519878331E+01  0.25718310627E+02  0.27617544602E+02  0.10566000000E+00 0. -1.
        994    1    1    2    0    0 -0.76791091257E+00 -0.11944152480E+02  0.23716478458E+01  0.17163425410E+03  0.17120000000E+03 0.  0.
        998    1    1    2    0    0  0.28232551727E+01  0.20921646474E+01  0.14719100378E+04  0.14719482013E+04  0.10000000000E+02 0. -1.
</event>
<event>
 5    1  0.1146201E-008  0.3819946E+03  0.7957747E-01  0.3442519E+00
         13   -1    0    0    0    0  0.00000000000E+00  0.00000000000E+00  0.14999999963E+04  0.15000000000E+04  0.10566000000E+00 0.  1.
        994   -1    0    0    0    0 -0.00000000000E+00 -0.00000000000E+00  0.11368683772E-12  0.17120000000E+03  0.17120000000E+03 0.  0.
         13    1    1    2    0    0 -0.27199813725E+02  0.89660430740E+01  0.13981272520E+03  0.14271590342E+03  0.10566000000E+00 0.  1.
        994    1    1    2    0    0  0.11879546479E+02  0.13294590269E+02  0.41860257509E+01  0.17217674804E+03  0.17120000000E+03 0.  0.
        998    1    1    2    0    0  0.15320267246E+02 -0.22260633343E+02  0.13560012453E+04  0.13563073485E+04  0.10000000000E+02 0.  1.
</event>
<event>
 5    1  0.1146201E-008  0.3714280E+03  0.7957747E-01  0.3489354E+00
         13   -1    0    0    0    0  0.00000000000E+00  0.00000000000E+00  0.14999999963E+04  0.15000000000E+04  0.10566000000E+00 0.  1.
        994   -1    0    0    0    0 -0.00000000000E+00 -0.00000000000E+00  0.11368683772E-12  0.17120000000E+03  0.17120000000E+03 0.  0.
         13    1    1    2    0    0  0.11010420108E+03 -0.56170447731E+02  0.64146199519E+03  0.65326224193E+03  0.10566000000E+00 0.  1.
        994    1    1    2    0    0 -0.81787446772E+02  0.78167302813E+01  0.35807417901E+02  0.19324052085E+03  0.17120000000E+03 0.  0.
        998    1    1    2    0    0 -0.28316754310E+02  0.48353717450E+02  0.82273058319E+03  0.82469723722E+03  0.10000000000E+02 0.  1.
</event>
<event>
 5    1  0.1146201E-008  0.3750096E+03  0.7957747E-01  0.3473180E+00
         13   -1    0    0    0    0  0.00000000000E+00  0.00000000000E+00  0.14999999963E+04  0.15000000000E+04  0.10566000000E+00 0.  1.
        994   -1    0    0    0    0 -0.00000000000E+00 -0.00000000000E+00  0.11368683772E-12  0.17120000000E+03  0.17120000000E+03 0.  0.
         13    1    1    2    0    0 -0.53502617231E+02  0.27929551459E+02  0.21189064592E+03  0.22031851236E+03  0.10566000000E+00 0.  1.
        994    1    1    2    0    0  0.89984475519E+02  0.47573505025E+01  0.34795107933E+02  0.19657054142E+03  0.17120000000E+03 0.  0.
        998    1    1    2    0    0 -0.36481858289E+02 -0.32686901961E+02  0.12533142424E+04  0.12543109462E+04  0.10000000000E+02 0.  1.
</event>
<event>
 5    1  0.1505995E-008  0.3863474E+03  0.7957747E-01  0.3423978E+00
         13   -1    0    0    0    0  0.00000000000E+00  0.00000000000E+00  0.14999999963E+04  0.15000000000E+04  0.10566000000E+00 0. -1.
        994   -1    0    0    0    0 -0.00000000000E+00 -0.00000000000E+00  0.11368683772E-12  0.17120000000E+03  0.17120000000E+03 0.  0.
         13    1    1    2    0    0  0.44192396555E+01  0.95572349781E+01  0.54316959518E+02  0.55328235783E+02  0.10566000000E+00 0. -1.
        994    1    1    2    0    0 -0.15545059016E+02 -0.12225212097E+02  0.22443263257E+01  0.17235307271E+03  0.17120000000E+03 0.  0.
        998    1    1    2    0    0  0.11125819360E+02  0.26679771187E+01  0.14434387104E+04  0.14435186915E+04  0.10000000000E+02 0. -1.
</event>
<event>
 5    1  0.1146201E-008  0.3757333E+03  0.7957747E-01  0.3469950E+00
         13   -1    0    0    0    0  0.00000000000E+00  0.00000000000E+00  0.14999999963E+04  0.15000000000E+04  0.10566000000E+00 0. -1.
        994   -1    0    0    0    0 -0.00000000000E+00 -0.00000000000E+00  0.11368683772E-12  0.17120000000E+03  0.17120000000E+03 0.  0.
         13    1    1    2    0    0  0.12570488994E+02  0.11029722267E+02  0.21390629281E+02  0.27152203445E+02  0.10566000000E+00 0. -1.
        994    1    1    2    0    0 -0.12308565790E+02  0.56679119289E+02  0.17796040316E+02  0.18163194214E+03  0.17120000000E+03 0.  0.
        998    1    1    2    0    0 -0.26192320432E+00 -0.67708841555E+02  0.14608133267E+04  0.14624158544E+04  0.10000000000E+02 0. -1.
</event>
<event>
 5    1  0.1146201E-008  0.3835839E+03  0.7957747E-01  0.3435701E+00
         13   -1    0    0    0    0  0.00000000000E+00  0.00000000000E+00  0.14999999963E+04  0.15000000000E+04  0.10566000000E+00 0. -1.
        994   -1    0    0    0    0 -0.00000000000E+00 -0.00000000000E+00  0.11368683772E-12  0.17120000000E+03  0.17120000000E+03 0.  0.
         13    1    1    2    0    0  0.19613828889E+02 -0.13353133909E+02  0.11411505949E+03  0.11655585114E+03  0.10566000000E+00 0. -1.
        994    1    1    2    0    0 -0.17853321199E+02  0.12333791649E+02  0.38920547084E+01  0.17261359038E+03  0.17120000000E+03 0.  0.
        998    1    1    2    0    0 -0.17605076898E+01  0.10193422595E+01  0.13819928821E+04  0.13820305585E+04  0.10000000000E+02 0. -1.
</event>
<event>
 5    1  0.1146201E-008  0.3859654E+03  0.7957747E-01  0.3425588E+00
         13   -1    0    0    0    0  0.00000000000E+00  0.00000000000E+00  0.14999999963E+04  0.15000000000E+04  0.10566000000E+00 0. -1.
        994   -1    0    0    0    0 -0.00000000000E+00 -0.00000000000E+00  0.11368683772E-12  0.17120000000E+03  0.17120000000E+03 0.  0.
         13    1    1    2    0    0 -0.68596335672E+01  0.12189509526E+02  0.76077430440E+02  0.77352603715E+02  0.10566000000E+00 0. -1.
        994    1    1    2    0    0  0.19302370540E+02 -0.17348924426E+02  0.33628970987E+01  0.17318867100E+03  0.17120000000E+03 0.  0.
        998    1    1    2    0    0 -0.12442736973E+02  0.51594148997E+01  0.14205596687E+04  0.14206587253E+04  0.10000000000E+02 0. -1.
</event>
<event>
 5    1  0.1146201E-008  0.3719030E+03  0.7957747E-01  0.3487191E+00
         13   -1    0    0    0    0  0.00000000000E+00  0.00000000000E+00  0.14999999963E+04  0.15000000000E+04  0.10566000000E+00 0. -1.
        994   -1    0    0    0    0 -0.00000000000E+00 -0.00000000000E+00  0.11368683772E-12  0.17120000000E+03  0.17120000000E+03 0.  0.
         13    1    1    2    0    0 -0.25475413163E+02  0.45466038480E+02  0.15004880938E+03  0.15884210302E+03  0.10566000000E+00 0. -1.
        994    1    1    2    0    0  0.20474260907E+02 -0.41838283962E+02  0.15767781823E+02  0.17812271138E+03  0.17120000000E+03 0.  0.
        998    1    1    2    0    0  0.50011522563E+01 -0.36277545187E+01  0.13341834051E+04  0.13342351856E+04  0.10000000000E+02 0. -1.
</event>
<event>
 5    1  0.1146201E-008  0.3774850E+03  0.7957747E-01  0.3462183E+00
         13   -1    0    0    0    0  0.00000000000E+00  0.00000000000E+00  0.14999999963E+04  0.15000000000E+04  0.10566000000E+00 0.  1.
        994   -1    0    0    0    0 -0.00000000000E+00 -0.00000000000E+00  0.11368683772E-12  0.17120000000E+03  0.17120000000E+03 0.  0.
         13    1    1    2    0    0  0.12813353606E+02 -0.25671482797E+02  0.69004642780E+02  0.74731913858E+02  0.10566000000E+00 0.  1.
        994    1    1    2    0    0 -0.17192263185E+02  0.32199161999E+02  0.99126243750E+01  0.17532843486E+03  0.17120000000E+03 0.  0.
        998    1    1    2    0    0  0.43789095784E+01 -0.65276792020E+01  0.14210827291E+04  0.14211396513E+04  0.10000000000E+02 0.  1.
</event>
<event>
 5    1  0.1146201E-008  0.3693624E+03  0.7957747E-01  0.3498826E+00
         13   -1    0    0    0    0  0.00000000000E+00  0.00000000000E+00  0.14999999963E+04  0.15000000000E+04  0.10566000000E+00 0.  1.
        994   -1    0    0    0    0 -0.00000000000E+00 -0.00000000000E+00  0.11368683772E-12  0.17120000000E+03  0.17120000000E+03 0.  0.
         13    1    1    2    0    0 -0.31066595406E+02 -0.10057479294E+03  0.56265579307E+03  0.57241765781E+03  0.10566000000E+00 0.  1.
        994    1    1    2    0    0  0.86080944980E+02  0.50041767867E+02  0.44788891383E+02  0.20305071389E+03  0.17120000000E+03 0.  0.
        998    1    1    2    0    0 -0.55014349574E+02  0.50533025073E+02  0.89255531182E+03  0.89573162830E+03  0.10000000000E+02 0.  1.
</event>
<event>
 5    1  0.1146201E-008  0.3831507E+03  0.7957747E-01  0.3437553E+00
         13   -1    0    0    0    0  0.00000000000E+00  0.00000000000E+00  0.14999999963E+04  0.15000000000E+04  0.10566000000E+00 0.  1.
        994   -1    0    0    0    0 -0.00000000000E+00 -0.00000000000E+00  0.11368683772E-12  0.17120000000E+03  0.17120000000E+03 0.  0.
         13    1    1    2    0    0 -0.17184102112E+02  0.62706028102E+02  0.10484632148E+03  0.12336977595E+03  0.10566000000E+00 0.  1.
        994    1    1    2    0    0  0.27194856584E+01 -0.63211867806E+02  0.32895002854E+02  0.18545796571E+03  0.17120000000E+03 0.  0.
        998    1    1    2    0    0  0.14464616454E+02  0.50583970413E+00  0.13622586719E+04  0.13623722583E+04  0.10000000000E+02 0.  1.
</event>
<event>
 5    1  0.1146201E-008  0.3732769E+03  0.7957747E-01  0.3480965E+00
         13   -1    0    0    0    0  0.00000000000E+00  0.00000000000E+00  0.14999999963E+04  0.15000000000E+04  0.10566000000E+00 0.  1.
        994   -1    0    0    0    0 -0.00000000000E+00 -0.00000000000E+00  0.11368683772E-12  0.17120000000E+03  0.17120000000E+03 0.  0.
         13    1    1    2    0    0 -0.89777982902E+01 -0.37600210548E+02  0.86625845806E+02  0.94860028574E+02  0.10566000000E+00 0.  1.
        994    1    1    2    0    0  0.90508170324E+01  0.50610854225E+02  0.16658639047E+02  0.17952806496E+03  0.17120000000E+03 0.  0.
        998    1    1    2    0    0 -0.73018742204E-01 -0.13010643677E+02  0.13967155114E+04  0.13968119065E+04  0.10000000000E+02 0.  1.
</event>
<event>
 5    1  0.1146201E-008  0.3798672E+03  0.7957747E-01  0.3451737E+00
         13   -1    0    0    0    0  0.00000000000E+00  0.00000000000E+00  0.14999999963E+04  0.15000000000E+04  0.10566000000E+00 0. -1.
        994   -1    0    0    0    0 -0.00000000000E+00 -0.00000000000E+00  0.11368683772E-12  0.17120000000E+03  0.17120000000E+03 0.  0.
         13    1    1    2    0    0  0.43512423549E+02 -0.71456231587E+02  0.30294298934E+03  0.31428297757E+03  0.10566000000E+00 0. -1.
        994    1    1    2    0    0  0.20976939735E+02 -0.56617120620E+01  0.17965914617E+02  0.17350591077E+03  0.17120000000E+03 0.  0.
        998    1    1    2    0    0 -0.64489363284E+02  0.77117943649E+02  0.11790910923E+04  0.11834111117E+04  0.10000000000E+02 0. -1.
</event>
<event>
 5    1  0.1146201E-008  0.3843505E+03  0.7957747E-01  0.3432431E+00
         13   -1    0    0    0    0  0.00000000000E+00  0.00000000000E+00  0.14999999963E+04  0.15000000000E+04  0.10566000000E+00 0.  1.
        994   -1    0    0    0    0 -0.00000000000E+00 -0.00000000000E+00  0.11368683772E-12  0.17120000000E+03  0.17120000000E+03 0.  0.
         13    1    1    2    0    0  0.13531112668E+02 -0.93768540718E+01  0.66892642754E+02  0.68888701693E+02  0.10566000000E+00 0.  1.
        994    1    1    2    0    0 -0.15085726074E+02  0.67836458280E+01  0.28551052062E+01  0.17202089585E+03  0.17120000000E+03 0.  0.
        998    1    1    2    0    0  0.15546134057E+01  0.25932082438E+01  0.14302522483E+04  0.14302904025E+04  0.10000000000E+02 0.  1.
</event>
<event>
 5    1  0.1146201E-008  0.3716648E+03  0.7957747E-01  0.3488275E+00
         13   -1    0    0    0    0  0.00000000000E+00  0.00000000000E+00  0.14999999963E+04  0.15000000000E+04  0.10566000000E+00 0. -1.
        994   -1    0    0    0    0 -0.00000000000E+00 -0.00000000000E+00  0.11368683772E-12  0.17120000000E+03  0.17120000000E+03 0.  0.
         13    1    1    2    0    0  0.76606855302E+01 -0.12762942386E+02  0.92724107683E+01  0.17537604359E+02  0.10566000000E+00 0. -1.
        994    1    1    2    0    0 -0.95540474368E+01  0.14437530215E+02  0.94325700494E+01  0.17233146979E+03  0.17120000000E+03 0.  0.
        998    1    1    2    0    0  0.18933619066E+01 -0.16745878292E+01  0.14812950155E+04  0.14813309259E+04  0.10000000000E+02 0. -1.
</event>
<event>
 5    1  0.1146201E-008  0.3861597E+03  0.7957747E-01  0.3424768E+00
         13   -1    0    0    0    0  0.00000000000E+00  0.00000000000E+00  0.14999999963E+04  0.15000000000E+04  0.10566000000E+00 0.  1.
        994   -1    0    0    0    0 -0.00000000000E+00 -0.00000000000E+00  0.11368683772E-12  0.17120000000E+03  0.17120000000E+03 0.  0.
         13    1    1    2    0    0  0.10030941060E+02 -0.23903331547E+01  0.51951635684E+02  0.52965244127E+02  0.10566000000E+00 0.  1.
        994    1    1    2    0    0 -0.30409120297E+01  0.74330768097E+01  0.12667847806E+01  0.17139294770E+03  0.17120000000E+03 0.  0.
        998    1    1    2    0    0 -0.69900290300E+01 -0.50427436550E+01  0.14467815758E+04  0.14468418082E+04  0.10000000000E+02 0.  1.
</event>
<event>
 5    1  0.1146201E-008  0.3705942E+03  0.7957747E-01  0.3493165E+00
         13   -1    0    0    0    0  0.00000000000E+00  0.00000000000E+00  0.14999999963E+04  0.15000000000E+04  0.10566000000E+00 0. -1.
        994   -1    0    0    0    0 -0.00000000000E+00 -0.00000000000E+00  0.11368683772E-12  0.17120000000E+03  0.17120000000E+03 0.  0.
         13    1    1    2    0    0 -0.33207621960E+02  0.10416758805E+02  0.62531370395E+02  0.71564226173E+02  0.10566000000E+00 0. -1.
        994    1    1    2    0    0  0.29403508285E+02 -0.10917706566E+02  0.12360908528E+02  0.17448780667E+03  0.17120000000E+03 0.  0.
        998    1    1    2    0    0  0.38041136750E+01  0.50094776067E+00  0.14251077174E+04  0.14251479672E+04  0.10000000000E+02 0. -1.
</event>
<event>
 5    1  0.1146201E-008  0.3693106E+03  0.7957747E-01  0.3499065E+00
         13   -1    0    0    0    0  0.00000000000E+00  0.00000000000E+00  0.14999999963E+04  0.15000000000E+04  0.10566000000E+00 0. -1.
        994   -1    0    0    0    0 -0.00000000000E+00 -0.00000000000E+00  0.11368683772E-12  0.17120000000E+03  0.17120000000E+03 0.  0.
         13    1    1    2    0    0  0.31465529620E+02 -0.18825335831E+02  0.64474494183E+02  0.74171722291E+02  0.10566000000E+00 0. -1.
        994    1    1    2    0    0 -0.26220703536E+02  0.19715637243E+02  0.13369117046E+02  0.17482678552E+03  0.17120000000E+03 0.  0.
        998    1    1    2    0    0 -0.52448260834E+01 -0.89030141273E+00  0.14221563850E+04  0.14222014922E+04  0.10000000000E+02 0. -1.
</event>
<event>
 5    1  0.1146201E-008  0.3749653E+03  0.7957747E-01  0.3473378E+00
         13   -1    0    0    0    0  0.00000000000E+00  0.00000000000E+00  0.14999999963E+04  0.15000000000E+04  0.10566000000E+00 0.  1.
        994   -1    0    0    0    0 -0.00000000000E+00 -0.00000000000E+00  0.11368683772E-12  0.17120000000E+03  0.17120000000E+03 0.  0.
         13    1    1    2    0    0 -0.40421379083E+01  0.31692084210E+02  0.31886114709E+02  0.45138260442E+02  0.10566000000E+00 0.  1.
        994    1    1    2    0    0  0.10516010921E+02 -0.24891693961E+02  0.16190973664E+02  0.17407403753E+03  0.17120000000E+03 0.  0.
        998    1    1    2    0    0 -0.64738730123E+01 -0.68003902493E+01  0.14519229079E+04  0.14519877020E+04  0.10000000000E+02 0.  1.
</event>
<event>
 5    1  0.1146201E-008  0.4140465E+03  0.7957747E-01  0.3315110E+00
         13   -1    0    0    0    0  0.00000000000E+00  0.00000000000E+00  0.14999999963E+04  0.15000000000E+04  0.10566000000E+00 0.  1.
        994   -1    0    0    0    0 -0.00000000000E+00 -0.00000000000E+00  0.11368683772E-12  0.17120000000E+03  0.17120000000E+03 0.  0.
         13    1    1    2    0    0  0.32557955206E+02 -0.36118059912E+02  0.18209030574E+02  0.51924124042E+02  0.10566000000E+00 0.  1.
        994    1    1    2    0    0 -0.36909967039E+02  0.35781412179E+02  0.47515573681E+02  0.18495898158E+03  0.17120000000E+03 0.  0.
        998    1    1    2    0    0  0.43520118327E+01  0.33664773366E+00  0.14342753920E+04  0.14343168944E+04  0.10000000000E+02 0.  1.
</event>
<event>
 5    1  0.1146201E-008  0.3796183E+03  0.7957747E-01  0.3452822E+00
         13   -1    0    0    0    0  0.00000000000E+00  0.00000000000E+00  0.14999999963E+04  0.15000000000E+04  0.10566000000E+00 0. -1.
        994   -1    0    0    0    0 -0.00000000000E+00 -0.00000000000E+00  0.11368683772E-12  0.17120000000E+03  0.17120000000E+03 0.  0.
         13    1    1    2    0    0 -0.14389556489E+02 -0.11628743896E+02  0.38312688443E+02  0.42545978427E+02  0.10566000000E+00 0. -1.
        994    1    1    2    0    0  0.83729217214E+01  0.38929650031E+01  0.46113904043E+01  0.17151083323E+03  0.17120000000E+03 0.  0.
        998    1    1    2    0    0  0.60166347672E+01  0.77357788928E+01  0.14570759174E+04  0.14571431883E+04  0.10000000000E+02 0. -1.
</event>
<event>
 5    1  0.1146201E-008  0.4173829E+03  0.7957747E-01  0.3302963E+00
         13   -1    0    0    0    0  0.00000000000E+00  0.00000000000E+00  0.14999999963E+04  0.15000000000E+04  0.10566000000E+00 0. -1.
        994   -1    0    0    0    0 -0.00000000000E+00 -0.00000000000E+00  0.11368683772E-12  0.17120000000E+03  0.17120000000E+03 0.  0.
         13    1    1    2    0    0  0.10549361171E+03  0.49254564298E+02  0.15798530525E+03  0.19625055938E+03  0.10566000000E+00 0. -1.
        994    1    1    2    0    0 -0.80699625420E+02 -0.54841703782E+02  0.80052926144E+02  0.21269215548E+03  0.17120000000E+03 0.  0.
        998    1    1    2    0    0 -0.24793986292E+02  0.55871394841E+01  0.12619617649E+04  0.12622572851E+04  0.10000000000E+02 0. -1.
</event>
<event>
 5    1  0.1146201E-008  0.3833621E+03  0.7957747E-01  0.3436648E+00
         13   -1    0    0    0    0  0.00000000000E+00  0.00000000000E+00  0.14999999963E+04  0.15000000000E+04  0.10566000000E+00 0. -1.
        994   -1    0    0    0    0 -0.00000000000E+00 -0.00000000000E+00  0.11368683772E-12  0.17120000000E+03  0.17120000000E+03 0.  0.
         13    1    1    2    0    0 -0.14989112267E+02  0.43736989204E+01  0.48566122998E+02  0.51014529263E+02  0.10566000000E+00 0. -1.
        994    1    1    2    0    0  0.10803301694E+02 -0.94589212803E+01  0.31274783784E+01  0.17182957732E+03  0.17120000000E+03 0.  0.
        998    1    1    2    0    0  0.41858105727E+01  0.50852223599E+01  0.14483063949E+04  0.14483558934E+04  0.10000000000E+02 0. -1.
</event>
<event>
 5    1  0.1146201E-008  0.3860867E+03  0.7957747E-01  0.3425077E+00
         13   -1    0    0    0    0  0.00000000000E+00  0.00000000000E+00  0.14999999963E+04  0.15000000000E+04  0.10566000000E+00 0. -1.
        994   -1    0    0    0    0 -0.00000000000E+00 -0.00000000000E+00  0.11368683772E-12  0.17120000000E+03  0.17120000000E+03 0.  0.
         13    1    1    2    0    0  0.55979680446E+01  0.88603538486E+01  0.45478338505E+02  0.46670478396E+02  0.10566000000E+00 0. -1.
        994    1    1    2    0    0 -0.27129506884E+02 -0.12968256156E+02  0.40603127058E+01  0.17386808779E+03  0.17120000000E+03 0.  0.
        998    1    1    2    0    0  0.21531538839E+02  0.41079023071E+01  0.14504613451E+04  0.14506614338E+04  0.10000000000E+02 0. -1.
</event>
<event>
 5    1  0.1146201E-008  0.3769782E+03  0.7957747E-01  0.3464422E+00
         13   -1    0    0    0    0  0.00000000000E+00  0.00000000000E+00  0.14999999963E+04  0.15000000000E+04  0.10566000000E+00 0. -1.
        994   -1    0    0    0    0 -0.00000000000E+00 -0.00000000000E+00  0.11368683772E-12  0.17120000000E+03  0.17120000000E+03 0.  0.
         13    1    1    2    0    0 -0.65154729005E+01 -0.24352475068E+02  0.53212458267E+02  0.58881841921E+02  0.10566000000E+00 0. -1.
        994    1    1    2    0    0  0.13682598615E+01  0.20482113203E+02  0.70905402010E+01  0.17257202802E+03  0.17120000000E+03 0.  0.
        998    1    1    2    0    0  0.51472130391E+01  0.38703618654E+01  0.14396969978E+04  0.14397461301E+04  0.10000000000E+02 0. -1.
</event>
<event>
 5    1  0.1146201E-008  0.3778642E+03  0.7957747E-01  0.3460511E+00
         13   -1    0    0    0    0  0.00000000000E+00  0.00000000000E+00  0.14999999963E+04  0.15000000000E+04  0.10566000000E+00 0. -1.
        994   -1    0    0    0    0 -0.00000000000E+00 -0.00000000000E+00  0.11368683772E-12  0.17120000000E+03  0.17120000000E+03 0.  0.
         13    1    1    2    0    0  0.50804649330E+01 -0.97408494785E+01  0.92931823716E+01  0.14389915744E+02  0.10566000000E+00 0. -1.
        994    1    1    2    0    0 -0.21178762337E+02 -0.62844476980E+01  0.68599768422E+01  0.17275570480E+03  0.17120000000E+03 0.  0.
        998    1    1    2    0    0  0.16098297404E+02  0.16025297176E+02  0.14838468371E+04  0.14840543795E+04  0.10000000000E+02 0. -1.
</event>
<event>
 5    1  0.1146201E-008  0.3777664E+03  0.7957747E-01  0.3460942E+00
         13   -1    0    0    0    0  0.00000000000E+00  0.00000000000E+00  0.14999999963E+04  0.15000000000E+04  0.10566000000E+00 0. -1.
        994   -1    0    0    0    0 -0.00000000000E+00 -0.00000000000E+00  0.11368683772E-12  0.17120000000E+03  0.17120000000E+03 0.  0.
         13    1    1    2    0    0 -0.10505786840E+02 -0.36399534101E+02  0.12372695103E+03  0.12939732306E+03  0.10566000000E+00 0. -1.
        994    1    1    2    0    0  0.21130116698E+02  0.34457813113E+02  0.10787104543E+02  0.17623740903E+03  0.17120000000E+03 0.  0.
        998    1    1    2    0    0 -0.10624329858E+02  0.19417209877E+01  0.13654859407E+04  0.13655652679E+04  0.10000000000E+02 0. -1.
</event>
<event>
 5    1  0.1146201E-008  0.3793485E+03  0.7957747E-01  0.3454000E+00
         13   -1    0    0    0    0  0.00000000000E+00  0.00000000000E+00  0.14999999963E+04  0.15000000000E+04  0.10566000000E+00 0. -1.
        994   -1    0    0    0    0 -0.00000000000E+00 -0.00000000000E+00  0.11368683772E-12  0.17120000000E+03  0.17120000000E+03 0.  0.
         13    1    1    2    0    0  0.84090860877E+01 -0.15988589123E+02  0.39343996614E+02  0.43293289834E+02  0.10566000000E+00 0. -1.
        994    1    1    2    0    0 -0.14152976278E+02 -0.35405805736E+02  0.93485029563E+01  0.17564370847E+03  0.17120000000E+03 0.  0.
        998    1    1    2    0    0  0.57438901908E+01  0.51394394859E+02  0.14513074967E+04  0.14522630017E+04  0.10000000000E+02 0. -1.
</event>
<event>
 5    1  0.1146201E-008  0.3836457E+03  0.7957747E-01  0.3435436E+00
         13   -1    0    0    0    0  0.00000000000E+00  0.00000000000E+00  0.14999999963E+04  0.15000000000E+04  0.10566000000E+00 0.  1.
        994   -1    0    0    0    0 -0.00000000000E+00 -0.00000000000E+00  0.11368683772E-12  0.17120000000E+03  0.17120000000E+03 0.  0.
         13    1    1    2    0    0 -0.28609871007E+02  0.40976066130E+00  0.15315108234E+03  0.15580101993E+03  0.10566000000E+00 0.  1.
        994    1    1    2    0    0  0.34941108160E+02  0.13567879993E+01  0.63533610216E+01  0.17485001318E+03  0.17120000000E+03 0.  0.
        998    1    1    2    0    0 -0.63312371537E+01 -0.17665486606E+01  0.13404955529E+04  0.13405489669E+04  0.10000000000E+02 0.  1.
</event>
<event>
 5    1  0.3078765E-008  0.3861800E+03  0.7957747E-01  0.3424683E+00
         13   -1    0    0    0    0  0.00000000000E+00  0.00000000000E+00  0.14999999963E+04  0.15000000000E+04  0.10566000000E+00 0.  1.
        994   -1    0    0    0    0 -0.00000000000E+00 -0.00000000000E+00  0.11368683772E-12  0.17120000000E+03  0.17120000000E+03 0.  0.
         13    1    1    2    0    0  0.10152128231E+02  0.34479986200E+01  0.56486225400E+02  0.57494862606E+02  0.10566000000E+00 0.  1.
        994    1    1    2    0    0 -0.68237408095E+01  0.27158543166E+01  0.12221298557E+01  0.17136181869E+03  0.17120000000E+03 0.  0.
        998    1    1    2    0    0 -0.33283874217E+01 -0.61638529366E+01  0.14422916410E+04  0.14423433187E+04  0.10000000000E+02 0.  1.
</event>
<event>
 5    1  0.1146201E-008  0.3792319E+03  0.7957747E-01  0.3454510E+00
         13   -1    0    0    0    0  0.00000000000E+00  0.00000000000E+00  0.14999999963E+04  0.15000000000E+04  0.10566000000E+00 0. -1.
        994   -1    0    0    0    0 -0.00000000000E+00 -0.00000000000E+00  0.11368683772E-12  0.17120000000E+03  0.17120000000E+03 0.  0.
         13    1    1    2    0    0  0.75286649665E+00  0.33261841257E+02  0.12756623433E+03  0.13183350180E+03  0.10566000000E+00 0. -1.
        994    1    1    2    0    0  0.12713280608E+01 -0.10275599870E+02  0.48807255626E+01  0.17158224183E+03  0.17120000000E+03 0.  0.
        998    1    1    2    0    0 -0.20241945574E+01 -0.22986241387E+02  0.13675530364E+04  0.13677842564E+04  0.10000000000E+02 0. -1.
</event>
<event>
 5    1  0.1146201E-008  0.3755216E+03  0.7957747E-01  0.3470893E+00
         13   -1    0    0    0    0  0.00000000000E+00  0.00000000000E+00  0.14999999963E+04  0.15000000000E+04  0.10566000000E+00 0. -1.
        994   -1    0    0    0    0 -0.00000000000E+00 -0.00000000000E+00  0.11368683772E-12  0.17120000000E+03  0.17120000000E+03 0.  0.
         13    1    1    2    0    0  0.20835821841E+02 -0.21833286828E+01  0.31146228059E+02  0.37536609893E+02  0.10566000000E+00 0. -1.
        994    1    1    2    0    0 -0.19556012810E+02  0.17440901553E+01  0.77202130646E+01  0.17249498885E+03  0.17120000000E+03 0.  0.
        998    1    1    2    0    0 -0.12798090303E+01  0.43923852750E+00  0.14611335552E+04  0.14611684013E+04  0.10000000000E+02 0. -1.
</event>
<event>
 5    1  0.1146201E-008  0.3756433E+03  0.7957747E-01  0.3470350E+00
         13   -1    0    0    0    0  0.00000000000E+00  0.00000000000E+00  0.14999999963E+04  0.15000000000E+04  0.10566000000E+00 0.  1.
        994   -1    0    0    0    0 -0.00000000000E+00 -0.00000000000E+00  0.11368683772E-12  0.17120000000E+03  0.17120000000E+03 0.  0.
         13    1    1    2    0    0  0.50150793329E+02 -0.56471453412E+01  0.15562714965E+03  0.16360566369E+03  0.10566000000E+00 0.  1.
        994    1    1    2    0    0 -0.74231963409E+02  0.20633696072E+02  0.26756887828E+02  0.18963518885E+03  0.17120000000E+03 0.  0.
        998    1    1    2    0    0  0.24081170080E+02 -0.14986550731E+02  0.13176159588E+04  0.13179591475E+04  0.10000000000E+02 0.  1.
</event>
<event>
 5    1  0.1146201E-008  0.3791539E+03  0.7957747E-01  0.3454851E+00
         13   -1    0    0    0    0  0.00000000000E+00  0.00000000000E+00  0.14999999963E+04  0.15000000000E+04  0.10566000000E+00 0.  1.
        994   -1    0    0    0    0 -0.00000000000E+00 -0.00000000000E+00  0.11368683772E-12  0.17120000000E+03  0.17120000000E+03 0.  0.
         13    1    1    2    0    0 -0.50842733837E+01  0.87393361278E+01  0.91488558618E+01  0.13635928990E+02  0.10566000000E+00 0.  1.
        994    1    1    2    0    0  0.42013513392E+01 -0.68264232872E+01  0.47762964944E+01  0.17145408836E+03  0.17120000000E+03 0.  0.
        998    1    1    2    0    0  0.88292204450E+00 -0.19129128406E+01  0.14860748439E+04  0.14861099826E+04  0.10000000000E+02 0.  1.
</event>
<event>
 5    1  0.1180571E-008  0.3861375E+03  0.7957747E-01  0.3424862E+00
         13   -1    0    0    0    0  0.00000000000E+00  0.00000000000E+00  0.14999999963E+04  0.15000000000E+04  0.10566000000E+00 0.  1.
        994   -1    0    0    0    0 -0.00000000000E+00 -0.00000000000E+00  0.11368683772E-12  0.17120000000E+03  0.17120000000E+03 0.  0.
         13    1    1    2    0    0  0.46989677842E+01 -0.11729744379E+02  0.70403243392E+02  0.71528281439E+02  0.10566000000E+00 0.  1.
        994    1    1    2    0    0 -0.94239946928E+01  0.15399063141E+02  0.21351411763E+01  0.17216254427E+03  0.17120000000E+03 0.  0.
        998    1    1    2    0    0  0.47250269086E+01 -0.36693187613E+01  0.14274616117E+04  0.14275091743E+04  0.10000000000E+02 0.  1.
</event>
<event>
 5    1  0.1146201E-008  0.3765038E+03  0.7957747E-01  0.3466524E+00
         13   -1    0    0    0    0  0.00000000000E+00  0.00000000000E+00  0.14999999963E+04  0.15000000000E+04  0.10566000000E+00 0.  1.
        994   -1    0    0    0    0 -0.00000000000E+00 -0.00000000000E+00  0.11368683772E-12  0.17120000000E+03  0.17120000000E+03 0.  0.
         13    1    1    2    0    0 -0.17728949818E+03  0.10621454768E+03  0.99650039116E+03  0.10177063118E+04  0.10566000000E+00 0.  1.
        994    1    1    2    0    0  0.18288598983E+03 -0.89445526123E+02  0.16212463557E+03  0.31151504760E+03  0.17120000000E+03 0.  0.
        998    1    1    2    0    0 -0.55964916580E+01 -0.16769021554E+02  0.34137496955E+03  0.34197864062E+03  0.10000000000E+02 0.  1.
</event>
<event>
 5    1  0.1146201E-008  0.3781442E+03  0.7957747E-01  0.3459279E+00
         13   -1    0    0    0    0  0.00000000000E+00  0.00000000000E+00  0.14999999963E+04  0.15000000000E+04  0.10566000000E+00 0. -1.
        994   -1    0    0    0    0 -0.00000000000E+00 -0.00000000000E+00  0.11368683772E-12  0.17120000000E+03  0.17120000000E+03 0.  0.
         13    1    1    2    0    0  0.10526619292E+02  0.20807928410E+02  0.51094396820E+02  0.56164296033E+02  0.10566000000E+00 0. -1.
        994    1    1    2    0    0 -0.74817804060E+01 -0.16727844885E+02  0.62031659403E+01  0.17228963144E+03  0.17120000000E+03 0.  0.
        998    1    1    2    0    0 -0.30448388857E+01 -0.40800835258E+01  0.14427024335E+04  0.14427460725E+04  0.10000000000E+02 0. -1.
</event>
<event>
 5    1  0.1146201E-008  0.3812213E+03  0.7957747E-01  0.3445858E+00
         13   -1    0    0    0    0  0.00000000000E+00  0.00000000000E+00  0.14999999963E+04  0.15000000000E+04  0.10566000000E+00 0.  1.
        994   -1    0    0    0    0 -0.00000000000E+00 -0.00000000000E+00  0.11368683772E-12  0.17120000000E+03  0.17120000000E+03 0.  0.
         13    1    1    2    0    0  0.36034052595E+02  0.99922760824E+01  0.17813975645E+03  0.18202220337E+03  0.10566000000E+00 0.  1.
        994    1    1    2    0    0 -0.35713252947E+02 -0.54804507336E+01  0.78766555220E+01  0.17514837561E+03  0.17120000000E+03 0.  0.
        998    1    1    2    0    0 -0.32079964793E+00 -0.45118253488E+01  0.13139835843E+04  0.13140294210E+04  0.10000000000E+02 0.  1.
</event>
<event>
 5    1  0.1146201E-008  0.3771592E+03  0.7957747E-01  0.3463622E+00
         13   -1    0    0    0    0  0.00000000000E+00  0.00000000000E+00  0.14999999963E+04  0.15000000000E+04  0.10566000000E+00 0. -1.
        994   -1    0    0    0    0 -0.00000000000E+00 -0.00000000000E+00  0.11368683772E-12  0.17120000000E+03  0.17120000000E+03 0.  0.
         13    1    1    2    0    0  0.65098797387E+01 -0.28534446431E+02  0.12926216303E+03  0.13253418850E+03  0.10566000000E+00 0. -1.
        994    1    1    2    0    0 -0.36774792365E+02 -0.86520777792E+02  0.36006372197E+02  0.19860546111E+03  0.17120000000E+03 0.  0.
        998    1    1    2    0    0  0.30264912626E+02  0.11505522422E+03  0.13347314611E+04  0.13400603504E+04  0.10000000000E+02 0. -1.
</event>
<event>
 5    1  0.1146201E-008  0.3823871E+03  0.7957747E-01  0.3440830E+00
         13   -1    0    0    0    0  0.00000000000E+00  0.00000000000E+00  0.14999999963E+04  0.15000000000E+04  0.10566000000E+00 0.  1.
        994   -1    0    0    0    0 -0.00000000000E+00 -0.00000000000E+00  0.11368683772E-12  0.17120000000E+03  0.17120000000E+03 0.  0.
         13    1    1    2    0    0 -0.17258435002E+02  0.21258606592E+02  0.11911624842E+03  0.12222304911E+03  0.10566000000E+00 0.  1.
        994    1    1    2    0    0  0.17340545568E+02 -0.19824073268E+02  0.52371600315E+01  0.17329326659E+03  0.17120000000E+03 0.  0.
        998    1    1    2    0    0 -0.82110565150E-01 -0.14345333245E+01  0.13756465878E+04  0.13756836843E+04  0.10000000000E+02 0.  1.
</event>
<event>
 5    1  0.1146201E-008  0.3766950E+03  0.7957747E-01  0.3465676E+00
         13   -1    0    0    0    0  0.00000000000E+00  0.00000000000E+00  0.14999999963E+04  0.15000000000E+04  0.10566000000E+00 0. -1.
        994   -1    0    0    0    0 -0.00000000000E+00 -0.00000000000E+00  0.11368683772E-12  0.17120000000E+03  0.17120000000E+03 0.  0.
         13    1    1    2    0    0  0.65113674818E+02  0.58069654085E+01  0.28243978061E+03  0.28990645445E+03  0.10566000000E+00 0. -1.
        994    1    1    2    0    0 -0.71081698897E+02 -0.14134710053E+02  0.23774696814E+02  0.18742218160E+03  0.17120000000E+03 0.  0.
        998    1    1    2    0    0  0.59680240791E+01  0.83277446446E+01  0.11937855189E+04  0.11938713640E+04  0.10000000000E+02 0. -1.
</event>
<event>
 5    1  0.1146201E-008  0.3735792E+03  0.7957747E-01  0.3479602E+00
         13   -1    0    0    0    0  0.00000000000E+00  0.00000000000E+00  0.14999999963E+04  0.15000000000E+04  0.10566000000E+00 0.  1.
        994   -1    0    0    0    0 -0.00000000000E+00 -0.00000000000E+00  0.11368683772E-12  0.17120000000E+03  0.17120000000E+03 0.  0.
         13    1    1    2    0    0 -0.26967163755E+01 -0.36885859561E+02  0.86463865517E+02  0.94041746682E+02  0.10566000000E+00 0.  1.
        994    1    1    2    0    0 -0.99365522839E+01  0.33356460941E+02  0.11558990687E+02  0.17508409072E+03  0.17120000000E+03 0.  0.
        998    1    1    2    0    0  0.12633268659E+02  0.35293986200E+01  0.14019771401E+04  0.14020741626E+04  0.10000000000E+02 0.  1.
</event>
<event>
 5    1  0.1146201E-008  0.3705695E+03  0.7957747E-01  0.3493278E+00
         13   -1    0    0    0    0  0.00000000000E+00  0.00000000000E+00  0.14999999963E+04  0.15000000000E+04  0.10566000000E+00 0.  1.
        994   -1    0    0    0    0 -0.00000000000E+00 -0.00000000000E+00  0.11368683772E-12  0.17120000000E+03  0.17120000000E+03 0.  0.
         13    1    1    2    0    0 -0.19437414835E+02 -0.44024851781E+01  0.18551413911E+02  0.27227946918E+02  0.10566000000E+00 0.  1.
        994    1    1    2    0    0  0.81441304413E+01  0.38869136832E-01  0.92006502387E+01  0.17164038084E+03  0.17120000000E+03 0.  0.
        998    1    1    2    0    0  0.11293284394E+02  0.43636160412E+01  0.14722479321E+04  0.14723316722E+04  0.10000000000E+02 0.  1.
</event>
<event>
 5    1  0.1146201E-008  0.3820034E+03  0.7957747E-01  0.3442481E+00
         13   -1    0    0    0    0  0.00000000000E+00  0.00000000000E+00  0.14999999963E+04  0.15000000000E+04  0.10566000000E+00 0. -1.
        994   -1    0    0    0    0 -0.00000000000E+00 -0.00000000000E+00  0.11368683772E-12  0.17120000000E+03  0.17120000000E+03 0.  0.
         13    1    1    2    0    0 -0.29361390468E+01 -0.20293404599E+02  0.68294394856E+02  0.71306231954E+02  0.10566000000E+00 0. -1.
        994    1    1    2    0    0 -0.22946237956E+01  0.72205789725E+01  0.33158751623E+01  0.17139964144E+03  0.17120000000E+03 0.  0.
        998    1    1    2    0    0  0.52307628424E+01  0.13072825626E+02  0.14283897263E+04  0.14284941266E+04  0.10000000000E+02 0. -1.
</event>
<event>
 5    1  0.2432142E-008  0.3865206E+03  0.7957747E-01  0.3423249E+00
         13   -1    0    0    0    0  0.00000000000E+00  0.00000000000E+00  0.14999999963E+04  0.15000000000E+04  0.10566000000E+00 0.  1.
        994   -1    0    0    0    0 -0.00000000000E+00 -0.00000000000E+00  0.11368683772E-12  0.17120000000E+03  0.17120000000E+03 0.  0.
         13    1    1    2    0    0 -0.78102334888E+01  0.64110223788E+01  0.57232846940E+02  0.58118077119E+02  0.10566000000E+00 0.  1.
        994    1    1    2    0    0  0.10053595592E+02 -0.62206232622E+01  0.13345854359E+01  0.17161291343E+03  0.17120000000E+03 0.  0.
        998    1    1    2    0    0 -0.22433621028E+01 -0.19039911669E+00  0.14414325639E+04  0.14414690095E+04  0.10000000000E+02 0.  1.
</event>
<event>
 5    1  0.1146201E-008  0.3827017E+03  0.7957747E-01  0.3439478E+00
         13   -1    0    0    0    0  0.00000000000E+00  0.00000000000E+00  0.14999999963E+04  0.15000000000E+04  0.10566000000E+00 0. -1.
        994   -1    0    0    0    0 -0.00000000000E+00 -0.00000000000E+00  0.11368683772E-12  0.17120000000E+03  0.17120000000E+03 0.  0.
         13    1    1    2    0    0  0.26862683749E+02  0.14199305647E+01  0.13926617234E+03  0.14184039588E+03  0.10566000000E+00 0. -1.
        994    1    1    2    0    0 -0.63046889754E+01 -0.87747949447E+00  0.29097726648E+01  0.17134300642E+03  0.17120000000E+03 0.  0.
        998    1    1    2    0    0 -0.20557994773E+02 -0.54245107024E+00  0.13578240513E+04  0.13580165977E+04  0.10000000000E+02 0. -1.
</event>
<event>
 5    1  0.1146201E-008  0.3811831E+03  0.7957747E-01  0.3446023E+00
         13   -1    0    0    0    0  0.00000000000E+00  0.00000000000E+00  0.14999999963E+04  0.15000000000E+04  0.10566000000E+00 0.  1.
        994   -1    0    0    0    0 -0.00000000000E+00 -0.00000000000E+00  0.11368683772E-12  0.17120000000E+03  0.17120000000E+03 0.  0.
         13    1    1    2    0    0 -0.10765996757E+02 -0.23668921900E+01  0.15564271655E+02  0.19072665807E+02  0.10566000000E+00 0.  1.
        994    1    1    2    0    0  0.10573212978E+02  0.33076863917E+01  0.39459237800E+01  0.17160344966E+03  0.17120000000E+03 0.  0.
        998    1    1    2    0    0  0.19278377851E+00 -0.94079420163E+00  0.14804898008E+04  0.14805238845E+04  0.10000000000E+02 0.  1.
</event>
<event>
 5    1  0.1146201E-008  0.3840835E+03  0.7957747E-01  0.3433569E+00
         13   -1    0    0    0    0  0.00000000000E+00  0.00000000000E+00  0.14999999963E+04  0.15000000000E+04  0.10566000000E+00 0.  1.
        994   -1    0    0    0    0 -0.00000000000E+00 -0.00000000000E+00  0.11368683772E-12  0.17120000000E+03  0.17120000000E+03 0.  0.
         13    1    1    2    0    0 -0.12178226587E+02  0.20613706187E+02  0.12879353738E+03  0.13100007832E+03  0.10566000000E+00 0.  1.
        994    1    1    2    0    0  0.49620087214E+01 -0.23273855967E+02  0.39559850475E+01  0.17289124825E+03  0.17120000000E+03 0.  0.
        998    1    1    2    0    0  0.72162178653E+01  0.26601497796E+01  0.13672504739E+04  0.13673086734E+04  0.10000000000E+02 0.  1.
</event>
<event>
 5    1  0.1146201E-008  0.3690746E+03  0.7957747E-01  0.3500155E+00
         13   -1    0    0    0    0  0.00000000000E+00  0.00000000000E+00  0.14999999963E+04  0.15000000000E+04  0.10566000000E+00 0. -1.
        994   -1    0    0    0    0 -0.00000000000E+00 -0.00000000000E+00  0.11368683772E-12  0.17120000000E+03  0.17120000000E+03 0.  0.
         13    1    1    2    0    0 -0.55517605930E+01  0.53836241415E+02  0.12119951916E+03  0.13273468854E+03  0.10566000000E+00 0. -1.
        994    1    1    2    0    0  0.98991255955E+01 -0.63319729825E+02  0.24903492844E+02  0.18449120529E+03  0.17120000000E+03 0.  0.
        998    1    1    2    0    0 -0.43473650025E+01  0.94834884099E+01  0.13538969843E+04  0.13539741062E+04  0.10000000000E+02 0. -1.
</event>
<event>
 5    1  0.1146201E-008  0.3851684E+03  0.7957747E-01  0.3428958E+00
         13   -1    0    0    0    0  0.00000000000E+00  0.00000000000E+00  0.14999999963E+04  0.15000000000E+04  0.10566000000E+00 0. -1.
        994   -1    0    0    0    0 -0.00000000000E+00 -0.00000000000E+00  0.11368683772E-12  0.17120000000E+03  0.17120000000E+03 0.  0.
         13    1    1    2    0    0  0.12476038865E+02 -0.22625264075E+01  0.51179590503E+02  0.52726959135E+02  0.10566000000E+00 0. -1.
        994    1    1    2    0    0 -0.12291915984E+02 -0.42158362592E+01  0.21017763442E+01  0.17170533462E+03  0.17120000000E+03 0.  0.
        998    1    1    2    0    0 -0.18412288128E+00  0.64783626667E+01  0.14467186294E+04  0.14467677062E+04  0.10000000000E+02 0. -1.
</event>
<event>
 5    1  0.1146201E-008  0.3808562E+03  0.7957747E-01  0.3447439E+00
         13   -1    0    0    0    0  0.00000000000E+00  0.00000000000E+00  0.14999999963E+04  0.15000000000E+04  0.10566000000E+00 0.  1.
        994   -1    0    0    0    0 -0.00000000000E+00 -0.00000000000E+00  0.11368683772E-12  0.17120000000E+03  0.17120000000E+03 0.  0.
         13    1    1    2    0    0  0.47057320673E+01 -0.13923108123E+02  0.28852006628E+02  0.32379720576E+02  0.10566000000E+00 0.  1.
        994    1    1    2    0    0  0.58332127944E+01 -0.79010463126E+00  0.38170839469E+01  0.17134369194E+03  0.17120000000E+03 0.  0.
        998    1    1    2    0    0 -0.10538944862E+02  0.14713212754E+02  0.14673309057E+04  0.14674765875E+04  0.10000000000E+02 0.  1.
</event>
<event>
 5    1  0.1146201E-008  0.3805053E+03  0.7957747E-01  0.3448961E+00
         13   -1    0    0    0    0  0.00000000000E+00  0.00000000000E+00  0.14999999963E+04  0.15000000000E+04  0.10566000000E+00 0. -1.
        994   -1    0    0    0    0 -0.00000000000E+00 -0.00000000000E+00  0.11368683772E-12  0.17120000000E+03  0.17120000000E+03 0.  0.
         13    1    1    2    0    0  0.42798316187E+02  0.20791742543E+02  0.19597101894E+03  0.20166468172E+03  0.10566000000E+00 0. -1.
        994    1    1    2    0    0 -0.72810847526E+02 -0.39983378694E+02  0.27260445298E+02  0.19223075188E+03  0.17120000000E+03 0.  0.
        998    1    1    2    0    0  0.30012531339E+02  0.19191636151E+02  0.12767685320E+04  0.12773045664E+04  0.10000000000E+02 0. -1.
</event>
<event>
 5    1  0.1146201E-008  0.3818537E+03  0.7957747E-01  0.3443127E+00
         13   -1    0    0    0    0  0.00000000000E+00  0.00000000000E+00  0.14999999963E+04  0.15000000000E+04  0.10566000000E+00 0.  1.
        994   -1    0    0    0    0 -0.00000000000E+00 -0.00000000000E+00  0.11368683772E-12  0.17120000000E+03  0.17120000000E+03 0.  0.
         13    1    1    2    0    0 -0.33485334323E+02  0.11591806186E+02  0.18606467782E+03  0.18940885164E+03  0.10566000000E+00 0.  1.
        994    1    1    2    0    0  0.30067999924E+02  0.44754464054E+01  0.62768166052E+01  0.17399124307E+03  0.17120000000E+03 0.  0.
        998    1    1    2    0    0  0.34173343994E+01 -0.16067252591E+02  0.13076585019E+04  0.13077999053E+04  0.10000000000E+02 0.  1.
</event>
<event>
 5    1  0.1146201E-008  0.3827306E+03  0.7957747E-01  0.3439354E+00
         13   -1    0    0    0    0  0.00000000000E+00  0.00000000000E+00  0.14999999963E+04  0.15000000000E+04  0.10566000000E+00 0.  1.
        994   -1    0    0    0    0 -0.00000000000E+00 -0.00000000000E+00  0.11368683772E-12  0.17120000000E+03  0.17120000000E+03 0.  0.
         13    1    1    2    0    0 -0.57267922413E+01  0.17454643929E+02  0.64158393468E+02  0.66736581876E+02  0.10566000000E+00 0.  1.
        994    1    1    2    0    0 -0.10036474446E+02 -0.27237625502E+01  0.31194476604E+01  0.17154393214E+03  0.17120000000E+03 0.  0.
        998    1    1    2    0    0  0.15763266687E+02 -0.14730881379E+02  0.14327221552E+04  0.14329194860E+04  0.10000000000E+02 0.  1.
</event>
<event>
 5    1  0.1146201E-008  0.3824697E+03  0.7957747E-01  0.3440475E+00
         13   -1    0    0    0    0  0.00000000000E+00  0.00000000000E+00  0.14999999963E+04  0.15000000000E+04  0.10566000000E+00 0.  1.
        994   -1    0    0    0    0 -0.00000000000E+00 -0.00000000000E+00  0.11368683772E-12  0.17120000000E+03  0.17120000000E+03 0.  0.
         13    1    1    2    0    0  0.60437843210E+01  0.82362865337E+01  0.16866187479E+02  0.19719107204E+02  0.10566000000E+00 0.  1.
        994    1    1    2    0    0 -0.88152018165E+01 -0.33375049418E+01  0.31862923803E+01  0.17148888938E+03  0.17120000000E+03 0.  0.
        998    1    1    2    0    0  0.27714174955E+01 -0.48987815919E+01  0.14799475164E+04  0.14799920034E+04  0.10000000000E+02 0.  1.
</event>
<event>
 5    1  0.1146201E-008  0.3729998E+03  0.7957747E-01  0.3482217E+00
         13   -1    0    0    0    0  0.00000000000E+00  0.00000000000E+00  0.14999999963E+04  0.15000000000E+04  0.10566000000E+00 0.  1.
        994   -1    0    0    0    0 -0.00000000000E+00 -0.00000000000E+00  0.11368683772E-12  0.17120000000E+03  0.17120000000E+03 0.  0.
         13    1    1    2    0    0 -0.19724184996E+02 -0.25803681043E+02  0.67057184495E+02  0.74508728251E+02  0.10566000000E+00 0.  1.
        994    1    1    2    0    0  0.14515484257E+02  0.66254895552E+01  0.85812260728E+01  0.17215595789E+03  0.17120000000E+03 0.  0.
        998    1    1    2    0    0  0.52087007393E+01  0.19178191488E+02  0.14243615857E+04  0.14245353139E+04  0.10000000000E+02 0.  1.
</event>
<event>
 5    1  0.1146201E-008  0.3762571E+03  0.7957747E-01  0.3467619E+00
         13   -1    0    0    0    0  0.00000000000E+00  0.00000000000E+00  0.14999999963E+04  0.15000000000E+04  0.10566000000E+00 0.  1.
        994   -1    0    0    0    0 -0.00000000000E+00 -0.00000000000E+00  0.11368683772E-12  0.17120000000E+03  0.17120000000E+03 0.  0.
         13    1    1    2    0    0 -0.26948372875E+02 -0.20319194634E+02  0.33890598442E+02  0.47829575557E+02  0.10566000000E+00 0.  1.
        994    1    1    2    0    0  0.21466791325E+02  0.18432589279E+02  0.17153242970E+02  0.17436816573E+03  0.17120000000E+03 0.  0.
        998    1    1    2    0    0  0.54815815507E+01  0.18866053549E+01  0.14489561549E+04  0.14490022587E+04  0.10000000000E+02 0.  1.
</event>
<event>
 5    1  0.1146201E-008  0.3837421E+03  0.7957747E-01  0.3435025E+00
         13   -1    0    0    0    0  0.00000000000E+00  0.00000000000E+00  0.14999999963E+04  0.15000000000E+04  0.10566000000E+00 0. -1.
        994   -1    0    0    0    0 -0.00000000000E+00 -0.00000000000E+00  0.11368683772E-12  0.17120000000E+03  0.17120000000E+03 0.  0.
         13    1    1    2    0    0  0.10185614452E+02 -0.82893146145E+01  0.37024328050E+02  0.39284494525E+02  0.10566000000E+00 0. -1.
        994    1    1    2    0    0 -0.10631618208E+02  0.68436173150E+01  0.27840265333E+01  0.17168883833E+03  0.17120000000E+03 0.  0.
        998    1    1    2    0    0  0.44600375589E+00  0.14456972995E+01  0.14601916417E+04  0.14602266671E+04  0.10000000000E+02 0. -1.
</event>
<event>
 5    1  0.1146201E-008  0.3863988E+03  0.7957747E-01  0.3423761E+00
         13   -1    0    0    0    0  0.00000000000E+00  0.00000000000E+00  0.14999999963E+04  0.15000000000E+04  0.10566000000E+00 0.  1.
        994   -1    0    0    0    0 -0.00000000000E+00 -0.00000000000E+00  0.11368683772E-12  0.17120000000E+03  0.17120000000E+03 0.  0.
         13    1    1    2    0    0 -0.94741372834E+01  0.49978310685E+01  0.61190689824E+02  0.62121246590E+02  0.10566000000E+00 0.  1.
        994    1    1    2    0    0  0.86023922419E+01 -0.43197680726E+01  0.12406561722E+01  0.17147489839E+03  0.17120000000E+03 0.  0.
        998    1    1    2    0    0  0.87174504152E+00 -0.67806299584E+00  0.14375686503E+04  0.14376038550E+04  0.10000000000E+02 0.  1.
</event>
<event>
 5    1  0.1146201E-008  0.3858731E+03  0.7957747E-01  0.3425978E+00
         13   -1    0    0    0    0  0.00000000000E+00  0.00000000000E+00  0.14999999963E+04  0.15000000000E+04  0.10566000000E+00 0.  1.
        994   -1    0    0    0    0 -0.00000000000E+00 -0.00000000000E+00  0.11368683772E-12  0.17120000000E+03  0.17120000000E+03 0.  0.
         13    1    1    2    0    0  0.13530945242E+02 -0.37287781461E+01  0.84741061660E+02  0.85895570089E+02  0.10566000000E+00 0.  1.
        994    1    1    2    0    0 -0.52379555831E+01  0.66766493055E+01  0.14334487520E+01  0.17141618535E+03  0.17120000000E+03 0.  0.
        998    1    1    2    0    0 -0.82929896585E+01 -0.29478711594E+01  0.14138254859E+04  0.14138882446E+04  0.10000000000E+02 0.  1.
</event>
<event>
 5    1  0.1146201E-008  0.3754365E+03  0.7957747E-01  0.3471273E+00
         13   -1    0    0    0    0  0.00000000000E+00  0.00000000000E+00  0.14999999963E+04  0.15000000000E+04  0.10566000000E+00 0. -1.
        994   -1    0    0    0    0 -0.00000000000E+00 -0.00000000000E+00  0.11368683772E-12  0.17120000000E+03  0.17120000000E+03 0.  0.
         13    1    1    2    0    0 -0.75169945034E+02  0.27294455900E+02  0.40272311403E+03  0.41058668476E+03  0.10566000000E+00 0. -1.
        994    1    1    2    0    0  0.60964692110E+02 -0.32820168833E+02  0.22903910908E+02  0.18608569612E+03  0.17120000000E+03 0.  0.
        998    1    1    2    0    0  0.14205252924E+02  0.55257129331E+01  0.10743729713E+04  0.10745276191E+04  0.10000000000E+02 0. -1.
</event>
<event>
 5    1  0.1146201E-008  0.3848788E+03  0.7957747E-01  0.3430186E+00
         13   -1    0    0    0    0  0.00000000000E+00  0.00000000000E+00  0.14999999963E+04  0.15000000000E+04  0.10566000000E+00 0. -1.
        994   -1    0    0    0    0 -0.00000000000E+00 -0.00000000000E+00  0.11368683772E-12  0.17120000000E+03  0.17120000000E+03 0.  0.
         13    1    1    2    0    0  0.23286943943E+01  0.14514851124E+02  0.63772026592E+02  0.65444528117E+02  0.10566000000E+00 0. -1.
        994    1    1    2    0    0  0.71749917240E+01 -0.11307830424E+02  0.22805842489E+01  0.17173813962E+03  0.17120000000E+03 0.  0.
        998    1    1    2    0    0 -0.95036861182E+01 -0.32070207007E+01  0.14339473854E+04  0.14340173323E+04  0.10000000000E+02 0. -1.
</event>
<event>
 5    1  0.1146201E-008  0.4412445E+03  0.7957747E-01  0.3221337E+00
         13   -1    0    0    0    0  0.00000000000E+00  0.00000000000E+00  0.14999999963E+04  0.15000000000E+04  0.10566000000E+00 0. -1.
        994   -1    0    0    0    0 -0.00000000000E+00 -0.00000000000E+00  0.11368683772E-12  0.17120000000E+03  0.17120000000E+03 0.  0.
         13    1    1    2    0    0  0.66181157119E+01  0.25526484567E+02 -0.15795854512E+02  0.30739568210E+02  0.10566000000E+00 0. -1.
        994    1    1    2    0    0 -0.36595732568E+02  0.50208325129E+01  0.61684348002E+02  0.18568482757E+03  0.17120000000E+03 0.  0.
        998    1    1    2    0    0  0.29977616856E+02 -0.30547317080E+02  0.14541115028E+04  0.14547756042E+04  0.10000000000E+02 0. -1.
</event>
<event>
 5    1  0.1146201E-008  0.3745726E+03  0.7957747E-01  0.3475137E+00
         13   -1    0    0    0    0  0.00000000000E+00  0.00000000000E+00  0.14999999963E+04  0.15000000000E+04  0.10566000000E+00 0. -1.
        994   -1    0    0    0    0 -0.00000000000E+00 -0.00000000000E+00  0.11368683772E-12  0.17120000000E+03  0.17120000000E+03 0.  0.
         13    1    1    2    0    0  0.55082632075E+02 -0.88679602728E+02  0.55574628996E+03  0.56546628393E+03  0.10566000000E+00 0. -1.
        994    1    1    2    0    0 -0.54194327628E+02  0.76062618886E+02  0.37196903324E+02  0.19853361619E+03  0.17120000000E+03 0.  0.
        998    1    1    2    0    0 -0.88830444673E+00  0.12616983842E+02  0.90705680300E+03  0.90720009988E+03  0.10000000000E+02 0.  0.
</event>
<event>
 5    1  0.1146201E-008  0.3849389E+03  0.7957747E-01  0.3429931E+00
         13   -1    0    0    0    0  0.00000000000E+00  0.00000000000E+00  0.14999999963E+04  0.15000000000E+04  0.10566000000E+00 0.  1.
        994   -1    0    0    0    0 -0.00000000000E+00 -0.00000000000E+00  0.11368683772E-12  0.17120000000E+03  0.17120000000E+03 0.  0.
         13    1    1    2    0    0  0.30882223211E+01 -0.10430814559E+02  0.35289854294E+02  0.36928633736E+02  0.10566000000E+00 0.  1.
        994    1    1    2    0    0 -0.40691197900E+01  0.73941435605E+01  0.18948179475E+01  0.17141838125E+03  0.17120000000E+03 0.  0.
        998    1    1    2    0    0  0.98089746890E+00  0.30366709987E+01  0.14628153240E+04  0.14628529850E+04  0.10000000000E+02 0.  1.
</event>
<event>
 5    1  0.1146201E-008  0.3816978E+03  0.7957747E-01  0.3443799E+00
         13   -1    0    0    0    0  0.00000000000E+00  0.00000000000E+00  0.14999999963E+04  0.15000000000E+04  0.10566000000E+00 0.  1.
        994   -1    0    0    0    0 -0.00000000000E+00 -0.00000000000E+00  0.11368683772E-12  0.17120000000E+03  0.17120000000E+03 0.  0.
         13    1    1    2    0    0  0.18427100609E+02 -0.22432616731E+02  0.14975366207E+03  0.15254163628E+03  0.10566000000E+00 0.  1.
        994    1    1    2    0    0 -0.24036481958E+01 -0.83920192167E+01  0.35318977974E+01  0.17145879334E+03  0.17120000000E+03 0.  0.
        998    1    1    2    0    0 -0.16023452413E+02  0.30824635948E+02  0.13467144364E+04  0.13471995704E+04  0.10000000000E+02 0.  1.
</event>
<event>
 5    1  0.1146201E-008  0.3824763E+03  0.7957747E-01  0.3440446E+00
         13   -1    0    0    0    0  0.00000000000E+00  0.00000000000E+00  0.14999999963E+04  0.15000000000E+04  0.10566000000E+00 0.  1.
        994   -1    0    0    0    0 -0.00000000000E+00 -0.00000000000E+00  0.11368683772E-12  0.17120000000E+03  0.17120000000E+03 0.  0.
         13    1    1    2    0    0  0.34502702468E+02 -0.95145667686E+01  0.19644502428E+03  0.19967879754E+03  0.10566000000E+00 0.  1.
        994    1    1    2    0    0 -0.30816227827E+02  0.19336340812E+02  0.72892978483E+01  0.17517450681E+03  0.17120000000E+03 0.  0.
        998    1    1    2    0    0 -0.36864746409E+01 -0.98217740429E+01  0.12962656741E+04  0.12963466956E+04  0.10000000000E+02 0.  1.
</event>
<event>
 5    1  0.1146201E-008  0.3472764E+03  0.7957747E-01  0.3607320E+00
         13   -1    0    0    0    0  0.00000000000E+00  0.00000000000E+00  0.14999999963E+04  0.15000000000E+04  0.10566000000E+00 0. -1.
        994   -1    0    0    0    0 -0.00000000000E+00 -0.00000000000E+00  0.11368683772E-12  0.17120000000E+03  0.17120000000E+03 0.  0.
         13    1    1    2    0    0  0.26886943435E+03 -0.75694796847E+02  0.76882441632E+03  0.81799234060E+03  0.10566000000E+00 0. -1.
        994    1    1    2    0    0 -0.26087082363E+03  0.11181855902E+03  0.39850417972E+03  0.51833579658E+03  0.17120000000E+03 0.  0.
        998    1    1    2    0    0 -0.79986107144E+01 -0.36123762175E+02  0.33267140024E+03  0.33487186281E+03  0.10000000000E+02 0. -1.
</event>
<event>
 5    1  0.1146201E-008  0.3820655E+03  0.7957747E-01  0.3442214E+00
         13   -1    0    0    0    0  0.00000000000E+00  0.00000000000E+00  0.14999999963E+04  0.15000000000E+04  0.10566000000E+00 0. -1.
        994   -1    0    0    0    0 -0.00000000000E+00 -0.00000000000E+00  0.11368683772E-12  0.17120000000E+03  0.17120000000E+03 0.  0.
         13    1    1    2    0    0  0.11974275284E+02 -0.21786575450E+02  0.85407091725E+02  0.88951788174E+02  0.10566000000E+00 0. -1.
        994    1    1    2    0    0  0.36675021135E+02  0.73435946432E+02  0.25798013030E+02  0.19160603560E+03  0.17120000000E+03 0.  0.
        998    1    1    2    0    0 -0.48649296419E+02 -0.51649370983E+02  0.13887948915E+04  0.13906421762E+04  0.10000000000E+02 0. -1.
</event>
<event>
 5    1  0.1146201E-008  0.3752613E+03  0.7957747E-01  0.3472055E+00
         13   -1    0    0    0    0  0.00000000000E+00  0.00000000000E+00  0.14999999963E+04  0.15000000000E+04  0.10566000000E+00 0. -1.
        994   -1    0    0    0    0 -0.00000000000E+00 -0.00000000000E+00  0.11368683772E-12  0.17120000000E+03  0.17120000000E+03 0.  0.
         13    1    1    2    0    0  0.15805574988E+03 -0.11390879310E+03  0.96186977261E+03  0.98140221308E+03  0.10566000000E+00 0. -1.
        994    1    1    2    0    0 -0.14009061124E+03  0.13015858034E+03  0.14302320240E+03  0.29382258562E+03  0.17120000000E+03 0.  0.
        998    1    1    2    0    0 -0.17965138646E+02 -0.16249787244E+02  0.39510702127E+03  0.39597520131E+03  0.10000000000E+02 0.  1.
</event>
<event>
 5    1  0.1146201E-008  0.3847270E+03  0.7957747E-01  0.3430831E+00
         13   -1    0    0    0    0  0.00000000000E+00  0.00000000000E+00  0.14999999963E+04  0.15000000000E+04  0.10566000000E+00 0.  1.
        994   -1    0    0    0    0 -0.00000000000E+00 -0.00000000000E+00  0.11368683772E-12  0.17120000000E+03  0.17120000000E+03 0.  0.
         13    1    1    2    0    0  0.11998542598E+02  0.13494493565E+02  0.86134609510E+02  0.88007093467E+02  0.10566000000E+00 0.  1.
        994    1    1    2    0    0 -0.12748645553E+02 -0.17383014662E+02  0.32968165999E+01  0.17258333107E+03  0.17120000000E+03 0.  0.
        998    1    1    2    0    0  0.75010295543E+00  0.38885210965E+01  0.14105685702E+04  0.14106095755E+04  0.10000000000E+02 0.  1.
</event>
<event>
 5    1  0.1146201E-008  0.3818153E+03  0.7957747E-01  0.3443292E+00
         13   -1    0    0    0    0  0.00000000000E+00  0.00000000000E+00  0.14999999963E+04  0.15000000000E+04  0.10566000000E+00 0. -1.
        994   -1    0    0    0    0 -0.00000000000E+00 -0.00000000000E+00  0.11368683772E-12  0.17120000000E+03  0.17120000000E+03 0.  0.
         13    1    1    2    0    0 -0.15807576986E+02  0.28436742467E+00  0.37378640977E+02  0.40584902615E+02  0.10566000000E+00 0. -1.
        994    1    1    2    0    0  0.12688465634E+02  0.12342051086E+01  0.37598168485E+01  0.17171516137E+03  0.17120000000E+03 0.  0.
        998    1    1    2    0    0  0.31191113512E+01 -0.15185725332E+01  0.14588615385E+04  0.14588999360E+04  0.10000000000E+02 0. -1.
</event>
<event>
 5    1  0.1146201E-008  0.3834775E+03  0.7957747E-01  0.3436155E+00
         13   -1    0    0    0    0  0.00000000000E+00  0.00000000000E+00  0.14999999963E+04  0.15000000000E+04  0.10566000000E+00 0. -1.
        994   -1    0    0    0    0 -0.00000000000E+00 -0.00000000000E+00  0.11368683772E-12  0.17120000000E+03  0.17120000000E+03 0.  0.
         13    1    1    2    0    0  0.95328128580E+01 -0.12921964442E+02  0.57688241162E+02  0.59881516501E+02  0.10566000000E+00 0. -1.
        994    1    1    2    0    0 -0.88203300020E+01 -0.12268784900E+02  0.31429002802E+01  0.17189426729E+03  0.17120000000E+03 0.  0.
        998    1    1    2    0    0 -0.71248285597E+00  0.25190749342E+02  0.14391688548E+04  0.14394242162E+04  0.10000000000E+02 0. -1.
</event>
<event>
 5    1  0.1146201E-008  0.3817621E+03  0.7957747E-01  0.3443522E+00
         13   -1    0    0    0    0  0.00000000000E+00  0.00000000000E+00  0.14999999963E+04  0.15000000000E+04  0.10566000000E+00 0. -1.
        994   -1    0    0    0    0 -0.00000000000E+00 -0.00000000000E+00  0.11368683772E-12  0.17120000000E+03  0.17120000000E+03 0.  0.
         13    1    1    2    0    0 -0.26746016276E+02 -0.13800162526E+02  0.12481000033E+03  0.12838746519E+03  0.10566000000E+00 0. -1.
        994    1    1    2    0    0  0.29440765538E+02  0.18122957364E+02  0.72288038378E+01  0.17480530845E+03  0.17120000000E+03 0.  0.
        998    1    1    2    0    0 -0.26947492624E+01 -0.43227948384E+01  0.13679611921E+04  0.13680072264E+04  0.10000000000E+02 0. -1.
</event>
<event>
 5    1  0.1146201E-008  0.3827987E+03  0.7957747E-01  0.3439062E+00
         13   -1    0    0    0    0  0.00000000000E+00  0.00000000000E+00  0.14999999963E+04  0.15000000000E+04  0.10566000000E+00 0. -1.
        994   -1    0    0    0    0 -0.00000000000E+00 -0.00000000000E+00  0.11368683772E-12  0.17120000000E+03  0.17120000000E+03 0.  0.
         13    1    1    2    0    0  0.19542388156E+02 -0.14049496356E+02  0.12348412918E+03  0.12580792744E+03  0.10566000000E+00 0. -1.
        994    1    1    2    0    0  0.11471761694E+02  0.31762008917E+01  0.31964620393E+01  0.17164308008E+03  0.17120000000E+03 0.  0.
        998    1    1    2    0    0 -0.31014149851E+02  0.10873295464E+02  0.13733194051E+04  0.13737489925E+04  0.10000000000E+02 0. -1.
</event>
<event>
 5    1  0.1146201E-008  0.4083640E+03  0.7957747E-01  0.3336249E+00
         13   -1    0    0    0    0  0.00000000000E+00  0.00000000000E+00  0.14999999963E+04  0.15000000000E+04  0.10566000000E+00 0.  1.
        994   -1    0    0    0    0 -0.00000000000E+00 -0.00000000000E+00  0.11368683772E-12  0.17120000000E+03  0.17120000000E+03 0.  0.
         13    1    1    2    0    0 -0.46042948286E+02  0.42496826307E+02  0.48814587679E+02  0.79428008079E+02  0.10566000000E+00 0.  1.
        994    1    1    2    0    0  0.49699830406E+02 -0.16351348088E+02  0.44053907526E+02  0.18435733372E+03  0.17120000000E+03 0.  0.
        998    1    1    2    0    0 -0.36568821200E+01 -0.26145478219E+02  0.14071315011E+04  0.14074146582E+04  0.10000000000E+02 0.  1.
</event>
<event>
 5    1  0.1146201E-008  0.3782322E+03  0.7957747E-01  0.3458892E+00
         13   -1    0    0    0    0  0.00000000000E+00  0.00000000000E+00  0.14999999963E+04  0.15000000000E+04  0.10566000000E+00 0.  1.
        994   -1    0    0    0    0 -0.00000000000E+00 -0.00000000000E+00  0.11368683772E-12  0.17120000000E+03  0.17120000000E+03 0.  0.
         13    1    1    2    0    0 -0.10891650127E+02  0.25498968810E+02  0.77666862734E+02  0.82468043410E+02  0.10566000000E+00 0.  1.
        994    1    1    2    0    0  0.71351379629E+01 -0.55132479488E+01  0.53016186622E+01  0.17151925040E+03  0.17120000000E+03 0.  0.
        998    1    1    2    0    0  0.37565121640E+01 -0.19985720862E+02  0.14170315149E+04  0.14172127062E+04  0.10000000000E+02 0.  1.
</event>
<event>
 5    1  0.1146201E-008  0.3837250E+03  0.7957747E-01  0.3435098E+00
         13   -1    0    0    0    0  0.00000000000E+00  0.00000000000E+00  0.14999999963E+04  0.15000000000E+04  0.10566000000E+00 0. -1.
        994   -1    0    0    0    0 -0.00000000000E+00 -0.00000000000E+00  0.11368683772E-12  0.17120000000E+03  0.17120000000E+03 0.  0.
         13    1    1    2    0    0 -0.16103807131E+01 -0.13217080087E+02  0.41223538155E+02  0.43320616271E+02  0.10566000000E+00 0. -1.
        994    1    1    2    0    0 -0.11058520604E+01 -0.61533798635E+01  0.23935854644E+01  0.17133083857E+03  0.17120000000E+03 0.  0.
        998    1    1    2    0    0  0.27162327735E+01  0.19370459950E+02  0.14563828727E+04  0.14565485452E+04  0.10000000000E+02 0. -1.
</event>
<event>
 5    1  0.1146201E-008  0.3792084E+03  0.7957747E-01  0.3454613E+00
         13   -1    0    0    0    0  0.00000000000E+00  0.00000000000E+00  0.14999999963E+04  0.15000000000E+04  0.10566000000E+00 0.  1.
        994   -1    0    0    0    0 -0.00000000000E+00 -0.00000000000E+00  0.11368683772E-12  0.17120000000E+03  0.17120000000E+03 0.  0.
         13    1    1    2    0    0  0.32143149329E+02  0.24600799012E+02  0.17028378808E+03  0.17502845771E+03  0.10566000000E+00 0.  1.
        994    1    1    2    0    0 -0.33342279541E+02 -0.85172951764E+01  0.85127438389E+01  0.17483180125E+03  0.17120000000E+03 0.  0.
        998    1    1    2    0    0  0.11991302117E+01 -0.16083503836E+02  0.13212034644E+04  0.13213397410E+04  0.10000000000E+02 0.  1.
</event>
<event>
 5    1  0.1146201E-008  0.3853576E+03  0.7957747E-01  0.3428157E+00
         13   -1    0    0    0    0  0.00000000000E+00  0.00000000000E+00  0.14999999963E+04  0.15000000000E+04  0.10566000000E+00 0. -1.
        994   -1    0    0    0    0 -0.00000000000E+00 -0.00000000000E+00  0.11368683772E-12  0.17120000000E+03  0.17120000000E+03 0.  0.
         13    1    1    2    0    0 -0.12515473706E+02  0.61190482846E+01  0.65185936854E+02  0.66658062990E+02  0.10566000000E+00 0. -1.
        994    1    1    2    0    0  0.12952308476E+02 -0.40629110241E+01  0.20582220159E+01  0.17174966032E+03  0.17120000000E+03 0.  0.
        998    1    1    2    0    0 -0.43683477031E+00 -0.20561372605E+01  0.14327558374E+04  0.14327922767E+04  0.10000000000E+02 0. -1.
</event>
<event>
 5    1  0.1146201E-008  0.3719704E+03  0.7957747E-01  0.3486884E+00
         13   -1    0    0    0    0  0.00000000000E+00  0.00000000000E+00  0.14999999963E+04  0.15000000000E+04  0.10566000000E+00 0. -1.
        994   -1    0    0    0    0 -0.00000000000E+00 -0.00000000000E+00  0.11368683772E-12  0.17120000000E+03  0.17120000000E+03 0.  0.
         13    1    1    2    0    0 -0.65344891581E+02  0.33266253062E+02  0.24358545563E+03  0.25438255406E+03  0.10566000000E+00 0. -1.
        994    1    1    2    0    0  0.86632260842E+02 -0.28690831117E+02  0.37411280137E+02  0.19757873441E+03  0.17120000000E+03 0.  0.
        998    1    1    2    0    0 -0.21287369262E+02 -0.45754219448E+01  0.12190032605E+04  0.12192387115E+04  0.10000000000E+02 0. -1.
</event>
<event>
 5    1  0.1146201E-008  0.3843033E+03  0.7957747E-01  0.3432632E+00
         13   -1    0    0    0    0  0.00000000000E+00  0.00000000000E+00  0.14999999963E+04  0.15000000000E+04  0.10566000000E+00 0. -1.
        994   -1    0    0    0    0 -0.00000000000E+00 -0.00000000000E+00  0.11368683772E-12  0.17120000000E+03  0.17120000000E+03 0.  0.
         13    1    1    2    0    0 -0.23819104902E+02  0.19600941740E+02  0.16501521432E+03  0.16787369894E+03  0.10566000000E+00 0. -1.
        994    1    1    2    0    0  0.66356836704E+02 -0.18485391032E+02  0.17776033157E+02  0.18539246698E+03  0.17120000000E+03 0.  0.
        998    1    1    2    0    0 -0.42537731803E+02 -0.11155507076E+01  0.13172087488E+04  0.13179338341E+04  0.10000000000E+02 0. -1.
</event>
<event>
 5    1  0.1146201E-008  0.3800448E+03  0.7957747E-01  0.3450963E+00
         13   -1    0    0    0    0  0.00000000000E+00  0.00000000000E+00  0.14999999963E+04  0.15000000000E+04  0.10566000000E+00 0.  1.
        994   -1    0    0    0    0 -0.00000000000E+00 -0.00000000000E+00  0.11368683772E-12  0.17120000000E+03  0.17120000000E+03 0.  0.
         13    1    1    2    0    0 -0.42346085437E+01 -0.49769904708E+02  0.28269179359E+03  0.28707078683E+03  0.10566000000E+00 0.  1.
        994    1    1    2    0    0 -0.33769179034E+01  0.36349578491E+02  0.85778060510E+01  0.17525899175E+03  0.17120000000E+03 0.  0.
        998    1    1    2    0    0  0.76115264471E+01  0.13420326217E+02  0.12087303966E+04  0.12088702214E+04  0.10000000000E+02 0.  1.
</event>
<event>
 5    1  0.1146201E-008  0.3724089E+03  0.7957747E-01  0.3484893E+00
         13   -1    0    0    0    0  0.00000000000E+00  0.00000000000E+00  0.14999999963E+04  0.15000000000E+04  0.10566000000E+00 0.  1.
        994   -1    0    0    0    0 -0.00000000000E+00 -0.00000000000E+00  0.11368683772E-12  0.17120000000E+03  0.17120000000E+03 0.  0.
         13    1    1    2    0    0  0.33061651042E+02  0.34313078293E+02  0.14827796647E+03  0.15574603242E+03  0.10566000000E+00 0.  1.
        994    1    1    2    0    0 -0.13719008819E+02 -0.74383045155E+01  0.88509484685E+01  0.17213749988E+03  0.17120000000E+03 0.  0.
        998    1    1    2    0    0 -0.19342642223E+02 -0.26874773777E+02  0.13428710813E+04  0.13433164677E+04  0.10000000000E+02 0.  1.
</event>
<event>
 5    1  0.1146201E-008  0.3897710E+03  0.7957747E-01  0.3409686E+00
         13   -1    0    0    0    0  0.00000000000E+00  0.00000000000E+00  0.14999999963E+04  0.15000000000E+04  0.10566000000E+00 0.  1.
        994   -1    0    0    0    0 -0.00000000000E+00 -0.00000000000E+00  0.11368683772E-12  0.17120000000E+03  0.17120000000E+03 0.  0.
         13    1    1    2    0    0 -0.15168315760E+02  0.43139236062E+02  0.38073312214E+02  0.59503443245E+02  0.10566000000E+00 0.  1.
        994    1    1    2    0    0  0.11817136259E+02 -0.51244242375E+02  0.32271396286E+02  0.18197939472E+03  0.17120000000E+03 0.  0.
        998    1    1    2    0    0  0.33511795014E+01  0.81050063127E+01  0.14296552878E+04  0.14297171620E+04  0.10000000000E+02 0.  1.
</event>
<event>
 5    1  0.1146201E-008  0.3805980E+03  0.7957747E-01  0.3448559E+00
         13   -1    0    0    0    0  0.00000000000E+00  0.00000000000E+00  0.14999999963E+04  0.15000000000E+04  0.10566000000E+00 0.  1.
        994   -1    0    0    0    0 -0.00000000000E+00 -0.00000000000E+00  0.11368683772E-12  0.17120000000E+03  0.17120000000E+03 0.  0.
         13    1    1    2    0    0 -0.26734461012E+02  0.68141066199E+01  0.92270899706E+02  0.96307287114E+02  0.10566000000E+00 0.  1.
        994    1    1    2    0    0  0.28370828301E+02 -0.52781164541E+01  0.66149377309E+01  0.17374107117E+03  0.17120000000E+03 0.  0.
        998    1    1    2    0    0 -0.16363672885E+01 -0.15359901658E+01  0.14011141588E+04  0.14011516417E+04  0.10000000000E+02 0.  1.
</event>
<event>
 5    1  0.1146201E-008  0.3820189E+03  0.7957747E-01  0.3442414E+00
         13   -1    0    0    0    0  0.00000000000E+00  0.00000000000E+00  0.14999999963E+04  0.15000000000E+04  0.10566000000E+00 0.  1.
        994   -1    0    0    0    0 -0.00000000000E+00 -0.00000000000E+00  0.11368683772E-12  0.17120000000E+03  0.17120000000E+03 0.  0.
         13    1    1    2    0    0  0.18182340963E+02 -0.11060409244E+02  0.76522538602E+02  0.79426949165E+02  0.10566000000E+00 0.  1.
        994    1    1    2    0    0 -0.11647387678E+02 -0.17190782242E+02  0.45506311075E+01  0.17251473235E+03  0.17120000000E+03 0.  0.
        998    1    1    2    0    0 -0.65349532860E+01  0.28251191486E+02  0.14189268266E+04  0.14192583185E+04  0.10000000000E+02 0.  1.
</event>
<event>
 5    1  0.1146201E-008  0.3752039E+03  0.7957747E-01  0.3472311E+00
         13   -1    0    0    0    0  0.00000000000E+00  0.00000000000E+00  0.14999999963E+04  0.15000000000E+04  0.10566000000E+00 0.  1.
        994   -1    0    0    0    0 -0.00000000000E+00 -0.00000000000E+00  0.11368683772E-12  0.17120000000E+03  0.17120000000E+03 0.  0.
         13    1    1    2    0    0  0.86934683600E+02  0.54086671187E+02  0.52376421773E+03  0.53367778121E+03  0.10566000000E+00 0.  1.
        994    1    1    2    0    0 -0.64069968161E+02 -0.94850525865E+02  0.52467029995E+02  0.21251779293E+03  0.17120000000E+03 0.  0.
        998    1    1    2    0    0 -0.22864715438E+02  0.40763854678E+02  0.92376874855E+03  0.92500442586E+03  0.10000000000E+02 0.  1.
</event>
<event>
 5    1  0.1146201E-008  0.3732446E+03  0.7957747E-01  0.3481111E+00
         13   -1    0    0    0    0  0.00000000000E+00  0.00000000000E+00  0.14999999963E+04  0.15000000000E+04  0.10566000000E+00 0. -1.
        994   -1    0    0    0    0 -0.00000000000E+00 -0.00000000000E+00  0.11368683772E-12  0.17120000000E+03  0.17120000000E+03 0.  0.
         13    1    1    2    0    0 -0.16877410233E+02 -0.12673009330E+02  0.25858928574E+02  0.33378847983E+02  0.10566000000E+00 0. -1.
        994    1    1    2    0    0  0.20975437572E+02  0.51966196240E+01  0.91813764841E+01  0.17280252171E+03  0.17120000000E+03 0.  0.
        998    1    1    2    0    0 -0.40980273398E+01  0.74763897064E+01  0.14649596912E+04  0.14650186303E+04  0.10000000000E+02 0. -1.
</event>
<event>
 5    1  0.1146201E-008  0.3769533E+03  0.7957747E-01  0.3464533E+00
         13   -1    0    0    0    0  0.00000000000E+00  0.00000000000E+00  0.14999999963E+04  0.15000000000E+04  0.10566000000E+00 0. -1.
        994   -1    0    0    0    0 -0.00000000000E+00 -0.00000000000E+00  0.11368683772E-12  0.17120000000E+03  0.17120000000E+03 0.  0.
         13    1    1    2    0    0 -0.56670829943E+02 -0.16925910798E+02  0.25639322254E+03  0.26312651929E+03  0.10566000000E+00 0. -1.
        994    1    1    2    0    0  0.57084129953E+02  0.13051850046E+02  0.17347479796E+02  0.18176722405E+03  0.17120000000E+03 0.  0.
        998    1    1    2    0    0 -0.41330001071E+00  0.38740607523E+01  0.12262592939E+04  0.12263062567E+04  0.10000000000E+02 0. -1.
</event>
<event>
 5    1  0.1146201E-008  0.3744804E+03  0.7957747E-01  0.3475550E+00
         13   -1    0    0    0    0  0.00000000000E+00  0.00000000000E+00  0.14999999963E+04  0.15000000000E+04  0.10566000000E+00 0. -1.
        994   -1    0    0    0    0 -0.00000000000E+00 -0.00000000000E+00  0.11368683772E-12  0.17120000000E+03  0.17120000000E+03 0.  0.
         13    1    1    2    0    0  0.80549980820E+01  0.74795875550E+02  0.32163754162E+03  0.33031806693E+03  0.10566000000E+00 0. -1.
        994    1    1    2    0    0 -0.87340157740E+01 -0.73214849779E+02  0.25690353295E+02  0.18816517083E+03  0.17120000000E+03 0.  0.
        998    1    1    2    0    0  0.67901769195E+00 -0.15810257709E+01  0.11526721014E+04  0.11527167622E+04  0.10000000000E+02 0.  0.
</event>
<event>
 5    1  0.1146201E-008  0.3812730E+03  0.7957747E-01  0.3445634E+00
         13   -1    0    0    0    0  0.00000000000E+00  0.00000000000E+00  0.14999999963E+04  0.15000000000E+04  0.10566000000E+00 0.  1.
        994   -1    0    0    0    0 -0.00000000000E+00 -0.00000000000E+00  0.11368683772E-12  0.17120000000E+03  0.17120000000E+03 0.  0.
         13    1    1    2    0    0 -0.11725186344E+02  0.14768336822E+01  0.18213200046E+02  0.21711583371E+02  0.10566000000E+00 0.  1.
        994    1    1    2    0    0  0.16503789350E+02  0.87910347278E+01  0.46567591956E+01  0.17228111551E+03  0.17120000000E+03 0.  0.
        998    1    1    2    0    0 -0.47786030059E+01 -0.10267868410E+02  0.14771300370E+04  0.14772073011E+04  0.10000000000E+02 0.  1.
</event>
<event>
 5    1  0.1146201E-008  0.3696570E+03  0.7957747E-01  0.3497469E+00
         13   -1    0    0    0    0  0.00000000000E+00  0.00000000000E+00  0.14999999963E+04  0.15000000000E+04  0.10566000000E+00 0. -1.
        994   -1    0    0    0    0 -0.00000000000E+00 -0.00000000000E+00  0.11368683772E-12  0.17120000000E+03  0.17120000000E+03 0.  0.
         13    1    1    2    0    0 -0.86557510462E+02  0.18348291231E+02  0.32882290561E+03  0.34051927527E+03  0.10566000000E+00 0. -1.
        994    1    1    2    0    0  0.70027169404E+02  0.11148345259E+02  0.28527156637E+02  0.18748687613E+03  0.17120000000E+03 0.  0.
        998    1    1    2    0    0  0.16530341058E+02 -0.29496636490E+02  0.11426499340E+04  0.11431938486E+04  0.10000000000E+02 0. -1.
</event>
<event>
 5    1  0.1146201E-008  0.3829748E+03  0.7957747E-01  0.3438307E+00
         13   -1    0    0    0    0  0.00000000000E+00  0.00000000000E+00  0.14999999963E+04  0.15000000000E+04  0.10566000000E+00 0. -1.
        994   -1    0    0    0    0 -0.00000000000E+00 -0.00000000000E+00  0.11368683772E-12  0.17120000000E+03  0.17120000000E+03 0.  0.
         13    1    1    2    0    0 -0.13835423720E+02 -0.73706626461E+01  0.43852731128E+02  0.46570578790E+02  0.10566000000E+00 0. -1.
        994    1    1    2    0    0  0.18916898574E+02  0.78986577924E+01  0.40313459397E+01  0.17247008319E+03  0.17120000000E+03 0.  0.
        998    1    1    2    0    0 -0.50814748545E+01 -0.52799514631E+00  0.14521159192E+04  0.14521593380E+04  0.10000000000E+02 0. -1.
</event>
<event>
 5    1  0.1146201E-008  0.3840043E+03  0.7957747E-01  0.3433906E+00
         13   -1    0    0    0    0  0.00000000000E+00  0.00000000000E+00  0.14999999963E+04  0.15000000000E+04  0.10566000000E+00 0. -1.
        994   -1    0    0    0    0 -0.00000000000E+00 -0.00000000000E+00  0.11368683772E-12  0.17120000000E+03  0.17120000000E+03 0.  0.
         13    1    1    2    0    0 -0.13332932692E+02 -0.57862915019E+01  0.56203422456E+02  0.58052425645E+02  0.10566000000E+00 0. -1.
        994    1    1    2    0    0 -0.69473645385E+01 -0.21469137119E+02  0.38070834929E+01  0.17272267832E+03  0.17120000000E+03 0.  0.
        998    1    1    2    0    0  0.20280297230E+02  0.27255428621E+02  0.14399894903E+04  0.14404248960E+04  0.10000000000E+02 0. -1.
</event>
<event>
 5    1  0.1146201E-008  0.3714204E+03  0.7957747E-01  0.3489388E+00
         13   -1    0    0    0    0  0.00000000000E+00  0.00000000000E+00  0.14999999963E+04  0.15000000000E+04  0.10566000000E+00 0. -1.
        994   -1    0    0    0    0 -0.00000000000E+00 -0.00000000000E+00  0.11368683772E-12  0.17120000000E+03  0.17120000000E+03 0.  0.
         13    1    1    2    0    0  0.39710887360E+02  0.25970994316E+02  0.12115955912E+03  0.13011954907E+03  0.10566000000E+00 0. -1.
        994    1    1    2    0    0 -0.37108491271E+02 -0.23614089838E+02  0.15214801048E+02  0.17741362838E+03  0.17120000000E+03 0.  0.
        998    1    1    2    0    0 -0.26023960885E+01 -0.23569044785E+01  0.13636256361E+04  0.13636668225E+04  0.10000000000E+02 0.  0.
</event>
<event>
 5    1  0.1146201E-008  0.3764945E+03  0.7957747E-01  0.3466566E+00
         13   -1    0    0    0    0  0.00000000000E+00  0.00000000000E+00  0.14999999963E+04  0.15000000000E+04  0.10566000000E+00 0.  1.
        994   -1    0    0    0    0 -0.00000000000E+00 -0.00000000000E+00  0.11368683772E-12  0.17120000000E+03  0.17120000000E+03 0.  0.
         13    1    1    2    0    0  0.58961629501E+01 -0.40209468450E+02  0.13785712882E+03  0.14372252858E+03  0.10566000000E+00 0.  1.
        994    1    1    2    0    0 -0.66797060301E+01  0.23060095217E+02  0.78651159818E+01  0.17305399884E+03  0.17120000000E+03 0.  0.
        998    1    1    2    0    0  0.78354308007E+00  0.17149373233E+02  0.13542777515E+04  0.13544234726E+04  0.10000000000E+02 0.  1.
</event>
<event>
 5    1  0.1146201E-008  0.3755596E+03  0.7957747E-01  0.3470724E+00
         13   -1    0    0    0    0  0.00000000000E+00  0.00000000000E+00  0.14999999963E+04  0.15000000000E+04  0.10566000000E+00 0.  1.
        994   -1    0    0    0    0 -0.00000000000E+00 -0.00000000000E+00  0.11368683772E-12  0.17120000000E+03  0.17120000000E+03 0.  0.
         13    1    1    2    0    0 -0.53683989885E+02  0.25278683354E+00  0.21768405088E+03  0.22420613694E+03  0.10566000000E+00 0.  1.
        994    1    1    2    0    0  0.35095181220E+02 -0.12455747371E+02  0.11111335844E+02  0.17555545896E+03  0.17120000000E+03 0.  0.
        998    1    1    2    0    0  0.18588808666E+02  0.12202960538E+02  0.12712046096E+04  0.12714384041E+04  0.10000000000E+02 0.  1.
</event>
<event>
 5    1  0.1146201E-008  0.3747833E+03  0.7957747E-01  0.3474192E+00
         13   -1    0    0    0    0  0.00000000000E+00  0.00000000000E+00  0.14999999963E+04  0.15000000000E+04  0.10566000000E+00 0. -1.
        994   -1    0    0    0    0 -0.00000000000E+00 -0.00000000000E+00  0.11368683772E-12  0.17120000000E+03  0.17120000000E+03 0.  0.
         13    1    1    2    0    0  0.10242231926E+02  0.43240210742E+02  0.14734963056E+03  0.15390433369E+03  0.10566000000E+00 0. -1.
        994    1    1    2    0    0  0.11318575122E+01 -0.21456739248E+02  0.83620657594E+01  0.17274558433E+03  0.17120000000E+03 0.  0.
        998    1    1    2    0    0 -0.11374089438E+02 -0.21783471494E+02  0.13442883000E+04  0.13445500820E+04  0.10000000000E+02 0. -1.
</event>
<event>
 5    1  0.1146201E-008  0.3815107E+03  0.7957747E-01  0.3444607E+00
         13   -1    0    0    0    0  0.00000000000E+00  0.00000000000E+00  0.14999999963E+04  0.15000000000E+04  0.10566000000E+00 0.  1.
        994   -1    0    0    0    0 -0.00000000000E+00 -0.00000000000E+00  0.11368683772E-12  0.17120000000E+03  0.17120000000E+03 0.  0.
         13    1    1    2    0    0 -0.24100987361E+02 -0.43915514018E+02  0.75548816199E+02  0.90648026765E+02  0.10566000000E+00 0.  1.
        994    1    1    2    0    0 -0.32481343500E+02  0.84294918310E+01  0.21273541383E+02  0.17575009978E+03  0.17120000000E+03 0.  0.
        998    1    1    2    0    0  0.56582330861E+02  0.35486022187E+02  0.14031776387E+04  0.14048018735E+04  0.10000000000E+02 0.  1.
</event>
<event>
 5    1  0.1146201E-008  0.3905628E+03  0.7957747E-01  0.3406417E+00
         13   -1    0    0    0    0  0.00000000000E+00  0.00000000000E+00  0.14999999963E+04  0.15000000000E+04  0.10566000000E+00 0. -1.
        994   -1    0    0    0    0 -0.00000000000E+00 -0.00000000000E+00  0.11368683772E-12  0.17120000000E+03  0.17120000000E+03 0.  0.
         13    1    1    2    0    0  0.39823123726E+02  0.78393793225E+02  0.18172243279E+03  0.20187749191E+03  0.10566000000E+00 0. -1.
        994    1    1    2    0    0 -0.76313600511E+01 -0.35191670979E+02  0.27159017632E+02  0.17704164369E+03  0.17120000000E+03 0.  0.
        998    1    1    2    0    0 -0.32191763675E+02 -0.43202122246E+02  0.12911185459E+04  0.12922808644E+04  0.10000000000E+02 0. -1.
</event>
<event>
 5    1  0.1146201E-008  0.3710666E+03  0.7957747E-01  0.3491003E+00
         13   -1    0    0    0    0  0.00000000000E+00  0.00000000000E+00  0.14999999963E+04  0.15000000000E+04  0.10566000000E+00 0. -1.
        994   -1    0    0    0    0 -0.00000000000E+00 -0.00000000000E+00  0.11368683772E-12  0.17120000000E+03  0.17120000000E+03 0.  0.
         13    1    1    2    0    0 -0.88052312057E+01  0.32527636005E+02  0.44066258181E+02  0.55474547991E+02  0.10566000000E+00 0. -1.
        994    1    1    2    0    0  0.67299800461E+01 -0.29499048067E+02  0.14723147558E+02  0.17447549267E+03  0.17120000000E+03 0.  0.
        998    1    1    2    0    0  0.20752511596E+01 -0.30285879388E+01  0.14412105905E+04  0.14412499593E+04  0.10000000000E+02 0. -1.
</event>
<event>
 5    1  0.1146201E-008  0.3796581E+03  0.7957747E-01  0.3452649E+00
         13   -1    0    0    0    0  0.00000000000E+00  0.00000000000E+00  0.14999999963E+04  0.15000000000E+04  0.10566000000E+00 0. -1.
        994   -1    0    0    0    0 -0.00000000000E+00 -0.00000000000E+00  0.11368683772E-12  0.17120000000E+03  0.17120000000E+03 0.  0.
         13    1    1    2    0    0 -0.28870645603E+01  0.55451932196E+02  0.30233979771E+03  0.30739651327E+03  0.10566000000E+00 0. -1.
        994    1    1    2    0    0  0.10385837848E+02 -0.49600053233E+02  0.12948658479E+02  0.17901156014E+03  0.17120000000E+03 0.  0.
        998    1    1    2    0    0 -0.74987732878E+01 -0.58518789626E+01  0.11847115401E+04  0.11847919266E+04  0.10000000000E+02 0. -1.
</event>
<event>
 5    1  0.1146201E-008  0.3812837E+03  0.7957747E-01  0.3445588E+00
         13   -1    0    0    0    0  0.00000000000E+00  0.00000000000E+00  0.14999999963E+04  0.15000000000E+04  0.10566000000E+00 0.  1.
        994   -1    0    0    0    0 -0.00000000000E+00 -0.00000000000E+00  0.11368683772E-12  0.17120000000E+03  0.17120000000E+03 0.  0.
         13    1    1    2    0    0 -0.17857478992E+02  0.53048307138E+00  0.52459699842E+02  0.55418428702E+02  0.10566000000E+00 0.  1.
        994    1    1    2    0    0 -0.27997145654E+02 -0.13742367103E+02  0.67312012004E+01  0.17414775878E+03  0.17120000000E+03 0.  0.
        998    1    1    2    0    0  0.45854624646E+02  0.13211884032E+02  0.14408090952E+04  0.14416338125E+04  0.10000000000E+02 0.  1.
</event>
<event>
 5    1  0.1146201E-008  0.3830800E+03  0.7957747E-01  0.3437856E+00
         13   -1    0    0    0    0  0.00000000000E+00  0.00000000000E+00  0.14999999963E+04  0.15000000000E+04  0.10566000000E+00 0.  1.
        994   -1    0    0    0    0 -0.00000000000E+00 -0.00000000000E+00  0.11368683772E-12  0.17120000000E+03  0.17120000000E+03 0.  0.
         13    1    1    2    0    0  0.42570599404E+01 -0.15085991401E+02 -0.19090211563E+01  0.15791302090E+02  0.10566000000E+00 0.  1.
        994    1    1    2    0    0 -0.12236533178E+02  0.55837798153E+02  0.30104414223E+02  0.18298444798E+03  0.17120000000E+03 0.  0.
        998    1    1    2    0    0  0.79794732371E+01 -0.40751806752E+02  0.14718046032E+04  0.14724242499E+04  0.10000000000E+02 0.  1.
</event>
<event>
 5    1  0.1146201E-008  0.3772120E+03  0.7957747E-01  0.3463389E+00
         13   -1    0    0    0    0  0.00000000000E+00  0.00000000000E+00  0.14999999963E+04  0.15000000000E+04  0.10566000000E+00 0. -1.
        994   -1    0    0    0    0 -0.00000000000E+00 -0.00000000000E+00  0.11368683772E-12  0.17120000000E+03  0.17120000000E+03 0.  0.
         13    1    1    2    0    0 -0.21825654454E+02 -0.47670501997E+02  0.21213275134E+03  0.21851579190E+03  0.10566000000E+00 0. -1.
        994    1    1    2    0    0  0.21596615023E+02  0.48046979414E+02  0.14967768676E+02  0.17974537577E+03  0.17120000000E+03 0.  0.
        998    1    1    2    0    0  0.22903943166E+00 -0.37647741775E+00  0.12728994763E+04  0.12729388323E+04  0.10000000000E+02 0.  0.
</event>
<event>
 5    1  0.1146201E-008  0.3745228E+03  0.7957747E-01  0.3475360E+00
         13   -1    0    0    0    0  0.00000000000E+00  0.00000000000E+00  0.14999999963E+04  0.15000000000E+04  0.10566000000E+00 0.  1.
        994   -1    0    0    0    0 -0.00000000000E+00 -0.00000000000E+00  0.11368683772E-12  0.17120000000E+03  0.17120000000E+03 0.  0.
         13    1    1    2    0    0  0.13002301688E+00  0.16196295788E+02  0.15780837958E+02  0.22613777082E+02  0.10566000000E+00 0.  1.
        994    1    1    2    0    0 -0.19948878989E+01 -0.15399348020E+02  0.77453552406E+01  0.17207716300E+03  0.17120000000E+03 0.  0.
        998    1    1    2    0    0  0.18648648820E+01 -0.79694776803E+00  0.14764738031E+04  0.14765090599E+04  0.10000000000E+02 0.  1.
</event>
<event>
 5    1  0.1146201E-008  0.3775207E+03  0.7957747E-01  0.3462026E+00
         13   -1    0    0    0    0  0.00000000000E+00  0.00000000000E+00  0.14999999963E+04  0.15000000000E+04  0.10566000000E+00 0. -1.
        994   -1    0    0    0    0 -0.00000000000E+00 -0.00000000000E+00  0.11368683772E-12  0.17120000000E+03  0.17120000000E+03 0.  0.
         13    1    1    2    0    0  0.55186664035E+02  0.41761786140E+02  0.32391924933E+03  0.33122998947E+03  0.10566000000E+00 0. -1.
        994    1    1    2    0    0 -0.62974386668E+02 -0.44430610429E+02  0.25679662045E+02  0.18949600936E+03  0.17120000000E+03 0.  0.
        998    1    1    2    0    0  0.77877226335E+01  0.26688242890E+01  0.11504010849E+04  0.11504740012E+04  0.10000000000E+02 0. -1.
</event>
<event>
 5    1  0.1146201E-008  0.3859287E+03  0.7957747E-01  0.3425743E+00
         13   -1    0    0    0    0  0.00000000000E+00  0.00000000000E+00  0.14999999963E+04  0.15000000000E+04  0.10566000000E+00 0.  1.
        994   -1    0    0    0    0 -0.00000000000E+00 -0.00000000000E+00  0.11368683772E-12  0.17120000000E+03  0.17120000000E+03 0.  0.
         13    1    1    2    0    0  0.51732739364E+01 -0.12301236452E+02  0.72960129361E+02  0.74170579221E+02  0.10566000000E+00 0.  1.
        994    1    1    2    0    0 -0.14295428113E+01  0.16341417239E+02  0.20525109068E+01  0.17199633226E+03  0.17120000000E+03 0.  0.
        998    1    1    2    0    0 -0.37437311251E+01 -0.40401807865E+01  0.14249873560E+04  0.14250330885E+04  0.10000000000E+02 0.  1.
</event>
<event>
 5    1  0.1146201E-008  0.3048664E+03  0.7957747E-01  0.3861879E+00
         13   -1    0    0    0    0  0.00000000000E+00  0.00000000000E+00  0.14999999963E+04  0.15000000000E+04  0.10566000000E+00 0. -1.
        994   -1    0    0    0    0 -0.00000000000E+00 -0.00000000000E+00  0.11368683772E-12  0.17120000000E+03  0.17120000000E+03 0.  0.
         13    1    1    2    0    0 -0.56679604183E+02  0.20823578039E+03  0.77148709089E+03  0.80110365143E+03  0.10566000000E+00 0. -1.
        994    1    1    2    0    0  0.67876252295E+02 -0.12047088411E+03  0.11151945146E+03  0.24671126362E+03  0.17120000000E+03 0.  0.
        998    1    1    2    0    0 -0.11196648112E+02 -0.87764896277E+02  0.61699345392E+03  0.62338508494E+03  0.10000000000E+02 0. -1.
</event>
<event>
 5    1  0.1146201E-008  0.3794226E+03  0.7957747E-01  0.3453677E+00
         13   -1    0    0    0    0  0.00000000000E+00  0.00000000000E+00  0.14999999963E+04  0.15000000000E+04  0.10566000000E+00 0. -1.
        994   -1    0    0    0    0 -0.00000000000E+00 -0.00000000000E+00  0.11368683772E-12  0.17120000000E+03  0.17120000000E+03 0.  0.
         13    1    1    2    0    0  0.45579449377E+02  0.59578878542E+02  0.45292263270E+03  0.45909263918E+03  0.10566000000E+00 0. -1.
        994    1    1    2    0    0 -0.41361741929E+02 -0.60386002513E+02  0.22582223759E+02  0.18755441830E+03  0.17120000000E+03 0.  0.
        998    1    1    2    0    0 -0.42177074483E+01  0.80712397112E+00  0.10244951398E+04  0.10245529425E+04  0.10000000000E+02 0.  0.
</event>
<event>
 5    1  0.1146201E-008  0.3833073E+03  0.7957747E-01  0.3436883E+00
         13   -1    0    0    0    0  0.00000000000E+00  0.00000000000E+00  0.14999999963E+04  0.15000000000E+04  0.10566000000E+00 0.  1.
        994   -1    0    0    0    0 -0.00000000000E+00 -0.00000000000E+00  0.11368683772E-12  0.17120000000E+03  0.17120000000E+03 0.  0.
         13    1    1    2    0    0 -0.17356224969E+02  0.88849910402E+01  0.88371352672E+02  0.90496899107E+02  0.10566000000E+00 0.  1.
        994    1    1    2    0    0 -0.11447290613E+02  0.25133954381E+01  0.29272288436E+01  0.17162565743E+03  0.17120000000E+03 0.  0.
        998    1    1    2    0    0  0.28803515582E+02 -0.11398386478E+02  0.14087014148E+04  0.14090774435E+04  0.10000000000E+02 0.  1.
</event>
<event>
 5    1  0.1146201E-008  0.3807717E+03  0.7957747E-01  0.3447805E+00
         13   -1    0    0    0    0  0.00000000000E+00  0.00000000000E+00  0.14999999963E+04  0.15000000000E+04  0.10566000000E+00 0. -1.
        994   -1    0    0    0    0 -0.00000000000E+00 -0.00000000000E+00  0.11368683772E-12  0.17120000000E+03  0.17120000000E+03 0.  0.
         13    1    1    2    0    0  0.99880167564E+01  0.18191805362E+02  0.70806321013E+02  0.73785151084E+02  0.10566000000E+00 0. -1.
        994    1    1    2    0    0  0.19322652223E+02  0.30479162266E+02  0.80988453562E+01  0.17514958041E+03  0.17120000000E+03 0.  0.
        998    1    1    2    0    0 -0.29310668980E+02 -0.48670967628E+02  0.14210948299E+04  0.14222652685E+04  0.10000000000E+02 0. -1.
</event>
<event>
 5    1  0.1146201E-008  0.3798222E+03  0.7957747E-01  0.3451933E+00
         13   -1    0    0    0    0  0.00000000000E+00  0.00000000000E+00  0.14999999963E+04  0.15000000000E+04  0.10566000000E+00 0. -1.
        994   -1    0    0    0    0 -0.00000000000E+00 -0.00000000000E+00  0.11368683772E-12  0.17120000000E+03  0.17120000000E+03 0.  0.
         13    1    1    2    0    0 -0.24029176078E-01  0.12970108750E+02  0.17970441836E+02  0.22162406056E+02  0.10566000000E+00 0. -1.
        994    1    1    2    0    0 -0.45486395898E+01 -0.12665473814E+02  0.48289080048E+01  0.17179599152E+03  0.17120000000E+03 0.  0.
        998    1    1    2    0    0  0.45726687659E+01 -0.30463493594E+00  0.14772006464E+04  0.14772416024E+04  0.10000000000E+02 0. -1.
</event>
<event>
 5    1  0.1146201E-008  0.3801151E+03  0.7957747E-01  0.3450657E+00
         13   -1    0    0    0    0  0.00000000000E+00  0.00000000000E+00  0.14999999963E+04  0.15000000000E+04  0.10566000000E+00 0. -1.
        994   -1    0    0    0    0 -0.00000000000E+00 -0.00000000000E+00  0.11368683772E-12  0.17120000000E+03  0.17120000000E+03 0.  0.
         13    1    1    2    0    0 -0.19586519335E+02 -0.31961015244E+01  0.46451010569E+02  0.50512912721E+02  0.10566000000E+00 0. -1.
        994    1    1    2    0    0  0.16338777687E+02 -0.64839873201E+01  0.51082802374E+01  0.17217587600E+03  0.17120000000E+03 0.  0.
        998    1    1    2    0    0  0.32477416481E+01  0.96800888445E+01  0.14484407055E+04  0.14485112113E+04  0.10000000000E+02 0. -1.
</event>
<event>
 5    1  0.1146201E-008  0.3850052E+03  0.7957747E-01  0.3429650E+00
         13   -1    0    0    0    0  0.00000000000E+00  0.00000000000E+00  0.14999999963E+04  0.15000000000E+04  0.10566000000E+00 0.  1.
        994   -1    0    0    0    0 -0.00000000000E+00 -0.00000000000E+00  0.11368683772E-12  0.17120000000E+03  0.17120000000E+03 0.  0.
         13    1    1    2    0    0  0.12733657937E+02  0.38319443767E+01  0.53980329077E+02  0.55594216727E+02  0.10566000000E+00 0.  1.
        994    1    1    2    0    0 -0.88697317660E+01 -0.47572344142E+01  0.19607904133E+01  0.17150681654E+03  0.17120000000E+03 0.  0.
        998    1    1    2    0    0 -0.38639261706E+01  0.92529003747E+00  0.14440588768E+04  0.14440989667E+04  0.10000000000E+02 0.  1.
</event>
<event>
 5    1  0.1146201E-008  0.3842801E+03  0.7957747E-01  0.3432731E+00
         13   -1    0    0    0    0  0.00000000000E+00  0.00000000000E+00  0.14999999963E+04  0.15000000000E+04  0.10566000000E+00 0.  1.
        994   -1    0    0    0    0 -0.00000000000E+00 -0.00000000000E+00  0.11368683772E-12  0.17120000000E+03  0.17120000000E+03 0.  0.
         13    1    1    2    0    0  0.13049912921E+02 -0.47910360055E+01  0.46709708896E+02  0.48734611135E+02  0.10566000000E+00 0.  1.
        994    1    1    2    0    0 -0.15725279512E+02  0.29812202613E+01  0.28328389134E+01  0.17196987255E+03  0.17120000000E+03 0.  0.
        998    1    1    2    0    0  0.26753665911E+01  0.18098157442E+01  0.14504574485E+04  0.14504955163E+04  0.10000000000E+02 0.  1.
</event>
<event>
 5    1  0.1146201E-008  0.3752493E+03  0.7957747E-01  0.3472109E+00
         13   -1    0    0    0    0  0.00000000000E+00  0.00000000000E+00  0.14999999963E+04  0.15000000000E+04  0.10566000000E+00 0. -1.
        994   -1    0    0    0    0 -0.00000000000E+00 -0.00000000000E+00  0.11368683772E-12  0.17120000000E+03  0.17120000000E+03 0.  0.
         13    1    1    2    0    0 -0.61335895659E+02 -0.82294213413E+01  0.12656048524E+03  0.14088074056E+03  0.10566000000E+00 0. -1.
        994    1    1    2    0    0  0.54809025455E+02  0.16881240421E+02  0.25550187562E+02  0.18234927374E+03  0.17120000000E+03 0.  0.
        998    1    1    2    0    0  0.65268702040E+01 -0.86518190798E+01  0.13478893235E+04  0.13479699857E+04  0.10000000000E+02 0. -1.
</event>
<event>
 5    1  0.1146201E-008  0.3830241E+03  0.7957747E-01  0.3438096E+00
         13   -1    0    0    0    0  0.00000000000E+00  0.00000000000E+00  0.14999999963E+04  0.15000000000E+04  0.10566000000E+00 0. -1.
        994   -1    0    0    0    0 -0.00000000000E+00 -0.00000000000E+00  0.11368683772E-12  0.17120000000E+03  0.17120000000E+03 0.  0.
         13    1    1    2    0    0 -0.21798322298E+02 -0.92392223293E+01  0.12726315752E+03  0.12944671688E+03  0.10566000000E+00 0. -1.
        994    1    1    2    0    0 -0.74875080968E+01 -0.70966850904E+01  0.29666601873E+01  0.17153619673E+03  0.17120000000E+03 0.  0.
        998    1    1    2    0    0  0.29285830394E+02  0.16335907420E+02  0.13697701786E+04  0.13702170864E+04  0.10000000000E+02 0. -1.
</event>
<event>
 5    1  0.1146201E-008  0.3768070E+03  0.7957747E-01  0.3465180E+00
         13   -1    0    0    0    0  0.00000000000E+00  0.00000000000E+00  0.14999999963E+04  0.15000000000E+04  0.10566000000E+00 0.  1.
        994   -1    0    0    0    0 -0.00000000000E+00 -0.00000000000E+00  0.11368683772E-12  0.17120000000E+03  0.17120000000E+03 0.  0.
         13    1    1    2    0    0 -0.13527330295E+02  0.87672800115E+01  0.20049785817E+02  0.25726619270E+02  0.10566000000E+00 0.  1.
        994    1    1    2    0    0  0.10956804754E+02 -0.67474843859E+01  0.63133322997E+01  0.17179894726E+03  0.17120000000E+03 0.  0.
        998    1    1    2    0    0  0.25705255407E+01 -0.20197956256E+01  0.14736368782E+04  0.14736744335E+04  0.10000000000E+02 0.  1.
</event>
<event>
 5    1  0.1146201E-008  0.3840598E+03  0.7957747E-01  0.3433670E+00
         13   -1    0    0    0    0  0.00000000000E+00  0.00000000000E+00  0.14999999963E+04  0.15000000000E+04  0.10566000000E+00 0.  1.
        994   -1    0    0    0    0 -0.00000000000E+00 -0.00000000000E+00  0.11368683772E-12  0.17120000000E+03  0.17120000000E+03 0.  0.
         13    1    1    2    0    0  0.51272757541E+02  0.26328225913E+02  0.79401636622E+02  0.98115759223E+02  0.10566000000E+00 0.  1.
        994    1    1    2    0    0 -0.56959401211E+02 -0.10810716220E+02  0.31045508932E+02  0.18339713356E+03  0.17120000000E+03 0.  0.
        998    1    1    2    0    0  0.56866436702E+01 -0.15517509693E+02  0.13895528507E+04  0.13896871072E+04  0.10000000000E+02 0.  1.
</event>
<event>
 5    1  0.1146201E-008  0.3715469E+03  0.7957747E-01  0.3488812E+00
         13   -1    0    0    0    0  0.00000000000E+00  0.00000000000E+00  0.14999999963E+04  0.15000000000E+04  0.10566000000E+00 0. -1.
        994   -1    0    0    0    0 -0.00000000000E+00 -0.00000000000E+00  0.11368683772E-12  0.17120000000E+03  0.17120000000E+03 0.  0.
         13    1    1    2    0    0 -0.62484086276E+02 -0.59816366869E+01  0.20802116875E+03  0.21728520158E+03  0.10566000000E+00 0. -1.
        994    1    1    2    0    0  0.54643121100E+02  0.63765396296E+01  0.18944753284E+02  0.18081724093E+03  0.17120000000E+03 0.  0.
        998    1    1    2    0    0  0.78409651758E+01 -0.39490294272E+00  0.12730340742E+04  0.12730975575E+04  0.10000000000E+02 0. -1.
</event>
<event>
 5    1  0.1146201E-008  0.3783024E+03  0.7957747E-01  0.3458584E+00
         13   -1    0    0    0    0  0.00000000000E+00  0.00000000000E+00  0.14999999963E+04  0.15000000000E+04  0.10566000000E+00 0. -1.
        994   -1    0    0    0    0 -0.00000000000E+00 -0.00000000000E+00  0.11368683772E-12  0.17120000000E+03  0.17120000000E+03 0.  0.
         13    1    1    2    0    0  0.34217757361E+02  0.43671500074E+00  0.12804789878E+03  0.13254177147E+03  0.10566000000E+00 0. -1.
        994    1    1    2    0    0 -0.16682980368E+01  0.60111132340E+01  0.51233661831E+01  0.17139021437E+03  0.17120000000E+03 0.  0.
        998    1    1    2    0    0 -0.32549459325E+02 -0.64478282348E+01  0.13668287313E+04  0.13672680142E+04  0.10000000000E+02 0. -1.
</event>
<event>
 5    1  0.1146201E-008  0.3840372E+03  0.7957747E-01  0.3433766E+00
         13   -1    0    0    0    0  0.00000000000E+00  0.00000000000E+00  0.14999999963E+04  0.15000000000E+04  0.10566000000E+00 0. -1.
        994   -1    0    0    0    0 -0.00000000000E+00 -0.00000000000E+00  0.11368683772E-12  0.17120000000E+03  0.17120000000E+03 0.  0.
         13    1    1    2    0    0 -0.10181802755E+02  0.17933536102E+02  0.96609512350E+02  0.98786081333E+02  0.10566000000E+00 0. -1.
        994    1    1    2    0    0  0.77318044326E+01 -0.17068686989E+02  0.32681086266E+01  0.17225342205E+03  0.17120000000E+03 0.  0.
        998    1    1    2    0    0  0.24499983221E+01 -0.86484911332E+00  0.14001223753E+04  0.14001604966E+04  0.10000000000E+02 0. -1.
</event>
<event>
 5    1  0.1146201E-008  0.3813087E+03  0.7957747E-01  0.3445480E+00
         13   -1    0    0    0    0  0.00000000000E+00  0.00000000000E+00  0.14999999963E+04  0.15000000000E+04  0.10566000000E+00 0.  1.
        994   -1    0    0    0    0 -0.00000000000E+00 -0.00000000000E+00  0.11368683772E-12  0.17120000000E+03  0.17120000000E+03 0.  0.
         13    1    1    2    0    0 -0.19455911073E+02 -0.19219759535E+01  0.52654129952E+02  0.56166671900E+02  0.10566000000E+00 0.  1.
        994    1    1    2    0    0  0.16840798008E+02  0.12081712668E+02  0.49051482535E+01  0.17251979810E+03  0.17120000000E+03 0.  0.
        998    1    1    2    0    0  0.26151130656E+01 -0.10159736715E+02  0.14424407181E+04  0.14425135300E+04  0.10000000000E+02 0.  1.
</event>
<event>
 5    1  0.1146201E-008  0.3852325E+03  0.7957747E-01  0.3428687E+00
         13   -1    0    0    0    0  0.00000000000E+00  0.00000000000E+00  0.14999999963E+04  0.15000000000E+04  0.10566000000E+00 0.  1.
        994   -1    0    0    0    0 -0.00000000000E+00 -0.00000000000E+00  0.11368683772E-12  0.17120000000E+03  0.17120000000E+03 0.  0.
         13    1    1    2    0    0 -0.93375491959E+01 -0.43873472400E+01  0.35040450753E+02  0.36527838614E+02  0.10566000000E+00 0.  1.
        994    1    1    2    0    0  0.48624015483E+01  0.63995396754E+01  0.17270384224E+01  0.17139725703E+03  0.17120000000E+03 0.  0.
        998    1    1    2    0    0  0.44751476477E+01 -0.20121924354E+01  0.14632325071E+04  0.14632749044E+04  0.10000000000E+02 0.  1.
</event>
<event>
 5    1  0.1146201E-008  0.3827028E+03  0.7957747E-01  0.3439474E+00
         13   -1    0    0    0    0  0.00000000000E+00  0.00000000000E+00  0.14999999963E+04  0.15000000000E+04  0.10566000000E+00 0. -1.
        994   -1    0    0    0    0 -0.00000000000E+00 -0.00000000000E+00  0.11368683772E-12  0.17120000000E+03  0.17120000000E+03 0.  0.
         13    1    1    2    0    0  0.30449932637E+02  0.98011241619E+01  0.18715079054E+03  0.18986492566E+03  0.10566000000E+00 0. -1.
        994    1    1    2    0    0 -0.17212247491E+02 -0.38200515957E+00  0.37576595941E+01  0.17210452463E+03  0.17120000000E+03 0.  0.
        998    1    1    2    0    0 -0.13237685146E+02 -0.94191190023E+01  0.13090915461E+04  0.13092305497E+04  0.10000000000E+02 0. -1.
</event>
<event>
 5    1  0.1146201E-008  0.3828691E+03  0.7957747E-01  0.3438760E+00
         13   -1    0    0    0    0  0.00000000000E+00  0.00000000000E+00  0.14999999963E+04  0.15000000000E+04  0.10566000000E+00 0. -1.
        994   -1    0    0    0    0 -0.00000000000E+00 -0.00000000000E+00  0.11368683772E-12  0.17120000000E+03  0.17120000000E+03 0.  0.
         13    1    1    2    0    0 -0.76326381465E+01  0.99319191906E+01  0.28222702484E+02  0.30877698803E+02  0.10566000000E+00 0. -1.
        994    1    1    2    0    0  0.48264620721E+01 -0.69190056239E+01  0.29275237211E+01  0.17143272083E+03  0.17120000000E+03 0.  0.
        998    1    1    2    0    0  0.28061760744E+01 -0.30129135668E+01  0.14688497701E+04  0.14688895804E+04  0.10000000000E+02 0. -1.
</event>
<event>
 5    1  0.1146201E-008  0.3711498E+03  0.7957747E-01  0.3490623E+00
         13   -1    0    0    0    0  0.00000000000E+00  0.00000000000E+00  0.14999999963E+04  0.15000000000E+04  0.10566000000E+00 0. -1.
        994   -1    0    0    0    0 -0.00000000000E+00 -0.00000000000E+00  0.11368683772E-12  0.17120000000E+03  0.17120000000E+03 0.  0.
         13    1    1    2    0    0  0.75010635160E+02 -0.33188485572E+02  0.36300769269E+03  0.37215946458E+03  0.10566000000E+00 0. -1.
        994    1    1    2    0    0 -0.45544876818E+02  0.33455619463E+02  0.19749579240E+02  0.18136455045E+03  0.17120000000E+03 0.  0.
        998    1    1    2    0    0 -0.29465758341E+02 -0.26713389106E+00  0.11172427244E+04  0.11176759850E+04  0.10000000000E+02 0. -1.
</event>
<event>
 5    1  0.1146201E-008  0.3761400E+03  0.7957747E-01  0.3468140E+00
         13   -1    0    0    0    0  0.00000000000E+00  0.00000000000E+00  0.14999999963E+04  0.15000000000E+04  0.10566000000E+00 0.  1.
        994   -1    0    0    0    0 -0.00000000000E+00 -0.00000000000E+00  0.11368683772E-12  0.17120000000E+03  0.17120000000E+03 0.  0.
         13    1    1    2    0    0 -0.53315413200E+01 -0.22143613105E+02  0.11779141417E+02  0.25642236072E+02  0.10566000000E+00 0.  1.
        994    1    1    2    0    0 -0.14072733367E+01  0.28164068042E+02  0.17069305623E+02  0.17434447609E+03  0.17120000000E+03 0.  0.
        998    1    1    2    0    0  0.67388146567E+01 -0.60204549369E+01  0.14711515492E+04  0.14712132878E+04  0.10000000000E+02 0.  1.
</event>
<event>
 5    1  0.1146201E-008  0.3792840E+03  0.7957747E-01  0.3454282E+00
         13   -1    0    0    0    0  0.00000000000E+00  0.00000000000E+00  0.14999999963E+04  0.15000000000E+04  0.10566000000E+00 0.  1.
        994   -1    0    0    0    0 -0.00000000000E+00 -0.00000000000E+00  0.11368683772E-12  0.17120000000E+03  0.17120000000E+03 0.  0.
         13    1    1    2    0    0 -0.65760278342E+01 -0.10158209949E+02  0.14205687818E+02  0.18661353163E+02  0.10566000000E+00 0.  1.
        994    1    1    2    0    0 -0.32416199690E+01  0.16845918835E+02  0.54817552102E+01  0.17214465638E+03  0.17120000000E+03 0.  0.
        998    1    1    2    0    0  0.98176478033E+01 -0.66877088855E+01  0.14803125533E+04  0.14803939905E+04  0.10000000000E+02 0.  1.
</event>
<event>
 5    1  0.1146201E-008  0.3798628E+03  0.7957747E-01  0.3451756E+00
         13   -1    0    0    0    0  0.00000000000E+00  0.00000000000E+00  0.14999999963E+04  0.15000000000E+04  0.10566000000E+00 0.  1.
        994   -1    0    0    0    0 -0.00000000000E+00 -0.00000000000E+00  0.11368683772E-12  0.17120000000E+03  0.17120000000E+03 0.  0.
         13    1    1    2    0    0  0.81914973851E+02  0.24354056467E+01  0.48938388599E+03  0.49619813902E+03  0.10566000000E+00 0.  1.
        994    1    1    2    0    0 -0.88753181042E+02  0.18860119385E+01  0.31025931975E+02  0.19532724500E+03  0.17120000000E+03 0.  0.
        998    1    1    2    0    0  0.68382071915E+01 -0.43214175853E+01  0.97959017832E+03  0.97967461597E+03  0.10000000000E+02 0. -1.
</event>
<event>
 5    1  0.1146201E-008  0.3809656E+03  0.7957747E-01  0.3446965E+00
         13   -1    0    0    0    0  0.00000000000E+00  0.00000000000E+00  0.14999999963E+04  0.15000000000E+04  0.10566000000E+00 0. -1.
        994   -1    0    0    0    0 -0.00000000000E+00 -0.00000000000E+00  0.11368683772E-12  0.17120000000E+03  0.17120000000E+03 0.  0.
         13    1    1    2    0    0  0.27968657927E+02  0.20544730484E+02  0.14154983079E+03  0.14574188670E+03  0.10566000000E+00 0. -1.
        994    1    1    2    0    0 -0.34135395418E+02 -0.27124013979E+02  0.10007067361E+02  0.17694778538E+03  0.17120000000E+03 0.  0.
        998    1    1    2    0    0  0.61667374910E+01  0.65792834948E+01  0.13484430981E+04  0.13485103279E+04  0.10000000000E+02 0. -1.
</event>
<event>
 5    1  0.1146201E-008  0.3929849E+03  0.7957747E-01  0.3396497E+00
         13   -1    0    0    0    0  0.00000000000E+00  0.00000000000E+00  0.14999999963E+04  0.15000000000E+04  0.10566000000E+00 0.  1.
        994   -1    0    0    0    0 -0.00000000000E+00 -0.00000000000E+00  0.11368683772E-12  0.17120000000E+03  0.17120000000E+03 0.  0.
         13    1    1    2    0    0  0.85998239693E+02  0.14522189975E+02  0.14505026949E+03  0.16925183330E+03  0.10566000000E+00 0.  1.
        994    1    1    2    0    0 -0.76104186191E+02 -0.33301928956E+01  0.46094001237E+02  0.19296899826E+03  0.17120000000E+03 0.  0.
        998    1    1    2    0    0 -0.98940535014E+01 -0.11191997079E+02  0.13088557256E+04  0.13089791684E+04  0.10000000000E+02 0.  1.
</event>
<event>
 5    1  0.1146201E-008  0.3842778E+03  0.7957747E-01  0.3432741E+00
         13   -1    0    0    0    0  0.00000000000E+00  0.00000000000E+00  0.14999999963E+04  0.15000000000E+04  0.10566000000E+00 0.  1.
        994   -1    0    0    0    0 -0.00000000000E+00 -0.00000000000E+00  0.11368683772E-12  0.17120000000E+03  0.17120000000E+03 0.  0.
         13    1    1    2    0    0  0.17758966745E+01  0.11098001888E+02  0.31177206216E+02  0.33141345874E+02  0.10566000000E+00 0.  1.
        994    1    1    2    0    0  0.14309870546E+01 -0.86809628121E+01  0.22443395866E+01  0.17144061333E+03  0.17120000000E+03 0.  0.
        998    1    1    2    0    0 -0.32068837290E+01 -0.24170390763E+01  0.14665784505E+04  0.14666180408E+04  0.10000000000E+02 0.  1.
</event>
<event>
 5    1  0.1146201E-008  0.3798010E+03  0.7957747E-01  0.3452026E+00
         13   -1    0    0    0    0  0.00000000000E+00  0.00000000000E+00  0.14999999963E+04  0.15000000000E+04  0.10566000000E+00 0. -1.
        994   -1    0    0    0    0 -0.00000000000E+00 -0.00000000000E+00  0.11368683772E-12  0.17120000000E+03  0.17120000000E+03 0.  0.
         13    1    1    2    0    0 -0.39843139565E+02 -0.67133269298E+01  0.18641977618E+03  0.19074823366E+03  0.10566000000E+00 0. -1.
        994    1    1    2    0    0  0.30158721303E+02 -0.13053109586E+02  0.78545969559E+01  0.17450234048E+03  0.17120000000E+03 0.  0.
        998    1    1    2    0    0  0.96844182617E+01  0.19766436516E+02  0.13057256231E+04  0.13059494259E+04  0.10000000000E+02 0. -1.
</event>
<event>
 5    1  0.1146201E-008  0.3835829E+03  0.7957747E-01  0.3435704E+00
         13   -1    0    0    0    0  0.00000000000E+00  0.00000000000E+00  0.14999999963E+04  0.15000000000E+04  0.10566000000E+00 0.  1.
        994   -1    0    0    0    0 -0.00000000000E+00 -0.00000000000E+00  0.11368683772E-12  0.17120000000E+03  0.17120000000E+03 0.  0.
         13    1    1    2    0    0 -0.19238702972E+02 -0.44404579239E+01  0.81311548197E+02  0.83674514596E+02  0.10566000000E+00 0.  1.
        994    1    1    2    0    0  0.16242481552E+02 -0.98606287151E-01  0.32074427111E+01  0.17199870819E+03  0.17120000000E+03 0.  0.
        998    1    1    2    0    0  0.29962214197E+01  0.45390642111E+01  0.14154810054E+04  0.14155267772E+04  0.10000000000E+02 0.  1.
</event>
<event>
 5    1  0.1146201E-008  0.3861328E+03  0.7957747E-01  0.3424882E+00
         13   -1    0    0    0    0  0.00000000000E+00  0.00000000000E+00  0.14999999963E+04  0.15000000000E+04  0.10566000000E+00 0.  1.
        994   -1    0    0    0    0 -0.00000000000E+00 -0.00000000000E+00  0.11368683772E-12  0.17120000000E+03  0.17120000000E+03 0.  0.
         13    1    1    2    0    0  0.10880772839E+02 -0.65557332653E+01  0.74921043349E+02  0.75990412269E+02  0.10566000000E+00 0.  1.
        994    1    1    2    0    0 -0.10891468917E+02  0.31447794266E+01  0.14899645296E+01  0.17158139097E+03  0.17120000000E+03 0.  0.
        998    1    1    2    0    0  0.10696077809E-01  0.34109538387E+01  0.14235889884E+04  0.14236281968E+04  0.10000000000E+02 0.  1.
</event>
<event>
 5    1  0.1146201E-008  0.3837905E+03  0.7957747E-01  0.3434818E+00
         13   -1    0    0    0    0  0.00000000000E+00  0.00000000000E+00  0.14999999963E+04  0.15000000000E+04  0.10566000000E+00 0.  1.
        994   -1    0    0    0    0 -0.00000000000E+00 -0.00000000000E+00  0.11368683772E-12  0.17120000000E+03  0.17120000000E+03 0.  0.
         13    1    1    2    0    0  0.18703916412E+02 -0.19527542685E+02  0.15246335886E+03  0.15484265682E+03  0.10566000000E+00 0.  1.
        994    1    1    2    0    0 -0.14622691737E+02  0.19822900831E+02  0.42376847816E+01  0.17301493717E+03  0.17120000000E+03 0.  0.
        998    1    1    2    0    0 -0.40812246754E+01 -0.29535814540E+00  0.13432989526E+04  0.13433424060E+04  0.10000000000E+02 0.  1.
</event>
<event>
 5    1  0.1146201E-008  0.3835279E+03  0.7957747E-01  0.3435939E+00
         13   -1    0    0    0    0  0.00000000000E+00  0.00000000000E+00  0.14999999963E+04  0.15000000000E+04  0.10566000000E+00 0. -1.
        994   -1    0    0    0    0 -0.00000000000E+00 -0.00000000000E+00  0.11368683772E-12  0.17120000000E+03  0.17120000000E+03 0.  0.
         13    1    1    2    0    0  0.68453107568E+01 -0.97925315087E+01  0.29286388732E+02  0.31629980742E+02  0.10566000000E+00 0. -1.
        994    1    1    2    0    0 -0.33238973957E+01  0.96738436230E+01  0.27085733334E+01  0.17152669738E+03  0.17120000000E+03 0.  0.
        998    1    1    2    0    0 -0.35214133611E+01  0.11868788576E+00  0.14680050342E+04  0.14680433219E+04  0.10000000000E+02 0. -1.
</event>
<event>
 5    1  0.1146201E-008  0.3795573E+03  0.7957747E-01  0.3453088E+00
         13   -1    0    0    0    0  0.00000000000E+00  0.00000000000E+00  0.14999999963E+04  0.15000000000E+04  0.10566000000E+00 0.  1.
        994   -1    0    0    0    0 -0.00000000000E+00 -0.00000000000E+00  0.11368683772E-12  0.17120000000E+03  0.17120000000E+03 0.  0.
         13    1    1    2    0    0 -0.43953325321E+02 -0.24653123992E+02  0.26104696529E+03  0.26586688507E+03  0.10566000000E+00 0.  1.
        994    1    1    2    0    0  0.32327067122E+02  0.27343156022E+02  0.10381832775E+02  0.17666326698E+03  0.17120000000E+03 0.  0.
        998    1    1    2    0    0  0.11626258199E+02 -0.26900320294E+01  0.12285711982E+04  0.12286698479E+04  0.10000000000E+02 0.  1.
</event>
<event>
 5    1  0.1146201E-008  0.3835895E+03  0.7957747E-01  0.3435677E+00
         13   -1    0    0    0    0  0.00000000000E+00  0.00000000000E+00  0.14999999963E+04  0.15000000000E+04  0.10566000000E+00 0. -1.
        994   -1    0    0    0    0 -0.00000000000E+00 -0.00000000000E+00  0.11368683772E-12  0.17120000000E+03  0.17120000000E+03 0.  0.
         13    1    1    2    0    0  0.14132868382E+02 -0.17594898575E+02  0.98660772053E+02  0.10120907830E+03  0.10566000000E+00 0. -1.
        994    1    1    2    0    0 -0.10735503694E+02  0.28512250778E+02  0.54046479347E+01  0.17397370406E+03  0.17120000000E+03 0.  0.
        998    1    1    2    0    0 -0.33973646878E+01 -0.10917352203E+02  0.13959345763E+04  0.13960172176E+04  0.10000000000E+02 0. -1.
</event>
<event>
 5    1  0.1146201E-008  0.3754293E+03  0.7957747E-01  0.3471305E+00
         13   -1    0    0    0    0  0.00000000000E+00  0.00000000000E+00  0.14999999963E+04  0.15000000000E+04  0.10566000000E+00 0.  1.
        994   -1    0    0    0    0 -0.00000000000E+00 -0.00000000000E+00  0.11368683772E-12  0.17120000000E+03  0.17120000000E+03 0.  0.
         13    1    1    2    0    0  0.13129841319E+02 -0.20215488448E+02  0.41900030291E+02  0.48339242947E+02  0.10566000000E+00 0.  1.
        994    1    1    2    0    0 -0.12584188147E+02  0.15929833051E+02  0.78585615522E+01  0.17257844119E+03  0.17120000000E+03 0.  0.
        998    1    1    2    0    0 -0.54565317209E+00  0.42856553972E+01  0.14502414044E+04  0.14502823159E+04  0.10000000000E+02 0.  1.
</event>
<event>
 5    1  0.1146201E-008  0.3823481E+03  0.7957747E-01  0.3440998E+00
         13   -1    0    0    0    0  0.00000000000E+00  0.00000000000E+00  0.14999999963E+04  0.15000000000E+04  0.10566000000E+00 0. -1.
        994   -1    0    0    0    0 -0.00000000000E+00 -0.00000000000E+00  0.11368683772E-12  0.17120000000E+03  0.17120000000E+03 0.  0.
         13    1    1    2    0    0  0.10010996961E+02 -0.22545290170E+02  0.98332118233E+02  0.10137912413E+03  0.10566000000E+00 0. -1.
        994    1    1    2    0    0 -0.11661841233E+02  0.18491799254E+02  0.45395586458E+01  0.17264991391E+03  0.17120000000E+03 0.  0.
        998    1    1    2    0    0  0.16508442723E+01  0.40534909161E+01  0.13971283194E+04  0.13971709620E+04  0.10000000000E+02 0. -1.
</event>
<event>
 5    1  0.1146201E-008  0.2875566E+03  0.7957747E-01  0.3989064E+00
         13   -1    0    0    0    0  0.00000000000E+00  0.00000000000E+00  0.14999999963E+04  0.15000000000E+04  0.10566000000E+00 0.  1.
        994   -1    0    0    0    0 -0.00000000000E+00 -0.00000000000E+00  0.11368683772E-12  0.17120000000E+03  0.17120000000E+03 0.  0.
         13    1    1    2    0    0 -0.25858283616E+02 -0.11868723970E+03  0.72838315477E+03  0.73844251165E+03  0.10566000000E+00 0.  1.
        994    1    1    2    0    0  0.11744986876E+03  0.40028258916E+02  0.72955666011E+02  0.22367096903E+03  0.17120000000E+03 0.  0.
        998    1    1    2    0    0 -0.91591585149E+02  0.78658980781E+02  0.69866117550E+03  0.70908651932E+03  0.10000000000E+02 0.  1.
</event>
<event>
 5    1  0.1146201E-008  0.3773093E+03  0.7957747E-01  0.3462959E+00
         13   -1    0    0    0    0  0.00000000000E+00  0.00000000000E+00  0.14999999963E+04  0.15000000000E+04  0.10566000000E+00 0. -1.
        994   -1    0    0    0    0 -0.00000000000E+00 -0.00000000000E+00  0.11368683772E-12  0.17120000000E+03  0.17120000000E+03 0.  0.
         13    1    1    2    0    0 -0.27607990178E+02  0.49571543975E+02  0.22748183874E+03  0.23445156688E+03  0.10566000000E+00 0. -1.
        994    1    1    2    0    0  0.26393577918E+02 -0.64306042388E+02  0.21972689662E+02  0.18607559521E+03  0.17120000000E+03 0.  0.
        998    1    1    2    0    0  0.12144122594E+01  0.14734498413E+02  0.12505454679E+04  0.12506728379E+04  0.10000000000E+02 0. -1.
</event>
<event>
 5    1  0.1146201E-008  0.3848538E+03  0.7957747E-01  0.3430293E+00
         13   -1    0    0    0    0  0.00000000000E+00  0.00000000000E+00  0.14999999963E+04  0.15000000000E+04  0.10566000000E+00 0.  1.
        994   -1    0    0    0    0 -0.00000000000E+00 -0.00000000000E+00  0.11368683772E-12  0.17120000000E+03  0.17120000000E+03 0.  0.
         13    1    1    2    0    0 -0.95262271321E+01  0.43726090885E+01  0.31664086610E+02  0.33354074092E+02  0.10566000000E+00 0.  1.
        994    1    1    2    0    0  0.90846274272E+01 -0.28803555329E+01  0.20016511453E+01  0.17147674335E+03  0.17120000000E+03 0.  0.
        998    1    1    2    0    0  0.44159970491E+00 -0.14922535556E+01  0.14663342585E+04  0.14663691826E+04  0.10000000000E+02 0.  1.
</event>
<event>
 5    1  0.1146201E-008  0.3806725E+03  0.7957747E-01  0.3448236E+00
         13   -1    0    0    0    0  0.00000000000E+00  0.00000000000E+00  0.14999999963E+04  0.15000000000E+04  0.10566000000E+00 0.  1.
        994   -1    0    0    0    0 -0.00000000000E+00 -0.00000000000E+00  0.11368683772E-12  0.17120000000E+03  0.17120000000E+03 0.  0.
         13    1    1    2    0    0  0.59967113150E+01 -0.37659727723E+02  0.16728588285E+03  0.17157736857E+03  0.10566000000E+00 0.  1.
        994    1    1    2    0    0 -0.45356463522E+01  0.40948598589E+02  0.94764503362E+01  0.17634228910E+03  0.17120000000E+03 0.  0.
        998    1    1    2    0    0 -0.14610649628E+01 -0.32888708659E+01  0.13232376631E+04  0.13232803423E+04  0.10000000000E+02 0.  1.
</event>
<event>
 5    1  0.1146201E-008  0.3807093E+03  0.7957747E-01  0.3448076E+00
         13   -1    0    0    0    0  0.00000000000E+00  0.00000000000E+00  0.14999999963E+04  0.15000000000E+04  0.10566000000E+00 0.  1.
        994   -1    0    0    0    0 -0.00000000000E+00 -0.00000000000E+00  0.11368683772E-12  0.17120000000E+03  0.17120000000E+03 0.  0.
         13    1    1    2    0    0  0.62443613007E+02  0.43544126587E+02  0.44679031129E+03  0.45322940018E+03  0.10566000000E+00 0.  1.
        994    1    1    2    0    0 -0.75885218105E+02 -0.49629844663E+02  0.31700612879E+02  0.19630602809E+03  0.17120000000E+03 0.  0.
        998    1    1    2    0    0  0.13441605097E+02  0.60857180763E+01  0.10215090721E+04  0.10216645717E+04  0.10000000000E+02 0.  1.
</event>
<event>
 5    1  0.1146201E-008  0.3805105E+03  0.7957747E-01  0.3448939E+00
         13   -1    0    0    0    0  0.00000000000E+00  0.00000000000E+00  0.14999999963E+04  0.15000000000E+04  0.10566000000E+00 0.  1.
        994   -1    0    0    0    0 -0.00000000000E+00 -0.00000000000E+00  0.11368683772E-12  0.17120000000E+03  0.17120000000E+03 0.  0.
         13    1    1    2    0    0 -0.27832216192E+02  0.62524782804E+01  0.85123090915E+02  0.89775706701E+02  0.10566000000E+00 0.  1.
        994    1    1    2    0    0  0.54530562927E+02 -0.24209409873E+02  0.15848058840E+02  0.18198977660E+03  0.17120000000E+03 0.  0.
        998    1    1    2    0    0 -0.26698346735E+02  0.17956931592E+02  0.13990288465E+04  0.13994345167E+04  0.10000000000E+02 0.  1.
</event>
<event>
 5    1  0.1146201E-008  0.3812350E+03  0.7957747E-01  0.3445799E+00
         13   -1    0    0    0    0  0.00000000000E+00  0.00000000000E+00  0.14999999963E+04  0.15000000000E+04  0.10566000000E+00 0.  1.
        994   -1    0    0    0    0 -0.00000000000E+00 -0.00000000000E+00  0.11368683772E-12  0.17120000000E+03  0.17120000000E+03 0.  0.
         13    1    1    2    0    0  0.20077588771E+02 -0.16907246688E+02  0.94870877729E+02  0.98435050498E+02  0.10566000000E+00 0.  1.
        994    1    1    2    0    0 -0.14266644877E+02  0.14302540973E+02  0.48709175752E+01  0.17245656170E+03  0.17120000000E+03 0.  0.
        998    1    1    2    0    0 -0.58109438936E+01  0.26047057144E+01  0.14002582010E+04  0.14003083878E+04  0.10000000000E+02 0.  1.
</event>
<event>
 5    1  0.1146201E-008  0.3846281E+03  0.7957747E-01  0.3431251E+00
         13   -1    0    0    0    0  0.00000000000E+00  0.00000000000E+00  0.14999999963E+04  0.15000000000E+04  0.10566000000E+00 0.  1.
        994   -1    0    0    0    0 -0.00000000000E+00 -0.00000000000E+00  0.11368683772E-12  0.17120000000E+03  0.17120000000E+03 0.  0.
         13    1    1    2    0    0  0.16753978911E+01 -0.13822272404E+02  0.52358980056E+02  0.54178742410E+02  0.10566000000E+00 0.  1.
        994    1    1    2    0    0  0.14138144251E+01  0.12454565843E+02  0.23323971615E+01  0.17167409577E+03  0.17120000000E+03 0.  0.
        998    1    1    2    0    0 -0.30892123162E+01  0.13677065612E+01  0.14453086191E+04  0.14453471618E+04  0.10000000000E+02 0.  1.
</event>
<event>
 5    1  0.2538630E-008  0.3863477E+03  0.7957747E-01  0.3423976E+00
         13   -1    0    0    0    0  0.00000000000E+00  0.00000000000E+00  0.14999999963E+04  0.15000000000E+04  0.10566000000E+00 0.  1.
        994   -1    0    0    0    0 -0.00000000000E+00 -0.00000000000E+00  0.11368683772E-12  0.17120000000E+03  0.17120000000E+03 0.  0.
         13    1    1    2    0    0 -0.97919178470E+01  0.23347180608E+01  0.53186673917E+02  0.54131007841E+02  0.10566000000E+00 0.  1.
        994    1    1    2    0    0  0.71912508314E+01 -0.38254001920E+01  0.11797478459E+01  0.17139772338E+03  0.17120000000E+03 0.  0.
        998    1    1    2    0    0  0.26006670156E+01  0.14906821312E+01  0.14456335745E+04  0.14456712688E+04  0.10000000000E+02 0.  1.
</event>
<event>
 5    1  0.1146201E-008  0.3838620E+03  0.7957747E-01  0.3434513E+00
         13   -1    0    0    0    0  0.00000000000E+00  0.00000000000E+00  0.14999999963E+04  0.15000000000E+04  0.10566000000E+00 0.  1.
        994   -1    0    0    0    0 -0.00000000000E+00 -0.00000000000E+00  0.11368683772E-12  0.17120000000E+03  0.17120000000E+03 0.  0.
         13    1    1    2    0    0 -0.89230551017E+01 -0.11310675986E+02  0.46732367345E+02  0.48902736378E+02  0.10566000000E+00 0.  1.
        994    1    1    2    0    0  0.66215828753E+01  0.69440728341E+01  0.25001239582E+01  0.17148689783E+03  0.17120000000E+03 0.  0.
        998    1    1    2    0    0  0.23014722264E+01  0.43666031515E+01  0.14507675050E+04  0.14508103658E+04  0.10000000000E+02 0.  1.
</event>
<event>
 5    1  0.1146201E-008  0.3801975E+03  0.7957747E-01  0.3450299E+00
         13   -1    0    0    0    0  0.00000000000E+00  0.00000000000E+00  0.14999999963E+04  0.15000000000E+04  0.10566000000E+00 0. -1.
        994   -1    0    0    0    0 -0.00000000000E+00 -0.00000000000E+00  0.11368683772E-12  0.17120000000E+03  0.17120000000E+03 0.  0.
         13    1    1    2    0    0 -0.29044161529E+02 -0.17851572341E+02  0.15545009411E+03  0.15914454083E+03  0.10566000000E+00 0. -1.
        994    1    1    2    0    0  0.43729570384E+01  0.64901695376E+01  0.42380984798E+01  0.17143117141E+03  0.17120000000E+03 0.  0.
        998    1    1    2    0    0  0.24671204491E+02  0.11361402803E+02  0.13403118037E+04  0.13406242878E+04  0.10000000000E+02 0. -1.
</event>
<event>
 5    1  0.1146201E-008  0.3828376E+03  0.7957747E-01  0.3438895E+00
         13   -1    0    0    0    0  0.00000000000E+00  0.00000000000E+00  0.14999999963E+04  0.15000000000E+04  0.10566000000E+00 0.  1.
        994   -1    0    0    0    0 -0.00000000000E+00 -0.00000000000E+00  0.11368683772E-12  0.17120000000E+03  0.17120000000E+03 0.  0.
         13    1    1    2    0    0 -0.44615208978E+01 -0.19358316134E+02  0.74328530799E+02  0.76937580070E+02  0.10566000000E+00 0.  1.
        994    1    1    2    0    0  0.36506334569E+01  0.63156993542E+01  0.28838085648E+01  0.17137961237E+03  0.17120000000E+03 0.  0.
        998    1    1    2    0    0  0.81088744085E+00  0.13042616780E+02  0.14227876569E+04  0.14228828076E+04  0.10000000000E+02 0.  1.
</event>
<event>
 5    1  0.1146201E-008  0.3757053E+03  0.7957747E-01  0.3470075E+00
         13   -1    0    0    0    0  0.00000000000E+00  0.00000000000E+00  0.14999999963E+04  0.15000000000E+04  0.10566000000E+00 0.  1.
        994   -1    0    0    0    0 -0.00000000000E+00 -0.00000000000E+00  0.11368683772E-12  0.17120000000E+03  0.17120000000E+03 0.  0.
         13    1    1    2    0    0 -0.10732037959E+03 -0.57507348889E+02  0.71162746924E+03  0.72196843781E+03  0.10566000000E+00 0.  1.
        994    1    1    2    0    0  0.92108473060E+02  0.61264643047E+02  0.49015423353E+02  0.20964083339E+03  0.17120000000E+03 0.  0.
        998    1    1    2    0    0  0.15211906532E+02 -0.37572941585E+01  0.73935710368E+03  0.73959072880E+03  0.10000000000E+02 0.  0.
</event>
<event>
 5    1  0.1146201E-008  0.3833254E+03  0.7957747E-01  0.3436806E+00
         13   -1    0    0    0    0  0.00000000000E+00  0.00000000000E+00  0.14999999963E+04  0.15000000000E+04  0.10566000000E+00 0. -1.
        994   -1    0    0    0    0 -0.00000000000E+00 -0.00000000000E+00  0.11368683772E-12  0.17120000000E+03  0.17120000000E+03 0.  0.
         13    1    1    2    0    0 -0.12128650991E+02  0.10574300770E+02  0.52975901234E+02  0.55365849468E+02  0.10566000000E+00 0. -1.
        994    1    1    2    0    0 -0.24525557547E+01 -0.12272032625E+02  0.29818800578E+01  0.17168269984E+03  0.17120000000E+03 0.  0.
        998    1    1    2    0    0  0.14581206746E+02  0.16977318544E+01  0.14440422150E+04  0.14441514507E+04  0.10000000000E+02 0. -1.
</event>
<event>
 5    1  0.1146201E-008  0.3835303E+03  0.7957747E-01  0.3435929E+00
         13   -1    0    0    0    0  0.00000000000E+00  0.00000000000E+00  0.14999999963E+04  0.15000000000E+04  0.10566000000E+00 0.  1.
        994   -1    0    0    0    0 -0.00000000000E+00 -0.00000000000E+00  0.11368683772E-12  0.17120000000E+03  0.17120000000E+03 0.  0.
         13    1    1    2    0    0  0.11783245338E+01  0.10400861614E+02  0.22176706190E+02  0.24523128522E+02  0.10566000000E+00 0.  1.
        994    1    1    2    0    0  0.13608646767E+01 -0.10393654218E+02  0.27247518199E+01  0.17154225215E+03  0.17120000000E+03 0.  0.
        998    1    1    2    0    0 -0.25391892105E+01 -0.72073965602E-02  0.14750985383E+04  0.14751346193E+04  0.10000000000E+02 0.  1.
</event>
<event>
 5    1  0.1146201E-008  0.3762307E+03  0.7957747E-01  0.3467737E+00
         13   -1    0    0    0    0  0.00000000000E+00  0.00000000000E+00  0.14999999963E+04  0.15000000000E+04  0.10566000000E+00 0. -1.
        994   -1    0    0    0    0 -0.00000000000E+00 -0.00000000000E+00  0.11368683772E-12  0.17120000000E+03  0.17120000000E+03 0.  0.
         13    1    1    2    0    0 -0.12678423568E+02 -0.38548422650E+01  0.11552934318E+02  0.17580776105E+02  0.10566000000E+00 0. -1.
        994    1    1    2    0    0  0.16691054247E+02  0.12505696436E+02  0.75219751640E+01  0.17262967255E+03  0.17120000000E+03 0.  0.
        998    1    1    2    0    0 -0.40126306788E+01 -0.86508541712E+01  0.14809250868E+04  0.14809895513E+04  0.10000000000E+02 0. -1.
</event>
<event>
 5    1  0.1146201E-008  0.3809140E+03  0.7957747E-01  0.3447188E+00
         13   -1    0    0    0    0  0.00000000000E+00  0.00000000000E+00  0.14999999963E+04  0.15000000000E+04  0.10566000000E+00 0.  1.
        994   -1    0    0    0    0 -0.00000000000E+00 -0.00000000000E+00  0.11368683772E-12  0.17120000000E+03  0.17120000000E+03 0.  0.
         13    1    1    2    0    0 -0.42513367923E+01 -0.14436200892E+02  0.27291585949E+02  0.31166000519E+02  0.10566000000E+00 0.  1.
        994    1    1    2    0    0  0.36029739870E+02  0.24948460598E+02  0.10100071357E+02  0.17700852884E+03  0.17120000000E+03 0.  0.
        998    1    1    2    0    0 -0.31778403078E+02 -0.10512259707E+02  0.14626083390E+04  0.14630254706E+04  0.10000000000E+02 0.  1.
</event>
<event>
 5    1  0.1146201E-008  0.3836894E+03  0.7957747E-01  0.3435249E+00
         13   -1    0    0    0    0  0.00000000000E+00  0.00000000000E+00  0.14999999963E+04  0.15000000000E+04  0.10566000000E+00 0.  1.
        994   -1    0    0    0    0 -0.00000000000E+00 -0.00000000000E+00  0.11368683772E-12  0.17120000000E+03  0.17120000000E+03 0.  0.
         13    1    1    2    0    0 -0.23639553875E+02 -0.23985942207E+02  0.19953833471E+03  0.20236035213E+03  0.10566000000E+00 0.  1.
        994    1    1    2    0    0  0.17572752672E+02  0.44002600606E+02  0.97323941618E+01  0.17790219221E+03  0.17120000000E+03 0.  0.
        998    1    1    2    0    0  0.60668012030E+01 -0.20016658399E+02  0.12907292674E+04  0.12909374557E+04  0.10000000000E+02 0.  1.
</event>
<event>
 5    1  0.1146201E-008  0.3786079E+03  0.7957747E-01  0.3457242E+00
         13   -1    0    0    0    0  0.00000000000E+00  0.00000000000E+00  0.14999999963E+04  0.15000000000E+04  0.10566000000E+00 0. -1.
        994   -1    0    0    0    0 -0.00000000000E+00 -0.00000000000E+00  0.11368683772E-12  0.17120000000E+03  0.17120000000E+03 0.  0.
         13    1    1    2    0    0 -0.37118332578E+01 -0.11959669514E+02  0.14007673478E+02  0.18789291666E+02  0.10566000000E+00 0. -1.
        994    1    1    2    0    0  0.27089871617E+01  0.11328120560E+02  0.52932376120E+01  0.17167738142E+03  0.17120000000E+03 0.  0.
        998    1    1    2    0    0  0.10028460961E+01  0.63154895382E+00  0.14806990852E+04  0.14807333269E+04  0.10000000000E+02 0. -1.
</event>
<event>
 5    1  0.1146201E-008  0.3802299E+03  0.7957747E-01  0.3450158E+00
         13   -1    0    0    0    0  0.00000000000E+00  0.00000000000E+00  0.14999999963E+04  0.15000000000E+04  0.10566000000E+00 0.  1.
        994   -1    0    0    0    0 -0.00000000000E+00 -0.00000000000E+00  0.11368683772E-12  0.17120000000E+03  0.17120000000E+03 0.  0.
         13    1    1    2    0    0  0.64030597767E+01  0.15949629633E+02  0.34956518610E+02  0.38953295333E+02  0.10566000000E+00 0.  1.
        994    1    1    2    0    0 -0.17321722381E+02 -0.78914965896E+01  0.52283428942E+01  0.17233424893E+03  0.17120000000E+03 0.  0.
        998    1    1    2    0    0  0.10918662604E+02 -0.80581330434E+01  0.14598151348E+04  0.14599124557E+04  0.10000000000E+02 0.  1.
</event>
<event>
 5    1  0.1146201E-008  0.3804561E+03  0.7957747E-01  0.3449175E+00
         13   -1    0    0    0    0  0.00000000000E+00  0.00000000000E+00  0.14999999963E+04  0.15000000000E+04  0.10566000000E+00 0.  1.
        994   -1    0    0    0    0 -0.00000000000E+00 -0.00000000000E+00  0.11368683772E-12  0.17120000000E+03  0.17120000000E+03 0.  0.
         13    1    1    2    0    0  0.69904637954E+02 -0.41662798490E-01  0.13059861000E+03  0.14813057835E+03  0.10566000000E+00 0.  1.
        994    1    1    2    0    0 -0.68990272531E+02  0.10188825638E+02  0.34450096427E+02  0.18804180125E+03  0.17120000000E+03 0.  0.
        998    1    1    2    0    0 -0.91436542315E+00 -0.10147162840E+02  0.13349512898E+04  0.13350276204E+04  0.10000000000E+02 0.  1.
</event>
<event>
 5    1  0.1146201E-008  0.3751869E+03  0.7957747E-01  0.3472387E+00
         13   -1    0    0    0    0  0.00000000000E+00  0.00000000000E+00  0.14999999963E+04  0.15000000000E+04  0.10566000000E+00 0.  1.
        994   -1    0    0    0    0 -0.00000000000E+00 -0.00000000000E+00  0.11368683772E-12  0.17120000000E+03  0.17120000000E+03 0.  0.
         13    1    1    2    0    0 -0.27136160349E+02 -0.37305003563E+01  0.21137920658E+02  0.34599287351E+02  0.10566000000E+00 0.  1.
        994    1    1    2    0    0  0.30030617808E+02  0.49561206571E+01  0.17013895091E+02  0.17471495003E+03  0.17120000000E+03 0.  0.
        998    1    1    2    0    0 -0.28944574590E+01 -0.12256203008E+01  0.14618481805E+04  0.14618857626E+04  0.10000000000E+02 0.  1.
</event>
<event>
 5    1  0.1146201E-008  0.3821182E+03  0.7957747E-01  0.3441987E+00
         13   -1    0    0    0    0  0.00000000000E+00  0.00000000000E+00  0.14999999963E+04  0.15000000000E+04  0.10566000000E+00 0.  1.
        994   -1    0    0    0    0 -0.00000000000E+00 -0.00000000000E+00  0.11368683772E-12  0.17120000000E+03  0.17120000000E+03 0.  0.
         13    1    1    2    0    0  0.84421077818E+01 -0.11709048298E+02  0.33982187308E+02  0.36921148602E+02  0.10566000000E+00 0.  1.
        994    1    1    2    0    0 -0.11400154132E+02 -0.76579685358E+01  0.36940603690E+01  0.17178967978E+03  0.17120000000E+03 0.  0.
        998    1    1    2    0    0  0.29580463507E+01  0.19367016834E+02  0.14623237486E+04  0.14624891716E+04  0.10000000000E+02 0.  1.
</event>
<event>
 5    1  0.1146201E-008  0.3822904E+03  0.7957747E-01  0.3441246E+00
         13   -1    0    0    0    0  0.00000000000E+00  0.00000000000E+00  0.14999999963E+04  0.15000000000E+04  0.10566000000E+00 0. -1.
        994   -1    0    0    0    0 -0.00000000000E+00 -0.00000000000E+00  0.11368683772E-12  0.17120000000E+03  0.17120000000E+03 0.  0.
         13    1    1    2    0    0  0.29288855633E+02 -0.17948532147E+02  0.20436474218E+03  0.20723162375E+03  0.10566000000E+00 0. -1.
        994    1    1    2    0    0 -0.16416635761E+02  0.34447153625E+01  0.39154937790E+01  0.17206435739E+03  0.17120000000E+03 0.  0.
        998    1    1    2    0    0 -0.12872219871E+02  0.14503816784E+02  0.12917197603E+04  0.12919040189E+04  0.10000000000E+02 0. -1.
</event>
<event>
 5    1  0.1146201E-008  0.3975415E+03  0.7957747E-01  0.3378163E+00
         13   -1    0    0    0    0  0.00000000000E+00  0.00000000000E+00  0.14999999963E+04  0.15000000000E+04  0.10566000000E+00 0.  1.
        994   -1    0    0    0    0 -0.00000000000E+00 -0.00000000000E+00  0.11368683772E-12  0.17120000000E+03  0.17120000000E+03 0.  0.
         13    1    1    2    0    0  0.46772035765E+02  0.52691361886E+02  0.81406920830E+02  0.10766197504E+03  0.10566000000E+00 0.  1.
        994    1    1    2    0    0 -0.58117232663E+02 -0.42025787315E+02  0.46541666514E+02  0.19136182026E+03  0.17120000000E+03 0.  0.
        998    1    1    2    0    0  0.11345196898E+02 -0.10665574571E+02  0.13720514089E+04  0.13721762047E+04  0.10000000000E+02 0.  1.
</event>
<event>
 5    1  0.1146201E-008  0.3745786E+03  0.7957747E-01  0.3475110E+00
         13   -1    0    0    0    0  0.00000000000E+00  0.00000000000E+00  0.14999999963E+04  0.15000000000E+04  0.10566000000E+00 0. -1.
        994   -1    0    0    0    0 -0.00000000000E+00 -0.00000000000E+00  0.11368683772E-12  0.17120000000E+03  0.17120000000E+03 0.  0.
         13    1    1    2    0    0  0.17403203430E+02 -0.59220385117E+00  0.53047539810E+01  0.18203674735E+02  0.10566000000E+00 0. -1.
        994    1    1    2    0    0 -0.14212480131E+02  0.70639053850E+01  0.14276036488E+02  0.17252576204E+03  0.17120000000E+03 0.  0.
        998    1    1    2    0    0 -0.31907232982E+01 -0.64717015339E+01  0.14804192058E+04  0.14804705632E+04  0.10000000000E+02 0. -1.
</event>
<event>
 5    1  0.1146201E-008  0.3712871E+03  0.7957747E-01  0.3489997E+00
         13   -1    0    0    0    0  0.00000000000E+00  0.00000000000E+00  0.14999999963E+04  0.15000000000E+04  0.10566000000E+00 0. -1.
        994   -1    0    0    0    0 -0.00000000000E+00 -0.00000000000E+00  0.11368683772E-12  0.17120000000E+03  0.17120000000E+03 0.  0.
         13    1    1    2    0    0 -0.64914412461E+01 -0.12938140630E+02  0.30649221086E+01  0.14796594337E+02  0.10566000000E+00 0. -1.
        994    1    1    2    0    0  0.34359736217E+02  0.43946162723E+02  0.22630667728E+02  0.18147573891E+03  0.17120000000E+03 0.  0.
        998    1    1    2    0    0 -0.27868294971E+02 -0.31008022093E+02  0.14743044064E+04  0.14749276668E+04  0.10000000000E+02 0. -1.
</event>
<event>
 5    1  0.1146201E-008  0.3842086E+03  0.7957747E-01  0.3433036E+00
         13   -1    0    0    0    0  0.00000000000E+00  0.00000000000E+00  0.14999999963E+04  0.15000000000E+04  0.10566000000E+00 0. -1.
        994   -1    0    0    0    0 -0.00000000000E+00 -0.00000000000E+00  0.11368683772E-12  0.17120000000E+03  0.17120000000E+03 0.  0.
         13    1    1    2    0    0 -0.13403327039E+02  0.54481880253E+01  0.52078139046E+02  0.54050676767E+02  0.10566000000E+00 0. -1.
        994    1    1    2    0    0  0.53689927612E+01 -0.49266270278E+01  0.21986461377E+01  0.17136910977E+03  0.17120000000E+03 0.  0.
        998    1    1    2    0    0  0.80343342776E+01 -0.52156099751E+00  0.14457232111E+04  0.14457802135E+04  0.10000000000E+02 0. -1.
</event>
<event>
 5    1  0.1146201E-008  0.3706065E+03  0.7957747E-01  0.3493108E+00
         13   -1    0    0    0    0  0.00000000000E+00  0.00000000000E+00  0.14999999963E+04  0.15000000000E+04  0.10566000000E+00 0.  1.
        994   -1    0    0    0    0 -0.00000000000E+00 -0.00000000000E+00  0.11368683772E-12  0.17120000000E+03  0.17120000000E+03 0.  0.
         13    1    1    2    0    0  0.22287347875E+02 -0.25437128108E+02  0.51470948169E+02  0.61587685710E+02  0.10566000000E+00 0.  1.
        994    1    1    2    0    0  0.11009043577E+02 -0.97254518844E+01  0.12016215718E+02  0.17224869490E+03  0.17120000000E+03 0.  0.
        998    1    1    2    0    0 -0.33296391453E+02  0.35162579993E+02  0.14365128324E+04  0.14373636194E+04  0.10000000000E+02 0.  1.
</event>
<event>
 5    1  0.1146201E-008  0.3835772E+03  0.7957747E-01  0.3435729E+00
         13   -1    0    0    0    0  0.00000000000E+00  0.00000000000E+00  0.14999999963E+04  0.15000000000E+04  0.10566000000E+00 0. -1.
        994   -1    0    0    0    0 -0.00000000000E+00 -0.00000000000E+00  0.11368683772E-12  0.17120000000E+03  0.17120000000E+03 0.  0.
         13    1    1    2    0    0 -0.10299710733E+02 -0.46253672378E+01  0.26445963045E+02  0.28755489714E+02  0.10566000000E+00 0. -1.
        994    1    1    2    0    0  0.37576298693E+01  0.12258496434E+02  0.28815003058E+01  0.17170362128E+03  0.17120000000E+03 0.  0.
        998    1    1    2    0    0  0.65420808633E+01 -0.76331291958E+01  0.14706725329E+04  0.14707408890E+04  0.10000000000E+02 0. -1.
</event>
<event>
 5    1  0.1146201E-008  0.3851862E+03  0.7957747E-01  0.3428883E+00
         13   -1    0    0    0    0  0.00000000000E+00  0.00000000000E+00  0.14999999963E+04  0.15000000000E+04  0.10566000000E+00 0.  1.
        994   -1    0    0    0    0 -0.00000000000E+00 -0.00000000000E+00  0.11368683772E-12  0.17120000000E+03  0.17120000000E+03 0.  0.
         13    1    1    2    0    0  0.61764845347E+01 -0.11521372292E+02  0.51965773645E+02  0.53584921156E+02  0.10566000000E+00 0.  1.
        994    1    1    2    0    0 -0.93536471191E+01  0.18294357871E+02  0.29265171873E+01  0.17245341037E+03  0.17120000000E+03 0.  0.
        998    1    1    2    0    0  0.31771625844E+01 -0.67729855785E+01  0.14451077054E+04  0.14451616685E+04  0.10000000000E+02 0.  1.
</event>
<event>
 5    1  0.1146201E-008  0.3828309E+03  0.7957747E-01  0.3438924E+00
         13   -1    0    0    0    0  0.00000000000E+00  0.00000000000E+00  0.14999999963E+04  0.15000000000E+04  0.10566000000E+00 0.  1.
        994   -1    0    0    0    0 -0.00000000000E+00 -0.00000000000E+00  0.11368683772E-12  0.17120000000E+03  0.17120000000E+03 0.  0.
         13    1    1    2    0    0  0.13245325378E+01 -0.24642275102E+02  0.10857683468E+03  0.11134602059E+03  0.10566000000E+00 0.  1.
        994    1    1    2    0    0  0.90474915194E+01  0.19923175975E+02  0.42982140318E+01  0.17264618353E+03  0.17120000000E+03 0.  0.
        998    1    1    2    0    0 -0.10372024057E+02  0.47190991264E+01  0.13871249476E+04  0.13872077959E+04  0.10000000000E+02 0.  1.
</event>
<event>
 5    1  0.1146201E-008  0.3764365E+03  0.7957747E-01  0.3466823E+00
         13   -1    0    0    0    0  0.00000000000E+00  0.00000000000E+00  0.14999999963E+04  0.15000000000E+04  0.10566000000E+00 0. -1.
        994   -1    0    0    0    0 -0.00000000000E+00 -0.00000000000E+00  0.11368683772E-12  0.17120000000E+03  0.17120000000E+03 0.  0.
         13    1    1    2    0    0  0.40901267424E+02 -0.19643600722E+02  0.19995261660E+03  0.20503620357E+03  0.10566000000E+00 0. -1.
        994    1    1    2    0    0 -0.15152290804E+02 -0.24196505984E+02  0.87050468276E+01  0.17378227947E+03  0.17120000000E+03 0.  0.
        998    1    1    2    0    0 -0.25748976620E+02  0.43840106706E+02  0.12913423329E+04  0.12923815170E+04  0.10000000000E+02 0. -1.
</event>
<event>
 5    1  0.1146201E-008  0.3745457E+03  0.7957747E-01  0.3475257E+00
         13   -1    0    0    0    0  0.00000000000E+00  0.00000000000E+00  0.14999999963E+04  0.15000000000E+04  0.10566000000E+00 0.  1.
        994   -1    0    0    0    0 -0.00000000000E+00 -0.00000000000E+00  0.11368683772E-12  0.17120000000E+03  0.17120000000E+03 0.  0.
         13    1    1    2    0    0 -0.11604439731E+02 -0.72065529541E+01  0.10327073838E+02  0.17124749488E+02  0.10566000000E+00 0.  1.
        994    1    1    2    0    0  0.11593210975E+02  0.59446127273E+01  0.74902714762E+01  0.17185832865E+03  0.17120000000E+03 0.  0.
        998    1    1    2    0    0  0.11228755927E-01  0.12619402267E+01  0.14821826510E+04  0.14822169219E+04  0.10000000000E+02 0.  1.
</event>
<event>
 5    1  0.1146201E-008  0.3823454E+03  0.7957747E-01  0.3441009E+00
         13   -1    0    0    0    0  0.00000000000E+00  0.00000000000E+00  0.14999999963E+04  0.15000000000E+04  0.10566000000E+00 0. -1.
        994   -1    0    0    0    0 -0.00000000000E+00 -0.00000000000E+00  0.11368683772E-12  0.17120000000E+03  0.17120000000E+03 0.  0.
         13    1    1    2    0    0  0.18138887389E+02 -0.24772470498E+02  0.15701842667E+03  0.15999216233E+03  0.10566000000E+00 0. -1.
        994    1    1    2    0    0 -0.70120295471E+00  0.24023444284E+02  0.48723013573E+01  0.17294738183E+03  0.17120000000E+03 0.  0.
        998    1    1    2    0    0 -0.17437684434E+02  0.74902621446E+00  0.13381092683E+04  0.13382604558E+04  0.10000000000E+02 0. -1.
</event>
<event>
 5    1  0.1146201E-008  0.3763758E+03  0.7957747E-01  0.3467092E+00
         13   -1    0    0    0    0  0.00000000000E+00  0.00000000000E+00  0.14999999963E+04  0.15000000000E+04  0.10566000000E+00 0.  1.
        994   -1    0    0    0    0 -0.00000000000E+00 -0.00000000000E+00  0.11368683772E-12  0.17120000000E+03  0.17120000000E+03 0.  0.
         13    1    1    2    0    0 -0.34616785108E+02 -0.33513491390E+01  0.99044812621E+02  0.10497351772E+03  0.10566000000E+00 0.  1.
        994    1    1    2    0    0  0.20635025565E+02  0.92786832095E+01  0.77078382581E+01  0.17286049003E+03  0.17120000000E+03 0.  0.
        998    1    1    2    0    0  0.13981759543E+02 -0.59273340705E+01  0.13932473454E+04  0.13933659922E+04  0.10000000000E+02 0.  1.
</event>
<event>
 5    1  0.1146201E-008  0.3814684E+03  0.7957747E-01  0.3444789E+00
         13   -1    0    0    0    0  0.00000000000E+00  0.00000000000E+00  0.14999999963E+04  0.15000000000E+04  0.10566000000E+00 0.  1.
        994   -1    0    0    0    0 -0.00000000000E+00 -0.00000000000E+00  0.11368683772E-12  0.17120000000E+03  0.17120000000E+03 0.  0.
         13    1    1    2    0    0  0.21589862855E+02  0.17604159736E+02  0.11399584635E+03  0.11735029939E+03  0.10566000000E+00 0.  1.
        994    1    1    2    0    0 -0.12307631415E+02 -0.97481605550E+01  0.42142074879E+01  0.17197006708E+03  0.17120000000E+03 0.  0.
        998    1    1    2    0    0 -0.92822314406E+01 -0.78559991809E+01  0.13817899424E+04  0.13818796335E+04  0.10000000000E+02 0.  1.
</event>
<event>
 5    1  0.1146201E-008  0.3752694E+03  0.7957747E-01  0.3472019E+00
         13   -1    0    0    0    0  0.00000000000E+00  0.00000000000E+00  0.14999999963E+04  0.15000000000E+04  0.10566000000E+00 0.  1.
        994   -1    0    0    0    0 -0.00000000000E+00 -0.00000000000E+00  0.11368683772E-12  0.17120000000E+03  0.17120000000E+03 0.  0.
         13    1    1    2    0    0  0.15155510289E+03  0.20657660972E+02  0.85919954045E+03  0.87270816980E+03  0.10566000000E+00 0.  1.
        994    1    1    2    0    0 -0.13970169570E+03 -0.22472151914E+02  0.77893917089E+02  0.23536878237E+03  0.17120000000E+03 0.  0.
        998    1    1    2    0    0 -0.11853407183E+02  0.18144909411E+01  0.56290653874E+03  0.56312304783E+03  0.10000000000E+02 0.  0.
</event>
<event>
 5    1  0.1146201E-008  0.3809263E+03  0.7957747E-01  0.3447135E+00
         13   -1    0    0    0    0  0.00000000000E+00  0.00000000000E+00  0.14999999963E+04  0.15000000000E+04  0.10566000000E+00 0. -1.
        994   -1    0    0    0    0 -0.00000000000E+00 -0.00000000000E+00  0.11368683772E-12  0.17120000000E+03  0.17120000000E+03 0.  0.
         13    1    1    2    0    0 -0.30548687376E+02 -0.21022508398E+02  0.22146607714E+03  0.22454933233E+03  0.10566000000E+00 0. -1.
        994    1    1    2    0    0  0.95403060495E+01 -0.11086665384E+02  0.43795902322E+01  0.17187947056E+03  0.17120000000E+03 0.  0.
        998    1    1    2    0    0  0.21008381327E+02  0.32109173783E+02  0.12741543289E+04  0.12747711971E+04  0.10000000000E+02 0. -1.
</event>
<event>
 5    1  0.1146201E-008  0.3853156E+03  0.7957747E-01  0.3428335E+00
         13   -1    0    0    0    0  0.00000000000E+00  0.00000000000E+00  0.14999999963E+04  0.15000000000E+04  0.10566000000E+00 0. -1.
        994   -1    0    0    0    0 -0.00000000000E+00 -0.00000000000E+00  0.11368683772E-12  0.17120000000E+03  0.17120000000E+03 0.  0.
         13    1    1    2    0    0  0.14012179983E+00 -0.10572012241E+02  0.38224480959E+02  0.39659919132E+02  0.10566000000E+00 0. -1.
        994    1    1    2    0    0  0.74006282024E+01  0.58021814162E+01  0.17641035402E+01  0.17146715915E+03  0.17120000000E+03 0.  0.
        998    1    1    2    0    0 -0.75407500022E+01  0.47698308247E+01  0.14600114118E+04  0.14600729217E+04  0.10000000000E+02 0. -1.
</event>
<event>
 5    1  0.1146201E-008  0.3793226E+03  0.7957747E-01  0.3454113E+00
         13   -1    0    0    0    0  0.00000000000E+00  0.00000000000E+00  0.14999999963E+04  0.15000000000E+04  0.10566000000E+00 0.  1.
        994   -1    0    0    0    0 -0.00000000000E+00 -0.00000000000E+00  0.11368683772E-12  0.17120000000E+03  0.17120000000E+03 0.  0.
         13    1    1    2    0    0 -0.98841349423E+01 -0.13919554269E+02  0.30421828038E+02  0.34884794679E+02  0.10566000000E+00 0.  1.
        994    1    1    2    0    0  0.86324109419E+01  0.12717534632E+02  0.52674364666E+01  0.17196929986E+03  0.17120000000E+03 0.  0.
        998    1    1    2    0    0  0.12517240005E+01  0.12020196375E+01  0.14643107318E+04  0.14643459055E+04  0.10000000000E+02 0.  1.
</event>
<event>
 5    1  0.1146201E-008  0.3858083E+03  0.7957747E-01  0.3426252E+00
         13   -1    0    0    0    0  0.00000000000E+00  0.00000000000E+00  0.14999999963E+04  0.15000000000E+04  0.10566000000E+00 0.  1.
        994   -1    0    0    0    0 -0.00000000000E+00 -0.00000000000E+00  0.11368683772E-12  0.17120000000E+03  0.17120000000E+03 0.  0.
         13    1    1    2    0    0 -0.85033536529E+00 -0.13101336837E+02  0.68610295275E+02  0.69855220842E+02  0.10566000000E+00 0.  1.
        994    1    1    2    0    0 -0.16277512327E+01  0.12929932793E+02  0.17866400499E+01  0.17170458590E+03  0.17120000000E+03 0.  0.
        998    1    1    2    0    0  0.24780865979E+01  0.17140404346E+00  0.14296030610E+04  0.14296401933E+04  0.10000000000E+02 0.  0.
</event>
<event>
 5    1  0.1146201E-008  0.3848621E+03  0.7957747E-01  0.3430257E+00
         13   -1    0    0    0    0  0.00000000000E+00  0.00000000000E+00  0.14999999963E+04  0.15000000000E+04  0.10566000000E+00 0. -1.
        994   -1    0    0    0    0 -0.00000000000E+00 -0.00000000000E+00  0.11368683772E-12  0.17120000000E+03  0.17120000000E+03 0.  0.
         13    1    1    2    0    0  0.97390794301E+01 -0.38935448295E+01  0.31206005567E+02  0.32921654074E+02  0.10566000000E+00 0. -1.
        994    1    1    2    0    0 -0.11983357644E+02  0.68533628065E+01  0.23258592129E+01  0.17177141515E+03  0.17120000000E+03 0.  0.
        998    1    1    2    0    0  0.22442782144E+01 -0.29598179770E+01  0.14664681315E+04  0.14665069308E+04  0.10000000000E+02 0. -1.
</event>
<event>
 5    1  0.1146201E-008  0.3802020E+03  0.7957747E-01  0.3450279E+00
         13   -1    0    0    0    0  0.00000000000E+00  0.00000000000E+00  0.14999999963E+04  0.15000000000E+04  0.10566000000E+00 0. -1.
        994   -1    0    0    0    0 -0.00000000000E+00 -0.00000000000E+00  0.11368683772E-12  0.17120000000E+03  0.17120000000E+03 0.  0.
         13    1    1    2    0    0  0.91183379254E+01 -0.31844076544E+02  0.13845014667E+03  0.14235745001E+03  0.10566000000E+00 0. -1.
        994    1    1    2    0    0  0.86132900537E+01  0.18470379132E+02  0.54199578892E+01  0.17249394080E+03  0.17120000000E+03 0.  0.
        998    1    1    2    0    0 -0.17731627979E+02  0.13373697412E+02  0.13561298917E+04  0.13563486092E+04  0.10000000000E+02 0. -1.
</event>
<event>
 5    1  0.1146201E-008  0.3833387E+03  0.7957747E-01  0.3436748E+00
         13   -1    0    0    0    0  0.00000000000E+00  0.00000000000E+00  0.14999999963E+04  0.15000000000E+04  0.10566000000E+00 0. -1.
        994   -1    0    0    0    0 -0.00000000000E+00 -0.00000000000E+00  0.11368683772E-12  0.17120000000E+03  0.17120000000E+03 0.  0.
         13    1    1    2    0    0 -0.96932779665E+01  0.34189746916E+02  0.19455858672E+03  0.19777753478E+03  0.10566000000E+00 0. -1.
        994    1    1    2    0    0  0.78987687047E+02 -0.40433180804E+02  0.28942486586E+02  0.19498975446E+03  0.17120000000E+03 0.  0.
        998    1    1    2    0    0 -0.69294409080E+02  0.62434338878E+01  0.12764989230E+04  0.12784327108E+04  0.10000000000E+02 0. -1.
</event>
<event>
 5    1  0.1146201E-008  0.3893675E+03  0.7957747E-01  0.3411358E+00
         13   -1    0    0    0    0  0.00000000000E+00  0.00000000000E+00  0.14999999963E+04  0.15000000000E+04  0.10566000000E+00 0.  1.
        994   -1    0    0    0    0 -0.00000000000E+00 -0.00000000000E+00  0.11368683772E-12  0.17120000000E+03  0.17120000000E+03 0.  0.
         13    1    1    2    0    0 -0.13853504031E+03 -0.34612444482E+02  0.51334585961E+03  0.53283577343E+03  0.10566000000E+00 0.  1.
        994    1    1    2    0    0  0.64368327588E+02  0.40360584108E+02  0.43575225726E+02  0.19230314257E+03  0.17120000000E+03 0.  0.
        998    1    1    2    0    0  0.74166712723E+02 -0.57481396264E+01  0.94307891094E+03  0.94606108399E+03  0.10000000000E+02 0.  1.
</event>
<event>
 5    1  0.1146201E-008  0.3726130E+03  0.7957747E-01  0.3483967E+00
         13   -1    0    0    0    0  0.00000000000E+00  0.00000000000E+00  0.14999999963E+04  0.15000000000E+04  0.10566000000E+00 0.  1.
        994   -1    0    0    0    0 -0.00000000000E+00 -0.00000000000E+00  0.11368683772E-12  0.17120000000E+03  0.17120000000E+03 0.  0.
         13    1    1    2    0    0  0.49975183800E+02  0.30751917027E+02  0.30607572818E+03  0.31164974240E+03  0.10566000000E+00 0.  1.
        994    1    1    2    0    0  0.93927652924E+01  0.97011615873E+01  0.85346871896E+01  0.17194364618E+03  0.17120000000E+03 0.  0.
        998    1    1    2    0    0 -0.59367949092E+02 -0.40453078615E+02  0.11853895809E+04  0.11876066114E+04  0.10000000000E+02 0.  1.
</event>
<event>
 5    1  0.1146201E-008  0.3815727E+03  0.7957747E-01  0.3444339E+00
         13   -1    0    0    0    0  0.00000000000E+00  0.00000000000E+00  0.14999999963E+04  0.15000000000E+04  0.10566000000E+00 0.  1.
        994   -1    0    0    0    0 -0.00000000000E+00 -0.00000000000E+00  0.11368683772E-12  0.17120000000E+03  0.17120000000E+03 0.  0.
         13    1    1    2    0    0 -0.27667429692E+01  0.97323938270E+01  0.14050825364E+02  0.17315057427E+02  0.10566000000E+00 0.  1.
        994    1    1    2    0    0  0.67527433408E+01 -0.16702210725E+01  0.35022923712E+01  0.17137705574E+03  0.17120000000E+03 0.  0.
        998    1    1    2    0    0 -0.39860003715E+01 -0.80621727545E+01  0.14824468785E+04  0.14825078868E+04  0.10000000000E+02 0.  1.
</event>
<event>
 5    1  0.1443935E-008  0.3863461E+03  0.7957747E-01  0.3423983E+00
         13   -1    0    0    0    0  0.00000000000E+00  0.00000000000E+00  0.14999999963E+04  0.15000000000E+04  0.10566000000E+00 0.  1.
        994   -1    0    0    0    0 -0.00000000000E+00 -0.00000000000E+00  0.11368683772E-12  0.17120000000E+03  0.17120000000E+03 0.  0.
         13    1    1    2    0    0  0.28733575043E+01 -0.10291879495E+02  0.61061461954E+02  0.61989452868E+02  0.10566000000E+00 0.  1.
        994    1    1    2    0    0  0.56677638871E+01  0.75918394035E+01  0.12572275034E+01  0.17146655707E+03  0.17120000000E+03 0.  0.
        998    1    1    2    0    0 -0.85411213914E+01  0.27000400918E+01  0.14376813068E+04  0.14377439901E+04  0.10000000000E+02 0.  1.
</event>
<event>
 5    1  0.1146201E-008  0.3860692E+03  0.7957747E-01  0.3425150E+00
         13   -1    0    0    0    0  0.00000000000E+00  0.00000000000E+00  0.14999999963E+04  0.15000000000E+04  0.10566000000E+00 0. -1.
        994   -1    0    0    0    0 -0.00000000000E+00 -0.00000000000E+00  0.11368683772E-12  0.17120000000E+03  0.17120000000E+03 0.  0.
         13    1    1    2    0    0  0.76680888537E+01  0.96971579766E+01  0.67687634004E+02  0.68807422714E+02  0.10566000000E+00 0. -1.
        994    1    1    2    0    0 -0.64704481250E+01 -0.11688761818E+02  0.16854034202E+01  0.17172878162E+03  0.17120000000E+03 0.  0.
        998    1    1    2    0    0 -0.11976407287E+01  0.19916038416E+01  0.14306269589E+04  0.14306637957E+04  0.10000000000E+02 0. -1.
</event>
<event>
 5    1  0.1146201E-008  0.3708857E+03  0.7957747E-01  0.3491830E+00
         13   -1    0    0    0    0  0.00000000000E+00  0.00000000000E+00  0.14999999963E+04  0.15000000000E+04  0.10566000000E+00 0.  1.
        994   -1    0    0    0    0 -0.00000000000E+00 -0.00000000000E+00  0.11368683772E-12  0.17120000000E+03  0.17120000000E+03 0.  0.
         13    1    1    2    0    0  0.14421000956E+02  0.20456100823E+02  0.32696509626E+02  0.41176331007E+02  0.10566000000E+00 0.  1.
        994    1    1    2    0    0  0.34180334532E+01 -0.12860142994E+02  0.94174346377E+01  0.17197440015E+03  0.17120000000E+03 0.  0.
        998    1    1    2    0    0 -0.17839034409E+02 -0.75959578291E+01  0.14578860520E+04  0.14580492688E+04  0.10000000000E+02 0.  1.
</event>
<event>
 5    1  0.1146201E-008  0.3790234E+03  0.7957747E-01  0.3455422E+00
         13   -1    0    0    0    0  0.00000000000E+00  0.00000000000E+00  0.14999999963E+04  0.15000000000E+04  0.10566000000E+00 0. -1.
        994   -1    0    0    0    0 -0.00000000000E+00 -0.00000000000E+00  0.11368683772E-12  0.17120000000E+03  0.17120000000E+03 0.  0.
         13    1    1    2    0    0  0.34841103583E+01  0.57550053932E+02  0.30295053770E+03  0.30838804645E+03  0.10566000000E+00 0. -1.
        994    1    1    2    0    0 -0.60934607448E+01 -0.51603229497E+02  0.13735981556E+02  0.17943840377E+03  0.17120000000E+03 0.  0.
        998    1    1    2    0    0  0.26093503865E+01 -0.59468244347E+01  0.11833134770E+04  0.11833735498E+04  0.10000000000E+02 0. -1.
</event>
<event>
 5    1  0.1146201E-008  0.3808329E+03  0.7957747E-01  0.3447540E+00
         13   -1    0    0    0    0  0.00000000000E+00  0.00000000000E+00  0.14999999963E+04  0.15000000000E+04  0.10566000000E+00 0.  1.
        994   -1    0    0    0    0 -0.00000000000E+00 -0.00000000000E+00  0.11368683772E-12  0.17120000000E+03  0.17120000000E+03 0.  0.
         13    1    1    2    0    0  0.38275554615E+02  0.29094474364E+02  0.18464506293E+03  0.19080177397E+03  0.10566000000E+00 0.  1.
        994    1    1    2    0    0 -0.87280187846E+02 -0.55249597496E+02  0.40144807760E+02  0.20393968423E+03  0.17120000000E+03 0.  0.
        998    1    1    2    0    0  0.49004633230E+02  0.26155123133E+02  0.12752101256E+04  0.12764585418E+04  0.10000000000E+02 0.  1.
</event>
<event>
 5    1  0.1146201E-008  0.3836471E+03  0.7957747E-01  0.3435430E+00
         13   -1    0    0    0    0  0.00000000000E+00  0.00000000000E+00  0.14999999963E+04  0.15000000000E+04  0.10566000000E+00 0.  1.
        994   -1    0    0    0    0 -0.00000000000E+00 -0.00000000000E+00  0.11368683772E-12  0.17120000000E+03  0.17120000000E+03 0.  0.
         13    1    1    2    0    0 -0.14170251337E+02  0.19246385828E+01  0.43379617563E+02  0.45676062008E+02  0.10566000000E+00 0.  1.
        994    1    1    2    0    0  0.11059684256E+02 -0.47806231347E+01  0.27829841253E+01  0.17164601939E+03  0.17120000000E+03 0.  0.
        998    1    1    2    0    0  0.31105670810E+01  0.28559845519E+01  0.14538373946E+04  0.14538779186E+04  0.10000000000E+02 0.  1.
</event>
<event>
 5    1  0.1146201E-008  0.3792931E+03  0.7957747E-01  0.3454242E+00
         13   -1    0    0    0    0  0.00000000000E+00  0.00000000000E+00  0.14999999963E+04  0.15000000000E+04  0.10566000000E+00 0.  1.
        994   -1    0    0    0    0 -0.00000000000E+00 -0.00000000000E+00  0.11368683772E-12  0.17120000000E+03  0.17120000000E+03 0.  0.
         13    1    1    2    0    0 -0.10227035283E+02  0.37402743927E+02  0.15415446167E+03  0.15895649317E+03  0.10566000000E+00 0.  1.
        994    1    1    2    0    0  0.14888073633E+02 -0.31930903432E+02  0.86606946516E+01  0.17500195702E+03  0.17120000000E+03 0.  0.
        998    1    1    2    0    0 -0.46610383504E+01 -0.54718404944E+01  0.13371848400E+04  0.13372415498E+04  0.10000000000E+02 0.  1.
</event>
<event>
 5    1  0.1146201E-008  0.3802955E+03  0.7957747E-01  0.3449873E+00
         13   -1    0    0    0    0  0.00000000000E+00  0.00000000000E+00  0.14999999963E+04  0.15000000000E+04  0.10566000000E+00 0. -1.
        994   -1    0    0    0    0 -0.00000000000E+00 -0.00000000000E+00  0.11368683772E-12  0.17120000000E+03  0.17120000000E+03 0.  0.
         13    1    1    2    0    0  0.38207041093E+02  0.22166427698E+02  0.19289788782E+03  0.19789071427E+03  0.10566000000E+00 0. -1.
        994    1    1    2    0    0 -0.58539729441E+02 -0.15909076551E+02  0.16373314980E+02  0.18236645548E+03  0.17120000000E+03 0.  0.
        998    1    1    2    0    0  0.20332688348E+02 -0.62573511473E+01  0.12907287935E+04  0.12909428303E+04  0.10000000000E+02 0. -1.
</event>
<event>
 5    1  0.1146201E-008  0.3818881E+03  0.7957747E-01  0.3442978E+00
         13   -1    0    0    0    0  0.00000000000E+00  0.00000000000E+00  0.14999999963E+04  0.15000000000E+04  0.10566000000E+00 0.  1.
        994   -1    0    0    0    0 -0.00000000000E+00 -0.00000000000E+00  0.11368683772E-12  0.17120000000E+03  0.17120000000E+03 0.  0.
         13    1    1    2    0    0 -0.11883299224E+02  0.10646888374E+02  0.39389580254E+02  0.42498461491E+02  0.10566000000E+00 0.  1.
        994    1    1    2    0    0  0.66751021246E+01 -0.31164001450E+01  0.33633788058E+01  0.17139142702E+03  0.17120000000E+03 0.  0.
        998    1    1    2    0    0  0.52081970996E+01 -0.75304882295E+01  0.14572470372E+04  0.14573101115E+04  0.10000000000E+02 0.  1.
</event>
<event>
 5    1  0.1146201E-008  0.3853064E+03  0.7957747E-01  0.3428374E+00
         13   -1    0    0    0    0  0.00000000000E+00  0.00000000000E+00  0.14999999963E+04  0.15000000000E+04  0.10566000000E+00 0.  1.
        994   -1    0    0    0    0 -0.00000000000E+00 -0.00000000000E+00  0.11368683772E-12  0.17120000000E+03  0.17120000000E+03 0.  0.
         13    1    1    2    0    0 -0.90767649675E+01  0.67914496991E+01  0.42784360178E+02  0.44260864103E+02  0.10566000000E+00 0.  1.
        994    1    1    2    0    0  0.62390396219E+01 -0.97128803276E+01  0.19160220171E+01  0.17159946620E+03  0.17120000000E+03 0.  0.
        998    1    1    2    0    0  0.28377253456E+01  0.29214306285E+01  0.14552996141E+04  0.14553396697E+04  0.10000000000E+02 0.  1.
</event>
<event>
 5    1  0.1146201E-008  0.3855301E+03  0.7957747E-01  0.3427427E+00
         13   -1    0    0    0    0  0.00000000000E+00  0.00000000000E+00  0.14999999963E+04  0.15000000000E+04  0.10566000000E+00 0. -1.
        994   -1    0    0    0    0 -0.00000000000E+00 -0.00000000000E+00  0.11368683772E-12  0.17120000000E+03  0.17120000000E+03 0.  0.
         13    1    1    2    0    0 -0.12029128267E+02 -0.45680826602E+01  0.59961266960E+02  0.61326438063E+02  0.10566000000E+00 0. -1.
        994    1    1    2    0    0  0.91254008646E+01  0.65700979256E+01  0.17823896678E+01  0.17157813392E+03  0.17120000000E+03 0.  0.
        998    1    1    2    0    0  0.29037274028E+01 -0.20020152654E+01  0.14382563397E+04  0.14382954280E+04  0.10000000000E+02 0. -1.
</event>
<event>
 5    1  0.1146201E-008  0.3846749E+03  0.7957747E-01  0.3431052E+00
         13   -1    0    0    0    0  0.00000000000E+00  0.00000000000E+00  0.14999999963E+04  0.15000000000E+04  0.10566000000E+00 0. -1.
        994   -1    0    0    0    0 -0.00000000000E+00 -0.00000000000E+00  0.11368683772E-12  0.17120000000E+03  0.17120000000E+03 0.  0.
         13    1    1    2    0    0  0.12239263771E+02  0.12613062980E+02  0.83358003927E+02  0.85190709106E+02  0.10566000000E+00 0. -1.
        994    1    1    2    0    0 -0.68360493685E+01 -0.15766878139E+02  0.27644686278E+01  0.17208256246E+03  0.17120000000E+03 0.  0.
        998    1    1    2    0    0 -0.54032144029E+01  0.31538151587E+01  0.14138775237E+04  0.14139267284E+04  0.10000000000E+02 0. -1.
</event>
<event>
 5    1  0.1146201E-008  0.3718034E+03  0.7957747E-01  0.3487644E+00
         13   -1    0    0    0    0  0.00000000000E+00  0.00000000000E+00  0.14999999963E+04  0.15000000000E+04  0.10566000000E+00 0.  1.
        994   -1    0    0    0    0 -0.00000000000E+00 -0.00000000000E+00  0.11368683772E-12  0.17120000000E+03  0.17120000000E+03 0.  0.
         13    1    1    2    0    0  0.12469091071E+02  0.87139966791E+01  0.42472026542E+01  0.15794361800E+02  0.10566000000E+00 0.  1.
        994    1    1    2    0    0 -0.17498491003E+02 -0.36422924572E+01  0.13020302467E+02  0.17262222267E+03  0.17120000000E+03 0.  0.
        998    1    1    2    0    0  0.50293999323E+01 -0.50717042219E+01  0.14827324912E+04  0.14827834155E+04  0.10000000000E+02 0.  1.
</event>
<event>
 5    1  0.1146201E-008  0.3811415E+03  0.7957747E-01  0.3446203E+00
         13   -1    0    0    0    0  0.00000000000E+00  0.00000000000E+00  0.14999999963E+04  0.15000000000E+04  0.10566000000E+00 0. -1.
        994   -1    0    0    0    0 -0.00000000000E+00 -0.00000000000E+00  0.11368683772E-12  0.17120000000E+03  0.17120000000E+03 0.  0.
         13    1    1    2    0    0 -0.22510689594E+02  0.40265856056E+02  0.25982841518E+03  0.26389180891E+03  0.10566000000E+00 0. -1.
        994    1    1    2    0    0  0.28885884847E+02 -0.31674720178E+02  0.97025042461E+01  0.17675197546E+03  0.17120000000E+03 0.  0.
        998    1    1    2    0    0 -0.63751952536E+01 -0.85911358778E+01  0.12304690769E+04  0.12305562156E+04  0.10000000000E+02 0. -1.
</event>
<event>
 5    1  0.1146201E-008  0.3842044E+03  0.7957747E-01  0.3433053E+00
         13   -1    0    0    0    0  0.00000000000E+00  0.00000000000E+00  0.14999999963E+04  0.15000000000E+04  0.10566000000E+00 0. -1.
        994   -1    0    0    0    0 -0.00000000000E+00 -0.00000000000E+00  0.11368683772E-12  0.17120000000E+03  0.17120000000E+03 0.  0.
         13    1    1    2    0    0 -0.36972720594E+02 -0.63428705550E+02  0.12765070963E+03  0.14725792878E+03  0.10566000000E+00 0. -1.
        994    1    1    2    0    0  0.42584711219E+02  0.58939029763E+02  0.38385496189E+02  0.18992143949E+03  0.17120000000E+03 0.  0.
        998    1    1    2    0    0 -0.56119906250E+01  0.44896757870E+01  0.13339637905E+04  0.13340206317E+04  0.10000000000E+02 0. -1.
</event>
<event>
 5    1  0.1146201E-008  0.3809982E+03  0.7957747E-01  0.3446823E+00
         13   -1    0    0    0    0  0.00000000000E+00  0.00000000000E+00  0.14999999963E+04  0.15000000000E+04  0.10566000000E+00 0.  1.
        994   -1    0    0    0    0 -0.00000000000E+00 -0.00000000000E+00  0.11368683772E-12  0.17120000000E+03  0.17120000000E+03 0.  0.
         13    1    1    2    0    0  0.38330084925E+01 -0.15806829262E+02  0.32326873633E+02  0.36188198744E+02  0.10566000000E+00 0.  1.
        994    1    1    2    0    0 -0.39779753286E+01  0.35503222043E+02  0.78943332714E+01  0.17506588349E+03  0.17120000000E+03 0.  0.
        998    1    1    2    0    0  0.14496683615E+00 -0.19696392781E+02  0.14597787894E+04  0.14599459178E+04  0.10000000000E+02 0.  1.
</event>
<event>
 5    1  0.1146201E-008  0.3712840E+03  0.7957747E-01  0.3490010E+00
         13   -1    0    0    0    0  0.00000000000E+00  0.00000000000E+00  0.14999999963E+04  0.15000000000E+04  0.10566000000E+00 0.  1.
        994   -1    0    0    0    0 -0.00000000000E+00 -0.00000000000E+00  0.11368683772E-12  0.17120000000E+03  0.17120000000E+03 0.  0.
         13    1    1    2    0    0 -0.58639231597E+02  0.61774396525E+02  0.43033483902E+03  0.43868293834E+03  0.10566000000E+00 0.  1.
        994    1    1    2    0    0 -0.16955354160E+01 -0.12096725482E+02  0.12143535622E+02  0.17206426435E+03  0.17120000000E+03 0.  0.
        998    1    1    2    0    0  0.60334767013E+02 -0.49677671043E+02  0.10575216216E+04  0.10604527973E+04  0.10000000000E+02 0.  1.
</event>
<event>
 5    1  0.1146201E-008  0.3841470E+03  0.7957747E-01  0.3433298E+00
         13   -1    0    0    0    0  0.00000000000E+00  0.00000000000E+00  0.14999999963E+04  0.15000000000E+04  0.10566000000E+00 0. -1.
        994   -1    0    0    0    0 -0.00000000000E+00 -0.00000000000E+00  0.11368683772E-12  0.17120000000E+03  0.17120000000E+03 0.  0.
         13    1    1    2    0    0  0.58928143023E+02  0.53850617061E+02  0.15296173080E+03  0.17253903110E+03  0.10566000000E+00 0. -1.
        994    1    1    2    0    0 -0.63230386951E+02 -0.38565973804E+02  0.39099482130E+02  0.19058758006E+03  0.17120000000E+03 0.  0.
        998    1    1    2    0    0  0.43022439281E+01 -0.15284643257E+02  0.13079387833E+04  0.13080733888E+04  0.10000000000E+02 0. -1.
</event>
<event>
 5    1  0.1146201E-008  0.3842007E+03  0.7957747E-01  0.3433069E+00
         13   -1    0    0    0    0  0.00000000000E+00  0.00000000000E+00  0.14999999963E+04  0.15000000000E+04  0.10566000000E+00 0.  1.
        994   -1    0    0    0    0 -0.00000000000E+00 -0.00000000000E+00  0.11368683772E-12  0.17120000000E+03  0.17120000000E+03 0.  0.
         13    1    1    2    0    0 -0.21630114230E+01  0.10601414781E+02  0.27183291185E+02  0.29257667328E+02  0.10566000000E+00 0.  1.
        994    1    1    2    0    0 -0.17341183742E+01 -0.18865401238E+02  0.32117684345E+01  0.17227497203E+03  0.17120000000E+03 0.  0.
        998    1    1    2    0    0  0.38971297973E+01  0.82639864572E+01  0.14696049367E+04  0.14696673606E+04  0.10000000000E+02 0.  1.
</event>
<event>
 5    1  0.1146201E-008  0.3769821E+03  0.7957747E-01  0.3464405E+00
         13   -1    0    0    0    0  0.00000000000E+00  0.00000000000E+00  0.14999999963E+04  0.15000000000E+04  0.10566000000E+00 0. -1.
        994   -1    0    0    0    0 -0.00000000000E+00 -0.00000000000E+00  0.11368683772E-12  0.17120000000E+03  0.17120000000E+03 0.  0.
         13    1    1    2    0    0  0.20996446009E+02 -0.96044585792E+01  0.43917439731E+02  0.49617023754E+02  0.10566000000E+00 0. -1.
        994    1    1    2    0    0 -0.19139726694E+02  0.10477749711E+02  0.72736652924E+01  0.17273812140E+03  0.17120000000E+03 0.  0.
        998    1    1    2    0    0 -0.18567193147E+01 -0.87329113157E+00  0.14488088913E+04  0.14488448548E+04  0.10000000000E+02 0. -1.
</event>
<event>
 5    1  0.1146201E-008  0.3813890E+03  0.7957747E-01  0.3445133E+00
         13   -1    0    0    0    0  0.00000000000E+00  0.00000000000E+00  0.14999999963E+04  0.15000000000E+04  0.10566000000E+00 0.  1.
        994   -1    0    0    0    0 -0.00000000000E+00 -0.00000000000E+00  0.11368683772E-12  0.17120000000E+03  0.17120000000E+03 0.  0.
         13    1    1    2    0    0 -0.10282448893E+02  0.66638407850E+01  0.20486853628E+02  0.23871695894E+02  0.10566000000E+00 0.  1.
        994    1    1    2    0    0  0.77594983283E+01 -0.35809621769E+01  0.36766849865E+01  0.17145259146E+03  0.17120000000E+03 0.  0.
        998    1    1    2    0    0  0.25229505646E+01 -0.30828786081E+01  0.14758364577E+04  0.14758757127E+04  0.10000000000E+02 0.  1.
</event>
<event>
 5    1  0.1146201E-008  0.3803723E+03  0.7957747E-01  0.3449539E+00
         13   -1    0    0    0    0  0.00000000000E+00  0.00000000000E+00  0.14999999963E+04  0.15000000000E+04  0.10566000000E+00 0.  1.
        994   -1    0    0    0    0 -0.00000000000E+00 -0.00000000000E+00  0.11368683772E-12  0.17120000000E+03  0.17120000000E+03 0.  0.
         13    1    1    2    0    0  0.18722120470E+02 -0.13736326968E+02  0.68252764173E+02  0.72094767180E+02  0.10566000000E+00 0.  1.
        994    1    1    2    0    0 -0.48372449383E+01  0.10777657423E+02  0.44114188793E+01  0.17166379192E+03  0.17120000000E+03 0.  0.
        998    1    1    2    0    0 -0.13884875531E+02  0.29586695450E+01  0.14273358132E+04  0.14274414409E+04  0.10000000000E+02 0.  1.
</event>
<event>
 5    1  0.1146201E-008  0.3817504E+03  0.7957747E-01  0.3443572E+00
         13   -1    0    0    0    0  0.00000000000E+00  0.00000000000E+00  0.14999999963E+04  0.15000000000E+04  0.10566000000E+00 0. -1.
        994   -1    0    0    0    0 -0.00000000000E+00 -0.00000000000E+00  0.11368683772E-12  0.17120000000E+03  0.17120000000E+03 0.  0.
         13    1    1    2    0    0 -0.73211370045E+01  0.79226546922E+01  0.16441104488E+02  0.19664398928E+02  0.10566000000E+00 0. -1.
        994    1    1    2    0    0  0.95545842169E+01 -0.51443525532E+01  0.36436248056E+01  0.17158225562E+03  0.17120000000E+03 0.  0.
        998    1    1    2    0    0 -0.22334472124E+01 -0.27783021390E+01  0.14799152670E+04  0.14799533454E+04  0.10000000000E+02 0. -1.
</event>
<event>
 5    1  0.1146201E-008  0.2845557E+03  0.7957747E-01  0.4012844E+00
         13   -1    0    0    0    0  0.00000000000E+00  0.00000000000E+00  0.14999999963E+04  0.15000000000E+04  0.10566000000E+00 0.  1.
        994   -1    0    0    0    0 -0.00000000000E+00 -0.00000000000E+00  0.11368683772E-12  0.17120000000E+03  0.17120000000E+03 0.  0.
         13    1    1    2    0    0 -0.91842960783E+02  0.11991540429E+03  0.82622805886E+03  0.83992121657E+03  0.10566000000E+00 0.  1.
        994    1    1    2    0    0  0.13568714513E+03  0.52430761146E+02  0.13106723472E+03  0.26009237991E+03  0.17120000000E+03 0.  0.
        998    1    1    2    0    0 -0.43844184349E+02 -0.17234616543E+03  0.54270470270E+03  0.57118640353E+03  0.10000000000E+02 0. -1.
</event>
<event>
 5    1  0.1146201E-008  0.3804561E+03  0.7957747E-01  0.3449175E+00
         13   -1    0    0    0    0  0.00000000000E+00  0.00000000000E+00  0.14999999963E+04  0.15000000000E+04  0.10566000000E+00 0. -1.
        994   -1    0    0    0    0 -0.00000000000E+00 -0.00000000000E+00  0.11368683772E-12  0.17120000000E+03  0.17120000000E+03 0.  0.
         13    1    1    2    0    0  0.20123060384E+02  0.32955972969E+02  0.17339604185E+03  0.17764355380E+03  0.10566000000E+00 0. -1.
        994    1    1    2    0    0 -0.17493208122E+02 -0.30846201761E+02  0.81118612118E+01  0.17502212085E+03  0.17120000000E+03 0.  0.
        998    1    1    2    0    0 -0.26298522625E+01 -0.21097712077E+01  0.13184920932E+04  0.13185343254E+04  0.10000000000E+02 0. -1.
</event>
<event>
 5    1  0.1146201E-008  0.3820283E+03  0.7957747E-01  0.3442374E+00
         13   -1    0    0    0    0  0.00000000000E+00  0.00000000000E+00  0.14999999963E+04  0.15000000000E+04  0.10566000000E+00 0.  1.
        994   -1    0    0    0    0 -0.00000000000E+00 -0.00000000000E+00  0.11368683772E-12  0.17120000000E+03  0.17120000000E+03 0.  0.
         13    1    1    2    0    0  0.15064567530E+02 -0.27171601333E+01  0.36875276748E+02  0.39926449295E+02  0.10566000000E+00 0.  1.
        994    1    1    2    0    0 -0.78100482485E+01  0.41273969944E+00  0.33158882842E+01  0.17141062488E+03  0.17120000000E+03 0.  0.
        998    1    1    2    0    0 -0.72545192811E+01  0.23044204339E+01  0.14598088312E+04  0.14598629258E+04  0.10000000000E+02 0.  1.
</event>
<event>
 5    1  0.1146201E-008  0.3859774E+03  0.7957747E-01  0.3425537E+00
         13   -1    0    0    0    0  0.00000000000E+00  0.00000000000E+00  0.14999999963E+04  0.15000000000E+04  0.10566000000E+00 0.  1.
        994   -1    0    0    0    0 -0.00000000000E+00 -0.00000000000E+00  0.11368683772E-12  0.17120000000E+03  0.17120000000E+03 0.  0.
         13    1    1    2    0    0  0.23635092862E+01 -0.13645455568E+02  0.79730800894E+02  0.80924634129E+02  0.10566000000E+00 0.  1.
        994    1    1    2    0    0  0.78045773531E+00  0.16716196336E+02  0.20642094153E+01  0.17202831539E+03  0.17120000000E+03 0.  0.
        998    1    1    2    0    0 -0.31439670215E+01 -0.30707407678E+01  0.14182049860E+04  0.14182470505E+04  0.10000000000E+02 0.  1.
</event>
<event>
 5    1  0.1146201E-008  0.3852857E+03  0.7957747E-01  0.3428461E+00
         13   -1    0    0    0    0  0.00000000000E+00  0.00000000000E+00  0.14999999963E+04  0.15000000000E+04  0.10566000000E+00 0.  1.
        994   -1    0    0    0    0 -0.00000000000E+00 -0.00000000000E+00  0.11368683772E-12  0.17120000000E+03  0.17120000000E+03 0.  0.
         13    1    1    2    0    0 -0.13763808045E+02 -0.79117192869E+01  0.82415438598E+02  0.83930646354E+02  0.10566000000E+00 0.  1.
        994    1    1    2    0    0  0.12914122475E+02  0.63526552971E+01  0.21692093581E+01  0.17181756679E+03  0.17120000000E+03 0.  0.
        998    1    1    2    0    0  0.84968556980E+00  0.15590639898E+01  0.14154153483E+04  0.14154517869E+04  0.10000000000E+02 0.  1.
</event>
<event>
 5    1  0.1146201E-008  0.3790318E+03  0.7957747E-01  0.3455385E+00
         13   -1    0    0    0    0  0.00000000000E+00  0.00000000000E+00  0.14999999963E+04  0.15000000000E+04  0.10566000000E+00 0. -1.
        994   -1    0    0    0    0 -0.00000000000E+00 -0.00000000000E+00  0.11368683772E-12  0.17120000000E+03  0.17120000000E+03 0.  0.
         13    1    1    2    0    0 -0.15719836444E+02  0.82435821873E+01  0.34691886482E+02  0.38969321996E+02  0.10566000000E+00 0. -1.
        994    1    1    2    0    0 -0.21826101003E+02 -0.16585120673E+02  0.71468494269E+01  0.17352798728E+03  0.17120000000E+03 0.  0.
        998    1    1    2    0    0  0.37545937446E+02  0.83415384857E+01  0.14581612604E+04  0.14587026907E+04  0.10000000000E+02 0. -1.
</event>
<event>
 5    1  0.1146201E-008  0.4293224E+03  0.7957747E-01  0.3261013E+00
         13   -1    0    0    0    0  0.00000000000E+00  0.00000000000E+00  0.14999999963E+04  0.15000000000E+04  0.10566000000E+00 0.  1.
        994   -1    0    0    0    0 -0.00000000000E+00 -0.00000000000E+00  0.11368683772E-12  0.17120000000E+03  0.17120000000E+03 0.  0.
         13    1    1    2    0    0 -0.79953145132E+02  0.53712993596E+01  0.51251664504E+02  0.95121504150E+02  0.10566000000E+00 0.  1.
        994    1    1    2    0    0  0.86464767925E+02 -0.57757689807E+01  0.81000825536E+02  0.20827887396E+03  0.17120000000E+03 0.  0.
        998    1    1    2    0    0 -0.65116227936E+01  0.40446962111E+00  0.13677475062E+04  0.13677996219E+04  0.10000000000E+02 0.  1.
</event>
<event>
 5    1  0.1146201E-008  0.3850782E+03  0.7957747E-01  0.3429341E+00
         13   -1    0    0    0    0  0.00000000000E+00  0.00000000000E+00  0.14999999963E+04  0.15000000000E+04  0.10566000000E+00 0.  1.
        994   -1    0    0    0    0 -0.00000000000E+00 -0.00000000000E+00  0.11368683772E-12  0.17120000000E+03  0.17120000000E+03 0.  0.
         13    1    1    2    0    0 -0.92648397046E+01  0.10432277956E+02  0.61759052040E+02  0.63315569578E+02  0.10566000000E+00 0.  1.
        994    1    1    2    0    0  0.51583836704E+00 -0.10044708907E+02  0.19240108126E+01  0.17150598848E+03  0.17120000000E+03 0.  0.
        998    1    1    2    0    0  0.87490013376E+01 -0.38756904844E+00  0.14363169334E+04  0.14363784419E+04  0.10000000000E+02 0.  1.
</event>
<event>
 5    1  0.1146201E-008  0.3848440E+03  0.7957747E-01  0.3430334E+00
         13   -1    0    0    0    0  0.00000000000E+00  0.00000000000E+00  0.14999999963E+04  0.15000000000E+04  0.10566000000E+00 0. -1.
        994   -1    0    0    0    0 -0.00000000000E+00 -0.00000000000E+00  0.11368683772E-12  0.17120000000E+03  0.17120000000E+03 0.  0.
         13    1    1    2    0    0  0.27808519292E+00  0.11392863227E+02  0.38109755764E+02  0.39777371863E+02  0.10566000000E+00 0. -1.
        994    1    1    2    0    0 -0.50988301060E+01 -0.59729449988E+01  0.19105551934E+01  0.17139067758E+03  0.17120000000E+03 0.  0.
        998    1    1    2    0    0  0.48207449131E+01 -0.54199182283E+01  0.14599796853E+04  0.14600319506E+04  0.10000000000E+02 0. -1.
</event>
<event>
 5    1  0.1146201E-008  0.3845270E+03  0.7957747E-01  0.3431681E+00
         13   -1    0    0    0    0  0.00000000000E+00  0.00000000000E+00  0.14999999963E+04  0.15000000000E+04  0.10566000000E+00 0.  1.
        994   -1    0    0    0    0 -0.00000000000E+00 -0.00000000000E+00  0.11368683772E-12  0.17120000000E+03  0.17120000000E+03 0.  0.
         13    1    1    2    0    0  0.13232998089E+02  0.11505430498E+01  0.47035979729E+02  0.48875664096E+02  0.10566000000E+00 0.  1.
        994    1    1    2    0    0 -0.88581811448E+01  0.37905089475E+00  0.21241389391E+01  0.17144259395E+03  0.17120000000E+03 0.  0.
        998    1    1    2    0    0 -0.43748169443E+01 -0.15295939445E+01  0.14508398776E+04  0.14508817420E+04  0.10000000000E+02 0.  1.
</event>
<event>
 5    1  0.1146201E-008  0.3978756E+03  0.7957747E-01  0.3376836E+00
         13   -1    0    0    0    0  0.00000000000E+00  0.00000000000E+00  0.14999999963E+04  0.15000000000E+04  0.10566000000E+00 0. -1.
        994   -1    0    0    0    0 -0.00000000000E+00 -0.00000000000E+00  0.11368683772E-12  0.17120000000E+03  0.17120000000E+03 0.  0.
         13    1    1    2    0    0 -0.69301560025E+02 -0.52320745520E+02  0.12380208883E+03  0.15121883148E+03  0.10566000000E+00 0. -1.
        994    1    1    2    0    0  0.65531817467E+02  0.55346606219E+02  0.55681418492E+02  0.19941796881E+03  0.17120000000E+03 0.  0.
        998    1    1    2    0    0  0.37697425580E+01 -0.30258606987E+01  0.13205164890E+04  0.13205631997E+04  0.10000000000E+02 0. -1.
</event>
<event>
 5    1  0.1146201E-008  0.3805441E+03  0.7957747E-01  0.3448793E+00
         13   -1    0    0    0    0  0.00000000000E+00  0.00000000000E+00  0.14999999963E+04  0.15000000000E+04  0.10566000000E+00 0.  1.
        994   -1    0    0    0    0 -0.00000000000E+00 -0.00000000000E+00  0.11368683772E-12  0.17120000000E+03  0.17120000000E+03 0.  0.
         13    1    1    2    0    0 -0.13010610114E+02 -0.19810162064E+02  0.78159401424E+02  0.81673873984E+02  0.10566000000E+00 0.  1.
        994    1    1    2    0    0 -0.91121033359E+01  0.12230329747E+01  0.41408377275E+01  0.17149668444E+03  0.17120000000E+03 0.  0.
        998    1    1    2    0    0  0.22122713450E+02  0.18587129089E+02  0.14176997571E+04  0.14180294416E+04  0.10000000000E+02 0.  1.
</event>
<event>
 5    1  0.1146201E-008  0.3831295E+03  0.7957747E-01  0.3437644E+00
         13   -1    0    0    0    0  0.00000000000E+00  0.00000000000E+00  0.14999999963E+04  0.15000000000E+04  0.10566000000E+00 0.  1.
        994   -1    0    0    0    0 -0.00000000000E+00 -0.00000000000E+00  0.11368683772E-12  0.17120000000E+03  0.17120000000E+03 0.  0.
         13    1    1    2    0    0 -0.12430703983E+02 -0.28194103202E+01  0.30310764832E+02  0.32881987543E+02  0.10566000000E+00 0.  1.
        994    1    1    2    0    0  0.13738987571E+02  0.11051008436E+01  0.31904843494E+01  0.17178358541E+03  0.17120000000E+03 0.  0.
        998    1    1    2    0    0 -0.13082835884E+01  0.17143094766E+01  0.14664987471E+04  0.14665344270E+04  0.10000000000E+02 0.  1.
</event>
<event>
 5    1  0.1146201E-008  0.3698192E+03  0.7957747E-01  0.3496722E+00
         13   -1    0    0    0    0  0.00000000000E+00  0.00000000000E+00  0.14999999963E+04  0.15000000000E+04  0.10566000000E+00 0. -1.
        994   -1    0    0    0    0 -0.00000000000E+00 -0.00000000000E+00  0.11368683772E-12  0.17120000000E+03  0.17120000000E+03 0.  0.
         13    1    1    2    0    0 -0.39680156039E+02 -0.19540019963E+02  0.97134059661E+02  0.10673033249E+03  0.10566000000E+00 0. -1.
        994    1    1    2    0    0  0.36554340908E+02  0.13581631325E+02  0.14643211776E+02  0.17619462024E+03  0.17120000000E+03 0.  0.
        998    1    1    2    0    0  0.31258151301E+01  0.59583886381E+01  0.13882227248E+04  0.13882750473E+04  0.10000000000E+02 0. -1.
</event>
<event>
 5    1  0.1146201E-008  0.3773003E+03  0.7957747E-01  0.3462998E+00
         13   -1    0    0    0    0  0.00000000000E+00  0.00000000000E+00  0.14999999963E+04  0.15000000000E+04  0.10566000000E+00 0. -1.
        994   -1    0    0    0    0 -0.00000000000E+00 -0.00000000000E+00  0.11368683772E-12  0.17120000000E+03  0.17120000000E+03 0.  0.
         13    1    1    2    0    0  0.15913326912E+02  0.28691534273E+02  0.95397920397E+02  0.10088217133E+03  0.10566000000E+00 0. -1.
        994    1    1    2    0    0 -0.69385299866E+01 -0.20353003068E+02  0.70633768496E+01  0.17268966160E+03  0.17120000000E+03 0.  0.
        998    1    1    2    0    0 -0.89747969257E+01 -0.83385312046E+01  0.13975386990E+04  0.13976281671E+04  0.10000000000E+02 0. -1.
</event>
<event>
 5    1  0.1146201E-008  0.3842388E+03  0.7957747E-01  0.3432907E+00
         13   -1    0    0    0    0  0.00000000000E+00  0.00000000000E+00  0.14999999963E+04  0.15000000000E+04  0.10566000000E+00 0. -1.
        994   -1    0    0    0    0 -0.00000000000E+00 -0.00000000000E+00  0.11368683772E-12  0.17120000000E+03  0.17120000000E+03 0.  0.
         13    1    1    2    0    0  0.81472538890E+01  0.67497869916E+01  0.26774829667E+02  0.28789582110E+02  0.10566000000E+00 0. -1.
        994    1    1    2    0    0 -0.81106082459E+01 -0.99063053613E+01  0.25491196954E+01  0.17169698560E+03  0.17120000000E+03 0.  0.
        998    1    1    2    0    0 -0.36645643072E-01  0.31565183696E+01  0.14706760469E+04  0.14707134323E+04  0.10000000000E+02 0. -1.
</event>
<event>
 5    1  0.1146201E-008  0.3722643E+03  0.7957747E-01  0.3485549E+00
         13   -1    0    0    0    0  0.00000000000E+00  0.00000000000E+00  0.14999999963E+04  0.15000000000E+04  0.10566000000E+00 0. -1.
        994   -1    0    0    0    0 -0.00000000000E+00 -0.00000000000E+00  0.11368683772E-12  0.17120000000E+03  0.17120000000E+03 0.  0.
         13    1    1    2    0    0 -0.22991865354E+02 -0.19455595901E+02  0.32905322683E+02  0.44608491447E+02  0.10566000000E+00 0. -1.
        994    1    1    2    0    0  0.33892348272E+02 -0.16620782404E+02  0.17179302909E+02  0.17615195181E+03  0.17120000000E+03 0.  0.
        998    1    1    2    0    0 -0.10900482918E+02  0.36076378305E+02  0.14499153707E+04  0.14504395567E+04  0.10000000000E+02 0. -1.
</event>
<event>
 5    1  0.1146201E-008  0.3820642E+03  0.7957747E-01  0.3442220E+00
         13   -1    0    0    0    0  0.00000000000E+00  0.00000000000E+00  0.14999999963E+04  0.15000000000E+04  0.10566000000E+00 0. -1.
        994   -1    0    0    0    0 -0.00000000000E+00 -0.00000000000E+00  0.11368683772E-12  0.17120000000E+03  0.17120000000E+03 0.  0.
         13    1    1    2    0    0  0.17113750436E+02 -0.28333664480E+01  0.45165593743E+02  0.48382336050E+02  0.10566000000E+00 0. -1.
        994    1    1    2    0    0 -0.23718623249E+02  0.55147518359E+01  0.50661242165E+01  0.17299737337E+03  0.17120000000E+03 0.  0.
        998    1    1    2    0    0  0.66048728131E+01 -0.26813853879E+01  0.14497682783E+04  0.14498202906E+04  0.10000000000E+02 0. -1.
</event>
<event>
 5    1  0.1146201E-008  0.3731762E+03  0.7957747E-01  0.3481420E+00
         13   -1    0    0    0    0  0.00000000000E+00  0.00000000000E+00  0.14999999963E+04  0.15000000000E+04  0.10566000000E+00 0. -1.
        994   -1    0    0    0    0 -0.00000000000E+00 -0.00000000000E+00  0.11368683772E-12  0.17120000000E+03  0.17120000000E+03 0.  0.
         13    1    1    2    0    0 -0.52053772892E+01 -0.24093046050E+02  0.37804796507E+02  0.45130750311E+02  0.10566000000E+00 0. -1.
        994    1    1    2    0    0 -0.47242577539E+00  0.73428654104E+01  0.78034992584E+01  0.17153563904E+03  0.17120000000E+03 0.  0.
        998    1    1    2    0    0  0.56778030646E+01  0.16750180639E+02  0.14543917005E+04  0.14545336107E+04  0.10000000000E+02 0. -1.
</event>
<event>
 5    1  0.1146201E-008  0.3796668E+03  0.7957747E-01  0.3452610E+00
         13   -1    0    0    0    0  0.00000000000E+00  0.00000000000E+00  0.14999999963E+04  0.15000000000E+04  0.10566000000E+00 0.  1.
        994   -1    0    0    0    0 -0.00000000000E+00 -0.00000000000E+00  0.11368683772E-12  0.17120000000E+03  0.17120000000E+03 0.  0.
         13    1    1    2    0    0  0.19344910689E+02 -0.37367956175E+02  0.21243596046E+03  0.21656324291E+03  0.10566000000E+00 0.  1.
        994    1    1    2    0    0 -0.16666656540E+02  0.12999398041E+02  0.57979721812E+01  0.17259727191E+03  0.17120000000E+03 0.  0.
        998    1    1    2    0    0 -0.26782541488E+01  0.24368558133E+02  0.12817660636E+04  0.12820394852E+04  0.10000000000E+02 0.  1.
</event>
<event>
 5    1  0.1146201E-008  0.3705551E+03  0.7957747E-01  0.3493344E+00
         13   -1    0    0    0    0  0.00000000000E+00  0.00000000000E+00  0.14999999963E+04  0.15000000000E+04  0.10566000000E+00 0.  1.
        994   -1    0    0    0    0 -0.00000000000E+00 -0.00000000000E+00  0.11368683772E-12  0.17120000000E+03  0.17120000000E+03 0.  0.
         13    1    1    2    0    0 -0.44781009244E+02  0.26374059984E+02  0.15819571204E+03  0.16651373607E+03  0.10566000000E+00 0.  1.
        994    1    1    2    0    0  0.21691329801E+02  0.46919062698E+01  0.10680773983E+02  0.17296255868E+03  0.17120000000E+03 0.  0.
        998    1    1    2    0    0  0.23089679443E+02 -0.31065966254E+02  0.13311235103E+04  0.13317237052E+04  0.10000000000E+02 0.  1.
</event>
<event>
 5    1  0.1146201E-008  0.3850190E+03  0.7957747E-01  0.3429592E+00
         13   -1    0    0    0    0  0.00000000000E+00  0.00000000000E+00  0.14999999963E+04  0.15000000000E+04  0.10566000000E+00 0.  1.
        994   -1    0    0    0    0 -0.00000000000E+00 -0.00000000000E+00  0.11368683772E-12  0.17120000000E+03  0.17120000000E+03 0.  0.
         13    1    1    2    0    0  0.31284185262E+01 -0.16473253173E+02  0.80989191228E+02  0.82706803422E+02  0.10566000000E+00 0.  1.
        994    1    1    2    0    0  0.91770266239E+00  0.21356679173E+02  0.31248080538E+01  0.17255768412E+03  0.17120000000E+03 0.  0.
        998    1    1    2    0    0 -0.40461211886E+01 -0.48834260005E+01  0.14158859970E+04  0.14159355125E+04  0.10000000000E+02 0.  1.
</event>
<event>
 5    1  0.1146201E-008  0.3733018E+03  0.7957747E-01  0.3480853E+00
         13   -1    0    0    0    0  0.00000000000E+00  0.00000000000E+00  0.14999999963E+04  0.15000000000E+04  0.10566000000E+00 0. -1.
        994   -1    0    0    0    0 -0.00000000000E+00 -0.00000000000E+00  0.11368683772E-12  0.17120000000E+03  0.17120000000E+03 0.  0.
         13    1    1    2    0    0 -0.37128932087E+02  0.25319965958E+02  0.12903529468E+03  0.13663739134E+03  0.10566000000E+00 0. -1.
        994    1    1    2    0    0  0.21403704527E+02 -0.22910535569E+02  0.10921487274E+02  0.17438959284E+03  0.17120000000E+03 0.  0.
        998    1    1    2    0    0  0.15725227560E+02 -0.24094303894E+01  0.13600432143E+04  0.13601730158E+04  0.10000000000E+02 0. -1.
</event>
<event>
 5    1  0.1146201E-008  0.3842706E+03  0.7957747E-01  0.3432772E+00
         13   -1    0    0    0    0  0.00000000000E+00  0.00000000000E+00  0.14999999963E+04  0.15000000000E+04  0.10566000000E+00 0. -1.
        994   -1    0    0    0    0 -0.00000000000E+00 -0.00000000000E+00  0.11368683772E-12  0.17120000000E+03  0.17120000000E+03 0.  0.
         13    1    1    2    0    0 -0.22845829208E+02 -0.14002271186E+01  0.12694642445E+03  0.12899340445E+03  0.10566000000E+00 0. -1.
        994    1    1    2    0    0  0.18002937645E+02  0.21728074182E+01  0.30774338319E+01  0.17218518361E+03  0.17120000000E+03 0.  0.
        998    1    1    2    0    0  0.48428915627E+01 -0.77258029960E+00  0.13699761380E+04  0.13700214119E+04  0.10000000000E+02 0. -1.
</event>
<event>
 5    1  0.1146201E-008  0.3714691E+03  0.7957747E-01  0.3489166E+00
         13   -1    0    0    0    0  0.00000000000E+00  0.00000000000E+00  0.14999999963E+04  0.15000000000E+04  0.10566000000E+00 0. -1.
        994   -1    0    0    0    0 -0.00000000000E+00 -0.00000000000E+00  0.11368683772E-12  0.17120000000E+03  0.17120000000E+03 0.  0.
         13    1    1    2    0    0 -0.73753307504E+01  0.19265892169E+02  0.21145888282E+02  0.29542001625E+02  0.10566000000E+00 0. -1.
        994    1    1    2    0    0  0.91695618209E+01 -0.17682054832E+02  0.98692224658E+01  0.17263712660E+03  0.17120000000E+03 0.  0.
        998    1    1    2    0    0 -0.17942310704E+01 -0.15838373371E+01  0.14689848855E+04  0.14690208718E+04  0.10000000000E+02 0. -1.
</event>
<event>
 5    1  0.1146201E-008  0.3860288E+03  0.7957747E-01  0.3425321E+00
         13   -1    0    0    0    0  0.00000000000E+00  0.00000000000E+00  0.14999999963E+04  0.15000000000E+04  0.10566000000E+00 0.  1.
        994   -1    0    0    0    0 -0.00000000000E+00 -0.00000000000E+00  0.11368683772E-12  0.17120000000E+03  0.17120000000E+03 0.  0.
         13    1    1    2    0    0  0.32043556566E+01 -0.10897792795E+02  0.57494673859E+02  0.58606129962E+02  0.10566000000E+00 0.  1.
        994    1    1    2    0    0 -0.36714941442E+01  0.88880827544E+01  0.14234076199E+01  0.17147578247E+03  0.17120000000E+03 0.  0.
        998    1    1    2    0    0  0.46713848766E+00  0.20097100409E+01  0.14410819148E+04  0.14411180876E+04  0.10000000000E+02 0.  1.
</event>
<event>
 5    1  0.1146201E-008  0.3816803E+03  0.7957747E-01  0.3443875E+00
         13   -1    0    0    0    0  0.00000000000E+00  0.00000000000E+00  0.14999999963E+04  0.15000000000E+04  0.10566000000E+00 0. -1.
        994   -1    0    0    0    0 -0.00000000000E+00 -0.00000000000E+00  0.11368683772E-12  0.17120000000E+03  0.17120000000E+03 0.  0.
         13    1    1    2    0    0 -0.18025975386E+02  0.16847396684E+02  0.93572941605E+02  0.96771261893E+02  0.10566000000E+00 0. -1.
        994    1    1    2    0    0  0.66550135065E+01 -0.93004552532E+01  0.37222683148E+01  0.17162191863E+03  0.17120000000E+03 0.  0.
        998    1    1    2    0    0  0.11370961880E+02 -0.75469414312E+01  0.14027047864E+04  0.14028068195E+04  0.10000000000E+02 0. -1.
</event>
<event>
 5    1  0.1146201E-008  0.3123281E+03  0.7957747E-01  0.3811758E+00
         13   -1    0    0    0    0  0.00000000000E+00  0.00000000000E+00  0.14999999963E+04  0.15000000000E+04  0.10566000000E+00 0. -1.
        994   -1    0    0    0    0 -0.00000000000E+00 -0.00000000000E+00  0.11368683772E-12  0.17120000000E+03  0.17120000000E+03 0.  0.
         13    1    1    2    0    0  0.11509639520E+03 -0.11387400810E+03  0.90363456736E+03  0.91802500641E+03  0.10566000000E+00 0. -1.
        994    1    1    2    0    0 -0.35156315809E+02  0.70899871462E+02  0.44470441196E+02  0.19377775531E+03  0.17120000000E+03 0.  0.
        998    1    1    2    0    0 -0.79940079390E+02  0.42974136640E+02  0.55189498772E+03  0.55939723827E+03  0.10000000000E+02 0.  1.
</event>
<event>
 5    1  0.1146201E-008  0.3797627E+03  0.7957747E-01  0.3452192E+00
         13   -1    0    0    0    0  0.00000000000E+00  0.00000000000E+00  0.14999999963E+04  0.15000000000E+04  0.10566000000E+00 0.  1.
        994   -1    0    0    0    0 -0.00000000000E+00 -0.00000000000E+00  0.11368683772E-12  0.17120000000E+03  0.17120000000E+03 0.  0.
         13    1    1    2    0    0  0.25369152588E+02  0.84188321536E+01  0.79865387012E+02  0.84219723608E+02  0.10566000000E+00 0.  1.
        994    1    1    2    0    0 -0.24501769429E+02 -0.14893428148E+01  0.62714571781E+01  0.17306451405E+03  0.17120000000E+03 0.  0.
        998    1    1    2    0    0 -0.86738315974E+00 -0.69294893387E+01  0.14138631521E+04  0.14139157623E+04  0.10000000000E+02 0.  1.
</event>
<event>
 5    1  0.1146201E-008  0.3810821E+03  0.7957747E-01  0.3446460E+00
         13   -1    0    0    0    0  0.00000000000E+00  0.00000000000E+00  0.14999999963E+04  0.15000000000E+04  0.10566000000E+00 0.  1.
        994   -1    0    0    0    0 -0.00000000000E+00 -0.00000000000E+00  0.11368683772E-12  0.17120000000E+03  0.17120000000E+03 0.  0.
         13    1    1    2    0    0  0.69004775492E+01  0.10461644067E+02  0.20212002070E+02  0.23782320717E+02  0.10566000000E+00 0.  1.
        994    1    1    2    0    0 -0.85362216650E+01 -0.94180976653E+01  0.41262750459E+01  0.17172080185E+03  0.17120000000E+03 0.  0.
        998    1    1    2    0    0  0.16357441158E+01 -0.10435464012E+01  0.14756617192E+04  0.14756968774E+04  0.10000000000E+02 0.  1.
</event>
<event>
 5    1  0.1146201E-008  0.3859094E+03  0.7957747E-01  0.3425824E+00
         13   -1    0    0    0    0  0.00000000000E+00  0.00000000000E+00  0.14999999963E+04  0.15000000000E+04  0.10566000000E+00 0.  1.
        994   -1    0    0    0    0 -0.00000000000E+00 -0.00000000000E+00  0.11368683772E-12  0.17120000000E+03  0.17120000000E+03 0.  0.
         13    1    1    2    0    0  0.91796024234E+01  0.83255284664E+01  0.66597349108E+02  0.67740664280E+02  0.10566000000E+00 0.  1.
        994    1    1    2    0    0 -0.91595101531E+01  0.17239161261E+00  0.14545502334E+01  0.17145110691E+03  0.17120000000E+03 0.  0.
        998    1    1    2    0    0 -0.20092270289E-01 -0.84979200790E+01  0.14319480969E+04  0.14320082288E+04  0.10000000000E+02 0.  1.
</event>
<event>
 5    1  0.1146201E-008  0.3811574E+03  0.7957747E-01  0.3446134E+00
         13   -1    0    0    0    0  0.00000000000E+00  0.00000000000E+00  0.14999999963E+04  0.15000000000E+04  0.10566000000E+00 0.  1.
        994   -1    0    0    0    0 -0.00000000000E+00 -0.00000000000E+00  0.11368683772E-12  0.17120000000E+03  0.17120000000E+03 0.  0.
         13    1    1    2    0    0  0.30319750360E+02  0.14634039445E+02  0.17934480873E+03  0.18247743410E+03  0.10566000000E+00 0.  1.
        994    1    1    2    0    0 -0.73836024157E+01  0.70469870836E+01  0.38970373970E+01  0.17154825709E+03  0.17120000000E+03 0.  0.
        998    1    1    2    0    0 -0.22936147944E+02 -0.21681026528E+02  0.13167581502E+04  0.13171743088E+04  0.10000000000E+02 0.  1.
</event>
<event>
 5    1  0.1146201E-008  0.3826463E+03  0.7957747E-01  0.3439716E+00
         13   -1    0    0    0    0  0.00000000000E+00  0.00000000000E+00  0.14999999963E+04  0.15000000000E+04  0.10566000000E+00 0. -1.
        994   -1    0    0    0    0 -0.00000000000E+00 -0.00000000000E+00  0.11368683772E-12  0.17120000000E+03  0.17120000000E+03 0.  0.
         13    1    1    2    0    0  0.93179197388E+01  0.11582232863E+02  0.38923780740E+02  0.41665856735E+02  0.10566000000E+00 0. -1.
        994    1    1    2    0    0 -0.27225571477E+01 -0.68790059348E+01  0.29846310951E+01  0.17138576680E+03  0.17120000000E+03 0.  0.
        998    1    1    2    0    0 -0.65953625912E+01 -0.47032269282E+01  0.14580915844E+04  0.14581483765E+04  0.10000000000E+02 0. -1.
</event>
<event>
 5    1  0.1146201E-008  0.3839736E+03  0.7957747E-01  0.3434037E+00
         13   -1    0    0    0    0  0.00000000000E+00  0.00000000000E+00  0.14999999963E+04  0.15000000000E+04  0.10566000000E+00 0.  1.
        994   -1    0    0    0    0 -0.00000000000E+00 -0.00000000000E+00  0.11368683772E-12  0.17120000000E+03  0.17120000000E+03 0.  0.
         13    1    1    2    0    0  0.78524829719E+01 -0.11984149195E+02  0.46466391328E+02  0.48625281571E+02  0.10566000000E+00 0.  1.
        994    1    1    2    0    0 -0.49384276683E+01  0.13496365753E+02  0.28224022550E+01  0.17182533547E+03  0.17120000000E+03 0.  0.
        998    1    1    2    0    0 -0.29140553035E+01 -0.15122165574E+01  0.14507112027E+04  0.14507493830E+04  0.10000000000E+02 0.  1.
</event>
<event>
 5    1  0.1146201E-008  0.3831682E+03  0.7957747E-01  0.3437479E+00
         13   -1    0    0    0    0  0.00000000000E+00  0.00000000000E+00  0.14999999963E+04  0.15000000000E+04  0.10566000000E+00 0. -1.
        994   -1    0    0    0    0 -0.00000000000E+00 -0.00000000000E+00  0.11368683772E-12  0.17120000000E+03  0.17120000000E+03 0.  0.
         13    1    1    2    0    0  0.30731654437E+01  0.11426965200E+02  0.26542913224E+02  0.29061267797E+02  0.10566000000E+00 0. -1.
        994    1    1    2    0    0 -0.24535518080E+01 -0.91942443620E+01  0.28419909817E+01  0.17148781577E+03  0.17120000000E+03 0.  0.
        998    1    1    2    0    0 -0.61961363572E+00 -0.22327208378E+01  0.14706150921E+04  0.14706509164E+04  0.10000000000E+02 0. -1.
</event>
<event>
 5    1  0.1146201E-008  0.3831951E+03  0.7957747E-01  0.3437363E+00
         13   -1    0    0    0    0  0.00000000000E+00  0.00000000000E+00  0.14999999963E+04  0.15000000000E+04  0.10566000000E+00 0. -1.
        994   -1    0    0    0    0 -0.00000000000E+00 -0.00000000000E+00  0.11368683772E-12  0.17120000000E+03  0.17120000000E+03 0.  0.
         13    1    1    2    0    0  0.12027832823E+02  0.41009995253E+01  0.30978425706E+02  0.33483742066E+02  0.10566000000E+00 0. -1.
        994    1    1    2    0    0 -0.94359960790E+01 -0.25223022382E+01  0.28445419706E+01  0.17150198672E+03  0.17120000000E+03 0.  0.
        998    1    1    2    0    0 -0.25918367445E+01 -0.15786972870E+01  0.14661770286E+04  0.14662142712E+04  0.10000000000E+02 0. -1.
</event>
<event>
 5    1  0.1146201E-008  0.3766091E+03  0.7957747E-01  0.3466058E+00
         13   -1    0    0    0    0  0.00000000000E+00  0.00000000000E+00  0.14999999963E+04  0.15000000000E+04  0.10566000000E+00 0.  1.
        994   -1    0    0    0    0 -0.00000000000E+00 -0.00000000000E+00  0.11368683772E-12  0.17120000000E+03  0.17120000000E+03 0.  0.
         13    1    1    2    0    0 -0.80842222964E+02  0.38936917344E+02  0.47781358070E+03  0.48616599800E+03  0.10566000000E+00 0.  1.
        994    1    1    2    0    0  0.82680052375E+02 -0.28808921005E+02  0.32228355564E+02  0.19497192591E+03  0.17120000000E+03 0.  0.
        998    1    1    2    0    0 -0.18378294110E+01 -0.10127996340E+02  0.98995806001E+03  0.99006207609E+03  0.10000000000E+02 0.  0.
</event>
<event>
 5    1  0.1146201E-008  0.2790206E+03  0.7957747E-01  0.4058199E+00
         13   -1    0    0    0    0  0.00000000000E+00  0.00000000000E+00  0.14999999963E+04  0.15000000000E+04  0.10566000000E+00 0. -1.
        994   -1    0    0    0    0 -0.00000000000E+00 -0.00000000000E+00  0.11368683772E-12  0.17120000000E+03  0.17120000000E+03 0.  0.
         13    1    1    2    0    0  0.97445715065E+02 -0.12692415666E+03  0.54937926741E+03  0.57220887755E+03  0.10566000000E+00 0. -1.
        994    1    1    2    0    0 -0.10642330621E+03  0.10086889879E+03  0.97876616893E+02  0.24574321350E+03  0.17120000000E+03 0.  0.
        998    1    1    2    0    0  0.89775911438E+01  0.26055257865E+02  0.85274411198E+03  0.85324790895E+03  0.10000000000E+02 0. -1.
</event>
<event>
 5    1  0.1146201E-008  0.4020063E+03  0.7957747E-01  0.3360600E+00
         13   -1    0    0    0    0  0.00000000000E+00  0.00000000000E+00  0.14999999963E+04  0.15000000000E+04  0.10566000000E+00 0. -1.
        994   -1    0    0    0    0 -0.00000000000E+00 -0.00000000000E+00  0.11368683772E-12  0.17120000000E+03  0.17120000000E+03 0.  0.
         13    1    1    2    0    0  0.15294471662E+02 -0.10351306185E+02 -0.68701921860E+01  0.19704849856E+02  0.10566000000E+00 0. -1.
        994    1    1    2    0    0 -0.10021001473E+02  0.84637044148E+01  0.29665049084E+02  0.17424554485E+03  0.17120000000E+03 0.  0.
        998    1    1    2    0    0 -0.52734701884E+01  0.18876017703E+01  0.14772051394E+04  0.14772496053E+04  0.10000000000E+02 0. -1.
</event>
<event>
 5    1  0.1146201E-008  0.3784594E+03  0.7957747E-01  0.3457894E+00
         13   -1    0    0    0    0  0.00000000000E+00  0.00000000000E+00  0.14999999963E+04  0.15000000000E+04  0.10566000000E+00 0. -1.
        994   -1    0    0    0    0 -0.00000000000E+00 -0.00000000000E+00  0.11368683772E-12  0.17120000000E+03  0.17120000000E+03 0.  0.
         13    1    1    2    0    0 -0.10891657512E+02  0.10970284630E+02  0.22056321640E+02  0.26934510141E+02  0.10566000000E+00 0. -1.
        994    1    1    2    0    0  0.95759455464E+01 -0.10616600571E+02  0.55999775790E+01  0.17188720339E+03  0.17120000000E+03 0.  0.
        998    1    1    2    0    0  0.13157119651E+01 -0.35368405899E+00  0.14723436971E+04  0.14723782865E+04  0.10000000000E+02 0. -1.
</event>
<event>
 5    1  0.1146201E-008  0.3854235E+03  0.7957747E-01  0.3427878E+00
         13   -1    0    0    0    0  0.00000000000E+00  0.00000000000E+00  0.14999999963E+04  0.15000000000E+04  0.10566000000E+00 0. -1.
        994   -1    0    0    0    0 -0.00000000000E+00 -0.00000000000E+00  0.11368683772E-12  0.17120000000E+03  0.17120000000E+03 0.  0.
         13    1    1    2    0    0  0.14932199623E+02 -0.57295945340E+01  0.87296377304E+02  0.88749464751E+02  0.10566000000E+00 0. -1.
        994    1    1    2    0    0 -0.13693337492E+02  0.59285648571E+01  0.21516055361E+01  0.17186251709E+03  0.17120000000E+03 0.  0.
        998    1    1    2    0    0 -0.12388621316E+01 -0.19897032306E+00  0.14105520134E+04  0.14105880182E+04  0.10000000000E+02 0.  0.
</event>
<event>
 5    1  0.1146201E-008  0.3840156E+03  0.7957747E-01  0.3433858E+00
         13   -1    0    0    0    0  0.00000000000E+00  0.00000000000E+00  0.14999999963E+04  0.15000000000E+04  0.10566000000E+00 0. -1.
        994   -1    0    0    0    0 -0.00000000000E+00 -0.00000000000E+00  0.11368683772E-12  0.17120000000E+03  0.17120000000E+03 0.  0.
         13    1    1    2    0    0  0.14191468724E+02 -0.11030334963E+02  0.74245887153E+02  0.76390634223E+02  0.10566000000E+00 0. -1.
        994    1    1    2    0    0 -0.11124848592E+02  0.10179125305E+02  0.28701920175E+01  0.17188675007E+03  0.17120000000E+03 0.  0.
        998    1    1    2    0    0 -0.30666201314E+01  0.85120965751E+00  0.14228839171E+04  0.14229226157E+04  0.10000000000E+02 0. -1.
</event>
<event>
 5    1  0.1146201E-008  0.3837471E+03  0.7957747E-01  0.3435003E+00
         13   -1    0    0    0    0  0.00000000000E+00  0.00000000000E+00  0.14999999963E+04  0.15000000000E+04  0.10566000000E+00 0.  1.
        994   -1    0    0    0    0 -0.00000000000E+00 -0.00000000000E+00  0.11368683772E-12  0.17120000000E+03  0.17120000000E+03 0.  0.
         13    1    1    2    0    0  0.10831177964E+02  0.23757599122E+02  0.15662080453E+03  0.15878232114E+03  0.10566000000E+00 0.  1.
        994    1    1    2    0    0 -0.15392396315E+02 -0.56081962970E+01  0.31401519021E+01  0.17201069235E+03  0.17120000000E+03 0.  0.
        998    1    1    2    0    0  0.45612183511E+01 -0.18149402825E+02  0.13402390398E+04  0.13404069865E+04  0.10000000000E+02 0.  1.
</event>
<event>
 5    1  0.1146201E-008  0.3822733E+03  0.7957747E-01  0.3441319E+00
         13   -1    0    0    0    0  0.00000000000E+00  0.00000000000E+00  0.14999999963E+04  0.15000000000E+04  0.10566000000E+00 0.  1.
        994   -1    0    0    0    0 -0.00000000000E+00 -0.00000000000E+00  0.11368683772E-12  0.17120000000E+03  0.17120000000E+03 0.  0.
         13    1    1    2    0    0 -0.11207822018E+02  0.65005283137E+01  0.27055167485E+02  0.29997756490E+02  0.10566000000E+00 0.  1.
        994    1    1    2    0    0  0.11172313798E+02  0.34577236602E+01  0.34439051727E+01  0.17163355421E+03  0.17120000000E+03 0.  0.
        998    1    1    2    0    0  0.35508220474E-01 -0.99582519739E+01  0.14695009236E+04  0.14695686893E+04  0.10000000000E+02 0.  1.
</event>
<event>
 5    1  0.1146201E-008  0.3818909E+03  0.7957747E-01  0.3442966E+00
         13   -1    0    0    0    0  0.00000000000E+00  0.00000000000E+00  0.14999999963E+04  0.15000000000E+04  0.10566000000E+00 0.  1.
        994   -1    0    0    0    0 -0.00000000000E+00 -0.00000000000E+00  0.11368683772E-12  0.17120000000E+03  0.17120000000E+03 0.  0.
         13    1    1    2    0    0 -0.30165431407E+01  0.25058600732E+02  0.92475409890E+02  0.95857944906E+02  0.10566000000E+00 0.  1.
        994    1    1    2    0    0 -0.90567073826E+01 -0.29525051192E+02  0.63566369671E+01  0.17407929064E+03  0.17120000000E+03 0.  0.
        998    1    1    2    0    0  0.12073250523E+02  0.44664504600E+01  0.14011679494E+04  0.14012627645E+04  0.10000000000E+02 0.  1.
</event>
<event>
 5    1  0.1146201E-008  0.3843570E+03  0.7957747E-01  0.3432404E+00
         13   -1    0    0    0    0  0.00000000000E+00  0.00000000000E+00  0.14999999963E+04  0.15000000000E+04  0.10566000000E+00 0. -1.
        994   -1    0    0    0    0 -0.00000000000E+00 -0.00000000000E+00  0.11368683772E-12  0.17120000000E+03  0.17120000000E+03 0.  0.
         13    1    1    2    0    0 -0.10327785100E+02  0.60801444698E+01  0.35743046143E+02  0.37698909978E+02  0.10566000000E+00 0. -1.
        994    1    1    2    0    0  0.12223113698E+02 -0.35861523509E+01  0.24846510601E+01  0.17169123008E+03  0.17120000000E+03 0.  0.
        998    1    1    2    0    0 -0.18953285980E+01 -0.24939921189E+01  0.14617722991E+04  0.14618098599E+04  0.10000000000E+02 0. -1.
</event>
<event>
 5    1  0.1146201E-008  0.3829976E+03  0.7957747E-01  0.3438209E+00
         13   -1    0    0    0    0  0.00000000000E+00  0.00000000000E+00  0.14999999963E+04  0.15000000000E+04  0.10566000000E+00 0.  1.
        994   -1    0    0    0    0 -0.00000000000E+00 -0.00000000000E+00  0.11368683772E-12  0.17120000000E+03  0.17120000000E+03 0.  0.
         13    1    1    2    0    0  0.75977805388E+00 -0.24854573794E+02  0.10237314847E+03  0.10534989223E+03  0.10566000000E+00 0.  1.
        994    1    1    2    0    0 -0.58874014820E+01  0.36418948235E+02  0.71457454122E+01  0.17527550589E+03  0.17120000000E+03 0.  0.
        998    1    1    2    0    0  0.51276234281E+01 -0.11564374441E+02  0.13904811024E+04  0.13905746019E+04  0.10000000000E+02 0.  1.
</event>
<event>
 5    1  0.1146201E-008  0.3698777E+03  0.7957747E-01  0.3496453E+00
         13   -1    0    0    0    0  0.00000000000E+00  0.00000000000E+00  0.14999999963E+04  0.15000000000E+04  0.10566000000E+00 0. -1.
        994   -1    0    0    0    0 -0.00000000000E+00 -0.00000000000E+00  0.11368683772E-12  0.17120000000E+03  0.17120000000E+03 0.  0.
         13    1    1    2    0    0  0.35777354769E+02  0.87209526755E+00  0.55912267263E+02  0.66385031890E+02  0.10566000000E+00 0. -1.
        994    1    1    2    0    0 -0.17157252834E+02  0.11151564941E+02  0.12338753260E+02  0.17285951972E+03  0.17120000000E+03 0.  0.
        998    1    1    2    0    0 -0.18620101935E+02 -0.12023660209E+02  0.14317489758E+04  0.14319554484E+04  0.10000000000E+02 0. -1.
</event>
<event>
 5    1  0.1146201E-008  0.3823845E+03  0.7957747E-01  0.3440841E+00
         13   -1    0    0    0    0  0.00000000000E+00  0.00000000000E+00  0.14999999963E+04  0.15000000000E+04  0.10566000000E+00 0.  1.
        994   -1    0    0    0    0 -0.00000000000E+00 -0.00000000000E+00  0.11368683772E-12  0.17120000000E+03  0.17120000000E+03 0.  0.
         13    1    1    2    0    0  0.27261580378E+02  0.10851297190E+02  0.16601527017E+03  0.16858833148E+03  0.10566000000E+00 0.  1.
        994    1    1    2    0    0 -0.22366192886E+02  0.42664234286E+02  0.10669290798E+02  0.17816777834E+03  0.17120000000E+03 0.  0.
        998    1    1    2    0    0 -0.48953874921E+01 -0.53515531476E+02  0.13233154353E+04  0.13244438902E+04  0.10000000000E+02 0.  1.
</event>
<event>
 5    1  0.1146201E-008  0.3703008E+03  0.7957747E-01  0.3494509E+00
         13   -1    0    0    0    0  0.00000000000E+00  0.00000000000E+00  0.14999999963E+04  0.15000000000E+04  0.10566000000E+00 0.  1.
        994   -1    0    0    0    0 -0.00000000000E+00 -0.00000000000E+00  0.11368683772E-12  0.17120000000E+03  0.17120000000E+03 0.  0.
         13    1    1    2    0    0 -0.27807014263E+02 -0.28012486150E+02  0.79430746297E+02  0.88697147890E+02  0.10566000000E+00 0.  1.
        994    1    1    2    0    0  0.26930744711E+02  0.22821490672E+02  0.13428181923E+02  0.17531640402E+03  0.17120000000E+03 0.  0.
        998    1    1    2    0    0  0.87626955155E+00  0.51909954778E+01  0.14071410681E+04  0.14071864481E+04  0.10000000000E+02 0.  1.
</event>
<event>
 5    1  0.1146201E-008  0.3726169E+03  0.7957747E-01  0.3483950E+00
         13   -1    0    0    0    0  0.00000000000E+00  0.00000000000E+00  0.14999999963E+04  0.15000000000E+04  0.10566000000E+00 0. -1.
        994   -1    0    0    0    0 -0.00000000000E+00 -0.00000000000E+00  0.11368683772E-12  0.17120000000E+03  0.17120000000E+03 0.  0.
         13    1    1    2    0    0 -0.58966276350E+02  0.14000821025E+02  0.19732739585E+03  0.20642470068E+03  0.10566000000E+00 0. -1.
        994    1    1    2    0    0  0.62305861019E+02 -0.11083372030E+02  0.21758399196E+02  0.18381438842E+03  0.17120000000E+03 0.  0.
        998    1    1    2    0    0 -0.33395846689E+01 -0.29174489943E+01  0.12809142012E+04  0.12809609109E+04  0.10000000000E+02 0. -1.
</event>
<event>
 5    1  0.1146201E-008  0.3821259E+03  0.7957747E-01  0.3441954E+00
         13   -1    0    0    0    0  0.00000000000E+00  0.00000000000E+00  0.14999999963E+04  0.15000000000E+04  0.10566000000E+00 0. -1.
        994   -1    0    0    0    0 -0.00000000000E+00 -0.00000000000E+00  0.11368683772E-12  0.17120000000E+03  0.17120000000E+03 0.  0.
         13    1    1    2    0    0 -0.12396733446E+02  0.25899633186E+01  0.25382477582E+02  0.28366674855E+02  0.10566000000E+00 0. -1.
        994    1    1    2    0    0  0.27038040242E+01 -0.76290545323E+01  0.32813679566E+01  0.17142263679E+03  0.17120000000E+03 0.  0.
        998    1    1    2    0    0  0.96929294221E+01  0.50390912137E+01  0.14713361507E+04  0.14714106884E+04  0.10000000000E+02 0. -1.
</event>
<event>
 5    1  0.1146201E-008  0.3787235E+03  0.7957747E-01  0.3456736E+00
         13   -1    0    0    0    0  0.00000000000E+00  0.00000000000E+00  0.14999999963E+04  0.15000000000E+04  0.10566000000E+00 0.  1.
        994   -1    0    0    0    0 -0.00000000000E+00 -0.00000000000E+00  0.11368683772E-12  0.17120000000E+03  0.17120000000E+03 0.  0.
         13    1    1    2    0    0  0.52560868518E+01  0.27384492125E+02  0.81897767884E+02  0.86514694742E+02  0.10566000000E+00 0.  1.
        994    1    1    2    0    0 -0.15558844876E+01 -0.10867938042E+02  0.51836455261E+01  0.17162995961E+03  0.17120000000E+03 0.  0.
        998    1    1    2    0    0 -0.37002023642E+01 -0.16516554082E+02  0.14129185829E+04  0.14130553457E+04  0.10000000000E+02 0.  1.
</event>
<event>
 5    1  0.1146201E-008  0.3843600E+03  0.7957747E-01  0.3432391E+00
         13   -1    0    0    0    0  0.00000000000E+00  0.00000000000E+00  0.14999999963E+04  0.15000000000E+04  0.10566000000E+00 0. -1.
        994   -1    0    0    0    0 -0.00000000000E+00 -0.00000000000E+00  0.11368683772E-12  0.17120000000E+03  0.17120000000E+03 0.  0.
         13    1    1    2    0    0 -0.58850309730E+01  0.11923240793E+02  0.44241423842E+02  0.46196450169E+02  0.10566000000E+00 0. -1.
        994    1    1    2    0    0  0.19558069457E+01 -0.12953377124E+02  0.25139892924E+01  0.17171888452E+03  0.17120000000E+03 0.  0.
        998    1    1    2    0    0  0.39292240273E+01  0.10301363304E+01  0.14532445831E+04  0.14532846653E+04  0.10000000000E+02 0. -1.
</event>
<event>
 5    1  0.1146201E-008  0.3831302E+03  0.7957747E-01  0.3437641E+00
         13   -1    0    0    0    0  0.00000000000E+00  0.00000000000E+00  0.14999999963E+04  0.15000000000E+04  0.10566000000E+00 0.  1.
        994   -1    0    0    0    0 -0.00000000000E+00 -0.00000000000E+00  0.11368683772E-12  0.17120000000E+03  0.17120000000E+03 0.  0.
         13    1    1    2    0    0 -0.32588600103E+01  0.19689973687E+02  0.75746061085E+02  0.78331297489E+02  0.10566000000E+00 0.  1.
        994    1    1    2    0    0  0.49556507523E+01 -0.15175690636E+02  0.34050422601E+01  0.17197643552E+03  0.17120000000E+03 0.  0.
        998    1    1    2    0    0 -0.16967907419E+01 -0.45142830517E+01  0.14208488929E+04  0.14208922670E+04  0.10000000000E+02 0.  0.
</event>
<event>
 5    1  0.1146201E-008  0.3843127E+03  0.7957747E-01  0.3432592E+00
         13   -1    0    0    0    0  0.00000000000E+00  0.00000000000E+00  0.14999999963E+04  0.15000000000E+04  0.10566000000E+00 0.  1.
        994   -1    0    0    0    0 -0.00000000000E+00 -0.00000000000E+00  0.11368683772E-12  0.17120000000E+03  0.17120000000E+03 0.  0.
         13    1    1    2    0    0  0.38484639721E+01 -0.10954526628E+02  0.32772522182E+02  0.34768688540E+02  0.10566000000E+00 0.  1.
        994    1    1    2    0    0  0.10376207076E+02  0.19374645828E+02  0.35654708135E+01  0.17264181173E+03  0.17120000000E+03 0.  0.
        998    1    1    2    0    0 -0.14224671048E+02 -0.84201191998E+01  0.14636620033E+04  0.14637894997E+04  0.10000000000E+02 0.  1.
</event>
<event>
 5    1  0.1146201E-008  0.4033184E+03  0.7957747E-01  0.3355512E+00
         13   -1    0    0    0    0  0.00000000000E+00  0.00000000000E+00  0.14999999963E+04  0.15000000000E+04  0.10566000000E+00 0. -1.
        994   -1    0    0    0    0 -0.00000000000E+00 -0.00000000000E+00  0.11368683772E-12  0.17120000000E+03  0.17120000000E+03 0.  0.
         13    1    1    2    0    0  0.20458422413E+01 -0.28717669819E+02  0.15810067137E+01  0.28834021166E+02  0.10566000000E+00 0. -1.
        994    1    1    2    0    0  0.69264749954E+01  0.17664787344E+02  0.31208870150E+02  0.17505271876E+03  0.17120000000E+03 0.  0.
        998    1    1    2    0    0 -0.89723172368E+01  0.11052882475E+02  0.14672101194E+04  0.14673132601E+04  0.10000000000E+02 0. -1.
</event>
<event>
 5    1  0.1146201E-008  0.3806066E+03  0.7957747E-01  0.3448521E+00
         13   -1    0    0    0    0  0.00000000000E+00  0.00000000000E+00  0.14999999963E+04  0.15000000000E+04  0.10566000000E+00 0. -1.
        994   -1    0    0    0    0 -0.00000000000E+00 -0.00000000000E+00  0.11368683772E-12  0.17120000000E+03  0.17120000000E+03 0.  0.
         13    1    1    2    0    0  0.12519767463E+02 -0.38680321936E+01  0.22354809468E+02  0.25912447217E+02  0.10566000000E+00 0. -1.
        994    1    1    2    0    0  0.28167079490E+02  0.38093512762E+02  0.11351972342E+02  0.17799664985E+03  0.17120000000E+03 0.  0.
        998    1    1    2    0    0 -0.40686846953E+02 -0.34225480568E+02  0.14662932145E+04  0.14672909029E+04  0.10000000000E+02 0. -1.
</event>
<event>
 5    1  0.1146201E-008  0.3815463E+03  0.7957747E-01  0.3444453E+00
         13   -1    0    0    0    0  0.00000000000E+00  0.00000000000E+00  0.14999999963E+04  0.15000000000E+04  0.10566000000E+00 0.  1.
        994   -1    0    0    0    0 -0.00000000000E+00 -0.00000000000E+00  0.11368683772E-12  0.17120000000E+03  0.17120000000E+03 0.  0.
         13    1    1    2    0    0  0.23956279326E+02 -0.19248993175E+02  0.12851998263E+03  0.13214319565E+03  0.10566000000E+00 0.  1.
        994    1    1    2    0    0 -0.16509070179E+02  0.30021270282E+02  0.72685229863E+01  0.17474580823E+03  0.17120000000E+03 0.  0.
        998    1    1    2    0    0 -0.74472091464E+01 -0.10772277107E+02  0.13642114907E+04  0.13643109961E+04  0.10000000000E+02 0.  1.
</event>
<event>
 5    1  0.1146201E-008  0.3702372E+03  0.7957747E-01  0.3494801E+00
         13   -1    0    0    0    0  0.00000000000E+00  0.00000000000E+00  0.14999999963E+04  0.15000000000E+04  0.10566000000E+00 0.  1.
        994   -1    0    0    0    0 -0.00000000000E+00 -0.00000000000E+00  0.11368683772E-12  0.17120000000E+03  0.17120000000E+03 0.  0.
         13    1    1    2    0    0  0.45428380002E+02  0.38279158357E+02  0.20392171564E+03  0.21239846739E+03  0.10566000000E+00 0.  1.
        994    1    1    2    0    0 -0.10412011238E+02 -0.21461243261E+02  0.11113364354E+02  0.17321068618E+03  0.17120000000E+03 0.  0.
        998    1    1    2    0    0 -0.35016368764E+02 -0.16817915096E+02  0.12849649163E+04  0.12855908464E+04  0.10000000000E+02 0.  1.
</event>
<event>
 5    1  0.1146201E-008  0.3841767E+03  0.7957747E-01  0.3433172E+00
         13   -1    0    0    0    0  0.00000000000E+00  0.00000000000E+00  0.14999999963E+04  0.15000000000E+04  0.10566000000E+00 0.  1.
        994   -1    0    0    0    0 -0.00000000000E+00 -0.00000000000E+00  0.11368683772E-12  0.17120000000E+03  0.17120000000E+03 0.  0.
         13    1    1    2    0    0  0.75243292365E+01  0.82129804176E+01  0.29596336283E+02  0.31623138098E+02  0.10566000000E+00 0.  1.
        994    1    1    2    0    0 -0.79193350080E+01 -0.63433113198E+01  0.23790188926E+01  0.17151691811E+03  0.17120000000E+03 0.  0.
        998    1    1    2    0    0  0.39500577146E+00 -0.18696690978E+01  0.14680246411E+04  0.14680599438E+04  0.10000000000E+02 0.  1.
</event>
<event>
 5    1  0.1146201E-008  0.3846585E+03  0.7957747E-01  0.3431122E+00
         13   -1    0    0    0    0  0.00000000000E+00  0.00000000000E+00  0.14999999963E+04  0.15000000000E+04  0.10566000000E+00 0.  1.
        994   -1    0    0    0    0 -0.00000000000E+00 -0.00000000000E+00  0.11368683772E-12  0.17120000000E+03  0.17120000000E+03 0.  0.
         13    1    1    2    0    0  0.15874576627E+02  0.56585913082E+01  0.75599366318E+02  0.77455130175E+02  0.10566000000E+00 0.  1.
        994    1    1    2    0    0 -0.21192473664E+02  0.72906046509E+01  0.34551563422E+01  0.17269525750E+03  0.17120000000E+03 0.  0.
        998    1    1    2    0    0  0.53178970373E+01 -0.12949195959E+02  0.14209454736E+04  0.14210496123E+04  0.10000000000E+02 0.  1.
</event>
<event>
 5    1  0.1146201E-008  0.3766402E+03  0.7957747E-01  0.3465919E+00
         13   -1    0    0    0    0  0.00000000000E+00  0.00000000000E+00  0.14999999963E+04  0.15000000000E+04  0.10566000000E+00 0. -1.
        994   -1    0    0    0    0 -0.00000000000E+00 -0.00000000000E+00  0.11368683772E-12  0.17120000000E+03  0.17120000000E+03 0.  0.
         13    1    1    2    0    0 -0.83464328740E+02 -0.22347564904E+02  0.42798239566E+03  0.43661728091E+03  0.10566000000E+00 0. -1.
        994    1    1    2    0    0  0.86290078587E+02  0.32155798913E+02  0.35065638257E+02  0.19753230635E+03  0.17120000000E+03 0.  0.
        998    1    1    2    0    0 -0.28257498472E+01 -0.98082340091E+01  0.10369519624E+04  0.10370504127E+04  0.10000000000E+02 0. -1.
</event>
<event>
 5    1  0.1146201E-008  0.3743886E+03  0.7957747E-01  0.3475962E+00
         13   -1    0    0    0    0  0.00000000000E+00  0.00000000000E+00  0.14999999963E+04  0.15000000000E+04  0.10566000000E+00 0. -1.
        994   -1    0    0    0    0 -0.00000000000E+00 -0.00000000000E+00  0.11368683772E-12  0.17120000000E+03  0.17120000000E+03 0.  0.
         13    1    1    2    0    0 -0.54690725539E+01  0.24306448638E+02  0.43728109360E+02  0.50327655540E+02  0.10566000000E+00 0. -1.
        994    1    1    2    0    0 -0.18912428233E+02 -0.40531647149E+01  0.82683634841E+01  0.17248743120E+03  0.17120000000E+03 0.  0.
        998    1    1    2    0    0  0.24381500787E+02 -0.20253283923E+02  0.14480035234E+04  0.14483849133E+04  0.10000000000E+02 0. -1.
</event>
<event>
 5    1  0.1146201E-008  0.3854601E+03  0.7957747E-01  0.3427723E+00
         13   -1    0    0    0    0  0.00000000000E+00  0.00000000000E+00  0.14999999963E+04  0.15000000000E+04  0.10566000000E+00 0. -1.
        994   -1    0    0    0    0 -0.00000000000E+00 -0.00000000000E+00  0.11368683772E-12  0.17120000000E+03  0.17120000000E+03 0.  0.
         13    1    1    2    0    0  0.27946006111E+01  0.10922083608E+02  0.43341619801E+02  0.44784024763E+02  0.10566000000E+00 0. -1.
        994    1    1    2    0    0  0.53903572655E+01 -0.18280569932E+02  0.25955794914E+01  0.17227713784E+03  0.17120000000E+03 0.  0.
        998    1    1    2    0    0 -0.81849578766E+01  0.73584863240E+01  0.14540627970E+04  0.14541388374E+04  0.10000000000E+02 0. -1.
</event>
<event>
 5    1  0.1146201E-008  0.3818289E+03  0.7957747E-01  0.3443233E+00
         13   -1    0    0    0    0  0.00000000000E+00  0.00000000000E+00  0.14999999963E+04  0.15000000000E+04  0.10566000000E+00 0. -1.
        994   -1    0    0    0    0 -0.00000000000E+00 -0.00000000000E+00  0.11368683772E-12  0.17120000000E+03  0.17120000000E+03 0.  0.
         13    1    1    2    0    0 -0.12179659113E+02 -0.12061584983E+02  0.45495828007E+02  0.48617974645E+02  0.10566000000E+00 0. -1.
        994    1    1    2    0    0  0.11807112619E+02 -0.27987672315E+01  0.37021685552E+01  0.17166941212E+03  0.17120000000E+03 0.  0.
        998    1    1    2    0    0  0.37254649433E+00  0.14860352215E+02  0.14508019997E+04  0.14509126132E+04  0.10000000000E+02 0. -1.
</event>
<event>
 5    1  0.1146201E-008  0.3835847E+03  0.7957747E-01  0.3435697E+00
         13   -1    0    0    0    0  0.00000000000E+00  0.00000000000E+00  0.14999999963E+04  0.15000000000E+04  0.10566000000E+00 0.  1.
        994   -1    0    0    0    0 -0.00000000000E+00 -0.00000000000E+00  0.11368683772E-12  0.17120000000E+03  0.17120000000E+03 0.  0.
         13    1    1    2    0    0 -0.63347121384E+01 -0.86458713791E+01  0.25517022789E+02  0.27676872761E+02  0.10566000000E+00 0.  1.
        994    1    1    2    0    0 -0.22233579707E+02  0.18239144644E+01  0.39803438230E+01  0.17269320157E+03  0.17120000000E+03 0.  0.
        998    1    1    2    0    0  0.28568291846E+02  0.68219569148E+01  0.14705026297E+04  0.14708299257E+04  0.10000000000E+02 0.  1.
</event>
<event>
 5    1  0.1146201E-008  0.3806725E+03  0.7957747E-01  0.3448235E+00
         13   -1    0    0    0    0  0.00000000000E+00  0.00000000000E+00  0.14999999963E+04  0.15000000000E+04  0.10566000000E+00 0.  1.
        994   -1    0    0    0    0 -0.00000000000E+00 -0.00000000000E+00  0.11368683772E-12  0.17120000000E+03  0.17120000000E+03 0.  0.
         13    1    1    2    0    0 -0.12139346077E+02  0.39786515183E+01  0.17133552882E+02  0.21372018845E+02  0.10566000000E+00 0.  1.
        994    1    1    2    0    0  0.54334950034E+02 -0.40178974819E+02  0.19179214435E+02  0.18505112558E+03  0.17120000000E+03 0.  0.
        998    1    1    2    0    0 -0.42195603956E+02  0.36200323301E+02  0.14636872290E+04  0.14647768556E+04  0.10000000000E+02 0.  1.
</event>
<event>
 5    1  0.1146201E-008  0.3860133E+03  0.7957747E-01  0.3425386E+00
         13   -1    0    0    0    0  0.00000000000E+00  0.00000000000E+00  0.14999999963E+04  0.15000000000E+04  0.10566000000E+00 0. -1.
        994   -1    0    0    0    0 -0.00000000000E+00 -0.00000000000E+00  0.11368683772E-12  0.17120000000E+03  0.17120000000E+03 0.  0.
         13    1    1    2    0    0 -0.78638654064E+01 -0.11635903553E+02  0.84226255101E+02  0.85389155301E+02  0.10566000000E+00 0. -1.
        994    1    1    2    0    0  0.45053864214E+01  0.14956959397E+02  0.19281286370E+01  0.17192197888E+03  0.17120000000E+03 0.  0.
        998    1    1    2    0    0  0.33584789850E+01 -0.33210558433E+01  0.14138456125E+04  0.14138888658E+04  0.10000000000E+02 0. -1.
</event>
<event>
 5    1  0.2683933E-008  0.3865282E+03  0.7957747E-01  0.3423217E+00
         13   -1    0    0    0    0  0.00000000000E+00  0.00000000000E+00  0.14999999963E+04  0.15000000000E+04  0.10566000000E+00 0. -1.
        994   -1    0    0    0    0 -0.00000000000E+00 -0.00000000000E+00  0.11368683772E-12  0.17120000000E+03  0.17120000000E+03 0.  0.
         13    1    1    2    0    0 -0.76802905840E+01 -0.68372569985E+01  0.61576470417E+02  0.62429222482E+02  0.10566000000E+00 0. -1.
        994    1    1    2    0    0  0.16905041591E+01  0.95429763595E+01  0.11807273594E+01  0.17147816281E+03  0.17120000000E+03 0.  0.
        998    1    1    2    0    0  0.59897864249E+01 -0.27057193610E+01  0.14372427985E+04  0.14372926147E+04  0.10000000000E+02 0. -1.
</event>
<event>
 5    1  0.1146201E-008  0.2920748E+03  0.7957747E-01  0.3954274E+00
         13   -1    0    0    0    0  0.00000000000E+00  0.00000000000E+00  0.14999999963E+04  0.15000000000E+04  0.10566000000E+00 0. -1.
        994   -1    0    0    0    0 -0.00000000000E+00 -0.00000000000E+00  0.11368683772E-12  0.17120000000E+03  0.17120000000E+03 0.  0.
         13    1    1    2    0    0  0.11929708058E+03  0.92181304240E+02  0.69722258311E+03  0.71333619553E+03  0.10566000000E+00 0. -1.
        994    1    1    2    0    0 -0.53560580578E+02 -0.10026055691E+03  0.62829552995E+02  0.21489045533E+03  0.17120000000E+03 0.  0.
        998    1    1    2    0    0 -0.65736500000E+02  0.80792526720E+01  0.73994786017E+03  0.74297334913E+03  0.10000000000E+02 0. -1.
</event>
<event>
 5    1  0.1146201E-008  0.3860115E+03  0.7957747E-01  0.3425393E+00
         13   -1    0    0    0    0  0.00000000000E+00  0.00000000000E+00  0.14999999963E+04  0.15000000000E+04  0.10566000000E+00 0. -1.
        994   -1    0    0    0    0 -0.00000000000E+00 -0.00000000000E+00  0.11368683772E-12  0.17120000000E+03  0.17120000000E+03 0.  0.
         13    1    1    2    0    0  0.22503854350E+01 -0.16143379235E+02  0.97067292430E+02  0.98426334644E+02  0.10566000000E+00 0. -1.
        994    1    1    2    0    0  0.12354969482E+01  0.33854074759E+02  0.48996128617E+01  0.17458829009E+03  0.17120000000E+03 0.  0.
        998    1    1    2    0    0 -0.34858823832E+01 -0.17710695524E+02  0.13980330910E+04  0.13981853753E+04  0.10000000000E+02 0. -1.
</event>
<event>
 5    1  0.1146201E-008  0.3764062E+03  0.7957747E-01  0.3466958E+00
         13   -1    0    0    0    0  0.00000000000E+00  0.00000000000E+00  0.14999999963E+04  0.15000000000E+04  0.10566000000E+00 0. -1.
        994   -1    0    0    0    0 -0.00000000000E+00 -0.00000000000E+00  0.11368683772E-12  0.17120000000E+03  0.17120000000E+03 0.  0.
         13    1    1    2    0    0  0.23609677883E+02  0.39081167227E+02  0.15425155759E+03  0.16086736370E+03  0.10566000000E+00 0. -1.
        994    1    1    2    0    0 -0.29210948012E+02 -0.38385179120E+02  0.13870857784E+02  0.17840555528E+03  0.17120000000E+03 0.  0.
        998    1    1    2    0    0  0.56012701287E+01 -0.69598810705E+00  0.13318775809E+04  0.13319270810E+04  0.10000000000E+02 0. -1.
</event>
<event>
 5    1  0.1146201E-008  0.3688791E+03  0.7957747E-01  0.3501058E+00
         13   -1    0    0    0    0  0.00000000000E+00  0.00000000000E+00  0.14999999963E+04  0.15000000000E+04  0.10566000000E+00 0. -1.
        994   -1    0    0    0    0 -0.00000000000E+00 -0.00000000000E+00  0.11368683772E-12  0.17120000000E+03  0.17120000000E+03 0.  0.
         13    1    1    2    0    0 -0.79891879132E+01 -0.29713754905E+02  0.42931866278E+02  0.52819415561E+02  0.10566000000E+00 0. -1.
        994    1    1    2    0    0  0.17546006843E+02  0.27666607842E+02  0.13590772206E+02  0.17483550164E+03  0.17120000000E+03 0.  0.
        998    1    1    2    0    0 -0.95568189296E+01  0.20471470628E+01  0.14434773578E+04  0.14435450828E+04  0.10000000000E+02 0. -1.
</event>
<event>
 5    1  0.1146201E-008  0.3830477E+03  0.7957747E-01  0.3437995E+00
         13   -1    0    0    0    0  0.00000000000E+00  0.00000000000E+00  0.14999999963E+04  0.15000000000E+04  0.10566000000E+00 0. -1.
        994   -1    0    0    0    0 -0.00000000000E+00 -0.00000000000E+00  0.11368683772E-12  0.17120000000E+03  0.17120000000E+03 0.  0.
         13    1    1    2    0    0 -0.16986579711E+02  0.64445641630E+02  0.11182609849E+03  0.13018015242E+03  0.10566000000E+00 0. -1.
        994    1    1    2    0    0  0.23718691819E+02 -0.55294395253E+02  0.31399918044E+02  0.18416145455E+03  0.17120000000E+03 0.  0.
        998    1    1    2    0    0 -0.67321121080E+01 -0.91512463764E+01  0.13567739797E+04  0.13568583930E+04  0.10000000000E+02 0. -1.
</event>
<event>
 5    1  0.1146201E-008  0.3862149E+03  0.7957747E-01  0.3424536E+00
         13   -1    0    0    0    0  0.00000000000E+00  0.00000000000E+00  0.14999999963E+04  0.15000000000E+04  0.10566000000E+00 0.  1.
        994   -1    0    0    0    0 -0.00000000000E+00 -0.00000000000E+00  0.11368683772E-12  0.17120000000E+03  0.17120000000E+03 0.  0.
         13    1    1    2    0    0 -0.37614643670E+02 -0.55200757332E+02  0.99666150354E+02  0.11998057226E+03  0.10566000000E+00 0.  1.
        994    1    1    2    0    0  0.41898163577E+02  0.52064411445E+02  0.36540118854E+02  0.18737870566E+03  0.17120000000E+03 0.  0.
        998    1    1    2    0    0 -0.42835199065E+01  0.31363458876E+01  0.13637937271E+04  0.13638407221E+04  0.10000000000E+02 0.  1.
</event>
<event>
 5    1  0.1146201E-008  0.3853975E+03  0.7957747E-01  0.3427988E+00
         13   -1    0    0    0    0  0.00000000000E+00  0.00000000000E+00  0.14999999963E+04  0.15000000000E+04  0.10566000000E+00 0.  1.
        994   -1    0    0    0    0 -0.00000000000E+00 -0.00000000000E+00  0.11368683772E-12  0.17120000000E+03  0.17120000000E+03 0.  0.
         13    1    1    2    0    0  0.11364815384E+02  0.11361204877E+01  0.45587080475E+02  0.46996200578E+02  0.10566000000E+00 0.  1.
        994    1    1    2    0    0 -0.78538765414E+01 -0.68435925447E+00  0.16370859855E+01  0.17138924055E+03  0.17120000000E+03 0.  0.
        998    1    1    2    0    0 -0.35109388426E+01 -0.45176123327E+00  0.14527758298E+04  0.14528145589E+04  0.10000000000E+02 0.  1.
</event>
<event>
 5    1  0.1146201E-008  0.3892753E+03  0.7957747E-01  0.3411740E+00
         13   -1    0    0    0    0  0.00000000000E+00  0.00000000000E+00  0.14999999963E+04  0.15000000000E+04  0.10566000000E+00 0.  1.
        994   -1    0    0    0    0 -0.00000000000E+00 -0.00000000000E+00  0.11368683772E-12  0.17120000000E+03  0.17120000000E+03 0.  0.
         13    1    1    2    0    0  0.11846482543E+02 -0.64996596252E+02  0.89974826726E+02  0.11162606005E+03  0.10566000000E+00 0.  1.
        994    1    1    2    0    0  0.16666067538E+02  0.66187330756E+02  0.39214336248E+02  0.18842962805E+03  0.17120000000E+03 0.  0.
        998    1    1    2    0    0 -0.28512550081E+02 -0.11907345036E+01  0.13708108333E+04  0.13711443119E+04  0.10000000000E+02 0.  1.
</event>
<event>
 5    1  0.1146201E-008  0.3710917E+03  0.7957747E-01  0.3490889E+00
         13   -1    0    0    0    0  0.00000000000E+00  0.00000000000E+00  0.14999999963E+04  0.15000000000E+04  0.10566000000E+00 0. -1.
        994   -1    0    0    0    0 -0.00000000000E+00 -0.00000000000E+00  0.11368683772E-12  0.17120000000E+03  0.17120000000E+03 0.  0.
         13    1    1    2    0    0  0.86623957821E+01 -0.32055333714E+02  0.58559948908E+02  0.67319093134E+02  0.10566000000E+00 0. -1.
        994    1    1    2    0    0 -0.92814327343E+01  0.28601405176E+02  0.11820551275E+02  0.17422213064E+03  0.17120000000E+03 0.  0.
        998    1    1    2    0    0  0.61903695219E+00  0.34539285376E+01  0.14296194961E+04  0.14296587762E+04  0.10000000000E+02 0. -1.
</event>
<event>
 5    1  0.1146201E-008  0.3833579E+03  0.7957747E-01  0.3436666E+00
         13   -1    0    0    0    0  0.00000000000E+00  0.00000000000E+00  0.14999999963E+04  0.15000000000E+04  0.10566000000E+00 0.  1.
        994   -1    0    0    0    0 -0.00000000000E+00 -0.00000000000E+00  0.11368683772E-12  0.17120000000E+03  0.17120000000E+03 0.  0.
         13    1    1    2    0    0 -0.33046320050E+02  0.92724320100E+01  0.20444289030E+03  0.20730398892E+03  0.10566000000E+00 0.  1.
        994    1    1    2    0    0  0.36877898858E+02 -0.68248528577E+01  0.71119648282E+01  0.17540404238E+03  0.17120000000E+03 0.  0.
        998    1    1    2    0    0 -0.38315788080E+01 -0.24475791523E+01  0.12884451411E+04  0.12884919687E+04  0.10000000000E+02 0.  1.
</event>
<event>
 5    1  0.1146201E-008  0.3740710E+03  0.7957747E-01  0.3477388E+00
         13   -1    0    0    0    0  0.00000000000E+00  0.00000000000E+00  0.14999999963E+04  0.15000000000E+04  0.10566000000E+00 0.  1.
        994   -1    0    0    0    0 -0.00000000000E+00 -0.00000000000E+00  0.11368683772E-12  0.17120000000E+03  0.17120000000E+03 0.  0.
         13    1    1    2    0    0  0.21639402896E+02 -0.33473569359E+01  0.30515426763E+02  0.37558900286E+02  0.10566000000E+00 0.  1.
        994    1    1    2    0    0 -0.11891195600E+02  0.23345842198E+02  0.95007617720E+01  0.17345354812E+03  0.17120000000E+03 0.  0.
        998    1    1    2    0    0 -0.97482072964E+01 -0.19998485262E+02  0.14599838077E+04  0.14601875516E+04  0.10000000000E+02 0.  1.
</event>
<event>
 5    1  0.1146201E-008  0.3803212E+03  0.7957747E-01  0.3449761E+00
         13   -1    0    0    0    0  0.00000000000E+00  0.00000000000E+00  0.14999999963E+04  0.15000000000E+04  0.10566000000E+00 0.  1.
        994   -1    0    0    0    0 -0.00000000000E+00 -0.00000000000E+00  0.11368683772E-12  0.17120000000E+03  0.17120000000E+03 0.  0.
         13    1    1    2    0    0 -0.40941305628E+02  0.19990400721E+02  0.18555039828E+03  0.19106221001E+03  0.10566000000E+00 0.  1.
        994    1    1    2    0    0  0.48185150572E+02 -0.80958689505E+02  0.34204396209E+02  0.19838220400E+03  0.17120000000E+03 0.  0.
        998    1    1    2    0    0 -0.72438449440E+01  0.60968288784E+02  0.12802452018E+04  0.12817555860E+04  0.10000000000E+02 0.  1.
</event>
<event>
 5    1  0.1146201E-008  0.3856753E+03  0.7957747E-01  0.3426813E+00
         13   -1    0    0    0    0  0.00000000000E+00  0.00000000000E+00  0.14999999963E+04  0.15000000000E+04  0.10566000000E+00 0.  1.
        994   -1    0    0    0    0 -0.00000000000E+00 -0.00000000000E+00  0.11368683772E-12  0.17120000000E+03  0.17120000000E+03 0.  0.
         13    1    1    2    0    0 -0.47455640630E+01  0.10331677991E+02  0.47518738815E+02  0.48860061922E+02  0.10566000000E+00 0.  1.
        994    1    1    2    0    0  0.57964251391E+01 -0.15928369907E+02  0.22386040756E+01  0.17205162847E+03  0.17120000000E+03 0.  0.
        998    1    1    2    0    0 -0.10508610761E+01  0.55966919162E+01  0.14502426534E+04  0.14502883096E+04  0.10000000000E+02 0.  1.
</event>
<event>
 5    1  0.1146201E-008  0.3002974E+03  0.7957747E-01  0.3893898E+00
         13   -1    0    0    0    0  0.00000000000E+00  0.00000000000E+00  0.14999999963E+04  0.15000000000E+04  0.10566000000E+00 0. -1.
        994   -1    0    0    0    0 -0.00000000000E+00 -0.00000000000E+00  0.11368683772E-12  0.17120000000E+03  0.17120000000E+03 0.  0.
         13    1    1    2    0    0  0.15181288969E+03  0.97757032927E+02  0.67646503080E+03  0.70014894131E+03  0.10566000000E+00 0. -1.
        994    1    1    2    0    0 -0.13008082341E+03 -0.96915596198E+02  0.11549491179E+03  0.26260648898E+03  0.17120000000E+03 0.  0.
        998    1    1    2    0    0 -0.21732066284E+02 -0.84143672975E+00  0.70804005369E+03  0.70844456971E+03  0.10000000000E+02 0. -1.
</event>
<event>
 5    1  0.1146201E-008  0.3843822E+03  0.7957747E-01  0.3432297E+00
         13   -1    0    0    0    0  0.00000000000E+00  0.00000000000E+00  0.14999999963E+04  0.15000000000E+04  0.10566000000E+00 0. -1.
        994   -1    0    0    0    0 -0.00000000000E+00 -0.00000000000E+00  0.11368683772E-12  0.17120000000E+03  0.17120000000E+03 0.  0.
         13    1    1    2    0    0 -0.88572512311E+01 -0.59159894798E+01  0.27424518293E+02  0.29420489434E+02  0.10566000000E+00 0. -1.
        994    1    1    2    0    0  0.13268090936E+02  0.15750826661E+02  0.33360526563E+01  0.17246651856E+03  0.17120000000E+03 0.  0.
        998    1    1    2    0    0 -0.44108397052E+01 -0.98348371816E+01  0.14692394253E+04  0.14693129920E+04  0.10000000000E+02 0. -1.
</event>
<event>
 5    1  0.1146201E-008  0.3835686E+03  0.7957747E-01  0.3435766E+00
         13   -1    0    0    0    0  0.00000000000E+00  0.00000000000E+00  0.14999999963E+04  0.15000000000E+04  0.10566000000E+00 0.  1.
        994   -1    0    0    0    0 -0.00000000000E+00 -0.00000000000E+00  0.11368683772E-12  0.17120000000E+03  0.17120000000E+03 0.  0.
         13    1    1    2    0    0 -0.91596785978E+01  0.47841302336E+01  0.21838153766E+02  0.24159961466E+02  0.10566000000E+00 0.  1.
        994    1    1    2    0    0  0.79264108186E+01 -0.50081614313E+01  0.26329911465E+01  0.17147676901E+03  0.17120000000E+03 0.  0.
        998    1    1    2    0    0  0.12332677792E+01  0.22403119769E+00  0.14755288514E+04  0.14755632695E+04  0.10000000000E+02 0.  1.
</event>
<event>
 5    1  0.1146201E-008  0.3797230E+03  0.7957747E-01  0.3452365E+00
         13   -1    0    0    0    0  0.00000000000E+00  0.00000000000E+00  0.14999999963E+04  0.15000000000E+04  0.10566000000E+00 0. -1.
        994   -1    0    0    0    0 -0.00000000000E+00 -0.00000000000E+00  0.11368683772E-12  0.17120000000E+03  0.17120000000E+03 0.  0.
         13    1    1    2    0    0  0.17287310344E+02  0.14005083702E+02  0.54187738139E+02  0.58577432490E+02  0.10566000000E+00 0. -1.
        994    1    1    2    0    0 -0.19793893515E+02 -0.14537214922E+02  0.62936838699E+01  0.17306697922E+03  0.17120000000E+03 0.  0.
        998    1    1    2    0    0  0.25065831712E+01  0.53213121989E+00  0.14395185743E+04  0.14395555883E+04  0.10000000000E+02 0. -1.
</event>
<event>
 5    1  0.1146201E-008  0.3809319E+03  0.7957747E-01  0.3447111E+00
         13   -1    0    0    0    0  0.00000000000E+00  0.00000000000E+00  0.14999999963E+04  0.15000000000E+04  0.10566000000E+00 0.  1.
        994   -1    0    0    0    0 -0.00000000000E+00 -0.00000000000E+00  0.11368683772E-12  0.17120000000E+03  0.17120000000E+03 0.  0.
         13    1    1    2    0    0  0.30533272787E+02  0.28575677663E+01  0.12758214412E+03  0.13121608554E+03  0.10566000000E+00 0.  1.
        994    1    1    2    0    0 -0.16626766102E+02 -0.14639273190E+02  0.53006982736E+01  0.17270870005E+03  0.17120000000E+03 0.  0.
        998    1    1    2    0    0 -0.13906506685E+02  0.11781705424E+02  0.13671171539E+04  0.13672752144E+04  0.10000000000E+02 0.  1.
</event>
<event>
 5    1  0.1146201E-008  0.3713550E+03  0.7957747E-01  0.3489687E+00
         13   -1    0    0    0    0  0.00000000000E+00  0.00000000000E+00  0.14999999963E+04  0.15000000000E+04  0.10566000000E+00 0.  1.
        994   -1    0    0    0    0 -0.00000000000E+00 -0.00000000000E+00  0.11368683772E-12  0.17120000000E+03  0.17120000000E+03 0.  0.
         13    1    1    2    0    0  0.11759481971E+01  0.18750373171E+02  0.98950863225E+01  0.21234011528E+02  0.10566000000E+00 0.  1.
        994    1    1    2    0    0 -0.15900181217E+02 -0.16352553628E+02  0.13486553839E+02  0.17323841637E+03  0.17120000000E+03 0.  0.
        998    1    1    2    0    0  0.14724233020E+02 -0.23978195428E+01  0.14766183561E+04  0.14767275721E+04  0.10000000000E+02 0.  1.
</event>
<event>
 5    1  0.1146201E-008  0.3767861E+03  0.7957747E-01  0.3465273E+00
         13   -1    0    0    0    0  0.00000000000E+00  0.00000000000E+00  0.14999999963E+04  0.15000000000E+04  0.10566000000E+00 0. -1.
        994   -1    0    0    0    0 -0.00000000000E+00 -0.00000000000E+00  0.11368683772E-12  0.17120000000E+03  0.17120000000E+03 0.  0.
         13    1    1    2    0    0 -0.24991623433E+02  0.43374633661E+01  0.58816733236E+02  0.64053213057E+02  0.10566000000E+00 0. -1.
        994    1    1    2    0    0 -0.10296109881E+02 -0.25137288940E+01  0.61440156538E+01  0.17163775121E+03  0.17120000000E+03 0.  0.
        998    1    1    2    0    0  0.35287733314E+02 -0.18237344721E+01  0.14350392474E+04  0.14355090357E+04  0.10000000000E+02 0. -1.
</event>
<event>
 5    1  0.1146201E-008  0.3855279E+03  0.7957747E-01  0.3427436E+00
         13   -1    0    0    0    0  0.00000000000E+00  0.00000000000E+00  0.14999999963E+04  0.15000000000E+04  0.10566000000E+00 0.  1.
        994   -1    0    0    0    0 -0.00000000000E+00 -0.00000000000E+00  0.11368683772E-12  0.17120000000E+03  0.17120000000E+03 0.  0.
         13    1    1    2    0    0 -0.14668492717E+02  0.16024609428E+01  0.78160336496E+02  0.79541070679E+02  0.10566000000E+00 0.  1.
        994    1    1    2    0    0  0.13127881056E+02  0.26598807465E+01  0.19575308259E+01  0.17173435345E+03  0.17120000000E+03 0.  0.
        998    1    1    2    0    0  0.15406116611E+01 -0.42623416893E+01  0.14198821290E+04  0.14199245759E+04  0.10000000000E+02 0.  1.
</event>
<event>
 5    1  0.1146201E-008  0.3772471E+03  0.7957747E-01  0.3463234E+00
         13   -1    0    0    0    0  0.00000000000E+00  0.00000000000E+00  0.14999999963E+04  0.15000000000E+04  0.10566000000E+00 0.  1.
        994   -1    0    0    0    0 -0.00000000000E+00 -0.00000000000E+00  0.11368683772E-12  0.17120000000E+03  0.17120000000E+03 0.  0.
         13    1    1    2    0    0  0.73354598015E+02  0.48339720399E+02  0.50629853815E+03  0.51386364584E+03  0.10566000000E+00 0.  1.
        994    1    1    2    0    0 -0.59310184819E+02 -0.55220759809E+02  0.28014932254E+02  0.19147142546E+03  0.17120000000E+03 0.  0.
        998    1    1    2    0    0 -0.14044413197E+02  0.68810394102E+01  0.96568652588E+03  0.96586492871E+03  0.10000000000E+02 0.  1.
</event>
<event>
 5    1  0.1146201E-008  0.3749885E+03  0.7957747E-01  0.3473274E+00
         13   -1    0    0    0    0  0.00000000000E+00  0.00000000000E+00  0.14999999963E+04  0.15000000000E+04  0.10566000000E+00 0.  1.
        994   -1    0    0    0    0 -0.00000000000E+00 -0.00000000000E+00  0.11368683772E-12  0.17120000000E+03  0.17120000000E+03 0.  0.
         13    1    1    2    0    0 -0.47055551020E+02 -0.34733998246E+02  0.19179024893E+03  0.20050981588E+03  0.10566000000E+00 0.  1.
        994    1    1    2    0    0  0.69104878957E+02  0.46260805638E+02  0.30568752791E+02  0.19276782688E+03  0.17120000000E+03 0.  0.
        998    1    1    2    0    0 -0.22049327938E+02 -0.11526807391E+02  0.12776409946E+04  0.12779223572E+04  0.10000000000E+02 0.  1.
</event>
<event>
 5    1  0.1146201E-008  0.3850577E+03  0.7957747E-01  0.3429428E+00
         13   -1    0    0    0    0  0.00000000000E+00  0.00000000000E+00  0.14999999963E+04  0.15000000000E+04  0.10566000000E+00 0. -1.
        994   -1    0    0    0    0 -0.00000000000E+00 -0.00000000000E+00  0.11368683772E-12  0.17120000000E+03  0.17120000000E+03 0.  0.
         13    1    1    2    0    0  0.73285633710E+01  0.89903419329E+01  0.41905902254E+02  0.43481604121E+02  0.10566000000E+00 0. -1.
        994    1    1    2    0    0 -0.33302695139E+01 -0.74292315130E+01  0.18194924112E+01  0.17140313512E+03  0.17120000000E+03 0.  0.
        998    1    1    2    0    0 -0.39982938571E+01 -0.15611104199E+01  0.14562746016E+04  0.14563152608E+04  0.10000000000E+02 0. -1.
</event>
<event>
 5    1  0.1146201E-008  0.3943580E+03  0.7957747E-01  0.3390928E+00
         13   -1    0    0    0    0  0.00000000000E+00  0.00000000000E+00  0.14999999963E+04  0.15000000000E+04  0.10566000000E+00 0. -1.
        994   -1    0    0    0    0 -0.00000000000E+00 -0.00000000000E+00  0.11368683772E-12  0.17120000000E+03  0.17120000000E+03 0.  0.
         13    1    1    2    0    0 -0.29521961581E+02  0.13972128439E+01  0.75568049835E+01  0.30505981133E+02  0.10566000000E+00 0. -1.
        994    1    1    2    0    0  0.26314571958E+02 -0.23397898113E+01  0.27124191838E+02  0.17533708420E+03  0.17120000000E+03 0.  0.
        998    1    1    2    0    0  0.32073896230E+01  0.94257696735E+00  0.14653189995E+04  0.14653569347E+04  0.10000000000E+02 0. -1.
</event>
<event>
 5    1  0.1146201E-008  0.3762684E+03  0.7957747E-01  0.3467569E+00
         13   -1    0    0    0    0  0.00000000000E+00  0.00000000000E+00  0.14999999963E+04  0.15000000000E+04  0.10566000000E+00 0.  1.
        994   -1    0    0    0    0 -0.00000000000E+00 -0.00000000000E+00  0.11368683772E-12  0.17120000000E+03  0.17120000000E+03 0.  0.
         13    1    1    2    0    0  0.11265965343E+02 -0.65794550253E+02  0.13635861399E+03  0.15182070870E+03  0.10566000000E+00 0.  1.
        994    1    1    2    0    0 -0.12330186492E+02  0.68710253176E+02  0.31924544167E+02  0.18762129120E+03  0.17120000000E+03 0.  0.
        998    1    1    2    0    0  0.10642211488E+01 -0.29157029226E+01  0.13317168381E+04  0.13317580001E+04  0.10000000000E+02 0.  1.
</event>
<event>
 5    1  0.1146201E-008  0.3745614E+03  0.7957747E-01  0.3475186E+00
         13   -1    0    0    0    0  0.00000000000E+00  0.00000000000E+00  0.14999999963E+04  0.15000000000E+04  0.10566000000E+00 0.  1.
        994   -1    0    0    0    0 -0.00000000000E+00 -0.00000000000E+00  0.11368683772E-12  0.17120000000E+03  0.17120000000E+03 0.  0.
         13    1    1    2    0    0 -0.23107960512E+02  0.97134053100E+01  0.44257333923E+02  0.50863059795E+02  0.10566000000E+00 0.  1.
        994    1    1    2    0    0  0.40284442943E+01 -0.41380556531E+01  0.70176575654E+01  0.17144106680E+03  0.17120000000E+03 0.  0.
        998    1    1    2    0    0  0.19079516217E+02 -0.55753496569E+01  0.14487250048E+04  0.14488958734E+04  0.10000000000E+02 0.  1.
</event>
<event>
 5    1  0.1146201E-008  0.3806279E+03  0.7957747E-01  0.3448429E+00
         13   -1    0    0    0    0  0.00000000000E+00  0.00000000000E+00  0.14999999963E+04  0.15000000000E+04  0.10566000000E+00 0.  1.
        994   -1    0    0    0    0 -0.00000000000E+00 -0.00000000000E+00  0.11368683772E-12  0.17120000000E+03  0.17120000000E+03 0.  0.
         13    1    1    2    0    0  0.42956376145E+02 -0.40509427697E+01  0.24613307631E+03  0.24988629975E+03  0.10566000000E+00 0.  1.
        994    1    1    2    0    0 -0.29366950274E+02 -0.36296039045E+02  0.11122857477E+02  0.17780038857E+03  0.17120000000E+03 0.  0.
        998    1    1    2    0    0 -0.13589425870E+02  0.40346981815E+02  0.12427440625E+04  0.12435133117E+04  0.10000000000E+02 0.  1.
</event>
<event>
 5    1  0.1146201E-008  0.3853697E+03  0.7957747E-01  0.3428106E+00
         13   -1    0    0    0    0  0.00000000000E+00  0.00000000000E+00  0.14999999963E+04  0.15000000000E+04  0.10566000000E+00 0. -1.
        994   -1    0    0    0    0 -0.00000000000E+00 -0.00000000000E+00  0.11368683772E-12  0.17120000000E+03  0.17120000000E+03 0.  0.
         13    1    1    2    0    0 -0.81945984139E+01 -0.12982353311E+02  0.80976778335E+02  0.82419310445E+02  0.10566000000E+00 0. -1.
        994    1    1    2    0    0  0.12540897995E+02  0.55559057649E+01  0.20649561068E+01  0.17176101495E+03  0.17120000000E+03 0.  0.
        998    1    1    2    0    0 -0.43462995810E+01  0.74264475459E+01  0.14169582618E+04  0.14170196746E+04  0.10000000000E+02 0. -1.
</event>
<event>
 5    1  0.1146201E-008  0.3848838E+03  0.7957747E-01  0.3430165E+00
         13   -1    0    0    0    0  0.00000000000E+00  0.00000000000E+00  0.14999999963E+04  0.15000000000E+04  0.10566000000E+00 0. -1.
        994   -1    0    0    0    0 -0.00000000000E+00 -0.00000000000E+00  0.11368683772E-12  0.17120000000E+03  0.17120000000E+03 0.  0.
         13    1    1    2    0    0 -0.14267723387E+01  0.10412794774E+02  0.31970927716E+02  0.33654321526E+02  0.10566000000E+00 0. -1.
        994    1    1    2    0    0 -0.52740248963E+01 -0.11462091797E+02  0.22117477562E+01  0.17167855636E+03  0.17120000000E+03 0.  0.
        998    1    1    2    0    0  0.67007972350E+01  0.10492970226E+01  0.14658173208E+04  0.14658671221E+04  0.10000000000E+02 0. -1.
</event>
<event>
 5    1  0.1146201E-008  0.3771130E+03  0.7957747E-01  0.3463826E+00
         13   -1    0    0    0    0  0.00000000000E+00  0.00000000000E+00  0.14999999963E+04  0.15000000000E+04  0.10566000000E+00 0. -1.
        994   -1    0    0    0    0 -0.00000000000E+00 -0.00000000000E+00  0.11368683772E-12  0.17120000000E+03  0.17120000000E+03 0.  0.
         13    1    1    2    0    0 -0.10258205291E+01  0.12796281043E+02  0.12078164066E+02  0.17626409945E+02  0.10566000000E+00 0. -1.
        994    1    1    2    0    0  0.44318183669E+01 -0.14636604478E+02  0.63873673782E+01  0.17200031880E+03  0.17120000000E+03 0.  0.
        998    1    1    2    0    0 -0.34059978379E+01  0.18403234343E+01  0.14815344648E+04  0.14815732713E+04  0.10000000000E+02 0. -1.
</event>
<event>
 5    1  0.1146201E-008  0.3856059E+03  0.7957747E-01  0.3427107E+00
         13   -1    0    0    0    0  0.00000000000E+00  0.00000000000E+00  0.14999999963E+04  0.15000000000E+04  0.10566000000E+00 0. -1.
        994   -1    0    0    0    0 -0.00000000000E+00 -0.00000000000E+00  0.11368683772E-12  0.17120000000E+03  0.17120000000E+03 0.  0.
         13    1    1    2    0    0 -0.68646448635E+01 -0.10328550953E+02  0.58026277650E+02  0.59336855123E+02  0.10566000000E+00 0. -1.
        994    1    1    2    0    0 -0.11985426418E+01  0.11343914561E+02  0.17568177719E+01  0.17158859901E+03  0.17120000000E+03 0.  0.
        998    1    1    2    0    0  0.80631875052E+01 -0.10153636084E+01  0.14402169009E+04  0.14402745459E+04  0.10000000000E+02 0. -1.
</event>
<event>
 5    1  0.1146201E-008  0.3792868E+03  0.7957747E-01  0.3454270E+00
         13   -1    0    0    0    0  0.00000000000E+00  0.00000000000E+00  0.14999999963E+04  0.15000000000E+04  0.10566000000E+00 0. -1.
        994   -1    0    0    0    0 -0.00000000000E+00 -0.00000000000E+00  0.11368683772E-12  0.17120000000E+03  0.17120000000E+03 0.  0.
         13    1    1    2    0    0  0.22467376369E+02 -0.58126973353E+01  0.60352013572E+02  0.64660244026E+02  0.10566000000E+00 0. -1.
        994    1    1    2    0    0 -0.78404088840E+01 -0.64503417083E+01  0.48390667176E+01  0.17156904000E+03  0.17120000000E+03 0.  0.
        998    1    1    2    0    0 -0.14626967485E+02  0.12263039044E+02  0.14348089160E+04  0.14349707160E+04  0.10000000000E+02 0. -1.
</event>
<event>
 5    1  0.1146201E-008  0.3825196E+03  0.7957747E-01  0.3440260E+00
         13   -1    0    0    0    0  0.00000000000E+00  0.00000000000E+00  0.14999999963E+04  0.15000000000E+04  0.10566000000E+00 0. -1.
        994   -1    0    0    0    0 -0.00000000000E+00 -0.00000000000E+00  0.11368683772E-12  0.17120000000E+03  0.17120000000E+03 0.  0.
         13    1    1    2    0    0  0.27615288965E+01 -0.13507893736E+02  0.32283541508E+02  0.35104521808E+02  0.10566000000E+00 0. -1.
        994    1    1    2    0    0 -0.22763484627E+01  0.79376864243E+01  0.30927204827E+01  0.17142693356E+03  0.17120000000E+03 0.  0.
        998    1    1    2    0    0 -0.48518043382E+00  0.55702073117E+01  0.14646237343E+04  0.14646685446E+04  0.10000000000E+02 0. -1.
</event>
<event>
 5    1  0.1146201E-008  0.3859311E+03  0.7957747E-01  0.3425733E+00
         13   -1    0    0    0    0  0.00000000000E+00  0.00000000000E+00  0.14999999963E+04  0.15000000000E+04  0.10566000000E+00 0. -1.
        994   -1    0    0    0    0 -0.00000000000E+00 -0.00000000000E+00  0.11368683772E-12  0.17120000000E+03  0.17120000000E+03 0.  0.
         13    1    1    2    0    0  0.10124046882E+02  0.17115831528E+01  0.45142059259E+02  0.46295167354E+02  0.10566000000E+00 0. -1.
        994    1    1    2    0    0 -0.88790708557E+01  0.16893210336E+01  0.14364549645E+01  0.17144443738E+03  0.17120000000E+03 0.  0.
        998    1    1    2    0    0 -0.12449760264E+01 -0.34009041864E+01  0.14534214821E+04  0.14534603953E+04  0.10000000000E+02 0. -1.
</event>
<event>
 5    1  0.1146201E-008  0.3797092E+03  0.7957747E-01  0.3452426E+00
         13   -1    0    0    0    0  0.00000000000E+00  0.00000000000E+00  0.14999999963E+04  0.15000000000E+04  0.10566000000E+00 0.  1.
        994   -1    0    0    0    0 -0.00000000000E+00 -0.00000000000E+00  0.11368683772E-12  0.17120000000E+03  0.17120000000E+03 0.  0.
         13    1    1    2    0    0  0.95041916580E+01  0.37328568418E+01  0.10202724600E+02  0.14435048755E+02  0.10566000000E+00 0.  1.
        994    1    1    2    0    0 -0.42391756994E+01 -0.18023019131E+02  0.54279077230E+01  0.17228378337E+03  0.17120000000E+03 0.  0.
        998    1    1    2    0    0 -0.52650159585E+01  0.14290162289E+02  0.14843693640E+04  0.14844811679E+04  0.10000000000E+02 0.  1.
</event>
<event>
 5    1  0.1146201E-008  0.3784798E+03  0.7957747E-01  0.3457804E+00
         13   -1    0    0    0    0  0.00000000000E+00  0.00000000000E+00  0.14999999963E+04  0.15000000000E+04  0.10566000000E+00 0.  1.
        994   -1    0    0    0    0 -0.00000000000E+00 -0.00000000000E+00  0.11368683772E-12  0.17120000000E+03  0.17120000000E+03 0.  0.
         13    1    1    2    0    0  0.98576635666E+01  0.21721923043E+01  0.82414340967E+01  0.13031667215E+02  0.10566000000E+00 0.  1.
        994    1    1    2    0    0 -0.62857388559E+01  0.11818366963E+02  0.55047368450E+01  0.17181072853E+03  0.17120000000E+03 0.  0.
        998    1    1    2    0    0 -0.35719247107E+01 -0.13990559267E+02  0.14862538253E+04  0.14863576043E+04  0.10000000000E+02 0.  1.
</event>
<event>
 5    1  0.1146201E-008  0.3868511E+03  0.7957747E-01  0.3421859E+00
         13   -1    0    0    0    0  0.00000000000E+00  0.00000000000E+00  0.14999999963E+04  0.15000000000E+04  0.10566000000E+00 0. -1.
        994   -1    0    0    0    0 -0.00000000000E+00 -0.00000000000E+00  0.11368683772E-12  0.17120000000E+03  0.17120000000E+03 0.  0.
         13    1    1    2    0    0 -0.14131180828E+02 -0.82521512862E+02  0.15723928132E+03  0.17813953270E+03  0.10566000000E+00 0. -1.
        994    1    1    2    0    0  0.24799033945E+02  0.69214605531E+02  0.40526781937E+02  0.19067646356E+03  0.17120000000E+03 0.  0.
        998    1    1    2    0    0 -0.10667853118E+02  0.13306907330E+02  0.13022339330E+04  0.13023840037E+04  0.10000000000E+02 0. -1.
</event>
<event>
 5    1  0.1146201E-008  0.3849140E+03  0.7957747E-01  0.3430037E+00
         13   -1    0    0    0    0  0.00000000000E+00  0.00000000000E+00  0.14999999963E+04  0.15000000000E+04  0.10566000000E+00 0.  1.
        994   -1    0    0    0    0 -0.00000000000E+00 -0.00000000000E+00  0.11368683772E-12  0.17120000000E+03  0.17120000000E+03 0.  0.
         13    1    1    2    0    0  0.16389407293E+02  0.10911700260E+01  0.78121986901E+02  0.79830190560E+02  0.10566000000E+00 0.  1.
        994    1    1    2    0    0 -0.14842183286E+02 -0.91192080873E+01  0.26716805967E+01  0.17210470138E+03  0.17120000000E+03 0.  0.
        998    1    1    2    0    0 -0.15472240068E+01  0.80280380613E+01  0.14192063288E+04  0.14192651081E+04  0.10000000000E+02 0.  1.
</event>
<event>
 5    1  0.1146201E-008  0.3854401E+03  0.7957747E-01  0.3427808E+00
         13   -1    0    0    0    0  0.00000000000E+00  0.00000000000E+00  0.14999999963E+04  0.15000000000E+04  0.10566000000E+00 0. -1.
        994   -1    0    0    0    0 -0.00000000000E+00 -0.00000000000E+00  0.11368683772E-12  0.17120000000E+03  0.17120000000E+03 0.  0.
         13    1    1    2    0    0 -0.26120462244E+01  0.13598106808E+02  0.66116715862E+02  0.67551184850E+02  0.10566000000E+00 0. -1.
        994    1    1    2    0    0  0.25764754616E+01 -0.13483652414E+02  0.20308859422E+01  0.17176149628E+03  0.17120000000E+03 0.  0.
        998    1    1    2    0    0  0.35570762775E-01 -0.11445439337E+00  0.14318523945E+04  0.14318873189E+04  0.10000000000E+02 0.  0.
</event>
<event>
 5    1  0.1146201E-008  0.3813812E+03  0.7957747E-01  0.3445166E+00
         13   -1    0    0    0    0  0.00000000000E+00  0.00000000000E+00  0.14999999963E+04  0.15000000000E+04  0.10566000000E+00 0.  1.
        994   -1    0    0    0    0 -0.00000000000E+00 -0.00000000000E+00  0.11368683772E-12  0.17120000000E+03  0.17120000000E+03 0.  0.
         13    1    1    2    0    0  0.28478917961E+02 -0.56614687893E+01  0.10833788425E+03  0.11216153229E+03  0.10566000000E+00 0.  1.
        994    1    1    2    0    0 -0.37540427146E+02  0.40107950707E+01  0.81953559655E+01  0.17550491163E+03  0.17120000000E+03 0.  0.
        998    1    1    2    0    0  0.90615091846E+01  0.16506737186E+01  0.13834667561E+04  0.13835335561E+04  0.10000000000E+02 0.  1.
</event>
<event>
 5    1  0.1146201E-008  0.3851731E+03  0.7957747E-01  0.3428938E+00
         13   -1    0    0    0    0  0.00000000000E+00  0.00000000000E+00  0.14999999963E+04  0.15000000000E+04  0.10566000000E+00 0. -1.
        994   -1    0    0    0    0 -0.00000000000E+00 -0.00000000000E+00  0.11368683772E-12  0.17120000000E+03  0.17120000000E+03 0.  0.
         13    1    1    2    0    0  0.41007760817E+02  0.28910552909E+02  0.57335206664E+02  0.76189196110E+02  0.10566000000E+00 0. -1.
        994    1    1    2    0    0 -0.35897826889E+02 -0.27314164492E+02  0.26752000443E+02  0.17905258190E+03  0.17120000000E+03 0.  0.
        998    1    1    2    0    0 -0.51099339279E+01 -0.15963884173E+01  0.14159127892E+04  0.14159582220E+04  0.10000000000E+02 0. -1.
</event>
<event>
 5    1  0.1146201E-008  0.3820315E+03  0.7957747E-01  0.3442360E+00
         13   -1    0    0    0    0  0.00000000000E+00  0.00000000000E+00  0.14999999963E+04  0.15000000000E+04  0.10566000000E+00 0. -1.
        994   -1    0    0    0    0 -0.00000000000E+00 -0.00000000000E+00  0.11368683772E-12  0.17120000000E+03  0.17120000000E+03 0.  0.
         13    1    1    2    0    0 -0.31978007390E+01 -0.21820632922E+02  0.78353151654E+02  0.81397748672E+02  0.10566000000E+00 0. -1.
        994    1    1    2    0    0  0.21635601965E+01  0.10725537986E+02  0.35087958979E+01  0.17158516779E+03  0.17120000000E+03 0.  0.
        998    1    1    2    0    0  0.10342405425E+01  0.11095094936E+02  0.14181380487E+04  0.14182170835E+04  0.10000000000E+02 0. -1.
</event>
<event>
 5    1  0.1146201E-008  0.3860032E+03  0.7957747E-01  0.3425429E+00
         13   -1    0    0    0    0  0.00000000000E+00  0.00000000000E+00  0.14999999963E+04  0.15000000000E+04  0.10566000000E+00 0. -1.
        994   -1    0    0    0    0 -0.00000000000E+00 -0.00000000000E+00  0.11368683772E-12  0.17120000000E+03  0.17120000000E+03 0.  0.
         13    1    1    2    0    0 -0.39864713216E+01 -0.13136556031E+02  0.82986552257E+02  0.84114446306E+02  0.10566000000E+00 0. -1.
        994    1    1    2    0    0  0.26609830870E+01  0.10246800583E+02  0.15003623098E+01  0.17153357934E+03  0.17120000000E+03 0.  0.
        998    1    1    2    0    0  0.13254882346E+01  0.28897554476E+01  0.14155130817E+04  0.14155519744E+04  0.10000000000E+02 0.  0.
</event>
<event>
 5    1  0.1146201E-008  0.4054722E+03  0.7957747E-01  0.3347231E+00
         13   -1    0    0    0    0  0.00000000000E+00  0.00000000000E+00  0.14999999963E+04  0.15000000000E+04  0.10566000000E+00 0.  1.
        994   -1    0    0    0    0 -0.00000000000E+00 -0.00000000000E+00  0.11368683772E-12  0.17120000000E+03  0.17120000000E+03 0.  0.
         13    1    1    2    0    0 -0.10245102364E+03 -0.50359069506E+02  0.27586089670E+03  0.29854898027E+03  0.10566000000E+00 0.  1.
        994    1    1    2    0    0 -0.20592337399E+02  0.40456411069E+02  0.39386236186E+02  0.18144277654E+03  0.17120000000E+03 0.  0.
        998    1    1    2    0    0  0.12304336104E+03  0.99026584366E+01  0.11847528634E+04  0.11912082432E+04  0.10000000000E+02 0.  1.
</event>
<event>
 5    1  0.1146201E-008  0.3845164E+03  0.7957747E-01  0.3431726E+00
         13   -1    0    0    0    0  0.00000000000E+00  0.00000000000E+00  0.14999999963E+04  0.15000000000E+04  0.10566000000E+00 0.  1.
        994   -1    0    0    0    0 -0.00000000000E+00 -0.00000000000E+00  0.11368683772E-12  0.17120000000E+03  0.17120000000E+03 0.  0.
         13    1    1    2    0    0 -0.76518252559E+01  0.16338215725E+02  0.90219587504E+02  0.92005830555E+02  0.10566000000E+00 0.  1.
        994    1    1    2    0    0 -0.74195346883E+01 -0.10371167478E+02  0.24062283216E+01  0.17169111959E+03  0.17120000000E+03 0.  0.
        998    1    1    2    0    0  0.15071359944E+02 -0.59670482465E+01  0.14073741805E+04  0.14075030499E+04  0.10000000000E+02 0.  1.
</event>
<event>
 5    1  0.1146201E-008  0.3797435E+03  0.7957747E-01  0.3452276E+00
         13   -1    0    0    0    0  0.00000000000E+00  0.00000000000E+00  0.14999999963E+04  0.15000000000E+04  0.10566000000E+00 0. -1.
        994   -1    0    0    0    0 -0.00000000000E+00 -0.00000000000E+00  0.11368683772E-12  0.17120000000E+03  0.17120000000E+03 0.  0.
         13    1    1    2    0    0 -0.12919306729E+02  0.71699167356E+01  0.24172890636E+02  0.28331184198E+02  0.10566000000E+00 0. -1.
        994    1    1    2    0    0  0.80061762829E+01  0.28032509097E+01  0.45034503520E+01  0.17146917548E+03  0.17120000000E+03 0.  0.
        998    1    1    2    0    0  0.49131304461E+01 -0.99731676454E+01  0.14713236553E+04  0.14713996403E+04  0.10000000000E+02 0. -1.
</event>
<event>
 5    1  0.1146201E-008  0.3848413E+03  0.7957747E-01  0.3430346E+00
         13   -1    0    0    0    0  0.00000000000E+00  0.00000000000E+00  0.14999999963E+04  0.15000000000E+04  0.10566000000E+00 0.  1.
        994   -1    0    0    0    0 -0.00000000000E+00 -0.00000000000E+00  0.11368683772E-12  0.17120000000E+03  0.17120000000E+03 0.  0.
         13    1    1    2    0    0 -0.13709109058E+02  0.16337164490E+02  0.11840223958E+03  0.12030770597E+03  0.10566000000E+00 0.  1.
        994    1    1    2    0    0  0.18760621442E+02 -0.20148693155E+02  0.42067752267E+01  0.17345047625E+03  0.17120000000E+03 0.  0.
        998    1    1    2    0    0 -0.50515123838E+01  0.38115286658E+01  0.13773909815E+04  0.13774418178E+04  0.10000000000E+02 0.  1.
</event>
<event>
 5    1  0.1146201E-008  0.3782468E+03  0.7957747E-01  0.3458828E+00
         13   -1    0    0    0    0  0.00000000000E+00  0.00000000000E+00  0.14999999963E+04  0.15000000000E+04  0.10566000000E+00 0.  1.
        994   -1    0    0    0    0 -0.00000000000E+00 -0.00000000000E+00  0.11368683772E-12  0.17120000000E+03  0.17120000000E+03 0.  0.
         13    1    1    2    0    0  0.53973609983E+02 -0.33305782915E+02  0.36857911401E+03  0.37399598955E+03  0.10566000000E+00 0.  1.
        994    1    1    2    0    0 -0.19357933160E+02  0.59522226101E+02  0.18308473167E+02  0.18320006868E+03  0.17120000000E+03 0.  0.
        998    1    1    2    0    0 -0.34615676822E+02 -0.26216443187E+02  0.11131124091E+04  0.11140039418E+04  0.10000000000E+02 0.  1.
</event>
<event>
 5    1  0.1146201E-008  0.3844379E+03  0.7957747E-01  0.3432059E+00
         13   -1    0    0    0    0  0.00000000000E+00  0.00000000000E+00  0.14999999963E+04  0.15000000000E+04  0.10566000000E+00 0. -1.
        994   -1    0    0    0    0 -0.00000000000E+00 -0.00000000000E+00  0.11368683772E-12  0.17120000000E+03  0.17120000000E+03 0.  0.
         13    1    1    2    0    0  0.31535391618E+02 -0.57774154232E+02  0.10595143955E+03  0.12473192265E+03  0.10566000000E+00 0. -1.
        994    1    1    2    0    0 -0.19932509491E+02  0.50635849903E+02  0.29776863824E+02  0.18209172373E+03  0.17120000000E+03 0.  0.
        998    1    1    2    0    0 -0.11602882126E+02  0.71383043297E+01  0.13642716929E+04  0.13643763536E+04  0.10000000000E+02 0. -1.
</event>
<event>
 5    1  0.1146201E-008  0.3840898E+03  0.7957747E-01  0.3433542E+00
         13   -1    0    0    0    0  0.00000000000E+00  0.00000000000E+00  0.14999999963E+04  0.15000000000E+04  0.10566000000E+00 0. -1.
        994   -1    0    0    0    0 -0.00000000000E+00 -0.00000000000E+00  0.11368683772E-12  0.17120000000E+03  0.17120000000E+03 0.  0.
         13    1    1    2    0    0 -0.16371174401E+02  0.12953919643E+02  0.10323851960E+03  0.10532816565E+03  0.10566000000E+00 0. -1.
        994    1    1    2    0    0  0.11049377631E+02 -0.92886916209E+01  0.27702950132E+01  0.17182980845E+03  0.17120000000E+03 0.  0.
        998    1    1    2    0    0  0.53217967698E+01 -0.36652280223E+01  0.13939911817E+04  0.13940420259E+04  0.10000000000E+02 0. -1.
</event>
<event>
 5    1  0.1146201E-008  0.3796036E+03  0.7957747E-01  0.3452886E+00
         13   -1    0    0    0    0  0.00000000000E+00  0.00000000000E+00  0.14999999963E+04  0.15000000000E+04  0.10566000000E+00 0.  1.
        994   -1    0    0    0    0 -0.00000000000E+00 -0.00000000000E+00  0.11368683772E-12  0.17120000000E+03  0.17120000000E+03 0.  0.
         13    1    1    2    0    0  0.16191434436E+02 -0.46741367659E+02  0.23411003685E+03  0.23927899723E+03  0.10566000000E+00 0.  1.
        994    1    1    2    0    0 -0.64953267852E+01  0.52991987024E+02  0.13934044715E+02  0.17987200327E+03  0.17120000000E+03 0.  0.
        998    1    1    2    0    0 -0.96961076508E+01 -0.62506193644E+01  0.12519559147E+04  0.12520489995E+04  0.10000000000E+02 0.  1.
</event>
<event>
 5    1  0.1146201E-008  0.3695428E+03  0.7957747E-01  0.3497995E+00
         13   -1    0    0    0    0  0.00000000000E+00  0.00000000000E+00  0.14999999963E+04  0.15000000000E+04  0.10566000000E+00 0. -1.
        994   -1    0    0    0    0 -0.00000000000E+00 -0.00000000000E+00  0.11368683772E-12  0.17120000000E+03  0.17120000000E+03 0.  0.
         13    1    1    2    0    0  0.29879528698E+02  0.12225481971E+03  0.65322671451E+03  0.66523994084E+03  0.10566000000E+00 0. -1.
        994    1    1    2    0    0  0.20918064425E+02 -0.98097410294E+02  0.46688345083E+02  0.20383794763E+03  0.17120000000E+03 0.  0.
        998    1    1    2    0    0 -0.50797593122E+02 -0.24157409420E+02  0.80008493669E+03  0.80212211154E+03  0.10000000000E+02 0. -1.
</event>
<event>
 5    1  0.1146201E-008  0.3767224E+03  0.7957747E-01  0.3465555E+00
         13   -1    0    0    0    0  0.00000000000E+00  0.00000000000E+00  0.14999999963E+04  0.15000000000E+04  0.10566000000E+00 0.  1.
        994   -1    0    0    0    0 -0.00000000000E+00 -0.00000000000E+00  0.11368683772E-12  0.17120000000E+03  0.17120000000E+03 0.  0.
         13    1    1    2    0    0  0.46367820703E+02  0.38541806997E+02  0.29732507201E+03  0.30337708432E+03  0.10566000000E+00 0.  1.
        994    1    1    2    0    0 -0.31927997818E+02 -0.24592991949E+02  0.11305777735E+02  0.17624265349E+03  0.17120000000E+03 0.  0.
        998    1    1    2    0    0 -0.14439822885E+02 -0.13948815048E+02  0.11913691465E+04  0.11915802622E+04  0.10000000000E+02 0.  1.
</event>
<event>
 5    1  0.1146201E-008  0.3804761E+03  0.7957747E-01  0.3449088E+00
         13   -1    0    0    0    0  0.00000000000E+00  0.00000000000E+00  0.14999999963E+04  0.15000000000E+04  0.10566000000E+00 0. -1.
        994   -1    0    0    0    0 -0.00000000000E+00 -0.00000000000E+00  0.11368683772E-12  0.17120000000E+03  0.17120000000E+03 0.  0.
         13    1    1    2    0    0  0.15032833521E+02 -0.94189471428E+01  0.40693116033E+02  0.44391930635E+02  0.10566000000E+00 0. -1.
        994    1    1    2    0    0 -0.35230082437E+01 -0.67582840276E+01  0.40868816910E+01  0.17141828547E+03  0.17120000000E+03 0.  0.
        998    1    1    2    0    0 -0.11509825277E+02  0.16177231170E+02  0.14552199986E+04  0.14553897839E+04  0.10000000000E+02 0. -1.
</event>
<event>
 5    1  0.1146201E-008  0.3821688E+03  0.7957747E-01  0.3441769E+00
         13   -1    0    0    0    0  0.00000000000E+00  0.00000000000E+00  0.14999999963E+04  0.15000000000E+04  0.10566000000E+00 0.  1.
        994   -1    0    0    0    0 -0.00000000000E+00 -0.00000000000E+00  0.11368683772E-12  0.17120000000E+03  0.17120000000E+03 0.  0.
         13    1    1    2    0    0  0.20959983286E+02  0.39215712274E+01  0.74732196240E+02  0.77714940257E+02  0.10566000000E+00 0.  1.
        994    1    1    2    0    0 -0.12021162132E+02  0.46361687070E+01  0.35935045211E+01  0.17172173908E+03  0.17120000000E+03 0.  0.
        998    1    1    2    0    0 -0.89388211545E+01 -0.85577399344E+01  0.14216742955E+04  0.14217633207E+04  0.10000000000E+02 0.  1.
</event>
<event>
 5    1  0.1146201E-008  0.3844145E+03  0.7957747E-01  0.3432159E+00
         13   -1    0    0    0    0  0.00000000000E+00  0.00000000000E+00  0.14999999963E+04  0.15000000000E+04  0.10566000000E+00 0.  1.
        994   -1    0    0    0    0 -0.00000000000E+00 -0.00000000000E+00  0.11368683772E-12  0.17120000000E+03  0.17120000000E+03 0.  0.
         13    1    1    2    0    0 -0.12179480795E+02  0.71398973453E+01  0.46124105275E+02  0.48236522864E+02  0.10566000000E+00 0.  1.
        994    1    1    2    0    0  0.21428215008E+02 -0.27061175749E+02  0.58567916747E+01  0.17474329069E+03  0.17120000000E+03 0.  0.
        998    1    1    2    0    0 -0.92487342124E+01  0.19921278404E+02  0.14480190993E+04  0.14482201864E+04  0.10000000000E+02 0.  1.
</event>
<event>
 5    1  0.1146201E-008  0.3847461E+03  0.7957747E-01  0.3430750E+00
         13   -1    0    0    0    0  0.00000000000E+00  0.00000000000E+00  0.14999999963E+04  0.15000000000E+04  0.10566000000E+00 0.  1.
        994   -1    0    0    0    0 -0.00000000000E+00 -0.00000000000E+00  0.11368683772E-12  0.17120000000E+03  0.17120000000E+03 0.  0.
         13    1    1    2    0    0 -0.77043856943E+02 -0.93021032217E+02  0.54773785565E+03  0.56089699411E+03  0.10566000000E+00 0.  1.
        994    1    1    2    0    0  0.62563040192E+02 -0.13413919146E+02  0.34217750103E+02  0.18594182329E+03  0.17120000000E+03 0.  0.
        998    1    1    2    0    0  0.14480816751E+02  0.10643495136E+03  0.91804439053E+03  0.92436118261E+03  0.10000000000E+02 0. -1.
</event>
<event>
 5    1  0.1146201E-008  0.3857561E+03  0.7957747E-01  0.3426472E+00
         13   -1    0    0    0    0  0.00000000000E+00  0.00000000000E+00  0.14999999963E+04  0.15000000000E+04  0.10566000000E+00 0.  1.
        994   -1    0    0    0    0 -0.00000000000E+00 -0.00000000000E+00  0.11368683772E-12  0.17120000000E+03  0.17120000000E+03 0.  0.
         13    1    1    2    0    0  0.12829885118E+02 -0.12947815031E+01  0.61786671516E+02  0.63118035079E+02  0.10566000000E+00 0.  1.
        994    1    1    2    0    0 -0.19034628242E+02  0.97905495475E+01  0.27597415969E+01  0.17255500024E+03  0.17120000000E+03 0.  0.
        998    1    1    2    0    0  0.62047431237E+01 -0.84957680444E+01  0.14354535832E+04  0.14355269647E+04  0.10000000000E+02 0.  1.
</event>
<event>
 5    1  0.1146201E-008  0.4298481E+03  0.7957747E-01  0.3259218E+00
         13   -1    0    0    0    0  0.00000000000E+00  0.00000000000E+00  0.14999999963E+04  0.15000000000E+04  0.10566000000E+00 0.  1.
        994   -1    0    0    0    0 -0.00000000000E+00 -0.00000000000E+00  0.11368683772E-12  0.17120000000E+03  0.17120000000E+03 0.  0.
         13    1    1    2    0    0  0.22756852215E+02  0.27038103364E+02 -0.49117448632E+01  0.35680103110E+02  0.10566000000E+00 0.  1.
        994    1    1    2    0    0 -0.20811903175E+02 -0.49703448756E+00  0.48939948358E+02  0.17927058014E+03  0.17120000000E+03 0.  0.
        998    1    1    2    0    0 -0.19449490400E+01 -0.26541068877E+02  0.14559717928E+04  0.14562493168E+04  0.10000000000E+02 0.  1.
</event>
<event>
 5    1  0.1146201E-008  0.3757792E+03  0.7957747E-01  0.3469745E+00
         13   -1    0    0    0    0  0.00000000000E+00  0.00000000000E+00  0.14999999963E+04  0.15000000000E+04  0.10566000000E+00 0.  1.
        994   -1    0    0    0    0 -0.00000000000E+00 -0.00000000000E+00  0.11368683772E-12  0.17120000000E+03  0.17120000000E+03 0.  0.
         13    1    1    2    0    0  0.93319808325E+02  0.22695474995E+02  0.38469660322E+03  0.39650366821E+03  0.10566000000E+00 0.  1.
        994    1    1    2    0    0 -0.24862385965E+02 -0.30130935536E+02  0.19492902429E+02  0.17667887468E+03  0.17120000000E+03 0.  0.
        998    1    1    2    0    0 -0.68457422360E+02  0.74354605409E+01  0.10958104906E+04  0.10980174571E+04  0.10000000000E+02 0. -1.
</event>
<event>
 5    1  0.1146201E-008  0.3725344E+03  0.7957747E-01  0.3484324E+00
         13   -1    0    0    0    0  0.00000000000E+00  0.00000000000E+00  0.14999999963E+04  0.15000000000E+04  0.10566000000E+00 0.  1.
        994   -1    0    0    0    0 -0.00000000000E+00 -0.00000000000E+00  0.11368683772E-12  0.17120000000E+03  0.17120000000E+03 0.  0.
         13    1    1    2    0    0 -0.57458300363E+02 -0.36327038797E+01  0.18958490413E+03  0.19813404517E+03  0.10566000000E+00 0.  1.
        994    1    1    2    0    0  0.49552193366E+02 -0.53351960056E+01  0.16512820343E+02  0.17906981158E+03  0.17120000000E+03 0.  0.
        998    1    1    2    0    0  0.79061069975E+01  0.89678998852E+01  0.12939022718E+04  0.12939961433E+04  0.10000000000E+02 0.  1.
</event>
<event>
 5    1  0.1146201E-008  0.3795888E+03  0.7957747E-01  0.3452951E+00
         13   -1    0    0    0    0  0.00000000000E+00  0.00000000000E+00  0.14999999963E+04  0.15000000000E+04  0.10566000000E+00 0. -1.
        994   -1    0    0    0    0 -0.00000000000E+00 -0.00000000000E+00  0.11368683772E-12  0.17120000000E+03  0.17120000000E+03 0.  0.
         13    1    1    2    0    0  0.66212230431E+01  0.20372649432E+02  0.51202584530E+02  0.55503164469E+02  0.10566000000E+00 0. -1.
        994    1    1    2    0    0 -0.53667890012E+01 -0.13063403906E+02  0.50087930816E+01  0.17185454010E+03  0.17120000000E+03 0.  0.
        998    1    1    2    0    0 -0.12544340419E+01 -0.73092455262E+01  0.14437886187E+04  0.14438422954E+04  0.10000000000E+02 0. -1.
</event>
<event>
 5    1  0.1146201E-008  0.3767746E+03  0.7957747E-01  0.3465324E+00
         13   -1    0    0    0    0  0.00000000000E+00  0.00000000000E+00  0.14999999963E+04  0.15000000000E+04  0.10566000000E+00 0. -1.
        994   -1    0    0    0    0 -0.00000000000E+00 -0.00000000000E+00  0.11368683772E-12  0.17120000000E+03  0.17120000000E+03 0.  0.
         13    1    1    2    0    0  0.14270657697E+02  0.34585066156E+01  0.15935616460E+02  0.21669517187E+02  0.10566000000E+00 0. -1.
        994    1    1    2    0    0 -0.15381397459E+02 -0.71781051965E+01  0.67443819742E+01  0.17217154024E+03  0.17120000000E+03 0.  0.
        998    1    1    2    0    0  0.11107397621E+01  0.37195985809E+01  0.14773199978E+04  0.14773589426E+04  0.10000000000E+02 0. -1.
</event>
<event>
 5    1  0.1146201E-008  0.3721323E+03  0.7957747E-01  0.3486148E+00
         13   -1    0    0    0    0  0.00000000000E+00  0.00000000000E+00  0.14999999963E+04  0.15000000000E+04  0.10566000000E+00 0. -1.
        994   -1    0    0    0    0 -0.00000000000E+00 -0.00000000000E+00  0.11368683772E-12  0.17120000000E+03  0.17120000000E+03 0.  0.
         13    1    1    2    0    0  0.33807848463E+01 -0.28621802737E+02  0.28912906039E+02  0.40824068854E+02  0.10566000000E+00 0. -1.
        994    1    1    2    0    0 -0.22949417428E+01  0.28720008201E+02  0.15000176349E+02  0.17425427088E+03  0.17120000000E+03 0.  0.
        998    1    1    2    0    0 -0.10858431034E+01 -0.98205463254E-01  0.14560869139E+04  0.14561216603E+04  0.10000000000E+02 0. -1.
</event>
<event>
 5    1  0.1146201E-008  0.3729475E+03  0.7957747E-01  0.3482453E+00
         13   -1    0    0    0    0  0.00000000000E+00  0.00000000000E+00  0.14999999963E+04  0.15000000000E+04  0.10566000000E+00 0. -1.
        994   -1    0    0    0    0 -0.00000000000E+00 -0.00000000000E+00  0.11368683772E-12  0.17120000000E+03  0.17120000000E+03 0.  0.
         13    1    1    2    0    0  0.46407204444E+02 -0.20368729240E+02  0.26772983675E+03  0.27248447737E+03  0.10566000000E+00 0. -1.
        994    1    1    2    0    0  0.36696198086E+02 -0.13836193606E+02  0.13019408455E+02  0.17611642798E+03  0.17120000000E+03 0.  0.
        998    1    1    2    0    0 -0.83103402530E+02  0.34204922846E+02  0.12192507511E+04  0.12225990947E+04  0.10000000000E+02 0. -1.
</event>
<event>
 5    1  0.1146201E-008  0.3692204E+03  0.7957747E-01  0.3499481E+00
         13   -1    0    0    0    0  0.00000000000E+00  0.00000000000E+00  0.14999999963E+04  0.15000000000E+04  0.10566000000E+00 0.  1.
        994   -1    0    0    0    0 -0.00000000000E+00 -0.00000000000E+00  0.11368683772E-12  0.17120000000E+03  0.17120000000E+03 0.  0.
         13    1    1    2    0    0 -0.37750313306E+02  0.71142388141E+02  0.25146212055E+03  0.26404456969E+03  0.10566000000E+00 0.  1.
        994    1    1    2    0    0  0.68531282484E+02 -0.72379709245E+02  0.44958701630E+02  0.20314055194E+03  0.17120000000E+03 0.  0.
        998    1    1    2    0    0 -0.30780969178E+02  0.12373211044E+01  0.12035791741E+04  0.12040148784E+04  0.10000000000E+02 0.  1.
</event>
<event>
 5    1  0.1146201E-008  0.3853389E+03  0.7957747E-01  0.3428236E+00
         13   -1    0    0    0    0  0.00000000000E+00  0.00000000000E+00  0.14999999963E+04  0.15000000000E+04  0.10566000000E+00 0. -1.
        994   -1    0    0    0    0 -0.00000000000E+00 -0.00000000000E+00  0.11368683772E-12  0.17120000000E+03  0.17120000000E+03 0.  0.
         13    1    1    2    0    0 -0.84025807960E+01 -0.58408881085E+01  0.39155669364E+02  0.40470939516E+02  0.10566000000E+00 0. -1.
        994    1    1    2    0    0 -0.80976673953E+01 -0.57710444960E+01  0.17868738123E+01  0.17149784281E+03  0.17120000000E+03 0.  0.
        998    1    1    2    0    0  0.16500248191E+02  0.11611932604E+02  0.14590574531E+04  0.14592312177E+04  0.10000000000E+02 0. -1.
</event>
<event>
 5    1  0.1146201E-008  0.3839411E+03  0.7957747E-01  0.3434176E+00
         13   -1    0    0    0    0  0.00000000000E+00  0.00000000000E+00  0.14999999963E+04  0.15000000000E+04  0.10566000000E+00 0.  1.
        994   -1    0    0    0    0 -0.00000000000E+00 -0.00000000000E+00  0.11368683772E-12  0.17120000000E+03  0.17120000000E+03 0.  0.
         13    1    1    2    0    0  0.19155041616E+02 -0.10981353199E+02  0.10988897673E+03  0.11208525375E+03  0.10566000000E+00 0.  1.
        994    1    1    2    0    0 -0.12894813427E+02  0.11819473319E+02  0.31671477105E+01  0.17212044326E+03  0.17120000000E+03 0.  0.
        998    1    1    2    0    0 -0.62602281891E+01 -0.83812012008E+00  0.13869438718E+04  0.13869943030E+04  0.10000000000E+02 0.  1.
</event>
<event>
 5    1  0.1146201E-008  0.3754924E+03  0.7957747E-01  0.3471024E+00
         13   -1    0    0    0    0  0.00000000000E+00  0.00000000000E+00  0.14999999963E+04  0.15000000000E+04  0.10566000000E+00 0.  1.
        994   -1    0    0    0    0 -0.00000000000E+00 -0.00000000000E+00  0.11368683772E-12  0.17120000000E+03  0.17120000000E+03 0.  0.
         13    1    1    2    0    0 -0.29131907234E+02  0.42512214546E+02  0.29255217285E+03  0.29705679829E+03  0.10566000000E+00 0.  1.
        994    1    1    2    0    0 -0.97107632594E+01  0.11384933922E+02  0.71863355952E+01  0.17200290423E+03  0.17120000000E+03 0.  0.
        998    1    1    2    0    0  0.38842670493E+02 -0.53897148468E+02  0.12002614878E+04  0.12021402975E+04  0.10000000000E+02 0.  1.
</event>
<event>
 5    1  0.1146201E-008  0.3843956E+03  0.7957747E-01  0.3432240E+00
         13   -1    0    0    0    0  0.00000000000E+00  0.00000000000E+00  0.14999999963E+04  0.15000000000E+04  0.10566000000E+00 0.  1.
        994   -1    0    0    0    0 -0.00000000000E+00 -0.00000000000E+00  0.11368683772E-12  0.17120000000E+03  0.17120000000E+03 0.  0.
         13    1    1    2    0    0 -0.29819743533E+01 -0.13401063016E+02  0.48790874030E+02  0.50685710152E+02  0.10566000000E+00 0.  1.
        994    1    1    2    0    0  0.47081252174E+01  0.70931690218E+01  0.21693721265E+01  0.17142527721E+03  0.17120000000E+03 0.  0.
        998    1    1    2    0    0 -0.17261508641E+01  0.63078939946E+01  0.14490397501E+04  0.14490890126E+04  0.10000000000E+02 0.  1.
</event>
<event>
 5    1  0.1146201E-008  0.3692201E+03  0.7957747E-01  0.3499483E+00
         13   -1    0    0    0    0  0.00000000000E+00  0.00000000000E+00  0.14999999963E+04  0.15000000000E+04  0.10566000000E+00 0. -1.
        994   -1    0    0    0    0 -0.00000000000E+00 -0.00000000000E+00  0.11368683772E-12  0.17120000000E+03  0.17120000000E+03 0.  0.
         13    1    1    2    0    0 -0.29539424722E+02  0.28314689637E+02  0.73047931152E+02  0.83727598029E+02  0.10566000000E+00 0. -1.
        994    1    1    2    0    0  0.26970684666E+02 -0.26627063843E+02  0.15551710354E+02  0.17603327542E+03  0.17120000000E+03 0.  0.
        998    1    1    2    0    0  0.25687400562E+01 -0.16876257934E+01  0.14114003548E+04  0.14114391266E+04  0.10000000000E+02 0. -1.
</event>
<event>
 5    1  0.1146201E-008  0.3808258E+03  0.7957747E-01  0.3447571E+00
         13   -1    0    0    0    0  0.00000000000E+00  0.00000000000E+00  0.14999999963E+04  0.15000000000E+04  0.10566000000E+00 0. -1.
        994   -1    0    0    0    0 -0.00000000000E+00 -0.00000000000E+00  0.11368683772E-12  0.17120000000E+03  0.17120000000E+03 0.  0.
         13    1    1    2    0    0 -0.13532118341E+02 -0.19440666181E+02  0.84635024192E+02  0.87887178885E+02  0.10566000000E+00 0. -1.
        994    1    1    2    0    0 -0.27254476533E+02  0.59201773697E+01  0.63144341402E+01  0.17357179226E+03  0.17120000000E+03 0.  0.
        998    1    1    2    0    0  0.40786594874E+02  0.13520488811E+02  0.14090505379E+04  0.14097410289E+04  0.10000000000E+02 0. -1.
</event>
<event>
 5    1  0.1146201E-008  0.3804913E+03  0.7957747E-01  0.3449022E+00
         13   -1    0    0    0    0  0.00000000000E+00  0.00000000000E+00  0.14999999963E+04  0.15000000000E+04  0.10566000000E+00 0.  1.
        994   -1    0    0    0    0 -0.00000000000E+00 -0.00000000000E+00  0.11368683772E-12  0.17120000000E+03  0.17120000000E+03 0.  0.
         13    1    1    2    0    0 -0.16427915283E+02  0.35643032449E+02  0.17903084658E+03  0.18328217958E+03  0.10566000000E+00 0.  1.
        994    1    1    2    0    0  0.14342471140E+02 -0.33348010558E+02  0.82959919409E+01  0.17520291028E+03  0.17120000000E+03 0.  0.
        998    1    1    2    0    0  0.20854441437E+01 -0.22950218906E+01  0.13126731578E+04  0.13127149101E+04  0.10000000000E+02 0.  1.
</event>
<event>
 5    1  0.1146201E-008  0.3850332E+03  0.7957747E-01  0.3429531E+00
         13   -1    0    0    0    0  0.00000000000E+00  0.00000000000E+00  0.14999999963E+04  0.15000000000E+04  0.10566000000E+00 0.  1.
        994   -1    0    0    0    0 -0.00000000000E+00 -0.00000000000E+00  0.11368683772E-12  0.17120000000E+03  0.17120000000E+03 0.  0.
         13    1    1    2    0    0  0.13367657787E+02 -0.34005206824E+01  0.56843190390E+02  0.58492882245E+02  0.10566000000E+00 0.  1.
        994    1    1    2    0    0 -0.15859186434E+02 -0.10767279801E+00  0.24411735781E+01  0.17195035538E+03  0.17120000000E+03 0.  0.
        998    1    1    2    0    0  0.24915286469E+01  0.35081934804E+01  0.14407156323E+04  0.14407567624E+04  0.10000000000E+02 0.  1.
</event>
<event>
 5    1  0.1146201E-008  0.4173476E+03  0.7957747E-01  0.3303091E+00
         13   -1    0    0    0    0  0.00000000000E+00  0.00000000000E+00  0.14999999963E+04  0.15000000000E+04  0.10566000000E+00 0. -1.
        994   -1    0    0    0    0 -0.00000000000E+00 -0.00000000000E+00  0.11368683772E-12  0.17120000000E+03  0.17120000000E+03 0.  0.
         13    1    1    2    0    0  0.83108727515E+01 -0.94947332847E+02  0.10730022683E+03  0.14351800048E+03  0.10566000000E+00 0. -1.
        994    1    1    2    0    0 -0.56399646716E+02  0.63706667023E+02  0.69829287125E+02  0.20353139540E+03  0.17120000000E+03 0.  0.
        998    1    1    2    0    0  0.48088773965E+02  0.31240665825E+02  0.13228704823E+04  0.13241506041E+04  0.10000000000E+02 0. -1.
</event>
<event>
 5    1  0.1146201E-008  0.3696308E+03  0.7957747E-01  0.3497589E+00
         13   -1    0    0    0    0  0.00000000000E+00  0.00000000000E+00  0.14999999963E+04  0.15000000000E+04  0.10566000000E+00 0.  1.
        994   -1    0    0    0    0 -0.00000000000E+00 -0.00000000000E+00  0.11368683772E-12  0.17120000000E+03  0.17120000000E+03 0.  0.
         13    1    1    2    0    0 -0.82333140341E+02 -0.94917576441E+02  0.52888415613E+03  0.54360514539E+03  0.10566000000E+00 0.  1.
        994    1    1    2    0    0  0.83260719197E+02  0.90769484190E+02  0.63982679857E+02  0.22039661963E+03  0.17120000000E+03 0.  0.
        998    1    1    2    0    0 -0.92757885592E+00  0.41480922512E+01  0.90713316029E+03  0.90719823499E+03  0.10000000000E+02 0.  1.
</event>
<event>
 5    1  0.1146201E-008  0.3770775E+03  0.7957747E-01  0.3463983E+00
         13   -1    0    0    0    0  0.00000000000E+00  0.00000000000E+00  0.14999999963E+04  0.15000000000E+04  0.10566000000E+00 0. -1.
        994   -1    0    0    0    0 -0.00000000000E+00 -0.00000000000E+00  0.11368683772E-12  0.17120000000E+03  0.17120000000E+03 0.  0.
         13    1    1    2    0    0  0.95952166712E+01 -0.44887108626E+01  0.74251791924E+01  0.12936814069E+02  0.10566000000E+00 0. -1.
        994    1    1    2    0    0 -0.18330317154E+01  0.15021251074E+02  0.63890794033E+01  0.17198621551E+03  0.17120000000E+03 0.  0.
        998    1    1    2    0    0 -0.77621849558E+01 -0.10532540211E+02  0.14861857377E+04  0.14862769704E+04  0.10000000000E+02 0. -1.
</event>
<event>
 5    1  0.1146201E-008  0.3829052E+03  0.7957747E-01  0.3438605E+00
         13   -1    0    0    0    0  0.00000000000E+00  0.00000000000E+00  0.14999999963E+04  0.15000000000E+04  0.10566000000E+00 0. -1.
        994   -1    0    0    0    0 -0.00000000000E+00 -0.00000000000E+00  0.11368683772E-12  0.17120000000E+03  0.17120000000E+03 0.  0.
         13    1    1    2    0    0 -0.56381287963E+00 -0.21042209886E+02  0.69969920933E+02  0.73067732148E+02  0.10566000000E+00 0. -1.
        994    1    1    2    0    0 -0.59057046156E+01  0.44644910920E+02  0.94181113929E+01  0.17727432482E+03  0.17120000000E+03 0.  0.
        998    1    1    2    0    0  0.64695174952E+01 -0.23602701034E+02  0.14206119640E+04  0.14208579430E+04  0.10000000000E+02 0. -1.
</event>
<event>
 5    1  0.1146201E-008  0.3830701E+03  0.7957747E-01  0.3437899E+00
         13   -1    0    0    0    0  0.00000000000E+00  0.00000000000E+00  0.14999999963E+04  0.15000000000E+04  0.10566000000E+00 0.  1.
        994   -1    0    0    0    0 -0.00000000000E+00 -0.00000000000E+00  0.11368683772E-12  0.17120000000E+03  0.17120000000E+03 0.  0.
         13    1    1    2    0    0  0.30380092660E+02 -0.62045183080E+01  0.10788485156E+03  0.11225238722E+03  0.10566000000E+00 0.  1.
        994    1    1    2    0    0 -0.10112671734E+03  0.37781656891E+02  0.42165905157E+02  0.20674010282E+03  0.17120000000E+03 0.  0.
        998    1    1    2    0    0  0.70746624676E+02 -0.31577138583E+02  0.13499492396E+04  0.13522075100E+04  0.10000000000E+02 0.  1.
</event>
<event>
 5    1  0.1146201E-008  0.3788723E+03  0.7957747E-01  0.3456084E+00
         13   -1    0    0    0    0  0.00000000000E+00  0.00000000000E+00  0.14999999963E+04  0.15000000000E+04  0.10566000000E+00 0. -1.
        994   -1    0    0    0    0 -0.00000000000E+00 -0.00000000000E+00  0.11368683772E-12  0.17120000000E+03  0.17120000000E+03 0.  0.
         13    1    1    2    0    0  0.67268345269E+02  0.66159443438E+02  0.23164364231E+03  0.25012175119E+03  0.10566000000E+00 0. -1.
        994    1    1    2    0    0 -0.77296547952E+02 -0.59173566951E+02  0.50756936078E+02  0.20337643401E+03  0.17120000000E+03 0.  0.
        998    1    1    2    0    0  0.10028202683E+02 -0.69858764870E+01  0.12175994179E+04  0.12177018148E+04  0.10000000000E+02 0. -1.
</event>
<event>
 5    1  0.1146201E-008  0.3842668E+03  0.7957747E-01  0.3432788E+00
         13   -1    0    0    0    0  0.00000000000E+00  0.00000000000E+00  0.14999999963E+04  0.15000000000E+04  0.10566000000E+00 0. -1.
        994   -1    0    0    0    0 -0.00000000000E+00 -0.00000000000E+00  0.11368683772E-12  0.17120000000E+03  0.17120000000E+03 0.  0.
         13    1    1    2    0    0  0.11905636871E+02 -0.19674957128E+02  0.13472658462E+03  0.13667520585E+03  0.10566000000E+00 0. -1.
        994    1    1    2    0    0 -0.87148087451E+00  0.13438694692E+02  0.25926709619E+01  0.17174842048E+03  0.17120000000E+03 0.  0.
        998    1    1    2    0    0 -0.11034155996E+02  0.62362624359E+01  0.13626807407E+04  0.13627763737E+04  0.10000000000E+02 0. -1.
</event>
<event>
 5    1  0.1146201E-008  0.3758953E+03  0.7957747E-01  0.3469228E+00
         13   -1    0    0    0    0  0.00000000000E+00  0.00000000000E+00  0.14999999963E+04  0.15000000000E+04  0.10566000000E+00 0.  1.
        994   -1    0    0    0    0 -0.00000000000E+00 -0.00000000000E+00  0.11368683772E-12  0.17120000000E+03  0.17120000000E+03 0.  0.
         13    1    1    2    0    0  0.28764575939E+02  0.18122381231E+02  0.35106996930E+02  0.48870583462E+02  0.10566000000E+00 0.  1.
        994    1    1    2    0    0 -0.19914247495E+02 -0.21693937327E+02  0.17192538700E+02  0.17456296158E+03  0.17120000000E+03 0.  0.
        998    1    1    2    0    0 -0.88503284444E+01  0.35715560957E+01  0.14477004606E+04  0.14477664550E+04  0.10000000000E+02 0.  1.
</event>
<event>
 5    1  0.1146201E-008  0.3739755E+03  0.7957747E-01  0.3477817E+00
         13   -1    0    0    0    0  0.00000000000E+00  0.00000000000E+00  0.14999999963E+04  0.15000000000E+04  0.10566000000E+00 0.  1.
        994   -1    0    0    0    0 -0.00000000000E+00 -0.00000000000E+00  0.11368683772E-12  0.17120000000E+03  0.17120000000E+03 0.  0.
         13    1    1    2    0    0 -0.43006395961E+02 -0.37058229732E+02  0.25587568351E+03  0.26209776623E+03  0.10566000000E+00 0.  1.
        994    1    1    2    0    0  0.80718108802E+01  0.79253918579E+01  0.76423600513E+01  0.17174344714E+03  0.17120000000E+03 0.  0.
        998    1    1    2    0    0  0.34934585080E+02  0.29132837874E+02  0.12364819527E+04  0.12373587866E+04  0.10000000000E+02 0.  1.
</event>
<event>
 5    1  0.1146201E-008  0.3857553E+03  0.7957747E-01  0.3426475E+00
         13   -1    0    0    0    0  0.00000000000E+00  0.00000000000E+00  0.14999999963E+04  0.15000000000E+04  0.10566000000E+00 0. -1.
        994   -1    0    0    0    0 -0.00000000000E+00 -0.00000000000E+00  0.11368683772E-12  0.17120000000E+03  0.17120000000E+03 0.  0.
         13    1    1    2    0    0  0.79776647039E+01 -0.11207554810E+02  0.74472648143E+02  0.75732680558E+02  0.10566000000E+00 0. -1.
        994    1    1    2    0    0 -0.66562950272E+01  0.95734564598E+01  0.17017459871E+01  0.17160505025E+03  0.17120000000E+03 0.  0.
        998    1    1    2    0    0 -0.13213696767E+01  0.16340983498E+01  0.14238256021E+04  0.14238622692E+04  0.10000000000E+02 0. -1.
</event>
<event>
 5    1  0.1146201E-008  0.4144593E+03  0.7957747E-01  0.3313597E+00
         13   -1    0    0    0    0  0.00000000000E+00  0.00000000000E+00  0.14999999963E+04  0.15000000000E+04  0.10566000000E+00 0. -1.
        994   -1    0    0    0    0 -0.00000000000E+00 -0.00000000000E+00  0.11368683772E-12  0.17120000000E+03  0.17120000000E+03 0.  0.
         13    1    1    2    0    0 -0.17471789602E+02 -0.41553515150E+02  0.16514712117E+02  0.48007342497E+02  0.10566000000E+00 0. -1.
        994    1    1    2    0    0 -0.78469135815E+02 -0.48290179492E+01  0.62945091860E+02  0.19862590284E+03  0.17120000000E+03 0.  0.
        998    1    1    2    0    0  0.95940925417E+02  0.46382533100E+02  0.14205401923E+04  0.14245667547E+04  0.10000000000E+02 0. -1.
</event>
<event>
 5    1  0.1146201E-008  0.3829132E+03  0.7957747E-01  0.3438571E+00
         13   -1    0    0    0    0  0.00000000000E+00  0.00000000000E+00  0.14999999963E+04  0.15000000000E+04  0.10566000000E+00 0. -1.
        994   -1    0    0    0    0 -0.00000000000E+00 -0.00000000000E+00  0.11368683772E-12  0.17120000000E+03  0.17120000000E+03 0.  0.
         13    1    1    2    0    0  0.10405550507E+02  0.19991312943E+02  0.97585349471E+02  0.10015407965E+03  0.10566000000E+00 0. -1.
        994    1    1    2    0    0 -0.12711170817E+01 -0.90335359135E+01  0.29453364516E+01  0.17146817640E+03  0.17120000000E+03 0.  0.
        998    1    1    2    0    0 -0.91344334249E+01 -0.10957777030E+02  0.13994693104E+04  0.13995777440E+04  0.10000000000E+02 0. -1.
</event>
<event>
 5    1  0.1146201E-008  0.3855716E+03  0.7957747E-01  0.3427251E+00
         13   -1    0    0    0    0  0.00000000000E+00  0.00000000000E+00  0.14999999963E+04  0.15000000000E+04  0.10566000000E+00 0. -1.
        994   -1    0    0    0    0 -0.00000000000E+00 -0.00000000000E+00  0.11368683772E-12  0.17120000000E+03  0.17120000000E+03 0.  0.
         13    1    1    2    0    0 -0.60612116617E+01  0.14946398868E+02  0.97062973200E+02  0.98393927945E+02  0.10566000000E+00 0. -1.
        994    1    1    2    0    0  0.90870613503E+01 -0.76629446851E+01  0.18105496914E+01  0.17162171627E+03  0.17120000000E+03 0.  0.
        998    1    1    2    0    0 -0.30258496887E+01 -0.72834541831E+01  0.14011264734E+04  0.14011843558E+04  0.10000000000E+02 0. -1.
</event>
<event>
 5    1  0.1146201E-008  0.3851199E+03  0.7957747E-01  0.3429164E+00
         13   -1    0    0    0    0  0.00000000000E+00  0.00000000000E+00  0.14999999963E+04  0.15000000000E+04  0.10566000000E+00 0. -1.
        994   -1    0    0    0    0 -0.00000000000E+00 -0.00000000000E+00  0.11368683772E-12  0.17120000000E+03  0.17120000000E+03 0.  0.
         13    1    1    2    0    0 -0.34588680971E+01  0.20657573495E+02  0.11908527855E+03  0.12091324924E+03  0.10566000000E+00 0. -1.
        994    1    1    2    0    0  0.61185249560E+01 -0.31400334130E+02  0.49422245175E+01  0.17423341503E+03  0.17120000000E+03 0.  0.
        998    1    1    2    0    0 -0.26596568589E+01  0.10742760635E+02  0.13759724932E+04  0.13760533357E+04  0.10000000000E+02 0. -1.
</event>
<event>
 5    1  0.1146201E-008  0.3831888E+03  0.7957747E-01  0.3437390E+00
         13   -1    0    0    0    0  0.00000000000E+00  0.00000000000E+00  0.14999999963E+04  0.15000000000E+04  0.10566000000E+00 0. -1.
        994   -1    0    0    0    0 -0.00000000000E+00 -0.00000000000E+00  0.11368683772E-12  0.17120000000E+03  0.17120000000E+03 0.  0.
         13    1    1    2    0    0 -0.29289861944E+01 -0.12052447363E+02  0.28725206624E+02  0.31288801626E+02  0.10566000000E+00 0. -1.
        994    1    1    2    0    0 -0.50581452202E+01  0.17945413700E+02  0.36828609690E+01  0.17225163619E+03  0.17120000000E+03 0.  0.
        998    1    1    2    0    0  0.79871314145E+01 -0.58929663369E+01  0.14675919287E+04  0.14676595622E+04  0.10000000000E+02 0. -1.
</event>
<event>
 5    1  0.1146201E-008  0.3717362E+03  0.7957747E-01  0.3487949E+00
         13   -1    0    0    0    0  0.00000000000E+00  0.00000000000E+00  0.14999999963E+04  0.15000000000E+04  0.10566000000E+00 0.  1.
        994   -1    0    0    0    0 -0.00000000000E+00 -0.00000000000E+00  0.11368683772E-12  0.17120000000E+03  0.17120000000E+03 0.  0.
         13    1    1    2    0    0  0.57360628074E+02 -0.23233174649E+02  0.35114448059E+03  0.35655641835E+03  0.10566000000E+00 0.  1.
        994    1    1    2    0    0  0.24103731870E+02  0.12404760517E+02  0.10894319957E+02  0.17367496705E+03  0.17120000000E+03 0.  0.
        998    1    1    2    0    0 -0.81464359944E+02  0.10828414132E+02  0.11379611957E+04  0.11409686146E+04  0.10000000000E+02 0.  1.
</event>
<event>
 5    1  0.1146201E-008  0.3803162E+03  0.7957747E-01  0.3449783E+00
         13   -1    0    0    0    0  0.00000000000E+00  0.00000000000E+00  0.14999999963E+04  0.15000000000E+04  0.10566000000E+00 0.  1.
        994   -1    0    0    0    0 -0.00000000000E+00 -0.00000000000E+00  0.11368683772E-12  0.17120000000E+03  0.17120000000E+03 0.  0.
         13    1    1    2    0    0  0.33721461245E+02 -0.19232458782E+02  0.19259519178E+03  0.19646868320E+03  0.10566000000E+00 0.  1.
        994    1    1    2    0    0 -0.12836400314E+02  0.16879241327E+02  0.54767575761E+01  0.17259523989E+03  0.17120000000E+03 0.  0.
        998    1    1    2    0    0 -0.20885060931E+02  0.23532174547E+01  0.13019280469E+04  0.13021360769E+04  0.10000000000E+02 0.  1.
</event>
<event>
 5    1  0.1146201E-008  0.3773462E+03  0.7957747E-01  0.3462796E+00
         13   -1    0    0    0    0  0.00000000000E+00  0.00000000000E+00  0.14999999963E+04  0.15000000000E+04  0.10566000000E+00 0.  1.
        994   -1    0    0    0    0 -0.00000000000E+00 -0.00000000000E+00  0.11368683772E-12  0.17120000000E+03  0.17120000000E+03 0.  0.
         13    1    1    2    0    0 -0.25236901468E+01 -0.41046021819E+02  0.14389384097E+03  0.14965491490E+03  0.10566000000E+00 0.  1.
        994    1    1    2    0    0  0.38261771916E+01  0.34715537279E+02  0.96036511709E+01  0.17498993764E+03  0.17120000000E+03 0.  0.
        998    1    1    2    0    0 -0.13024870448E+01  0.63304845406E+01  0.13465025041E+04  0.13465551475E+04  0.10000000000E+02 0.  1.
</event>
<event>
 5    1  0.1146201E-008  0.3750790E+03  0.7957747E-01  0.3472869E+00
         13   -1    0    0    0    0  0.00000000000E+00  0.00000000000E+00  0.14999999963E+04  0.15000000000E+04  0.10566000000E+00 0.  1.
        994   -1    0    0    0    0 -0.00000000000E+00 -0.00000000000E+00  0.11368683772E-12  0.17120000000E+03  0.17120000000E+03 0.  0.
         13    1    1    2    0    0 -0.15738842740E+02  0.72396561677E+01  0.51830234556E+01  0.18083105054E+02  0.10566000000E+00 0.  1.
        994    1    1    2    0    0 -0.12537399665E+02 -0.11074835681E+02  0.14646659689E+02  0.17263777980E+03  0.17120000000E+03 0.  0.
        998    1    1    2    0    0  0.28276242405E+02  0.38351795137E+01  0.14801703131E+04  0.14804791151E+04  0.10000000000E+02 0.  1.
</event>
<event>
 5    1  0.1146201E-008  0.3775553E+03  0.7957747E-01  0.3461873E+00
         13   -1    0    0    0    0  0.00000000000E+00  0.00000000000E+00  0.14999999963E+04  0.15000000000E+04  0.10566000000E+00 0.  1.
        994   -1    0    0    0    0 -0.00000000000E+00 -0.00000000000E+00  0.11368683772E-12  0.17120000000E+03  0.17120000000E+03 0.  0.
         13    1    1    2    0    0 -0.55379478330E+02 -0.18277146273E+02  0.10324761859E+03  0.11857918285E+03  0.10566000000E+00 0.  1.
        994    1    1    2    0    0  0.49742062178E+02  0.18524234598E+02  0.25179215522E+02  0.18099959368E+03  0.17120000000E+03 0.  0.
        998    1    1    2    0    0  0.56374161513E+01 -0.24708832492E+00  0.13715731622E+04  0.13716212235E+04  0.10000000000E+02 0.  1.
</event>
<event>
 5    1  0.1146201E-008  0.3765356E+03  0.7957747E-01  0.3466383E+00
         13   -1    0    0    0    0  0.00000000000E+00  0.00000000000E+00  0.14999999963E+04  0.15000000000E+04  0.10566000000E+00 0. -1.
        994   -1    0    0    0    0 -0.00000000000E+00 -0.00000000000E+00  0.11368683772E-12  0.17120000000E+03  0.17120000000E+03 0.  0.
         13    1    1    2    0    0 -0.14047192417E+01 -0.10979578192E+02  0.76777410023E+01  0.13471571710E+02  0.10566000000E+00 0. -1.
        994    1    1    2    0    0 -0.65154989552E+01  0.11135630166E+02  0.64553618446E+01  0.17180676844E+03  0.17120000000E+03 0.  0.
        998    1    1    2    0    0  0.79202181970E+01 -0.15605197468E+00  0.14858668934E+04  0.14859216598E+04  0.10000000000E+02 0. -1.
</event>
<event>
 5    1  0.1146201E-008  0.3840764E+03  0.7957747E-01  0.3433599E+00
         13   -1    0    0    0    0  0.00000000000E+00  0.00000000000E+00  0.14999999963E+04  0.15000000000E+04  0.10566000000E+00 0. -1.
        994   -1    0    0    0    0 -0.00000000000E+00 -0.00000000000E+00  0.11368683772E-12  0.17120000000E+03  0.17120000000E+03 0.  0.
         13    1    1    2    0    0 -0.11429907301E+02  0.11574040097E+02  0.62294322516E+02  0.64383188542E+02  0.10566000000E+00 0. -1.
        994    1    1    2    0    0  0.10138960227E+02 -0.74571049119E+01  0.26120741742E+01  0.17168188565E+03  0.17120000000E+03 0.  0.
        998    1    1    2    0    0  0.12909470747E+01 -0.41169351856E+01  0.14350935996E+04  0.14351349258E+04  0.10000000000E+02 0. -1.
</event>
<event>
 5    1  0.1146201E-008  0.3715461E+03  0.7957747E-01  0.3488815E+00
         13   -1    0    0    0    0  0.00000000000E+00  0.00000000000E+00  0.14999999963E+04  0.15000000000E+04  0.10566000000E+00 0. -1.
        994   -1    0    0    0    0 -0.00000000000E+00 -0.00000000000E+00  0.11368683772E-12  0.17120000000E+03  0.17120000000E+03 0.  0.
         13    1    1    2    0    0  0.27052942261E+02  0.89197124570E+02  0.38975550769E+03  0.40074599892E+03  0.10566000000E+00 0. -1.
        994    1    1    2    0    0 -0.41662448554E+02 -0.79996706712E+02  0.36984963682E+02  0.19700903594E+03  0.17120000000E+03 0.  0.
        998    1    1    2    0    0  0.14609506293E+02 -0.92004178581E+01  0.10732595249E+04  0.10734449651E+04  0.10000000000E+02 0.  1.
</event>
<event>
 5    1  0.1146201E-008  0.3830751E+03  0.7957747E-01  0.3437877E+00
         13   -1    0    0    0    0  0.00000000000E+00  0.00000000000E+00  0.14999999963E+04  0.15000000000E+04  0.10566000000E+00 0.  1.
        994   -1    0    0    0    0 -0.00000000000E+00 -0.00000000000E+00  0.11368683772E-12  0.17120000000E+03  0.17120000000E+03 0.  0.
         13    1    1    2    0    0  0.25736972877E+02 -0.16017310095E+02  0.16807816090E+03  0.17079000360E+03  0.10566000000E+00 0.  1.
        994    1    1    2    0    0 -0.14058196430E+02  0.23319803715E+02  0.50463578820E+01  0.17342534953E+03  0.17120000000E+03 0.  0.
        998    1    1    2    0    0 -0.11678776446E+02 -0.73024936204E+01  0.13268754775E+04  0.13269846469E+04  0.10000000000E+02 0.  1.
</event>
<event>
 5    1  0.1146201E-008  0.3905597E+03  0.7957747E-01  0.3406430E+00
         13   -1    0    0    0    0  0.00000000000E+00  0.00000000000E+00  0.14999999963E+04  0.15000000000E+04  0.10566000000E+00 0.  1.
        994   -1    0    0    0    0 -0.00000000000E+00 -0.00000000000E+00  0.11368683772E-12  0.17120000000E+03  0.17120000000E+03 0.  0.
         13    1    1    2    0    0  0.77380448440E+02  0.47639119907E+02  0.38086124346E+03  0.39155142380E+03  0.10566000000E+00 0.  1.
        994    1    1    2    0    0  0.10466828368E+03 -0.58448759273E+02  0.78741600873E+02  0.22334141304E+03  0.17120000000E+03 0.  0.
        998    1    1    2    0    0 -0.18204873212E+03  0.10809639366E+02  0.10403971519E+04  0.10563071632E+04  0.10000000000E+02 0.  1.
</event>
<event>
 5    1  0.1146201E-008  0.3826737E+03  0.7957747E-01  0.3439599E+00
         13   -1    0    0    0    0  0.00000000000E+00  0.00000000000E+00  0.14999999963E+04  0.15000000000E+04  0.10566000000E+00 0. -1.
        994   -1    0    0    0    0 -0.00000000000E+00 -0.00000000000E+00  0.11368683772E-12  0.17120000000E+03  0.17120000000E+03 0.  0.
         13    1    1    2    0    0 -0.81021487492E+01  0.14406062906E+02  0.48271156681E+02  0.51022496942E+02  0.10566000000E+00 0. -1.
        994    1    1    2    0    0  0.57985510660E+01 -0.81936334967E+01  0.31234661321E+01  0.17152246169E+03  0.17120000000E+03 0.  0.
        998    1    1    2    0    0  0.23035976832E+01 -0.62124294094E+01  0.14486053735E+04  0.14486550414E+04  0.10000000000E+02 0. -1.
</event>
<event>
 5    1  0.1146201E-008  0.3810369E+03  0.7957747E-01  0.3446656E+00
         13   -1    0    0    0    0  0.00000000000E+00  0.00000000000E+00  0.14999999963E+04  0.15000000000E+04  0.10566000000E+00 0. -1.
        994   -1    0    0    0    0 -0.00000000000E+00 -0.00000000000E+00  0.11368683772E-12  0.17120000000E+03  0.17120000000E+03 0.  0.
         13    1    1    2    0    0 -0.17451294481E+01  0.11692646912E+02  0.18175120659E+02  0.21682011982E+02  0.10566000000E+00 0. -1.
        994    1    1    2    0    0 -0.76636385575E+01 -0.30638456412E+01  0.38376368197E+01  0.17144178593E+03  0.17120000000E+03 0.  0.
        998    1    1    2    0    0  0.94087680056E+01 -0.86288012704E+01  0.14779872388E+04  0.14780762021E+04  0.10000000000E+02 0. -1.
</event>
<event>
 5    1  0.1146201E-008  0.3822023E+03  0.7957747E-01  0.3441625E+00
         13   -1    0    0    0    0  0.00000000000E+00  0.00000000000E+00  0.14999999963E+04  0.15000000000E+04  0.10566000000E+00 0.  1.
        994   -1    0    0    0    0 -0.00000000000E+00 -0.00000000000E+00  0.11368683772E-12  0.17120000000E+03  0.17120000000E+03 0.  0.
         13    1    1    2    0    0 -0.40198670713E+02  0.62045597028E+02  0.40334772230E+03  0.41006704999E+03  0.10566000000E+00 0.  1.
        994    1    1    2    0    0  0.56134777963E+02 -0.99188804831E+02  0.47404775964E+02  0.21105967186E+03  0.17120000000E+03 0.  0.
        998    1    1    2    0    0 -0.15936107250E+02  0.37143207804E+02  0.10492474980E+04  0.10500732782E+04  0.10000000000E+02 0.  1.
</event>
<event>
 5    1  0.1146201E-008  0.3806624E+03  0.7957747E-01  0.3448279E+00
         13   -1    0    0    0    0  0.00000000000E+00  0.00000000000E+00  0.14999999963E+04  0.15000000000E+04  0.10566000000E+00 0. -1.
        994   -1    0    0    0    0 -0.00000000000E+00 -0.00000000000E+00  0.11368683772E-12  0.17120000000E+03  0.17120000000E+03 0.  0.
         13    1    1    2    0    0  0.24200701748E+02  0.90433869735E+00  0.72078513409E+02  0.76038247302E+02  0.10566000000E+00 0. -1.
        994    1    1    2    0    0 -0.26778772940E+02  0.69683283135E+01  0.63572623610E+01  0.17353822364E+03  0.17120000000E+03 0.  0.
        998    1    1    2    0    0  0.25780711924E+01 -0.78726670108E+01  0.14215642205E+04  0.14216235291E+04  0.10000000000E+02 0. -1.
</event>
<event>
 5    1  0.1146201E-008  0.3853962E+03  0.7957747E-01  0.3427994E+00
         13   -1    0    0    0    0  0.00000000000E+00  0.00000000000E+00  0.14999999963E+04  0.15000000000E+04  0.10566000000E+00 0. -1.
        994   -1    0    0    0    0 -0.00000000000E+00 -0.00000000000E+00  0.11368683772E-12  0.17120000000E+03  0.17120000000E+03 0.  0.
         13    1    1    2    0    0  0.52826977535E+01 -0.93538064873E+01  0.39704983115E+02  0.41132680918E+02  0.10566000000E+00 0. -1.
        994    1    1    2    0    0 -0.88689055577E+01  0.66462996089E+01  0.18370939624E+01  0.17156819547E+03  0.17120000000E+03 0.  0.
        998    1    1    2    0    0  0.35862078042E+01  0.27075068784E+01  0.14584579192E+04  0.14584991236E+04  0.10000000000E+02 0. -1.
</event>
<event>
 5    1  0.1146201E-008  0.3786720E+03  0.7957747E-01  0.3456962E+00
         13   -1    0    0    0    0  0.00000000000E+00  0.00000000000E+00  0.14999999963E+04  0.15000000000E+04  0.10566000000E+00 0. -1.
        994   -1    0    0    0    0 -0.00000000000E+00 -0.00000000000E+00  0.11368683772E-12  0.17120000000E+03  0.17120000000E+03 0.  0.
         13    1    1    2    0    0  0.16895793082E+02 -0.37076247735E+02  0.17268462710E+03  0.17742634407E+03  0.10566000000E+00 0. -1.
        994    1    1    2    0    0 -0.23426460183E+02  0.14118599088E+02  0.73210754220E+01  0.17352570997E+03  0.17120000000E+03 0.  0.
        998    1    1    2    0    0  0.65306671013E+01  0.22957648647E+02  0.13199942938E+04  0.13202479460E+04  0.10000000000E+02 0. -1.
</event>
<event>
 5    1  0.1146201E-008  0.4128044E+03  0.7957747E-01  0.3319682E+00
         13   -1    0    0    0    0  0.00000000000E+00  0.00000000000E+00  0.14999999963E+04  0.15000000000E+04  0.10566000000E+00 0.  1.
        994   -1    0    0    0    0 -0.00000000000E+00 -0.00000000000E+00  0.11368683772E-12  0.17120000000E+03  0.17120000000E+03 0.  0.
         13    1    1    2    0    0  0.13349354871E+02  0.13122677496E+03  0.21111323216E+03  0.24893268106E+03  0.10566000000E+00 0.  1.
        994    1    1    2    0    0 -0.18985712758E+02 -0.11473737387E+03  0.94170550294E+02  0.22738217783E+03  0.17120000000E+03 0.  0.
        998    1    1    2    0    0  0.56363578861E+01 -0.16489401090E+02  0.11947162138E+04  0.11948851411E+04  0.10000000000E+02 0.  1.
</event>
<event>
 5    1  0.1146201E-008  0.3831035E+03  0.7957747E-01  0.3437755E+00
         13   -1    0    0    0    0  0.00000000000E+00  0.00000000000E+00  0.14999999963E+04  0.15000000000E+04  0.10566000000E+00 0. -1.
        994   -1    0    0    0    0 -0.00000000000E+00 -0.00000000000E+00  0.11368683772E-12  0.17120000000E+03  0.17120000000E+03 0.  0.
         13    1    1    2    0    0 -0.94627926808E+01 -0.18192011888E+02  0.89850462237E+02  0.92160785967E+02  0.10566000000E+00 0. -1.
        994    1    1    2    0    0  0.45602660368E+01 -0.69319014388E+01  0.28024810478E+01  0.17142386410E+03  0.17120000000E+03 0.  0.
        998    1    1    2    0    0  0.49025266440E+01  0.25123913327E+02  0.14073470530E+04  0.14076153499E+04  0.10000000000E+02 0. -1.
</event>
<event>
 5    1  0.1146201E-008  0.4108592E+03  0.7957747E-01  0.3326896E+00
         13   -1    0    0    0    0  0.00000000000E+00  0.00000000000E+00  0.14999999963E+04  0.15000000000E+04  0.10566000000E+00 0.  1.
        994   -1    0    0    0    0 -0.00000000000E+00 -0.00000000000E+00  0.11368683772E-12  0.17120000000E+03  0.17120000000E+03 0.  0.
         13    1    1    2    0    0 -0.34369615808E+02  0.12562804199E+02  0.55067609354E+01  0.37005811978E+02  0.10566000000E+00 0.  1.
        994    1    1    2    0    0  0.35376099290E+02 -0.54748967454E+01  0.39703293890E+02  0.17935226355E+03  0.17120000000E+03 0.  0.
        998    1    1    2    0    0 -0.10064834822E+01 -0.70879074536E+01  0.14547899415E+04  0.14548419245E+04  0.10000000000E+02 0.  1.
</event>
<event>
 5    1  0.1146201E-008  0.3717053E+03  0.7957747E-01  0.3488090E+00
         13   -1    0    0    0    0  0.00000000000E+00  0.00000000000E+00  0.14999999963E+04  0.15000000000E+04  0.10566000000E+00 0.  1.
        994   -1    0    0    0    0 -0.00000000000E+00 -0.00000000000E+00  0.11368683772E-12  0.17120000000E+03  0.17120000000E+03 0.  0.
         13    1    1    2    0    0 -0.98509746013E+02  0.68755148589E+02  0.71492140145E+03  0.72494417849E+03  0.10566000000E+00 0.  1.
        994    1    1    2    0    0  0.63718049194E+02 -0.12490073686E+02  0.26822409347E+02  0.18505370403E+03  0.17120000000E+03 0.  0.
        998    1    1    2    0    0  0.34791696819E+02 -0.56265074902E+02  0.75825618548E+03  0.76120211747E+03  0.10000000000E+02 0.  1.
</event>
<event>
 5    1  0.1146201E-008  0.3833493E+03  0.7957747E-01  0.3436703E+00
         13   -1    0    0    0    0  0.00000000000E+00  0.00000000000E+00  0.14999999963E+04  0.15000000000E+04  0.10566000000E+00 0.  1.
        994   -1    0    0    0    0 -0.00000000000E+00 -0.00000000000E+00  0.11368683772E-12  0.17120000000E+03  0.17120000000E+03 0.  0.
         13    1    1    2    0    0 -0.12793632450E+01  0.19075869957E+02  0.70570486175E+02  0.73114501078E+02  0.10566000000E+00 0.  1.
        994    1    1    2    0    0  0.34519972479E+01 -0.20547323547E+02  0.38885125236E+01  0.17250701238E+03  0.17120000000E+03 0.  0.
        998    1    1    2    0    0 -0.21726340030E+01  0.14714535902E+01  0.14255409976E+04  0.14255784865E+04  0.10000000000E+02 0.  1.
</event>
<event>
 5    1  0.1146201E-008  0.3784013E+03  0.7957747E-01  0.3458149E+00
         13   -1    0    0    0    0  0.00000000000E+00  0.00000000000E+00  0.14999999963E+04  0.15000000000E+04  0.10566000000E+00 0. -1.
        994   -1    0    0    0    0 -0.00000000000E+00 -0.00000000000E+00  0.11368683772E-12  0.17120000000E+03  0.17120000000E+03 0.  0.
         13    1    1    2    0    0 -0.29021076927E+02 -0.50266282442E+01  0.87477287941E+02  0.92302637920E+02  0.10566000000E+00 0. -1.
        994    1    1    2    0    0  0.32196744302E+01  0.91031944145E+02  0.33352981169E+02  0.19677154904E+03  0.17120000000E+03 0.  0.
        998    1    1    2    0    0  0.25801402497E+02 -0.86005315901E+02  0.13791697272E+04  0.13821258130E+04  0.10000000000E+02 0. -1.
</event>
<event>
 5    1  0.1146201E-008  0.3829264E+03  0.7957747E-01  0.3438514E+00
         13   -1    0    0    0    0  0.00000000000E+00  0.00000000000E+00  0.14999999963E+04  0.15000000000E+04  0.10566000000E+00 0. -1.
        994   -1    0    0    0    0 -0.00000000000E+00 -0.00000000000E+00  0.11368683772E-12  0.17120000000E+03  0.17120000000E+03 0.  0.
         13    1    1    2    0    0 -0.12242904033E+02  0.21161937238E+02  0.89582130642E+01  0.26037992092E+02  0.10566000000E+00 0. -1.
        994    1    1    2    0    0  0.27680635795E+01 -0.19052444803E+02  0.19302903407E+02  0.17335714554E+03  0.17120000000E+03 0.  0.
        998    1    1    2    0    0  0.94748404539E+01 -0.21094924359E+01  0.14717388798E+04  0.14718048624E+04  0.10000000000E+02 0. -1.
</event>
<event>
 5    1  0.1146201E-008  0.3758265E+03  0.7957747E-01  0.3469535E+00
         13   -1    0    0    0    0  0.00000000000E+00  0.00000000000E+00  0.14999999963E+04  0.15000000000E+04  0.10566000000E+00 0.  1.
        994   -1    0    0    0    0 -0.00000000000E+00 -0.00000000000E+00  0.11368683772E-12  0.17120000000E+03  0.17120000000E+03 0.  0.
         13    1    1    2    0    0 -0.64218370227E+02  0.61210933069E+02  0.40990261551E+03  0.41939354164E+03  0.10566000000E+00 0.  1.
        994    1    1    2    0    0  0.81701637680E+02 -0.57572167334E+02  0.40907340057E+02  0.20241680395E+03  0.17120000000E+03 0.  0.
        998    1    1    2    0    0 -0.17483267453E+02 -0.36387657357E+01  0.10491900407E+04  0.10493896544E+04  0.10000000000E+02 0.  1.
</event>
<event>
 5    1  0.1146201E-008  0.3842607E+03  0.7957747E-01  0.3432814E+00
         13   -1    0    0    0    0  0.00000000000E+00  0.00000000000E+00  0.14999999963E+04  0.15000000000E+04  0.10566000000E+00 0. -1.
        994   -1    0    0    0    0 -0.00000000000E+00 -0.00000000000E+00  0.11368683772E-12  0.17120000000E+03  0.17120000000E+03 0.  0.
         13    1    1    2    0    0  0.22661465979E+02 -0.10538566357E+02  0.14818605970E+03  0.15027881712E+03  0.10566000000E+00 0. -1.
        994    1    1    2    0    0 -0.16301438352E+02  0.15052650495E+02  0.36222559553E+01  0.17266985816E+03  0.17120000000E+03 0.  0.
        998    1    1    2    0    0 -0.63600276270E+01 -0.45140841375E+01  0.13481916806E+04  0.13482513247E+04  0.10000000000E+02 0. -1.
</event>
<event>
 5    1  0.1146201E-008  0.3845048E+03  0.7957747E-01  0.3431775E+00
         13   -1    0    0    0    0  0.00000000000E+00  0.00000000000E+00  0.14999999963E+04  0.15000000000E+04  0.10566000000E+00 0.  1.
        994   -1    0    0    0    0 -0.00000000000E+00 -0.00000000000E+00  0.11368683772E-12  0.17120000000E+03  0.17120000000E+03 0.  0.
         13    1    1    2    0    0  0.73830330249E+01 -0.17969135248E+02  0.11144064188E+03  0.11312129253E+03  0.10566000000E+00 0.  1.
        994    1    1    2    0    0 -0.88820642736E+01 -0.44824337052E+01  0.22022870188E+01  0.17150298349E+03  0.17120000000E+03 0.  0.
        998    1    1    2    0    0  0.14990312487E+01  0.22451568953E+02  0.13863570674E+04  0.13865757240E+04  0.10000000000E+02 0.  1.
</event>
<event>
 5    1  0.1146201E-008  0.3860249E+03  0.7957747E-01  0.3425337E+00
         13   -1    0    0    0    0  0.00000000000E+00  0.00000000000E+00  0.14999999963E+04  0.15000000000E+04  0.10566000000E+00 0. -1.
        994   -1    0    0    0    0 -0.00000000000E+00 -0.00000000000E+00  0.11368683772E-12  0.17120000000E+03  0.17120000000E+03 0.  0.
         13    1    1    2    0    0 -0.54064838943E+01  0.94235484571E+01  0.51843517494E+02  0.52969753670E+02  0.10566000000E+00 0. -1.
        994    1    1    2    0    0  0.89018767941E+01 -0.78626090181E+01  0.15846694243E+01  0.17161880785E+03  0.17120000000E+03 0.  0.
        998    1    1    2    0    0 -0.34953928998E+01 -0.15609394391E+01  0.14465718094E+04  0.14466114385E+04  0.10000000000E+02 0. -1.
</event>
<event>
 5    1  0.1146201E-008  0.4129231E+03  0.7957747E-01  0.3319244E+00
         13   -1    0    0    0    0  0.00000000000E+00  0.00000000000E+00  0.14999999963E+04  0.15000000000E+04  0.10566000000E+00 0.  1.
        994   -1    0    0    0    0 -0.00000000000E+00 -0.00000000000E+00  0.11368683772E-12  0.17120000000E+03  0.17120000000E+03 0.  0.
         13    1    1    2    0    0  0.89512223708E+02 -0.94937256013E+02  0.19639267985E+03  0.23578722747E+03  0.10566000000E+00 0.  1.
        994    1    1    2    0    0 -0.84811867774E+02  0.96369956309E+02  0.10789335914E+03  0.23964690346E+03  0.17120000000E+03 0.  0.
        998    1    1    2    0    0 -0.47003559335E+01 -0.14327002958E+01  0.11957139573E+04  0.11957658691E+04  0.10000000000E+02 0. -1.
</event>
<event>
 5    1  0.1146201E-008  0.3831020E+03  0.7957747E-01  0.3437762E+00
         13   -1    0    0    0    0  0.00000000000E+00  0.00000000000E+00  0.14999999963E+04  0.15000000000E+04  0.10566000000E+00 0.  1.
        994   -1    0    0    0    0 -0.00000000000E+00 -0.00000000000E+00  0.11368683772E-12  0.17120000000E+03  0.17120000000E+03 0.  0.
         13    1    1    2    0    0 -0.11636151725E+02  0.11001462974E+02  0.52984900175E+02  0.55351992061E+02  0.10566000000E+00 0.  1.
        994    1    1    2    0    0 -0.78571063987E+00  0.77208861530E+01  0.27747412917E+01  0.17139827483E+03  0.17120000000E+03 0.  0.
        998    1    1    2    0    0  0.12421862365E+02 -0.18722349127E+02  0.14442403548E+04  0.14444497331E+04  0.10000000000E+02 0.  1.
</event>
<event>
 5    1  0.1146201E-008  0.3853716E+03  0.7957747E-01  0.3428098E+00
         13   -1    0    0    0    0  0.00000000000E+00  0.00000000000E+00  0.14999999963E+04  0.15000000000E+04  0.10566000000E+00 0.  1.
        994   -1    0    0    0    0 -0.00000000000E+00 -0.00000000000E+00  0.11368683772E-12  0.17120000000E+03  0.17120000000E+03 0.  0.
         13    1    1    2    0    0 -0.11232817745E+01 -0.13892654127E+02  0.70323599796E+02  0.71691613547E+02  0.10566000000E+00 0.  1.
        994    1    1    2    0    0 -0.64230511459E+01  0.38217873035E+01  0.16292846290E+01  0.17137081494E+03  0.17120000000E+03 0.  0.
        998    1    1    2    0    0  0.75463329204E+01  0.10070866823E+02  0.14280471119E+04  0.14281375715E+04  0.10000000000E+02 0.  1.
</event>
<event>
 5    1  0.1146201E-008  0.3793368E+03  0.7957747E-01  0.3454051E+00
         13   -1    0    0    0    0  0.00000000000E+00  0.00000000000E+00  0.14999999963E+04  0.15000000000E+04  0.10566000000E+00 0.  1.
        994   -1    0    0    0    0 -0.00000000000E+00 -0.00000000000E+00  0.11368683772E-12  0.17120000000E+03  0.17120000000E+03 0.  0.
         13    1    1    2    0    0  0.62882621950E+02 -0.70479399128E+02  0.35689051912E+03  0.36917803788E+03  0.10566000000E+00 0.  1.
        994    1    1    2    0    0  0.45186119519E+00  0.17846634057E+02  0.17116320387E+02  0.17297720933E+03  0.17120000000E+03 0.  0.
        998    1    1    2    0    0 -0.63334483145E+02  0.52632765071E+02  0.11259931568E+04  0.11290447528E+04  0.10000000000E+02 0.  1.
</event>
<event>
 5    1  0.1146201E-008  0.3820108E+03  0.7957747E-01  0.3442450E+00
         13   -1    0    0    0    0  0.00000000000E+00  0.00000000000E+00  0.14999999963E+04  0.15000000000E+04  0.10566000000E+00 0. -1.
        994   -1    0    0    0    0 -0.00000000000E+00 -0.00000000000E+00  0.11368683772E-12  0.17120000000E+03  0.17120000000E+03 0.  0.
         13    1    1    2    0    0  0.48683592336E+02  0.41721224065E+02  0.11082220973E+03  0.12803251944E+03  0.10566000000E+00 0. -1.
        994    1    1    2    0    0 -0.38481575784E+02 -0.26451082256E+02  0.25438738066E+02  0.17926812550E+03  0.17120000000E+03 0.  0.
        998    1    1    2    0    0 -0.10202016552E+02 -0.15270141808E+02  0.13637390485E+04  0.13638993551E+04  0.10000000000E+02 0. -1.
</event>
<event>
 5    1  0.1146201E-008  0.3848399E+03  0.7957747E-01  0.3430352E+00
         13   -1    0    0    0    0  0.00000000000E+00  0.00000000000E+00  0.14999999963E+04  0.15000000000E+04  0.10566000000E+00 0. -1.
        994   -1    0    0    0    0 -0.00000000000E+00 -0.00000000000E+00  0.11368683772E-12  0.17120000000E+03  0.17120000000E+03 0.  0.
         13    1    1    2    0    0 -0.93985001277E+01 -0.79710749380E+01  0.45392873717E+02  0.47036092404E+02  0.10566000000E+00 0. -1.
        994    1    1    2    0    0  0.91820576075E+01 -0.54332484256E+01  0.20842893562E+01  0.17154478900E+03  0.17120000000E+03 0.  0.
        998    1    1    2    0    0  0.21644252025E+00  0.13404323364E+02  0.14525228332E+04  0.14526191186E+04  0.10000000000E+02 0. -1.
</event>
<event>
 5    1  0.1146201E-008  0.3908163E+03  0.7957747E-01  0.3405373E+00
         13   -1    0    0    0    0  0.00000000000E+00  0.00000000000E+00  0.14999999963E+04  0.15000000000E+04  0.10566000000E+00 0.  1.
        994   -1    0    0    0    0 -0.00000000000E+00 -0.00000000000E+00  0.11368683772E-12  0.17120000000E+03  0.17120000000E+03 0.  0.
         13    1    1    2    0    0 -0.36588928911E+02  0.23528817714E+02  0.32195660017E+02  0.54119559032E+02  0.10566000000E+00 0.  1.
        994    1    1    2    0    0  0.47152604609E+02 -0.22148119881E+02  0.32714748197E+02  0.18191647008E+03  0.17120000000E+03 0.  0.
        998    1    1    2    0    0 -0.10563675698E+02 -0.13806978325E+01  0.14350895881E+04  0.14351639709E+04  0.10000000000E+02 0.  1.
</event>
<event>
 5    1  0.1146201E-008  0.3853332E+03  0.7957747E-01  0.3428260E+00
         13   -1    0    0    0    0  0.00000000000E+00  0.00000000000E+00  0.14999999963E+04  0.15000000000E+04  0.10566000000E+00 0. -1.
        994   -1    0    0    0    0 -0.00000000000E+00 -0.00000000000E+00  0.11368683772E-12  0.17120000000E+03  0.17120000000E+03 0.  0.
         13    1    1    2    0    0  0.86545571848E+01  0.63240011172E+01  0.38946371032E+02  0.40394620072E+02  0.10566000000E+00 0. -1.
        994    1    1    2    0    0 -0.58228943725E+01 -0.67570796621E+01  0.17262242206E+01  0.17144090549E+03  0.17120000000E+03 0.  0.
        998    1    1    2    0    0 -0.28316628123E+01  0.43307854491E+00  0.14593274010E+04  0.14593644744E+04  0.10000000000E+02 0. -1.
</event>
<event>
 5    1  0.1146201E-008  0.3829385E+03  0.7957747E-01  0.3438463E+00
         13   -1    0    0    0    0  0.00000000000E+00  0.00000000000E+00  0.14999999963E+04  0.15000000000E+04  0.10566000000E+00 0. -1.
        994   -1    0    0    0    0 -0.00000000000E+00 -0.00000000000E+00  0.11368683772E-12  0.17120000000E+03  0.17120000000E+03 0.  0.
         13    1    1    2    0    0  0.10892145529E+02 -0.10852068018E+02  0.43637682685E+02  0.46267318149E+02  0.10566000000E+00 0. -1.
        994    1    1    2    0    0 -0.24981410282E+01  0.12171279852E+02  0.31684049314E+01  0.17167952572E+03  0.17120000000E+03 0.  0.
        998    1    1    2    0    0 -0.83940045009E+01 -0.13192118335E+01  0.14531939087E+04  0.14532531561E+04  0.10000000000E+02 0. -1.
</event>
<event>
 5    1  0.1146201E-008  0.3686116E+03  0.7957747E-01  0.3502296E+00
         13   -1    0    0    0    0  0.00000000000E+00  0.00000000000E+00  0.14999999963E+04  0.15000000000E+04  0.10566000000E+00 0.  1.
        994   -1    0    0    0    0 -0.00000000000E+00 -0.00000000000E+00  0.11368683772E-12  0.17120000000E+03  0.17120000000E+03 0.  0.
         13    1    1    2    0    0  0.48698241359E+01  0.31230730873E+02  0.51136581386E+02  0.60116843379E+02  0.10566000000E+00 0.  1.
        994    1    1    2    0    0  0.92713138746E+01  0.14451367541E+02  0.11021484226E+02  0.17241146249E+03  0.17120000000E+03 0.  0.
        998    1    1    2    0    0 -0.14141138010E+02 -0.45682098414E+02  0.14378419307E+04  0.14386716941E+04  0.10000000000E+02 0.  1.
</event>
<event>
 5    1  0.1146201E-008  0.3824026E+03  0.7957747E-01  0.3440763E+00
         13   -1    0    0    0    0  0.00000000000E+00  0.00000000000E+00  0.14999999963E+04  0.15000000000E+04  0.10566000000E+00 0. -1.
        994   -1    0    0    0    0 -0.00000000000E+00 -0.00000000000E+00  0.11368683772E-12  0.17120000000E+03  0.17120000000E+03 0.  0.
         13    1    1    2    0    0  0.11141244399E+02 -0.47588567913E+01  0.23846174645E+02  0.26747434530E+02  0.10566000000E+00 0. -1.
        994    1    1    2    0    0 -0.77053303202E+01  0.81884648176E+01  0.33446319021E+01  0.17160142667E+03  0.17120000000E+03 0.  0.
        998    1    1    2    0    0 -0.34359140783E+01 -0.34296080263E+01  0.14728091897E+04  0.14728511388E+04  0.10000000000E+02 0. -1.
</event>
<event>
 5    1  0.1146201E-008  0.3855970E+03  0.7957747E-01  0.3427144E+00
         13   -1    0    0    0    0  0.00000000000E+00  0.00000000000E+00  0.14999999963E+04  0.15000000000E+04  0.10566000000E+00 0. -1.
        994   -1    0    0    0    0 -0.00000000000E+00 -0.00000000000E+00  0.11368683772E-12  0.17120000000E+03  0.17120000000E+03 0.  0.
         13    1    1    2    0    0 -0.70149698946E+01 -0.11480975264E+02  0.70066303256E+02  0.71346482826E+02  0.10566000000E+00 0. -1.
        994    1    1    2    0    0 -0.36984313406E+01  0.85929974169E+01  0.16213560207E+01  0.17146307706E+03  0.17120000000E+03 0.  0.
        998    1    1    2    0    0  0.10713401235E+02  0.28879778467E+01  0.14283123370E+04  0.14283904401E+04  0.10000000000E+02 0. -1.
</event>
<event>
 5    1  0.1146201E-008  0.3802008E+03  0.7957747E-01  0.3450284E+00
         13   -1    0    0    0    0  0.00000000000E+00  0.00000000000E+00  0.14999999963E+04  0.15000000000E+04  0.10566000000E+00 0. -1.
        994   -1    0    0    0    0 -0.00000000000E+00 -0.00000000000E+00  0.11368683772E-12  0.17120000000E+03  0.17120000000E+03 0.  0.
         13    1    1    2    0    0  0.58338915377E+02  0.60335553153E+02  0.48830121754E+03  0.49546129843E+03  0.10566000000E+00 0. -1.
        994    1    1    2    0    0 -0.48973957127E+02 -0.91383897990E+02  0.40820546258E+02  0.20426752626E+03  0.17120000000E+03 0.  0.
        998    1    1    2    0    0 -0.93649582495E+01  0.31048344837E+02  0.97087823248E+03  0.97147117531E+03  0.10000000000E+02 0. -1.
</event>
<event>
 5    1  0.1146201E-008  0.3852429E+03  0.7957747E-01  0.3428643E+00
         13   -1    0    0    0    0  0.00000000000E+00  0.00000000000E+00  0.14999999963E+04  0.15000000000E+04  0.10566000000E+00 0.  1.
        994   -1    0    0    0    0 -0.00000000000E+00 -0.00000000000E+00  0.11368683772E-12  0.17120000000E+03  0.17120000000E+03 0.  0.
         13    1    1    2    0    0 -0.15049380050E+02  0.31247822476E+01  0.79682639755E+02  0.81151601009E+02  0.10566000000E+00 0.  1.
        994    1    1    2    0    0  0.83004530228E+01  0.10903477166E+01  0.17399194279E+01  0.17141340000E+03  0.17120000000E+03 0.  0.
        998    1    1    2    0    0  0.67489270269E+01 -0.42151299643E+01  0.14185774371E+04  0.14186349990E+04  0.10000000000E+02 0.  1.
</event>
<event>
 5    1  0.1146201E-008  0.3815395E+03  0.7957747E-01  0.3444482E+00
         13   -1    0    0    0    0  0.00000000000E+00  0.00000000000E+00  0.14999999963E+04  0.15000000000E+04  0.10566000000E+00 0.  1.
        994   -1    0    0    0    0 -0.00000000000E+00 -0.00000000000E+00  0.11368683772E-12  0.17120000000E+03  0.17120000000E+03 0.  0.
         13    1    1    2    0    0 -0.45130992693E+01  0.37354710068E+02  0.19355056369E+03  0.19717396963E+03  0.10566000000E+00 0.  1.
        994    1    1    2    0    0 -0.17192984477E+02 -0.35025191544E+02  0.84379826478E+01  0.17579249787E+03  0.17120000000E+03 0.  0.
        998    1    1    2    0    0  0.21706083746E+02 -0.23295185237E+01  0.12980114499E+04  0.12982335325E+04  0.10000000000E+02 0.  1.
</event>
<event>
 5    1  0.1146201E-008  0.3761858E+03  0.7957747E-01  0.3467936E+00
         13   -1    0    0    0    0  0.00000000000E+00  0.00000000000E+00  0.14999999963E+04  0.15000000000E+04  0.10566000000E+00 0. -1.
        994   -1    0    0    0    0 -0.00000000000E+00 -0.00000000000E+00  0.11368683772E-12  0.17120000000E+03  0.17120000000E+03 0.  0.
         13    1    1    2    0    0 -0.25209286588E+02 -0.39892487057E+02  0.27627213441E+03  0.28027347728E+03  0.10566000000E+00 0. -1.
        994    1    1    2    0    0 -0.61994354612E+02  0.17160965083E+02  0.20211274229E+02  0.18399927808E+03  0.17120000000E+03 0.  0.
        998    1    1    2    0    0  0.87203641200E+02  0.22731521973E+02  0.12035165876E+04  0.12069272446E+04  0.10000000000E+02 0. -1.
</event>
<event>
 5    1  0.1669197E-008  0.3853872E+03  0.7957747E-01  0.3428032E+00
         13   -1    0    0    0    0  0.00000000000E+00  0.00000000000E+00  0.14999999963E+04  0.15000000000E+04  0.10566000000E+00 0.  1.
        994   -1    0    0    0    0 -0.00000000000E+00 -0.00000000000E+00  0.11368683772E-12  0.17120000000E+03  0.17120000000E+03 0.  0.
         13    1    1    2    0    0 -0.42919515200E+01  0.11225312958E+02  0.50895221133E+02  0.52294963400E+02  0.10566000000E+00 0.  1.
        994    1    1    2    0    0  0.49624283721E+01 -0.48896557102E+01  0.15974360383E+01  0.17134913548E+03  0.17120000000E+03 0.  0.
        998    1    1    2    0    0 -0.67047685202E+00 -0.63356572480E+01  0.14475073391E+04  0.14475559011E+04  0.10000000000E+02 0.  1.
</event>
<event>
 5    1  0.1146201E-008  0.3685719E+03  0.7957747E-01  0.3502480E+00
         13   -1    0    0    0    0  0.00000000000E+00  0.00000000000E+00  0.14999999963E+04  0.15000000000E+04  0.10566000000E+00 0.  1.
        994   -1    0    0    0    0 -0.00000000000E+00 -0.00000000000E+00  0.11368683772E-12  0.17120000000E+03  0.17120000000E+03 0.  0.
         13    1    1    2    0    0 -0.30133545654E+02 -0.81486562158E+02  0.29096335027E+03  0.30365732784E+03  0.10566000000E+00 0.  1.
        994    1    1    2    0    0  0.29459180593E+02  0.83642601256E+02  0.38064322528E+02  0.19652547091E+03  0.17120000000E+03 0.  0.
        998    1    1    2    0    0  0.67436506161E+00 -0.21560390974E+01  0.11709723235E+04  0.11710172013E+04  0.10000000000E+02 0.  0.
</event>
<event>
 5    1  0.1146201E-008  0.3804683E+03  0.7957747E-01  0.3449122E+00
         13   -1    0    0    0    0  0.00000000000E+00  0.00000000000E+00  0.14999999963E+04  0.15000000000E+04  0.10566000000E+00 0. -1.
        994   -1    0    0    0    0 -0.00000000000E+00 -0.00000000000E+00  0.11368683772E-12  0.17120000000E+03  0.17120000000E+03 0.  0.
         13    1    1    2    0    0  0.90025314313E+01 -0.86286327814E+01  0.18225489614E+02  0.22083444286E+02  0.10566000000E+00 0. -1.
        994    1    1    2    0    0 -0.46970633614E+01  0.10735831988E+02  0.43554173435E+01  0.17165584800E+03  0.17120000000E+03 0.  0.
        998    1    1    2    0    0 -0.43054680700E+01 -0.21071992065E+01  0.14774190893E+04  0.14774607077E+04  0.10000000000E+02 0. -1.
</event>
<event>
 5    1  0.1146201E-008  0.3818599E+03  0.7957747E-01  0.3443100E+00
         13   -1    0    0    0    0  0.00000000000E+00  0.00000000000E+00  0.14999999963E+04  0.15000000000E+04  0.10566000000E+00 0. -1.
        994   -1    0    0    0    0 -0.00000000000E+00 -0.00000000000E+00  0.11368683772E-12  0.17120000000E+03  0.17120000000E+03 0.  0.
         13    1    1    2    0    0  0.25970675848E+02  0.94453119716E+01  0.11655893483E+03  0.11979017645E+03  0.10566000000E+00 0. -1.
        994    1    1    2    0    0 -0.19444984418E+02 -0.28136140215E+01  0.44808478404E+01  0.17238196495E+03  0.17120000000E+03 0.  0.
        998    1    1    2    0    0 -0.65256914300E+01 -0.66316979500E+01  0.13789602136E+04  0.13790278586E+04  0.10000000000E+02 0. -1.
</event>
<event>
 5    1  0.1146201E-008  0.3827383E+03  0.7957747E-01  0.3439321E+00
         13   -1    0    0    0    0  0.00000000000E+00  0.00000000000E+00  0.14999999963E+04  0.15000000000E+04  0.10566000000E+00 0. -1.
        994   -1    0    0    0    0 -0.00000000000E+00 -0.00000000000E+00  0.11368683772E-12  0.17120000000E+03  0.17120000000E+03 0.  0.
         13    1    1    2    0    0 -0.16459323412E+02  0.15804228229E+01  0.47655826255E+02  0.50442997567E+02  0.10566000000E+00 0. -1.
        994    1    1    2    0    0  0.19101277644E+02  0.27376150115E+02  0.64576374401E+01  0.17454355756E+03  0.17120000000E+03 0.  0.
        998    1    1    2    0    0 -0.26419542322E+01 -0.28956572938E+02  0.14458865326E+04  0.14462134449E+04  0.10000000000E+02 0. -1.
</event>
<event>
 5    1  0.1146201E-008  0.3794979E+03  0.7957747E-01  0.3453348E+00
         13   -1    0    0    0    0  0.00000000000E+00  0.00000000000E+00  0.14999999963E+04  0.15000000000E+04  0.10566000000E+00 0.  1.
        994   -1    0    0    0    0 -0.00000000000E+00 -0.00000000000E+00  0.11368683772E-12  0.17120000000E+03  0.17120000000E+03 0.  0.
         13    1    1    2    0    0  0.29590997530E+02 -0.38497075842E+02  0.28618808492E+03  0.29027794111E+03  0.10566000000E+00 0.  1.
        994    1    1    2    0    0 -0.84938888212E+01  0.18774183240E+02  0.58099204030E+01  0.17253350770E+03  0.17120000000E+03 0.  0.
        998    1    1    2    0    0 -0.21097108709E+02  0.19722892602E+02  0.12080019910E+04  0.12083885512E+04  0.10000000000E+02 0.  1.
</event>
<event>
 5    1  0.1146201E-008  0.3830636E+03  0.7957747E-01  0.3437926E+00
         13   -1    0    0    0    0  0.00000000000E+00  0.00000000000E+00  0.14999999963E+04  0.15000000000E+04  0.10566000000E+00 0. -1.
        994   -1    0    0    0    0 -0.00000000000E+00 -0.00000000000E+00  0.11368683772E-12  0.17120000000E+03  0.17120000000E+03 0.  0.
         13    1    1    2    0    0 -0.87492717504E+01  0.82860291390E+01  0.27033181553E+02  0.29597501650E+02  0.10566000000E+00 0. -1.
        994    1    1    2    0    0  0.54064060845E+01 -0.72223298263E+01  0.28639765977E+01  0.17146146400E+03  0.17120000000E+03 0.  0.
        998    1    1    2    0    0  0.33428656659E+01 -0.10636993126E+01  0.14701028381E+04  0.14701410344E+04  0.10000000000E+02 0. -1.
</event>
<event>
 5    1  0.1146201E-008  0.3796048E+03  0.7957747E-01  0.3452881E+00
         13   -1    0    0    0    0  0.00000000000E+00  0.00000000000E+00  0.14999999963E+04  0.15000000000E+04  0.10566000000E+00 0.  1.
        994   -1    0    0    0    0 -0.00000000000E+00 -0.00000000000E+00  0.11368683772E-12  0.17120000000E+03  0.17120000000E+03 0.  0.
         13    1    1    2    0    0 -0.53868956167E+02 -0.35718753130E+02  0.36847499246E+03  0.37410095562E+03  0.10566000000E+00 0.  1.
        994    1    1    2    0    0  0.50373782296E+02  0.38960935797E+02  0.18029343588E+02  0.18354827619E+03  0.17120000000E+03 0.  0.
        998    1    1    2    0    0  0.34951738705E+01 -0.32421826672E+01  0.11134956602E+04  0.11135507682E+04  0.10000000000E+02 0. -1.
</event>
<event>
 5    1  0.1146201E-008  0.3695146E+03  0.7957747E-01  0.3498125E+00
         13   -1    0    0    0    0  0.00000000000E+00  0.00000000000E+00  0.14999999963E+04  0.15000000000E+04  0.10566000000E+00 0.  1.
        994   -1    0    0    0    0 -0.00000000000E+00 -0.00000000000E+00  0.11368683772E-12  0.17120000000E+03  0.17120000000E+03 0.  0.
         13    1    1    2    0    0  0.24548584774E+02  0.34200325576E+02  0.84156425658E+02  0.94098939566E+02  0.10566000000E+00 0.  1.
        994    1    1    2    0    0 -0.26840313543E+02 -0.36168260030E+02  0.16581787795E+02  0.17780028445E+03  0.17120000000E+03 0.  0.
        998    1    1    2    0    0  0.22917287684E+01  0.19679344538E+01  0.13992617828E+04  0.13993007760E+04  0.10000000000E+02 0.  1.
</event>
<event>
 5    1  0.1146201E-008  0.3705285E+03  0.7957747E-01  0.3493466E+00
         13   -1    0    0    0    0  0.00000000000E+00  0.00000000000E+00  0.14999999963E+04  0.15000000000E+04  0.10566000000E+00 0.  1.
        994   -1    0    0    0    0 -0.00000000000E+00 -0.00000000000E+00  0.11368683772E-12  0.17120000000E+03  0.17120000000E+03 0.  0.
         13    1    1    2    0    0 -0.36106001971E+02  0.14796103594E+02  0.85355331225E+02  0.93851541236E+02  0.10566000000E+00 0.  1.
        994    1    1    2    0    0  0.15642390047E+02  0.80452692853E+01  0.10061700023E+02  0.17239515229E+03  0.17120000000E+03 0.  0.
        998    1    1    2    0    0  0.20463611924E+02 -0.22841372879E+02  0.14045829650E+04  0.14049533065E+04  0.10000000000E+02 0.  1.
</event>
<event>
 5    1  0.1146201E-008  0.3816218E+03  0.7957747E-01  0.3444127E+00
         13   -1    0    0    0    0  0.00000000000E+00  0.00000000000E+00  0.14999999963E+04  0.15000000000E+04  0.10566000000E+00 0.  1.
        994   -1    0    0    0    0 -0.00000000000E+00 -0.00000000000E+00  0.11368683772E-12  0.17120000000E+03  0.17120000000E+03 0.  0.
         13    1    1    2    0    0  0.86545924535E+02  0.79094756158E+02  0.65253184381E+03  0.66298114291E+03  0.10566000000E+00 0.  1.
        994    1    1    2    0    0 -0.10515717041E+03 -0.10445707363E+03  0.80184575256E+02  0.24022555407E+03  0.17120000000E+03 0.  0.
        998    1    1    2    0    0  0.18611245871E+02  0.25362317475E+02  0.76728357722E+03  0.76799330302E+03  0.10000000000E+02 0.  1.
</event>
<event>
 5    1  0.1146201E-008  0.3725849E+03  0.7957747E-01  0.3484095E+00
         13   -1    0    0    0    0  0.00000000000E+00  0.00000000000E+00  0.14999999963E+04  0.15000000000E+04  0.10566000000E+00 0. -1.
        994   -1    0    0    0    0 -0.00000000000E+00 -0.00000000000E+00  0.11368683772E-12  0.17120000000E+03  0.17120000000E+03 0.  0.
         13    1    1    2    0    0 -0.16164594611E+03  0.67158421675E+02  0.71874678081E+03  0.73975442654E+03  0.10566000000E+00 0. -1.
        994    1    1    2    0    0  0.18119032431E+03 -0.53919617271E+02  0.14244952622E+03  0.29212765407E+03  0.17120000000E+03 0.  0.
        998    1    1    2    0    0 -0.19544378202E+02 -0.13238804404E+02  0.63880368925E+03  0.63931791940E+03  0.10000000000E+02 0. -1.
</event>
<event>
 5    1  0.1146201E-008  0.3847860E+03  0.7957747E-01  0.3430580E+00
         13   -1    0    0    0    0  0.00000000000E+00  0.00000000000E+00  0.14999999963E+04  0.15000000000E+04  0.10566000000E+00 0. -1.
        994   -1    0    0    0    0 -0.00000000000E+00 -0.00000000000E+00  0.11368683772E-12  0.17120000000E+03  0.17120000000E+03 0.  0.
         13    1    1    2    0    0  0.12505737643E+02 -0.29172647526E+01  0.47197203417E+02  0.48913097244E+02  0.10566000000E+00 0. -1.
        994    1    1    2    0    0 -0.94604708859E+01 -0.64070849139E+00  0.20323467792E+01  0.17147443381E+03  0.17120000000E+03 0.  0.
        998    1    1    2    0    0 -0.30452667575E+01  0.35579732440E+01  0.14507704461E+04  0.14508124689E+04  0.10000000000E+02 0. -1.
</event>
<event>
 5    1  0.1146201E-008  0.3694620E+03  0.7957747E-01  0.3498367E+00
         13   -1    0    0    0    0  0.00000000000E+00  0.00000000000E+00  0.14999999963E+04  0.15000000000E+04  0.10566000000E+00 0.  1.
        994   -1    0    0    0    0 -0.00000000000E+00 -0.00000000000E+00  0.11368683772E-12  0.17120000000E+03  0.17120000000E+03 0.  0.
         13    1    1    2    0    0  0.21451035247E+02 -0.63139038144E+01  0.21675348148E+02  0.31142321299E+02  0.10566000000E+00 0.  1.
        994    1    1    2    0    0 -0.22657129854E+02  0.10837982910E+02  0.11738769586E+02  0.17343023415E+03  0.17120000000E+03 0.  0.
        998    1    1    2    0    0  0.12060946074E+01 -0.45240790958E+01  0.14665858785E+04  0.14666274445E+04  0.10000000000E+02 0.  1.
</event>
<event>
 5    1  0.1146201E-008  0.3858898E+03  0.7957747E-01  0.3425907E+00
         13   -1    0    0    0    0  0.00000000000E+00  0.00000000000E+00  0.14999999963E+04  0.15000000000E+04  0.10566000000E+00 0. -1.
        994   -1    0    0    0    0 -0.00000000000E+00 -0.00000000000E+00  0.11368683772E-12  0.17120000000E+03  0.17120000000E+03 0.  0.
         13    1    1    2    0    0  0.23132003317E+01 -0.13841652602E+02  0.78215756162E+02  0.79464821894E+02  0.10566000000E+00 0. -1.
        994    1    1    2    0    0  0.22727056646E+02  0.22806950732E+02  0.45958713654E+01  0.17426198134E+03  0.17120000000E+03 0.  0.
        998    1    1    2    0    0 -0.25040256977E+02 -0.89652981303E+01  0.14171883688E+04  0.14174731968E+04  0.10000000000E+02 0. -1.
</event>
<event>
 5    1  0.1146201E-008  0.3711011E+03  0.7957747E-01  0.3490846E+00
         13   -1    0    0    0    0  0.00000000000E+00  0.00000000000E+00  0.14999999963E+04  0.15000000000E+04  0.10566000000E+00 0. -1.
        994   -1    0    0    0    0 -0.00000000000E+00 -0.00000000000E+00  0.11368683772E-12  0.17120000000E+03  0.17120000000E+03 0.  0.
         13    1    1    2    0    0  0.98394002628E+01  0.14864041149E+02  0.14762683626E+02  0.23145226478E+02  0.10566000000E+00 0. -1.
        994    1    1    2    0    0 -0.17663799219E+01 -0.37674729173E+01  0.87543434738E+01  0.17147417438E+03  0.17120000000E+03 0.  0.
        998    1    1    2    0    0 -0.80730203409E+01 -0.11096568232E+02  0.14764829692E+04  0.14765805991E+04  0.10000000000E+02 0. -1.
</event>
<event>
 5    1  0.1146201E-008  0.3861632E+03  0.7957747E-01  0.3424754E+00
         13   -1    0    0    0    0  0.00000000000E+00  0.00000000000E+00  0.14999999963E+04  0.15000000000E+04  0.10566000000E+00 0.  1.
        994   -1    0    0    0    0 -0.00000000000E+00 -0.00000000000E+00  0.11368683772E-12  0.17120000000E+03  0.17120000000E+03 0.  0.
         13    1    1    2    0    0  0.55273367299E+01 -0.15545735360E+02  0.99740526732E+02  0.10109601959E+03  0.10566000000E+00 0.  1.
        994    1    1    2    0    0  0.23471124715E+02  0.54493393996E+02  0.12673689954E+02  0.18163283321E+03  0.17120000000E+03 0.  0.
        998    1    1    2    0    0 -0.28998461445E+02 -0.38947658636E+02  0.13875857796E+04  0.13884711472E+04  0.10000000000E+02 0.  1.
</event>
<event>
 5    1  0.1146201E-008  0.3396370E+03  0.7957747E-01  0.3648240E+00
         13   -1    0    0    0    0  0.00000000000E+00  0.00000000000E+00  0.14999999963E+04  0.15000000000E+04  0.10566000000E+00 0. -1.
        994   -1    0    0    0    0 -0.00000000000E+00 -0.00000000000E+00  0.11368683772E-12  0.17120000000E+03  0.17120000000E+03 0.  0.
         13    1    1    2    0    0 -0.16745110156E+03 -0.22628330259E+03  0.65658312540E+03  0.71438464161E+03  0.10566000000E+00 0. -1.
        994    1    1    2    0    0  0.17621177738E+03  0.22303292827E+03  0.42985776348E+03  0.54302984670E+03  0.17120000000E+03 0.  0.
        998    1    1    2    0    0 -0.87606758275E+01  0.32503743151E+01  0.41355910739E+03  0.41378551168E+03  0.10000000000E+02 0.  0.
</event>
<event>
 5    1  0.1146201E-008  0.3832414E+03  0.7957747E-01  0.3437165E+00
         13   -1    0    0    0    0  0.00000000000E+00  0.00000000000E+00  0.14999999963E+04  0.15000000000E+04  0.10566000000E+00 0.  1.
        994   -1    0    0    0    0 -0.00000000000E+00 -0.00000000000E+00  0.11368683772E-12  0.17120000000E+03  0.17120000000E+03 0.  0.
         13    1    1    2    0    0  0.84523538087E+01  0.67408045743E+01  0.22358351248E+02  0.24835212216E+02  0.10566000000E+00 0.  1.
        994    1    1    2    0    0 -0.92200622564E+01 -0.22169515514E+01  0.28032387792E+01  0.17148534214E+03  0.17120000000E+03 0.  0.
        998    1    1    2    0    0  0.76770844769E+00 -0.45238530228E+01  0.14748384063E+04  0.14748794456E+04  0.10000000000E+02 0.  1.
</event>
<event>
 5    1  0.1146201E-008  0.3790796E+03  0.7957747E-01  0.3455176E+00
         13   -1    0    0    0    0  0.00000000000E+00  0.00000000000E+00  0.14999999963E+04  0.15000000000E+04  0.10566000000E+00 0.  1.
        994   -1    0    0    0    0 -0.00000000000E+00 -0.00000000000E+00  0.11368683772E-12  0.17120000000E+03  0.17120000000E+03 0.  0.
         13    1    1    2    0    0 -0.26927606226E+02  0.14584719962E+02  0.98208070719E+02  0.10287199012E+03  0.10566000000E+00 0.  1.
        994    1    1    2    0    0  0.21118466889E+02 -0.94962302313E+01  0.63983772818E+01  0.17287726069E+03  0.17120000000E+03 0.  0.
        998    1    1    2    0    0  0.58091393368E+01 -0.50884897307E+01  0.13953935483E+04  0.13954507492E+04  0.10000000000E+02 0.  1.
</event>
<event>
 5    1  0.1146201E-008  0.3837490E+03  0.7957747E-01  0.3434995E+00
         13   -1    0    0    0    0  0.00000000000E+00  0.00000000000E+00  0.14999999963E+04  0.15000000000E+04  0.10566000000E+00 0.  1.
        994   -1    0    0    0    0 -0.00000000000E+00 -0.00000000000E+00  0.11368683772E-12  0.17120000000E+03  0.17120000000E+03 0.  0.
         13    1    1    2    0    0  0.10684257306E+02 -0.23537258852E+02  0.14467569725E+03  0.14696674606E+03  0.10566000000E+00 0.  1.
        994    1    1    2    0    0 -0.15982454566E+02  0.12885868855E+02  0.36454937883E+01  0.17246510979E+03  0.17120000000E+03 0.  0.
        998    1    1    2    0    0  0.52981972595E+01  0.10651389996E+02  0.13516788052E+04  0.13517681442E+04  0.10000000000E+02 0.  1.
</event>
<event>
 5    1  0.1146201E-008  0.3765385E+03  0.7957747E-01  0.3466370E+00
         13   -1    0    0    0    0  0.00000000000E+00  0.00000000000E+00  0.14999999963E+04  0.15000000000E+04  0.10566000000E+00 0.  1.
        994   -1    0    0    0    0 -0.00000000000E+00 -0.00000000000E+00  0.11368683772E-12  0.17120000000E+03  0.17120000000E+03 0.  0.
         13    1    1    2    0    0  0.26191220233E+02  0.46206562455E+01  0.56765590764E+02  0.62687111436E+02  0.10566000000E+00 0.  1.
        994    1    1    2    0    0 -0.21805888830E+02 -0.50155047715E+01  0.75856467591E+01  0.17282255094E+03  0.17120000000E+03 0.  0.
        998    1    1    2    0    0 -0.43853314026E+01  0.39484852606E+00  0.14356487588E+04  0.14356903376E+04  0.10000000000E+02 0.  1.
</event>
<event>
 5    1  0.1146201E-008  0.3835937E+03  0.7957747E-01  0.3435658E+00
         13   -1    0    0    0    0  0.00000000000E+00  0.00000000000E+00  0.14999999963E+04  0.15000000000E+04  0.10566000000E+00 0. -1.
        994   -1    0    0    0    0 -0.00000000000E+00 -0.00000000000E+00  0.11368683772E-12  0.17120000000E+03  0.17120000000E+03 0.  0.
         13    1    1    2    0    0  0.15825915017E+02 -0.14380731274E+02  0.88705012270E+02  0.91246125310E+02  0.10566000000E+00 0. -1.
        994    1    1    2    0    0 -0.55792191403E+01  0.37760471089E+02  0.71583252861E+01  0.17554960121E+03  0.17120000000E+03 0.  0.
        998    1    1    2    0    0 -0.10246695877E+02 -0.23379739816E+02  0.14041366587E+04  0.14044042735E+04  0.10000000000E+02 0. -1.
</event>
<event>
 5    1  0.1146201E-008  0.3835110E+03  0.7957747E-01  0.3436012E+00
         13   -1    0    0    0    0  0.00000000000E+00  0.00000000000E+00  0.14999999963E+04  0.15000000000E+04  0.10566000000E+00 0. -1.
        994   -1    0    0    0    0 -0.00000000000E+00 -0.00000000000E+00  0.11368683772E-12  0.17120000000E+03  0.17120000000E+03 0.  0.
         13    1    1    2    0    0 -0.95512502553E+00  0.18742993981E+02  0.70944991540E+02  0.73385387345E+02  0.10566000000E+00 0. -1.
        994    1    1    2    0    0  0.41777510546E+01 -0.18697061711E+02  0.35850196680E+01  0.17230590845E+03  0.17120000000E+03 0.  0.
        998    1    1    2    0    0 -0.32226260290E+01 -0.45932269962E-01  0.14254699851E+04  0.14255087042E+04  0.10000000000E+02 0. -1.
</event>
<event>
 5    1  0.1146201E-008  0.3770777E+03  0.7957747E-01  0.3463982E+00
         13   -1    0    0    0    0  0.00000000000E+00  0.00000000000E+00  0.14999999963E+04  0.15000000000E+04  0.10566000000E+00 0. -1.
        994   -1    0    0    0    0 -0.00000000000E+00 -0.00000000000E+00  0.11368683772E-12  0.17120000000E+03  0.17120000000E+03 0.  0.
         13    1    1    2    0    0  0.29887022916E+02 -0.37641130459E+02  0.17811158035E+03  0.18448261452E+03  0.10566000000E+00 0. -1.
        994    1    1    2    0    0 -0.74173347769E+02  0.90990264201E+01  0.24704785237E+02  0.18842569945E+03  0.17120000000E+03 0.  0.
        998    1    1    2    0    0  0.44286324852E+02  0.28542104039E+02  0.12971836307E+04  0.12982916860E+04  0.10000000000E+02 0. -1.
</event>
<event>
 5    1  0.1192146E-008  0.3849112E+03  0.7957747E-01  0.3430049E+00
         13   -1    0    0    0    0  0.00000000000E+00  0.00000000000E+00  0.14999999963E+04  0.15000000000E+04  0.10566000000E+00 0. -1.
        994   -1    0    0    0    0 -0.00000000000E+00 -0.00000000000E+00  0.11368683772E-12  0.17120000000E+03  0.17120000000E+03 0.  0.
         13    1    1    2    0    0 -0.17060573448E+02  0.45161571342E+01  0.10336481156E+03  0.10486064216E+03  0.10566000000E+00 0. -1.
        994    1    1    2    0    0 -0.33644815207E+01 -0.60038539620E+01  0.18300564729E+01  0.17134805253E+03  0.17120000000E+03 0.  0.
        998    1    1    2    0    0  0.20425054969E+02  0.14876968278E+01  0.13948051282E+04  0.13949913053E+04  0.10000000000E+02 0. -1.
</event>
<event>
 5    1  0.1146201E-008  0.3739929E+03  0.7957747E-01  0.3477739E+00
         13   -1    0    0    0    0  0.00000000000E+00  0.00000000000E+00  0.14999999963E+04  0.15000000000E+04  0.10566000000E+00 0. -1.
        994   -1    0    0    0    0 -0.00000000000E+00 -0.00000000000E+00  0.11368683772E-12  0.17120000000E+03  0.17120000000E+03 0.  0.
         13    1    1    2    0    0 -0.11337957042E+02 -0.21754139699E+02  0.38204944411E+02  0.45402872215E+02  0.10566000000E+00 0. -1.
        994    1    1    2    0    0  0.57459605762E+01  0.23092055065E+02  0.91305988724E+01  0.17308687676E+03  0.17120000000E+03 0.  0.
        998    1    1    2    0    0  0.55919964657E+01 -0.13379153658E+01  0.14526644530E+04  0.14527102510E+04  0.10000000000E+02 0. -1.
</event>
<event>
 5    1  0.1146201E-008  0.3761683E+03  0.7957747E-01  0.3468014E+00
         13   -1    0    0    0    0  0.00000000000E+00  0.00000000000E+00  0.14999999963E+04  0.15000000000E+04  0.10566000000E+00 0.  1.
        994   -1    0    0    0    0 -0.00000000000E+00 -0.00000000000E+00  0.11368683772E-12  0.17120000000E+03  0.17120000000E+03 0.  0.
         13    1    1    2    0    0  0.14858944656E+02 -0.28574250842E+01  0.16053176907E+02  0.22060570420E+02  0.10566000000E+00 0.  1.
        994    1    1    2    0    0 -0.12817133481E+02  0.81459125754E+01  0.68612805752E+01  0.17200916247E+03  0.17120000000E+03 0.  0.
        998    1    1    2    0    0 -0.20418111752E+01 -0.52884874913E+01  0.14770855388E+04  0.14771302671E+04  0.10000000000E+02 0.  1.
</event>
<event>
 5    1  0.1146201E-008  0.3766807E+03  0.7957747E-01  0.3465740E+00
         13   -1    0    0    0    0  0.00000000000E+00  0.00000000000E+00  0.14999999963E+04  0.15000000000E+04  0.10566000000E+00 0. -1.
        994   -1    0    0    0    0 -0.00000000000E+00 -0.00000000000E+00  0.11368683772E-12  0.17120000000E+03  0.17120000000E+03 0.  0.
         13    1    1    2    0    0 -0.72986741036E+02  0.50269267095E+01  0.30911314127E+03  0.31765276581E+03  0.10566000000E+00 0. -1.
        994    1    1    2    0    0  0.91566854608E+02 -0.31212211996E+02  0.38136017493E+02  0.20030598311E+03  0.17120000000E+03 0.  0.
        998    1    1    2    0    0 -0.18580113572E+02  0.26185285287E+02  0.11527508375E+04  0.11532412511E+04  0.10000000000E+02 0. -1.
</event>
<event>
 5    1  0.1146201E-008  0.3844882E+03  0.7957747E-01  0.3431846E+00
         13   -1    0    0    0    0  0.00000000000E+00  0.00000000000E+00  0.14999999963E+04  0.15000000000E+04  0.10566000000E+00 0. -1.
        994   -1    0    0    0    0 -0.00000000000E+00 -0.00000000000E+00  0.11368683772E-12  0.17120000000E+03  0.17120000000E+03 0.  0.
         13    1    1    2    0    0  0.26371408484E+01 -0.16574634367E+02  0.87625933396E+02  0.89218766993E+02  0.10566000000E+00 0. -1.
        994    1    1    2    0    0  0.28460344323E+00 -0.12155808555E+02  0.23716182768E+01  0.17164763108E+03  0.17120000000E+03 0.  0.
        998    1    1    2    0    0 -0.29217442917E+01  0.28730442922E+02  0.14100024446E+04  0.14103336019E+04  0.10000000000E+02 0. -1.
</event>
<event>
 5    1  0.1146201E-008  0.3830872E+03  0.7957747E-01  0.3437825E+00
         13   -1    0    0    0    0  0.00000000000E+00  0.00000000000E+00  0.14999999963E+04  0.15000000000E+04  0.10566000000E+00 0.  1.
        994   -1    0    0    0    0 -0.00000000000E+00 -0.00000000000E+00  0.11368683772E-12  0.17120000000E+03  0.17120000000E+03 0.  0.
         13    1    1    2    0    0  0.11855749029E+02 -0.29709840742E+01  0.27566653466E+02  0.30154884825E+02  0.10566000000E+00 0.  1.
        994    1    1    2    0    0 -0.12615234475E+02  0.40624344749E+01  0.31642344641E+01  0.17174137502E+03  0.17120000000E+03 0.  0.
        998    1    1    2    0    0  0.75948544587E+00 -0.10914504007E+01  0.14692691083E+04  0.14693037402E+04  0.10000000000E+02 0.  1.
</event>
<event>
 5    1  0.1146201E-008  0.3753824E+03  0.7957747E-01  0.3471514E+00
         13   -1    0    0    0    0  0.00000000000E+00  0.00000000000E+00  0.14999999963E+04  0.15000000000E+04  0.10566000000E+00 0.  1.
        994   -1    0    0    0    0 -0.00000000000E+00 -0.00000000000E+00  0.11368683772E-12  0.17120000000E+03  0.17120000000E+03 0.  0.
         13    1    1    2    0    0  0.28346938428E+02 -0.37783881732E+01  0.57155512646E+02  0.63910788802E+02  0.10566000000E+00 0.  1.
        994    1    1    2    0    0 -0.35003702588E+02  0.89161342873E+01  0.10924738299E+02  0.17530985869E+03  0.17120000000E+03 0.  0.
        998    1    1    2    0    0  0.66567641596E+01 -0.51377461140E+01  0.14319197453E+04  0.14319793525E+04  0.10000000000E+02 0.  1.
</event>
<event>
 5    1  0.1146201E-008  0.3891504E+03  0.7957747E-01  0.3412258E+00
         13   -1    0    0    0    0  0.00000000000E+00  0.00000000000E+00  0.14999999963E+04  0.15000000000E+04  0.10566000000E+00 0.  1.
        994   -1    0    0    0    0 -0.00000000000E+00 -0.00000000000E+00  0.11368683772E-12  0.17120000000E+03  0.17120000000E+03 0.  0.
         13    1    1    2    0    0 -0.11867517677E+02  0.19491243918E+02  0.27791974418E+01  0.22988729146E+02  0.10566000000E+00 0.  1.
        994    1    1    2    0    0  0.27399628935E+01 -0.20368403539E+02  0.23032653688E+02  0.17396069210E+03  0.17120000000E+03 0.  0.
        998    1    1    2    0    0  0.91275547831E+01  0.87715962065E+00  0.14741881451E+04  0.14742505788E+04  0.10000000000E+02 0.  1.
</event>
<event>
 5    1  0.1146201E-008  0.3704648E+03  0.7957747E-01  0.3493757E+00
         13   -1    0    0    0    0  0.00000000000E+00  0.00000000000E+00  0.14999999963E+04  0.15000000000E+04  0.10566000000E+00 0.  1.
        994   -1    0    0    0    0 -0.00000000000E+00 -0.00000000000E+00  0.11368683772E-12  0.17120000000E+03  0.17120000000E+03 0.  0.
         13    1    1    2    0    0  0.59865287752E+02  0.54394638127E+02  0.46433333816E+03  0.47132588452E+03  0.10566000000E+00 0.  1.
        994    1    1    2    0    0 -0.19807892844E+02 -0.64713625864E+01  0.10526744436E+02  0.17278450018E+03  0.17120000000E+03 0.  0.
        998    1    1    2    0    0 -0.40057394908E+02 -0.47923275541E+02  0.10251399137E+04  0.10270896153E+04  0.10000000000E+02 0.  1.
</event>
<event>
 5    1  0.1146201E-008  0.3811825E+03  0.7957747E-01  0.3446026E+00
         13   -1    0    0    0    0  0.00000000000E+00  0.00000000000E+00  0.14999999963E+04  0.15000000000E+04  0.10566000000E+00 0.  1.
        994   -1    0    0    0    0 -0.00000000000E+00 -0.00000000000E+00  0.11368683772E-12  0.17120000000E+03  0.17120000000E+03 0.  0.
         13    1    1    2    0    0  0.50154859297E+01  0.25102433371E+02  0.91749603513E+02  0.95253809210E+02  0.10566000000E+00 0.  1.
        994    1    1    2    0    0 -0.82127415551E+00 -0.15260840390E+02  0.43155372350E+01  0.17193496329E+03  0.17120000000E+03 0.  0.
        998    1    1    2    0    0 -0.41942117742E+01 -0.98415929814E+01  0.14039348555E+04  0.14040112275E+04  0.10000000000E+02 0.  1.
</event>
<event>
 5    1  0.1146201E-008  0.3848088E+03  0.7957747E-01  0.3430484E+00
         13   -1    0    0    0    0  0.00000000000E+00  0.00000000000E+00  0.14999999963E+04  0.15000000000E+04  0.10566000000E+00 0.  1.
        994   -1    0    0    0    0 -0.00000000000E+00 -0.00000000000E+00  0.11368683772E-12  0.17120000000E+03  0.17120000000E+03 0.  0.
         13    1    1    2    0    0 -0.23800814447E+01  0.15197969733E+02  0.65013493125E+02  0.66808745865E+02  0.10566000000E+00 0.  1.
        994    1    1    2    0    0  0.89657755552E+00 -0.18755055133E+02  0.28861118470E+01  0.17225076367E+03  0.17120000000E+03 0.  0.
        998    1    1    2    0    0  0.14835038892E+01  0.35570854004E+01  0.14321003913E+04  0.14321404905E+04  0.10000000000E+02 0.  1.
</event>
<event>
 5    1  0.1146201E-008  0.3805837E+03  0.7957747E-01  0.3448621E+00
         13   -1    0    0    0    0  0.00000000000E+00  0.00000000000E+00  0.14999999963E+04  0.15000000000E+04  0.10566000000E+00 0.  1.
        994   -1    0    0    0    0 -0.00000000000E+00 -0.00000000000E+00  0.11368683772E-12  0.17120000000E+03  0.17120000000E+03 0.  0.
         13    1    1    2    0    0 -0.29749657114E+02  0.11812296312E+02  0.14211964887E+03  0.14567971102E+03  0.10566000000E+00 0.  1.
        994    1    1    2    0    0  0.83652586430E+01  0.26497028035E+00  0.40725597366E+01  0.17145283172E+03  0.17120000000E+03 0.  0.
        998    1    1    2    0    0  0.21384398471E+02 -0.12077266593E+02  0.13538077877E+04  0.13540674573E+04  0.10000000000E+02 0.  1.
</event>
<event>
 5    1  0.1146201E-008  0.3705151E+03  0.7957747E-01  0.3493527E+00
         13   -1    0    0    0    0  0.00000000000E+00  0.00000000000E+00  0.14999999963E+04  0.15000000000E+04  0.10566000000E+00 0.  1.
        994   -1    0    0    0    0 -0.00000000000E+00 -0.00000000000E+00  0.11368683772E-12  0.17120000000E+03  0.17120000000E+03 0.  0.
         13    1    1    2    0    0 -0.12311442295E+02  0.39817078806E+02  0.72142660172E+02  0.83315940592E+02  0.10566000000E+00 0.  1.
        994    1    1    2    0    0 -0.30255199416E+01 -0.35395656685E+02  0.15644286615E+02  0.17554540719E+03  0.17120000000E+03 0.  0.
        998    1    1    2    0    0  0.15336962236E+02 -0.44214221207E+01  0.14122130495E+04  0.14123386522E+04  0.10000000000E+02 0.  1.
</event>
<event>
 5    1  0.1146201E-008  0.3837042E+03  0.7957747E-01  0.3435187E+00
         13   -1    0    0    0    0  0.00000000000E+00  0.00000000000E+00  0.14999999963E+04  0.15000000000E+04  0.10566000000E+00 0. -1.
        994   -1    0    0    0    0 -0.00000000000E+00 -0.00000000000E+00  0.11368683772E-12  0.17120000000E+03  0.17120000000E+03 0.  0.
         13    1    1    2    0    0  0.54958707448E+01 -0.10243144513E+02  0.30829830502E+02  0.32948690681E+02  0.10566000000E+00 0. -1.
        994    1    1    2    0    0  0.47615464500E+01 -0.61226137884E+01  0.24735697448E+01  0.17139345749E+03  0.17120000000E+03 0.  0.
        998    1    1    2    0    0 -0.10257417195E+02  0.16365758301E+02  0.14666965960E+04  0.14668578518E+04  0.10000000000E+02 0. -1.
</event>
<event>
 5    1  0.1146201E-008  0.3835656E+03  0.7957747E-01  0.3435779E+00
         13   -1    0    0    0    0  0.00000000000E+00  0.00000000000E+00  0.14999999963E+04  0.15000000000E+04  0.10566000000E+00 0. -1.
        994   -1    0    0    0    0 -0.00000000000E+00 -0.00000000000E+00  0.11368683772E-12  0.17120000000E+03  0.17120000000E+03 0.  0.
         13    1    1    2    0    0  0.69111670145E+02  0.91107551296E+02  0.47046908000E+03  0.48416750743E+03  0.10566000000E+00 0. -1.
        994    1    1    2    0    0  0.19181290423E+02 -0.50847951836E+02  0.29224589495E+02  0.18198063836E+03  0.17120000000E+03 0.  0.
        998    1    1    2    0    0 -0.88292960569E+02 -0.40259599460E+02  0.10003063268E+04  0.10050518542E+04  0.10000000000E+02 0. -1.
</event>
<event>
 5    1  0.1146201E-008  0.3804759E+03  0.7957747E-01  0.3449089E+00
         13   -1    0    0    0    0  0.00000000000E+00  0.00000000000E+00  0.14999999963E+04  0.15000000000E+04  0.10566000000E+00 0. -1.
        994   -1    0    0    0    0 -0.00000000000E+00 -0.00000000000E+00  0.11368683772E-12  0.17120000000E+03  0.17120000000E+03 0.  0.
         13    1    1    2    0    0  0.29585764333E+02 -0.86265547392E+01  0.12544684003E+03  0.12917683901E+03  0.10566000000E+00 0. -1.
        994    1    1    2    0    0 -0.38961036817E+01  0.32555805594E+02  0.74896234373E+01  0.17447233179E+03  0.17120000000E+03 0.  0.
        998    1    1    2    0    0 -0.25689660651E+02 -0.23929250854E+02  0.13670635328E+04  0.13675508292E+04  0.10000000000E+02 0. -1.
</event>
<event>
 5    1  0.1146201E-008  0.3779704E+03  0.7957747E-01  0.3460044E+00
         13   -1    0    0    0    0  0.00000000000E+00  0.00000000000E+00  0.14999999963E+04  0.15000000000E+04  0.10566000000E+00 0. -1.
        994   -1    0    0    0    0 -0.00000000000E+00 -0.00000000000E+00  0.11368683772E-12  0.17120000000E+03  0.17120000000E+03 0.  0.
         13    1    1    2    0    0 -0.24090707914E+02  0.15270854048E+02  0.87470844881E+02  0.92003918717E+02  0.10566000000E+00 0. -1.
        994    1    1    2    0    0 -0.10999545160E+02  0.33260582553E+01  0.56057674060E+01  0.17167678144E+03  0.17120000000E+03 0.  0.
        998    1    1    2    0    0  0.35090253074E+02 -0.18596912304E+02  0.14069233840E+04  0.14075192998E+04  0.10000000000E+02 0. -1.
</event>
<event>
 5    1  0.1146201E-008  0.3822293E+03  0.7957747E-01  0.3441509E+00
         13   -1    0    0    0    0  0.00000000000E+00  0.00000000000E+00  0.14999999963E+04  0.15000000000E+04  0.10566000000E+00 0.  1.
        994   -1    0    0    0    0 -0.00000000000E+00 -0.00000000000E+00  0.11368683772E-12  0.17120000000E+03  0.17120000000E+03 0.  0.
         13    1    1    2    0    0  0.23796204315E+02  0.17914866421E+02  0.14896409669E+03  0.15191285346E+03  0.10566000000E+00 0.  1.
        994    1    1    2    0    0 -0.13351017654E+02 -0.76016720784E+01  0.37957023224E+01  0.17192987654E+03  0.17120000000E+03 0.  0.
        998    1    1    2    0    0 -0.10445186661E+02 -0.10313194342E+02  0.13472401973E+04  0.13473572700E+04  0.10000000000E+02 0.  1.
</event>
<event>
 5    1  0.1146201E-008  0.3746015E+03  0.7957747E-01  0.3475007E+00
         13   -1    0    0    0    0  0.00000000000E+00  0.00000000000E+00  0.14999999963E+04  0.15000000000E+04  0.10566000000E+00 0.  1.
        994   -1    0    0    0    0 -0.00000000000E+00 -0.00000000000E+00  0.11368683772E-12  0.17120000000E+03  0.17120000000E+03 0.  0.
         13    1    1    2    0    0 -0.12381576926E+02 -0.40257426072E+01  0.92658421964E+01  0.15980520841E+02  0.10566000000E+00 0.  1.
        994    1    1    2    0    0  0.42396585731E+01  0.87854823574E+01  0.72074513895E+01  0.17162909649E+03  0.17120000000E+03 0.  0.
        998    1    1    2    0    0  0.81419183528E+01 -0.47597397502E+01  0.14835267027E+04  0.14835903827E+04  0.10000000000E+02 0.  1.
</event>
<event>
 5    1  0.1146201E-008  0.3843579E+03  0.7957747E-01  0.3432400E+00
         13   -1    0    0    0    0  0.00000000000E+00  0.00000000000E+00  0.14999999963E+04  0.15000000000E+04  0.10566000000E+00 0. -1.
        994   -1    0    0    0    0 -0.00000000000E+00 -0.00000000000E+00  0.11368683772E-12  0.17120000000E+03  0.17120000000E+03 0.  0.
         13    1    1    2    0    0 -0.10978956639E+02 -0.13942399561E+02  0.81825976289E+02  0.83728307961E+02  0.10566000000E+00 0. -1.
        994    1    1    2    0    0  0.81045089924E+01  0.50023615699E+01  0.22482283745E+01  0.17147944838E+03  0.17120000000E+03 0.  0.
        998    1    1    2    0    0  0.28744476463E+01  0.89400379914E+01  0.14159257916E+04  0.14159922437E+04  0.10000000000E+02 0. -1.
</event>
<event>
 5    1  0.1146201E-008  0.3804113E+03  0.7957747E-01  0.3449370E+00
         13   -1    0    0    0    0  0.00000000000E+00  0.00000000000E+00  0.14999999963E+04  0.15000000000E+04  0.10566000000E+00 0. -1.
        994   -1    0    0    0    0 -0.00000000000E+00 -0.00000000000E+00  0.11368683772E-12  0.17120000000E+03  0.17120000000E+03 0.  0.
         13    1    1    2    0    0  0.13155272227E+02 -0.10964870760E+02  0.36732528365E+02  0.40528747603E+02  0.10566000000E+00 0. -1.
        994    1    1    2    0    0 -0.11276654058E+01  0.53403581395E+01  0.40251568666E+01  0.17133427253E+03  0.17120000000E+03 0.  0.
        998    1    1    2    0    0 -0.12027606821E+02  0.56245126203E+01  0.14592423110E+04  0.14593369799E+04  0.10000000000E+02 0. -1.
</event>
<event>
 5    1  0.1146201E-008  0.3853062E+03  0.7957747E-01  0.3428375E+00
         13   -1    0    0    0    0  0.00000000000E+00  0.00000000000E+00  0.14999999963E+04  0.15000000000E+04  0.10566000000E+00 0. -1.
        994   -1    0    0    0    0 -0.00000000000E+00 -0.00000000000E+00  0.11368683772E-12  0.17120000000E+03  0.17120000000E+03 0.  0.
         13    1    1    2    0    0 -0.35204708925E+02 -0.27482808785E+02  0.45392645518E+02  0.63680293187E+02  0.10566000000E+00 0. -1.
        994    1    1    2    0    0  0.25519222263E+02  0.92500380634E+01  0.22000375475E+02  0.17472907723E+03  0.17120000000E+03 0.  0.
        998    1    1    2    0    0  0.96854866621E+01  0.18232770722E+02  0.14326069753E+04  0.14327906296E+04  0.10000000000E+02 0. -1.
</event>
<event>
 5    1  0.1146201E-008  0.3778416E+03  0.7957747E-01  0.3460611E+00
         13   -1    0    0    0    0  0.00000000000E+00  0.00000000000E+00  0.14999999963E+04  0.15000000000E+04  0.10566000000E+00 0.  1.
        994   -1    0    0    0    0 -0.00000000000E+00 -0.00000000000E+00  0.11368683772E-12  0.17120000000E+03  0.17120000000E+03 0.  0.
         13    1    1    2    0    0  0.23834790647E+02 -0.21167729271E+02  0.10035946410E+03  0.10530053754E+03  0.10566000000E+00 0.  1.
        994    1    1    2    0    0 -0.15679555712E+02 -0.46028237272E+01  0.61262756415E+01  0.17208720379E+03  0.17120000000E+03 0.  0.
        998    1    1    2    0    0 -0.81552349352E+01  0.25770552998E+02  0.13935142565E+04  0.13938122587E+04  0.10000000000E+02 0.  1.
</event>
<event>
 5    1  0.1146201E-008  0.3844054E+03  0.7957747E-01  0.3432198E+00
         13   -1    0    0    0    0  0.00000000000E+00  0.00000000000E+00  0.14999999963E+04  0.15000000000E+04  0.10566000000E+00 0.  1.
        994   -1    0    0    0    0 -0.00000000000E+00 -0.00000000000E+00  0.11368683772E-12  0.17120000000E+03  0.17120000000E+03 0.  0.
         13    1    1    2    0    0 -0.21021773341E+01 -0.15547811796E+02  0.62419003038E+02  0.64360676702E+02  0.10566000000E+00 0.  1.
        994    1    1    2    0    0  0.17368797047E+02  0.11695591217E+02  0.33717089122E+01  0.17250875452E+03  0.17120000000E+03 0.  0.
        998    1    1    2    0    0 -0.15266619713E+02  0.38522205788E+01  0.14342092843E+04  0.14343305688E+04  0.10000000000E+02 0.  1.
</event>
<event>
 5    1  0.1146201E-008  0.3793204E+03  0.7957747E-01  0.3454123E+00
         13   -1    0    0    0    0  0.00000000000E+00  0.00000000000E+00  0.14999999963E+04  0.15000000000E+04  0.10566000000E+00 0.  1.
        994   -1    0    0    0    0 -0.00000000000E+00 -0.00000000000E+00  0.11368683772E-12  0.17120000000E+03  0.17120000000E+03 0.  0.
         13    1    1    2    0    0 -0.20817690176E+03  0.11835284433E+03  0.90651544080E+03  0.93761147272E+03  0.10566000000E+00 0.  1.
        994    1    1    2    0    0  0.22049902146E+03 -0.13092672365E+03  0.27109830113E+03  0.41056711303E+03  0.17120000000E+03 0.  0.
        998    1    1    2    0    0 -0.12322119692E+02  0.12573879319E+02  0.32238625434E+03  0.32302141425E+03  0.10000000000E+02 0.  1.
</event>
<event>
 5    1  0.1146201E-008  0.3850779E+03  0.7957747E-01  0.3429342E+00
         13   -1    0    0    0    0  0.00000000000E+00  0.00000000000E+00  0.14999999963E+04  0.15000000000E+04  0.10566000000E+00 0.  1.
        994   -1    0    0    0    0 -0.00000000000E+00 -0.00000000000E+00  0.11368683772E-12  0.17120000000E+03  0.17120000000E+03 0.  0.
         13    1    1    2    0    0 -0.15107364438E+02  0.72737978804E+01  0.88005308046E+02  0.89588425615E+02  0.10566000000E+00 0.  1.
        994    1    1    2    0    0  0.25899552051E+02  0.23560266686E+02  0.56323384965E+01  0.17483431071E+03  0.17120000000E+03 0.  0.
        998    1    1    2    0    0 -0.10792187613E+02 -0.30834064567E+02  0.14063623497E+04  0.14067772637E+04  0.10000000000E+02 0.  1.
</event>
<event>
 5    1  0.1146201E-008  0.3838492E+03  0.7957747E-01  0.3434567E+00
         13   -1    0    0    0    0  0.00000000000E+00  0.00000000000E+00  0.14999999963E+04  0.15000000000E+04  0.10566000000E+00 0.  1.
        994   -1    0    0    0    0 -0.00000000000E+00 -0.00000000000E+00  0.11368683772E-12  0.17120000000E+03  0.17120000000E+03 0.  0.
         13    1    1    2    0    0 -0.47489812565E+01 -0.88523414018E+01  0.22128424488E+02  0.24302162571E+02  0.10566000000E+00 0.  1.
        994    1    1    2    0    0  0.38810210699E+01  0.68302170382E+01  0.24063000193E+01  0.17139703752E+03  0.17120000000E+03 0.  0.
        998    1    1    2    0    0  0.86796018659E+00  0.20221243636E+01  0.14754652718E+04  0.14755007999E+04  0.10000000000E+02 0.  1.
</event>
<event>
 5    1  0.1146201E-008  0.3737497E+03  0.7957747E-01  0.3478834E+00
         13   -1    0    0    0    0  0.00000000000E+00  0.00000000000E+00  0.14999999963E+04  0.15000000000E+04  0.10566000000E+00 0. -1.
        994   -1    0    0    0    0 -0.00000000000E+00 -0.00000000000E+00  0.11368683772E-12  0.17120000000E+03  0.17120000000E+03 0.  0.
         13    1    1    2    0    0  0.11409038139E+01 -0.57000278093E+02  0.20461724851E+03  0.21241130600E+03  0.10566000000E+00 0. -1.
        994    1    1    2    0    0 -0.13351336652E+02  0.45183284289E+02  0.14937773491E+02  0.17819193149E+03  0.17120000000E+03 0.  0.
        998    1    1    2    0    0  0.12210432838E+02  0.11816993803E+02  0.12804449743E+04  0.12805967625E+04  0.10000000000E+02 0. -1.
</event>
<event>
 5    1  0.1146201E-008  0.3860144E+03  0.7957747E-01  0.3425381E+00
         13   -1    0    0    0    0  0.00000000000E+00  0.00000000000E+00  0.14999999963E+04  0.15000000000E+04  0.10566000000E+00 0.  1.
        994   -1    0    0    0    0 -0.00000000000E+00 -0.00000000000E+00  0.11368683772E-12  0.17120000000E+03  0.17120000000E+03 0.  0.
         13    1    1    2    0    0 -0.45524502897E+01  0.11352538932E+02  0.66886633496E+02  0.67995866406E+02  0.10566000000E+00 0.  1.
        994    1    1    2    0    0  0.55953954618E+01 -0.70714122615E+01  0.13939149159E+01  0.17144298271E+03  0.17120000000E+03 0.  0.
        998    1    1    2    0    0 -0.10429451721E+01 -0.42811266708E+01  0.14317194479E+04  0.14317611509E+04  0.10000000000E+02 0.  1.
</event>
<event>
 5    1  0.1146201E-008  0.3801634E+03  0.7957747E-01  0.3450447E+00
         13   -1    0    0    0    0  0.00000000000E+00  0.00000000000E+00  0.14999999963E+04  0.15000000000E+04  0.10566000000E+00 0.  1.
        994   -1    0    0    0    0 -0.00000000000E+00 -0.00000000000E+00  0.11368683772E-12  0.17120000000E+03  0.17120000000E+03 0.  0.
         13    1    1    2    0    0  0.31442560445E+02  0.68452779711E+02  0.40749420869E+03  0.41439830953E+03  0.10566000000E+00 0.  1.
        994    1    1    2    0    0 -0.56696549888E+02 -0.78949749415E+02  0.36290317212E+02  0.20018488661E+03  0.17120000000E+03 0.  0.
        998    1    1    2    0    0  0.25253989443E+02  0.10496969704E+02  0.10562154704E+04  0.10566168039E+04  0.10000000000E+02 0. -1.
</event>
<event>
 5    1  0.1146201E-008  0.3823618E+03  0.7957747E-01  0.3440939E+00
         13   -1    0    0    0    0  0.00000000000E+00  0.00000000000E+00  0.14999999963E+04  0.15000000000E+04  0.10566000000E+00 0. -1.
        994   -1    0    0    0    0 -0.00000000000E+00 -0.00000000000E+00  0.11368683772E-12  0.17120000000E+03  0.17120000000E+03 0.  0.
         13    1    1    2    0    0  0.49173382664E+01  0.37887725372E+02  0.21404751187E+03  0.21743046809E+03  0.10566000000E+00 0. -1.
        994    1    1    2    0    0 -0.10569036875E+02 -0.37379025342E+02  0.79668767379E+01  0.17573220308E+03  0.17120000000E+03 0.  0.
        998    1    1    2    0    0  0.56516986090E+01 -0.50870003097E+00  0.12779856077E+04  0.12780373288E+04  0.10000000000E+02 0. -1.
</event>
<event>
 5    1  0.1146201E-008  0.3804521E+03  0.7957747E-01  0.3449192E+00
         13   -1    0    0    0    0  0.00000000000E+00  0.00000000000E+00  0.14999999963E+04  0.15000000000E+04  0.10566000000E+00 0. -1.
        994   -1    0    0    0    0 -0.00000000000E+00 -0.00000000000E+00  0.11368683772E-12  0.17120000000E+03  0.17120000000E+03 0.  0.
         13    1    1    2    0    0 -0.18716856201E+02  0.11847638454E+02  0.59700061700E+02  0.63677278318E+02  0.10566000000E+00 0. -1.
        994    1    1    2    0    0  0.27868675008E+02  0.43877687760E+01  0.65663667935E+01  0.17363315563E+03  0.17120000000E+03 0.  0.
        998    1    1    2    0    0 -0.91518188065E+01 -0.16235407230E+02  0.14337335678E+04  0.14338895661E+04  0.10000000000E+02 0. -1.
</event>
<event>
 5    1  0.1146201E-008  0.3840296E+03  0.7957747E-01  0.3433798E+00
         13   -1    0    0    0    0  0.00000000000E+00  0.00000000000E+00  0.14999999963E+04  0.15000000000E+04  0.10566000000E+00 0.  1.
        994   -1    0    0    0    0 -0.00000000000E+00 -0.00000000000E+00  0.11368683772E-12  0.17120000000E+03  0.17120000000E+03 0.  0.
         13    1    1    2    0    0  0.54735268027E+01  0.16607861455E+02  0.73263362548E+02  0.75321391475E+02  0.10566000000E+00 0.  1.
        994    1    1    2    0    0 -0.14063053199E+00 -0.86847969644E+01  0.23616143518E+01  0.17143646840E+03  0.17120000000E+03 0.  0.
        998    1    1    2    0    0 -0.53328962707E+01 -0.79230644910E+01  0.14243750194E+04  0.14244421401E+04  0.10000000000E+02 0.  1.
</event>
<event>
 5    1  0.1146201E-008  0.3804300E+03  0.7957747E-01  0.3449288E+00
         13   -1    0    0    0    0  0.00000000000E+00  0.00000000000E+00  0.14999999963E+04  0.15000000000E+04  0.10566000000E+00 0. -1.
        994   -1    0    0    0    0 -0.00000000000E+00 -0.00000000000E+00  0.11368683772E-12  0.17120000000E+03  0.17120000000E+03 0.  0.
         13    1    1    2    0    0 -0.60856034832E+02 -0.14873954901E+02  0.35919608688E+03  0.36461833676E+03  0.10566000000E+00 0. -1.
        994    1    1    2    0    0  0.67685221439E+02  0.10835417271E+02  0.19763914957E+02  0.18546899418E+03  0.17120000000E+03 0.  0.
        998    1    1    2    0    0 -0.68291866073E+01  0.40385376294E+01  0.11210399944E+04  0.11211126691E+04  0.10000000000E+02 0. -1.
</event>
<event>
 5    1  0.1146201E-008  0.3842954E+03  0.7957747E-01  0.3432666E+00
         13   -1    0    0    0    0  0.00000000000E+00  0.00000000000E+00  0.14999999963E+04  0.15000000000E+04  0.10566000000E+00 0. -1.
        994   -1    0    0    0    0 -0.00000000000E+00 -0.00000000000E+00  0.11368683772E-12  0.17120000000E+03  0.17120000000E+03 0.  0.
         13    1    1    2    0    0  0.19513956289E+02 -0.46487774528E+01  0.10419180856E+03  0.10610537100E+03  0.10566000000E+00 0. -1.
        994    1    1    2    0    0 -0.99628648362E+01 -0.36703206807E+01  0.23520471751E+01  0.17154504381E+03  0.17120000000E+03 0.  0.
        998    1    1    2    0    0 -0.95510914532E+01  0.83190981335E+01  0.13934561405E+04  0.13935495852E+04  0.10000000000E+02 0. -1.
</event>
<event>
 5    1  0.1146201E-008  0.3846298E+03  0.7957747E-01  0.3431244E+00
         13   -1    0    0    0    0  0.00000000000E+00  0.00000000000E+00  0.14999999963E+04  0.15000000000E+04  0.10566000000E+00 0.  1.
        994   -1    0    0    0    0 -0.00000000000E+00 -0.00000000000E+00  0.11368683772E-12  0.17120000000E+03  0.17120000000E+03 0.  0.
         13    1    1    2    0    0  0.81355826815E+00  0.13028164495E+02  0.49065078767E+02  0.50771922020E+02  0.10566000000E+00 0.  1.
        994    1    1    2    0    0  0.81798368966E+01 -0.91339972098E-01  0.20344096811E+01  0.17140740036E+03  0.17120000000E+03 0.  0.
        998    1    1    2    0    0 -0.89933951647E+01 -0.12936824522E+02  0.14489005078E+04  0.14490206776E+04  0.10000000000E+02 0.  1.
</event>
<event>
 5    1  0.1146201E-008  0.3733857E+03  0.7957747E-01  0.3480474E+00
         13   -1    0    0    0    0  0.00000000000E+00  0.00000000000E+00  0.14999999963E+04  0.15000000000E+04  0.10566000000E+00 0.  1.
        994   -1    0    0    0    0 -0.00000000000E+00 -0.00000000000E+00  0.11368683772E-12  0.17120000000E+03  0.17120000000E+03 0.  0.
         13    1    1    2    0    0 -0.10501559637E+02  0.10076314308E+03  0.31313058480E+03  0.32911133080E+03  0.10566000000E+00 0.  1.
        994    1    1    2    0    0  0.69870562408E+01 -0.10036744517E+03  0.49475529969E+02  0.20464532995E+03  0.17120000000E+03 0.  0.
        998    1    1    2    0    0  0.35145033957E+01 -0.39569791236E+00  0.11373938815E+04  0.11374433392E+04  0.10000000000E+02 0.  1.
</event>
<event>
 5    1  0.1146201E-008  0.3860419E+03  0.7957747E-01  0.3425265E+00
         13   -1    0    0    0    0  0.00000000000E+00  0.00000000000E+00  0.14999999963E+04  0.15000000000E+04  0.10566000000E+00 0. -1.
        994   -1    0    0    0    0 -0.00000000000E+00 -0.00000000000E+00  0.11368683772E-12  0.17120000000E+03  0.17120000000E+03 0.  0.
         13    1    1    2    0    0 -0.17022038377E+01 -0.11186708614E+02  0.66984693536E+02  0.67933793356E+02  0.10566000000E+00 0. -1.
        994    1    1    2    0    0  0.42317817325E+02 -0.13373850694E+02  0.75962079828E+01  0.17702203230E+03  0.17120000000E+03 0.  0.
        998    1    1    2    0    0 -0.40615613487E+02  0.24560559308E+02  0.14254190948E+04  0.14262441743E+04  0.10000000000E+02 0. -1.
</event>
<event>
 5    1  0.1146201E-008  0.3814177E+03  0.7957747E-01  0.3445009E+00
         13   -1    0    0    0    0  0.00000000000E+00  0.00000000000E+00  0.14999999963E+04  0.15000000000E+04  0.10566000000E+00 0. -1.
        994   -1    0    0    0    0 -0.00000000000E+00 -0.00000000000E+00  0.11368683772E-12  0.17120000000E+03  0.17120000000E+03 0.  0.
         13    1    1    2    0    0 -0.31447287867E+01  0.24965765991E+02  0.87670398018E+02  0.91210134543E+02  0.10566000000E+00 0. -1.
        994    1    1    2    0    0  0.10329762370E+02 -0.22588227498E+02  0.54746384280E+01  0.17307900993E+03  0.17120000000E+03 0.  0.
        998    1    1    2    0    0 -0.71850335831E+01 -0.23775384932E+01  0.14068549598E+04  0.14069108555E+04  0.10000000000E+02 0. -1.
</event>
<event>
 5    1  0.1146201E-008  0.3772106E+03  0.7957747E-01  0.3463395E+00
         13   -1    0    0    0    0  0.00000000000E+00  0.00000000000E+00  0.14999999963E+04  0.15000000000E+04  0.10566000000E+00 0. -1.
        994   -1    0    0    0    0 -0.00000000000E+00 -0.00000000000E+00  0.11368683772E-12  0.17120000000E+03  0.17120000000E+03 0.  0.
         13    1    1    2    0    0 -0.11253922168E+00  0.17689718181E+02  0.25335799640E+02  0.30900690960E+02  0.10566000000E+00 0. -1.
        994    1    1    2    0    0  0.61715724474E+00 -0.20354153536E+02  0.69482364221E+01  0.17254677754E+03  0.17120000000E+03 0.  0.
        998    1    1    2    0    0 -0.50461802306E+00  0.26644353544E+01  0.14677159602E+04  0.14677525315E+04  0.10000000000E+02 0. -1.
</event>
<event>
 5    1  0.1146201E-008  0.3765155E+03  0.7957747E-01  0.3466472E+00
         13   -1    0    0    0    0  0.00000000000E+00  0.00000000000E+00  0.14999999963E+04  0.15000000000E+04  0.10566000000E+00 0.  1.
        994   -1    0    0    0    0 -0.00000000000E+00 -0.00000000000E+00  0.11368683772E-12  0.17120000000E+03  0.17120000000E+03 0.  0.
         13    1    1    2    0    0  0.40699929541E+02  0.11206487064E+02  0.14671627731E+03  0.15266874863E+03  0.10566000000E+00 0.  1.
        994    1    1    2    0    0 -0.28168501071E+02 -0.22399267412E+01  0.86076461605E+01  0.17372971334E+03  0.17120000000E+03 0.  0.
        998    1    1    2    0    0 -0.12531428470E+02 -0.89665603230E+01  0.13446760728E+04  0.13448015380E+04  0.10000000000E+02 0.  1.
</event>
<event>
 5    1  0.1146201E-008  0.3834994E+03  0.7957747E-01  0.3436061E+00
         13   -1    0    0    0    0  0.00000000000E+00  0.00000000000E+00  0.14999999963E+04  0.15000000000E+04  0.10566000000E+00 0.  1.
        994   -1    0    0    0    0 -0.00000000000E+00 -0.00000000000E+00  0.11368683772E-12  0.17120000000E+03  0.17120000000E+03 0.  0.
         13    1    1    2    0    0 -0.48770237328E+01  0.10418243633E+02  0.26729494330E+02  0.29099865843E+02  0.10566000000E+00 0.  1.
        994    1    1    2    0    0  0.10605816282E+02 -0.76113509492E+01  0.29403772488E+01  0.17172216462E+03  0.17120000000E+03 0.  0.
        998    1    1    2    0    0 -0.57287925492E+01 -0.28068926838E+01  0.14703301247E+04  0.14703779695E+04  0.10000000000E+02 0.  1.
</event>
<event>
 5    1  0.1146201E-008  0.3807400E+03  0.7957747E-01  0.3447943E+00
         13   -1    0    0    0    0  0.00000000000E+00  0.00000000000E+00  0.14999999963E+04  0.15000000000E+04  0.10566000000E+00 0.  1.
        994   -1    0    0    0    0 -0.00000000000E+00 -0.00000000000E+00  0.11368683772E-12  0.17120000000E+03  0.17120000000E+03 0.  0.
         13    1    1    2    0    0 -0.39382281218E+02 -0.13860977246E+03  0.67373928077E+03  0.68897624248E+03  0.10566000000E+00 0.  1.
        994    1    1    2    0    0  0.18527445459E+02  0.19252244166E+03  0.14065201361E+03  0.29410981913E+03  0.17120000000E+03 0.  0.
        998    1    1    2    0    0  0.20854835760E+02 -0.53912669195E+02  0.68560870190E+03  0.68811393838E+03  0.10000000000E+02 0.  1.
</event>
<event>
 5    1  0.1146201E-008  0.3769121E+03  0.7957747E-01  0.3464715E+00
         13   -1    0    0    0    0  0.00000000000E+00  0.00000000000E+00  0.14999999963E+04  0.15000000000E+04  0.10566000000E+00 0.  1.
        994   -1    0    0    0    0 -0.00000000000E+00 -0.00000000000E+00  0.11368683772E-12  0.17120000000E+03  0.17120000000E+03 0.  0.
         13    1    1    2    0    0 -0.98291840840E+01  0.33946327943E+02  0.12207954190E+03  0.12709206016E+03  0.10566000000E+00 0.  1.
        994    1    1    2    0    0 -0.41211538430E+01  0.28826760263E+01  0.57855396723E+01  0.17137154431E+03  0.17120000000E+03 0.  0.
        998    1    1    2    0    0  0.13950337927E+02 -0.36829003969E+02  0.13721349147E+04  0.13727363955E+04  0.10000000000E+02 0.  1.
</event>
<event>
 5    1  0.1146201E-008  0.3851192E+03  0.7957747E-01  0.3429167E+00
         13   -1    0    0    0    0  0.00000000000E+00  0.00000000000E+00  0.14999999963E+04  0.15000000000E+04  0.10566000000E+00 0. -1.
        994   -1    0    0    0    0 -0.00000000000E+00 -0.00000000000E+00  0.11368683772E-12  0.17120000000E+03  0.17120000000E+03 0.  0.
         13    1    1    2    0    0 -0.12565823649E+02 -0.10120158340E+02  0.92143169992E+02  0.93545135999E+02  0.10566000000E+00 0. -1.
        994    1    1    2    0    0 -0.62370968506E+01  0.31948287082E+01  0.17324030305E+01  0.17135212146E+03  0.17120000000E+03 0.  0.
        998    1    1    2    0    0  0.18802920499E+02  0.69253296320E+01  0.14061244233E+04  0.14063027425E+04  0.10000000000E+02 0. -1.
</event>
<event>
 5    1  0.1146201E-008  0.3750858E+03  0.7957747E-01  0.3472839E+00
         13   -1    0    0    0    0  0.00000000000E+00  0.00000000000E+00  0.14999999963E+04  0.15000000000E+04  0.10566000000E+00 0. -1.
        994   -1    0    0    0    0 -0.00000000000E+00 -0.00000000000E+00  0.11368683772E-12  0.17120000000E+03  0.17120000000E+03 0.  0.
         13    1    1    2    0    0 -0.12605089642E+02  0.52644416087E+02  0.30245642592E+03  0.30726246692E+03  0.10566000000E+00 0. -1.
        994    1    1    2    0    0 -0.40748326916E+00  0.94550890073E+01  0.69391121847E+01  0.17160173667E+03  0.17120000000E+03 0.  0.
        998    1    1    2    0    0  0.13012572911E+02 -0.62099505094E+02  0.11906044582E+04  0.11923357964E+04  0.10000000000E+02 0. -1.
</event>
<event>
 5    1  0.1146201E-008  0.3807793E+03  0.7957747E-01  0.3447772E+00
         13   -1    0    0    0    0  0.00000000000E+00  0.00000000000E+00  0.14999999963E+04  0.15000000000E+04  0.10566000000E+00 0.  1.
        994   -1    0    0    0    0 -0.00000000000E+00 -0.00000000000E+00  0.11368683772E-12  0.17120000000E+03  0.17120000000E+03 0.  0.
         13    1    1    2    0    0 -0.42514962680E+02 -0.13855390818E+01  0.47743481138E+02  0.63944451874E+02  0.10566000000E+00 0.  1.
        994    1    1    2    0    0  0.30814584772E+02 -0.12012942692E+02  0.20741055377E+02  0.17559464914E+03  0.17120000000E+03 0.  0.
        998    1    1    2    0    0  0.11700377909E+02  0.13398481774E+02  0.14315154598E+04  0.14316608990E+04  0.10000000000E+02 0.  1.
</event>
<event>
 5    1  0.1146201E-008  0.3828247E+03  0.7957747E-01  0.3438951E+00
         13   -1    0    0    0    0  0.00000000000E+00  0.00000000000E+00  0.14999999963E+04  0.15000000000E+04  0.10566000000E+00 0.  1.
        994   -1    0    0    0    0 -0.00000000000E+00 -0.00000000000E+00  0.11368683772E-12  0.17120000000E+03  0.17120000000E+03 0.  0.
         13    1    1    2    0    0 -0.27607179352E+01  0.11787376253E+02  0.25642454791E+02  0.28356841400E+02  0.10566000000E+00 0.  1.
        994    1    1    2    0    0  0.22989993715E+01 -0.12661685411E+02  0.32626766626E+01  0.17171397361E+03  0.17120000000E+03 0.  0.
        998    1    1    2    0    0  0.46171856369E+00  0.87430915790E+00  0.14710948648E+04  0.14711291850E+04  0.10000000000E+02 0.  0.
</event>
<event>
 5    1  0.1146201E-008  0.3838620E+03  0.7957747E-01  0.3434513E+00
         13   -1    0    0    0    0  0.00000000000E+00  0.00000000000E+00  0.14999999963E+04  0.15000000000E+04  0.10566000000E+00 0.  1.
        994   -1    0    0    0    0 -0.00000000000E+00 -0.00000000000E+00  0.11368683772E-12  0.17120000000E+03  0.17120000000E+03 0.  0.
         13    1    1    2    0    0  0.20144232346E+02 -0.13970288238E+02  0.12084635319E+03  0.12330779089E+03  0.10566000000E+00 0.  1.
        994    1    1    2    0    0 -0.21275312626E+02  0.24473078060E+02  0.56749592764E+01  0.17433650117E+03  0.17120000000E+03 0.  0.
        998    1    1    2    0    0  0.11310802807E+01 -0.10502789823E+02  0.13734786838E+04  0.13735557079E+04  0.10000000000E+02 0.  1.
</event>
<event>
 5    1  0.1146201E-008  0.3750431E+03  0.7957747E-01  0.3473030E+00
         13   -1    0    0    0    0  0.00000000000E+00  0.00000000000E+00  0.14999999963E+04  0.15000000000E+04  0.10566000000E+00 0. -1.
        994   -1    0    0    0    0 -0.00000000000E+00 -0.00000000000E+00  0.11368683772E-12  0.17120000000E+03  0.17120000000E+03 0.  0.
         13    1    1    2    0    0 -0.46415623348E+02 -0.10115334433E+02  0.16631637814E+03  0.17296785506E+03  0.10566000000E+00 0. -1.
        994    1    1    2    0    0  0.28497196020E+02  0.51486621635E+01  0.95120293109E+01  0.17389225861E+03  0.17120000000E+03 0.  0.
        998    1    1    2    0    0  0.17918427328E+02  0.49666722693E+01  0.13241715888E+04  0.13243398863E+04  0.10000000000E+02 0. -1.
</event>
<event>
 5    1  0.1146201E-008  0.3832597E+03  0.7957747E-01  0.3437087E+00
         13   -1    0    0    0    0  0.00000000000E+00  0.00000000000E+00  0.14999999963E+04  0.15000000000E+04  0.10566000000E+00 0. -1.
        994   -1    0    0    0    0 -0.00000000000E+00 -0.00000000000E+00  0.11368683772E-12  0.17120000000E+03  0.17120000000E+03 0.  0.
         13    1    1    2    0    0  0.11813037108E+02 -0.10924521827E+02  0.56632573143E+02  0.58874039506E+02  0.10566000000E+00 0. -1.
        994    1    1    2    0    0  0.11701629533E+02 -0.20141589112E+01  0.29630371004E+01  0.17163683917E+03  0.17120000000E+03 0.  0.
        998    1    1    2    0    0 -0.23514666641E+02  0.12938680738E+02  0.14404043860E+04  0.14406891213E+04  0.10000000000E+02 0. -1.
</event>
<event>
 5    1  0.1146201E-008  0.3852939E+03  0.7957747E-01  0.3428427E+00
         13   -1    0    0    0    0  0.00000000000E+00  0.00000000000E+00  0.14999999963E+04  0.15000000000E+04  0.10566000000E+00 0.  1.
        994   -1    0    0    0    0 -0.00000000000E+00 -0.00000000000E+00  0.11368683772E-12  0.17120000000E+03  0.17120000000E+03 0.  0.
         13    1    1    2    0    0  0.18229671042E+02 -0.24391504500E+01  0.11046100868E+03  0.11198176621E+03  0.10566000000E+00 0.  1.
        994    1    1    2    0    0 -0.15365066296E+02  0.26779681718E+01  0.22839230476E+01  0.17192414921E+03  0.17120000000E+03 0.  0.
        998    1    1    2    0    0 -0.28646047454E+01 -0.23881772176E+00  0.13872550646E+04  0.13872940846E+04  0.10000000000E+02 0.  1.
</event>
<event>
 5    1  0.1146201E-008  0.3685143E+03  0.7957747E-01  0.3502747E+00
         13   -1    0    0    0    0  0.00000000000E+00  0.00000000000E+00  0.14999999963E+04  0.15000000000E+04  0.10566000000E+00 0. -1.
        994   -1    0    0    0    0 -0.00000000000E+00 -0.00000000000E+00  0.11368683772E-12  0.17120000000E+03  0.17120000000E+03 0.  0.
         13    1    1    2    0    0  0.20298870574E+02 -0.58912249944E+02  0.22701428504E+03  0.23541069245E+03  0.10566000000E+00 0. -1.
        994    1    1    2    0    0  0.27691403530E+01  0.56915931800E+01  0.10187014781E+02  0.17161957243E+03  0.17120000000E+03 0.  0.
        998    1    1    2    0    0 -0.23068010927E+02  0.53220656764E+02  0.12627986965E+04  0.12641697351E+04  0.10000000000E+02 0. -1.
</event>
<event>
 5    1  0.1146201E-008  0.3721629E+03  0.7957747E-01  0.3486009E+00
         13   -1    0    0    0    0  0.00000000000E+00  0.00000000000E+00  0.14999999963E+04  0.15000000000E+04  0.10566000000E+00 0.  1.
        994   -1    0    0    0    0 -0.00000000000E+00 -0.00000000000E+00  0.11368683772E-12  0.17120000000E+03  0.17120000000E+03 0.  0.
         13    1    1    2    0    0  0.82299903216E+01  0.76667880896E+01  0.38084268923E+01  0.11875506715E+02  0.10566000000E+00 0.  1.
        994    1    1    2    0    0 -0.16275002975E+02 -0.18301800841E+02  0.10204312887E+02  0.17324375786E+03  0.17120000000E+03 0.  0.
        998    1    1    2    0    0  0.80450126534E+01  0.10635012751E+02  0.14859872565E+04  0.14860807354E+04  0.10000000000E+02 0.  1.
</event>
<event>
 5    1  0.1146201E-008  0.3715844E+03  0.7957747E-01  0.3488641E+00
         13   -1    0    0    0    0  0.00000000000E+00  0.00000000000E+00  0.14999999963E+04  0.15000000000E+04  0.10566000000E+00 0.  1.
        994   -1    0    0    0    0 -0.00000000000E+00 -0.00000000000E+00  0.11368683772E-12  0.17120000000E+03  0.17120000000E+03 0.  0.
         13    1    1    2    0    0 -0.25409943938E+02 -0.38286094487E+02  0.85768243986E+02  0.97302071521E+02  0.10566000000E+00 0.  1.
        994    1    1    2    0    0 -0.20272111880E+02  0.47786439641E+02  0.21312463223E+02  0.18016149262E+03  0.17120000000E+03 0.  0.
        998    1    1    2    0    0  0.45682055818E+02 -0.95003451548E+01  0.13929192891E+04  0.13937364359E+04  0.10000000000E+02 0.  1.
</event>
<event>
 5    1  0.1146201E-008  0.3855627E+03  0.7957747E-01  0.3427289E+00
         13   -1    0    0    0    0  0.00000000000E+00  0.00000000000E+00  0.14999999963E+04  0.15000000000E+04  0.10566000000E+00 0.  1.
        994   -1    0    0    0    0 -0.00000000000E+00 -0.00000000000E+00  0.11368683772E-12  0.17120000000E+03  0.17120000000E+03 0.  0.
         13    1    1    2    0    0  0.97817665802E+01  0.82894573132E+01  0.58493083699E+02  0.59881967775E+02  0.10566000000E+00 0.  1.
        994    1    1    2    0    0 -0.13341813828E+02 -0.81697744178E+01  0.21548486420E+01  0.17192682334E+03  0.17120000000E+03 0.  0.
        998    1    1    2    0    0  0.35600472476E+01 -0.11968289535E+00  0.14393520639E+04  0.14393912089E+04  0.10000000000E+02 0.  1.
</event>
<event>
 5    1  0.1146201E-008  0.3850856E+03  0.7957747E-01  0.3429309E+00
         13   -1    0    0    0    0  0.00000000000E+00  0.00000000000E+00  0.14999999963E+04  0.15000000000E+04  0.10566000000E+00 0.  1.
        994   -1    0    0    0    0 -0.00000000000E+00 -0.00000000000E+00  0.11368683772E-12  0.17120000000E+03  0.17120000000E+03 0.  0.
         13    1    1    2    0    0 -0.68678908570E+01 -0.17545942706E+02  0.11330090316E+03  0.11485701481E+03  0.10566000000E+00 0.  1.
        994    1    1    2    0    0  0.76103614458E+01  0.83224975707E+01  0.20058979922E+01  0.17158276485E+03  0.17120000000E+03 0.  0.
        998    1    1    2    0    0 -0.74247058874E+00  0.92234451349E+01  0.13846931951E+04  0.13847602203E+04  0.10000000000E+02 0.  1.
</event>
<event>
 5    1  0.1146201E-008  0.3831010E+03  0.7957747E-01  0.3437766E+00
         13   -1    0    0    0    0  0.00000000000E+00  0.00000000000E+00  0.14999999963E+04  0.15000000000E+04  0.10566000000E+00 0.  1.
        994   -1    0    0    0    0 -0.00000000000E+00 -0.00000000000E+00  0.11368683772E-12  0.17120000000E+03  0.17120000000E+03 0.  0.
         13    1    1    2    0    0  0.13815944803E+02  0.12951404715E+02  0.67001867157E+02  0.69626723184E+02  0.10566000000E+00 0.  1.
        994    1    1    2    0    0 -0.21710771390E+02 -0.26455880650E+01  0.41603718970E+01  0.17264155185E+03  0.17120000000E+03 0.  0.
        998    1    1    2    0    0  0.78948265870E+01 -0.10305816650E+02  0.14288377572E+04  0.14289317250E+04  0.10000000000E+02 0.  1.
</event>
<event>
 5    1  0.1146201E-008  0.3789472E+03  0.7957747E-01  0.3455756E+00
         13   -1    0    0    0    0  0.00000000000E+00  0.00000000000E+00  0.14999999963E+04  0.15000000000E+04  0.10566000000E+00 0.  1.
        994   -1    0    0    0    0 -0.00000000000E+00 -0.00000000000E+00  0.11368683772E-12  0.17120000000E+03  0.17120000000E+03 0.  0.
         13    1    1    2    0    0 -0.36464731959E+02  0.24109944649E+02  0.18682200201E+03  0.19186828218E+03  0.10566000000E+00 0.  1.
        994    1    1    2    0    0  0.40168544029E+02 -0.84997261219E+01  0.10341425244E+02  0.17635799486E+03  0.17120000000E+03 0.  0.
        998    1    1    2    0    0 -0.37038120702E+01 -0.15610218527E+02  0.13028365690E+04  0.13029737230E+04  0.10000000000E+02 0.  1.
</event>
<event>
 5    1  0.1146201E-008  0.3832820E+03  0.7957747E-01  0.3436991E+00
         13   -1    0    0    0    0  0.00000000000E+00  0.00000000000E+00  0.14999999963E+04  0.15000000000E+04  0.10566000000E+00 0.  1.
        994   -1    0    0    0    0 -0.00000000000E+00 -0.00000000000E+00  0.11368683772E-12  0.17120000000E+03  0.17120000000E+03 0.  0.
         13    1    1    2    0    0 -0.24539001610E+01  0.13453342444E+02  0.35988032299E+02  0.38498878967E+02  0.10566000000E+00 0.  1.
        994    1    1    2    0    0  0.29294205450E+01 -0.14925439904E+02  0.32509779494E+01  0.17190508753E+03  0.17120000000E+03 0.  0.
        998    1    1    2    0    0 -0.47552038406E+00  0.14720974605E+01  0.14607609860E+04  0.14607960335E+04  0.10000000000E+02 0.  1.
</event>
<event>
 5    1  0.1146201E-008  0.3774616E+03  0.7957747E-01  0.3462286E+00
         13   -1    0    0    0    0  0.00000000000E+00  0.00000000000E+00  0.14999999963E+04  0.15000000000E+04  0.10566000000E+00 0.  1.
        994   -1    0    0    0    0 -0.00000000000E+00 -0.00000000000E+00  0.11368683772E-12  0.17120000000E+03  0.17120000000E+03 0.  0.
         13    1    1    2    0    0 -0.24410927945E+02 -0.25613228129E+02  0.36505135573E+02  0.50838636347E+02  0.10566000000E+00 0.  1.
        994    1    1    2    0    0  0.21787468003E+02  0.74421816762E+01  0.16845142551E+02  0.17356059074E+03  0.17120000000E+03 0.  0.
        998    1    1    2    0    0  0.26234599417E+01  0.18171046453E+02  0.14466497182E+04  0.14468007729E+04  0.10000000000E+02 0.  1.
</event>
<event>
 5    1  0.1146201E-008  0.3791186E+03  0.7957747E-01  0.3455005E+00
         13   -1    0    0    0    0  0.00000000000E+00  0.00000000000E+00  0.14999999963E+04  0.15000000000E+04  0.10566000000E+00 0. -1.
        994   -1    0    0    0    0 -0.00000000000E+00 -0.00000000000E+00  0.11368683772E-12  0.17120000000E+03  0.17120000000E+03 0.  0.
         13    1    1    2    0    0  0.35210491554E+02  0.19564542543E+02  0.19296675509E+03  0.19712617730E+03  0.10566000000E+00 0. -1.
        994    1    1    2    0    0 -0.34930098400E+02  0.35778193397E+02  0.13007178586E+02  0.17882622177E+03  0.17120000000E+03 0.  0.
        998    1    1    2    0    0 -0.28039315393E+00 -0.55342735939E+02  0.12940260626E+04  0.12952476009E+04  0.10000000000E+02 0. -1.
</event>
<event>
 5    1  0.1146201E-008  0.3835695E+03  0.7957747E-01  0.3435762E+00
         13   -1    0    0    0    0  0.00000000000E+00  0.00000000000E+00  0.14999999963E+04  0.15000000000E+04  0.10566000000E+00 0.  1.
        994   -1    0    0    0    0 -0.00000000000E+00 -0.00000000000E+00  0.11368683772E-12  0.17120000000E+03  0.17120000000E+03 0.  0.
         13    1    1    2    0    0  0.80886623120E+01 -0.87977914232E+01  0.31397533572E+02  0.33595295361E+02  0.10566000000E+00 0.  1.
        994    1    1    2    0    0 -0.40840476542E+01 -0.11258889033E+02  0.28160718364E+01  0.17164152262E+03  0.17120000000E+03 0.  0.
        998    1    1    2    0    0 -0.40046146578E+01  0.20056680457E+02  0.14657863909E+04  0.14659631820E+04  0.10000000000E+02 0.  1.
</event>
<event>
 5    1  0.1146201E-008  0.3784356E+03  0.7957747E-01  0.3457999E+00
         13   -1    0    0    0    0  0.00000000000E+00  0.00000000000E+00  0.14999999963E+04  0.15000000000E+04  0.10566000000E+00 0.  1.
        994   -1    0    0    0    0 -0.00000000000E+00 -0.00000000000E+00  0.11368683772E-12  0.17120000000E+03  0.17120000000E+03 0.  0.
         13    1    1    2    0    0 -0.96503769299E+01  0.48960558763E+02  0.23733961659E+03  0.24252911342E+03  0.10566000000E+00 0.  1.
        994    1    1    2    0    0  0.13779415868E+02 -0.34189080058E+02  0.95043701664E+01  0.17538112370E+03  0.17120000000E+03 0.  0.
        998    1    1    2    0    0 -0.41290389378E+01 -0.14771478705E+02  0.12531560095E+04  0.12532897629E+04  0.10000000000E+02 0.  1.
</event>
<event>
 5    1  0.1146201E-008  0.3784992E+03  0.7957747E-01  0.3457720E+00
         13   -1    0    0    0    0  0.00000000000E+00  0.00000000000E+00  0.14999999963E+04  0.15000000000E+04  0.10566000000E+00 0.  1.
        994   -1    0    0    0    0 -0.00000000000E+00 -0.00000000000E+00  0.11368683772E-12  0.17120000000E+03  0.17120000000E+03 0.  0.
         13    1    1    2    0    0  0.27238546278E+02  0.46082507303E+02  0.26145379342E+03  0.26687756208E+03  0.10566000000E+00 0.  1.
        994    1    1    2    0    0 -0.32591430508E+02 -0.32385409067E+02  0.12017770863E+02  0.17766508627E+03  0.17120000000E+03 0.  0.
        998    1    1    2    0    0  0.53528842297E+01 -0.13697098236E+02  0.12265284320E+04  0.12266573517E+04  0.10000000000E+02 0.  1.
</event>
<event>
 5    1  0.1146201E-008  0.3810288E+03  0.7957747E-01  0.3446691E+00
         13   -1    0    0    0    0  0.00000000000E+00  0.00000000000E+00  0.14999999963E+04  0.15000000000E+04  0.10566000000E+00 0. -1.
        994   -1    0    0    0    0 -0.00000000000E+00 -0.00000000000E+00  0.11368683772E-12  0.17120000000E+03  0.17120000000E+03 0.  0.
         13    1    1    2    0    0  0.55849557888E+01  0.40112605773E+02  0.22646073557E+03  0.23005366503E+03  0.10566000000E+00 0. -1.
        994    1    1    2    0    0  0.59504533370E+01 -0.24058064912E+02  0.56636636889E+01  0.17307719511E+03  0.17120000000E+03 0.  0.
        998    1    1    2    0    0 -0.11535409126E+02 -0.16054540862E+02  0.12678755970E+04  0.12680691399E+04  0.10000000000E+02 0. -1.
</event>
<event>
 5    1  0.1146201E-008  0.3845894E+03  0.7957747E-01  0.3431416E+00
         13   -1    0    0    0    0  0.00000000000E+00  0.00000000000E+00  0.14999999963E+04  0.15000000000E+04  0.10566000000E+00 0. -1.
        994   -1    0    0    0    0 -0.00000000000E+00 -0.00000000000E+00  0.11368683772E-12  0.17120000000E+03  0.17120000000E+03 0.  0.
         13    1    1    2    0    0 -0.12036998602E+02  0.31524636242E+01  0.46868514376E+02  0.48492227894E+02  0.10566000000E+00 0. -1.
        994    1    1    2    0    0 -0.10185388308E+02  0.12175933836E+02  0.26644173796E+01  0.17195503662E+03  0.17120000000E+03 0.  0.
        998    1    1    2    0    0  0.22222386910E+02 -0.15328397460E+02  0.14504670645E+04  0.14507527355E+04  0.10000000000E+02 0. -1.
</event>
<event>
 5    1  0.1146201E-008  0.3852819E+03  0.7957747E-01  0.3428478E+00
         13   -1    0    0    0    0  0.00000000000E+00  0.00000000000E+00  0.14999999963E+04  0.15000000000E+04  0.10566000000E+00 0. -1.
        994   -1    0    0    0    0 -0.00000000000E+00 -0.00000000000E+00  0.11368683772E-12  0.17120000000E+03  0.17120000000E+03 0.  0.
         13    1    1    2    0    0 -0.12673825654E+02  0.51945921698E+01  0.66845163074E+02  0.68234131012E+02  0.10566000000E+00 0. -1.
        994    1    1    2    0    0 -0.72432841573E+01 -0.20968877802E+02  0.31089928720E+01  0.17265938966E+03  0.17120000000E+03 0.  0.
        998    1    1    2    0    0  0.19917109811E+02  0.15774285633E+02  0.14300458403E+04  0.14303064793E+04  0.10000000000E+02 0. -1.
</event>
<event>
 5    1  0.1146201E-008  0.3794849E+03  0.7957747E-01  0.3453404E+00
         13   -1    0    0    0    0  0.00000000000E+00  0.00000000000E+00  0.14999999963E+04  0.15000000000E+04  0.10566000000E+00 0. -1.
        994   -1    0    0    0    0 -0.00000000000E+00 -0.00000000000E+00  0.11368683772E-12  0.17120000000E+03  0.17120000000E+03 0.  0.
         13    1    1    2    0    0 -0.17459953085E+02  0.25186871404E+01  0.35738355245E+02  0.39855174648E+02  0.10566000000E+00 0. -1.
        994    1    1    2    0    0 -0.61491038795E+01  0.33994781587E+01  0.45587268232E+01  0.17140475466E+03  0.17120000000E+03 0.  0.
        998    1    1    2    0    0  0.23609056964E+02 -0.59181652991E+01  0.14597029142E+04  0.14599400707E+04  0.10000000000E+02 0. -1.
</event>
<event>
 5    1  0.1146201E-008  0.3833031E+03  0.7957747E-01  0.3436901E+00
         13   -1    0    0    0    0  0.00000000000E+00  0.00000000000E+00  0.14999999963E+04  0.15000000000E+04  0.10566000000E+00 0.  1.
        994   -1    0    0    0    0 -0.00000000000E+00 -0.00000000000E+00  0.11368683772E-12  0.17120000000E+03  0.17120000000E+03 0.  0.
         13    1    1    2    0    0 -0.11454818953E+02  0.14910368862E+02  0.69545959253E+02  0.72042928795E+02  0.10566000000E+00 0.  1.
        994    1    1    2    0    0  0.12006670973E+02 -0.10072312752E+02  0.32875652865E+01  0.17194725853E+03  0.17120000000E+03 0.  0.
        998    1    1    2    0    0 -0.55185201952E+00 -0.48380561096E+01  0.14271664717E+04  0.14272098127E+04  0.10000000000E+02 0.  1.
</event>
<event>
 5    1  0.1146201E-008  0.3798755E+03  0.7957747E-01  0.3451701E+00
         13   -1    0    0    0    0  0.00000000000E+00  0.00000000000E+00  0.14999999963E+04  0.15000000000E+04  0.10566000000E+00 0.  1.
        994   -1    0    0    0    0 -0.00000000000E+00 -0.00000000000E+00  0.11368683772E-12  0.17120000000E+03  0.17120000000E+03 0.  0.
         13    1    1    2    0    0 -0.11544760087E+02  0.32435919584E+02  0.11678738194E+03  0.12175661834E+03  0.10566000000E+00 0.  1.
        994    1    1    2    0    0  0.65680307736E+00 -0.57177282709E+02  0.15209324017E+02  0.18113651367E+03  0.17120000000E+03 0.  0.
        998    1    1    2    0    0  0.10887957010E+02  0.24741363125E+02  0.13680032903E+04  0.13683068680E+04  0.10000000000E+02 0.  1.
</event>
<event>
 5    1  0.1146201E-008  0.3998841E+03  0.7957747E-01  0.3368900E+00
         13   -1    0    0    0    0  0.00000000000E+00  0.00000000000E+00  0.14999999963E+04  0.15000000000E+04  0.10566000000E+00 0.  1.
        994   -1    0    0    0    0 -0.00000000000E+00 -0.00000000000E+00  0.11368683772E-12  0.17120000000E+03  0.17120000000E+03 0.  0.
         13    1    1    2    0    0 -0.12479945004E+03 -0.54296978683E+02  0.53374753779E+03  0.55082620661E+03  0.10566000000E+00 0.  1.
        994    1    1    2    0    0  0.62534409339E+01  0.11681588254E+02  0.28398563424E+02  0.17404448693E+03  0.17120000000E+03 0.  0.
        998    1    1    2    0    0  0.11854600910E+03  0.42615390429E+02  0.93785389506E+03  0.94632930646E+03  0.10000000000E+02 0. -1.
</event>
<event>
 5    1  0.1146201E-008  0.3844644E+03  0.7957747E-01  0.3431947E+00
         13   -1    0    0    0    0  0.00000000000E+00  0.00000000000E+00  0.14999999963E+04  0.15000000000E+04  0.10566000000E+00 0.  1.
        994   -1    0    0    0    0 -0.00000000000E+00 -0.00000000000E+00  0.11368683772E-12  0.17120000000E+03  0.17120000000E+03 0.  0.
         13    1    1    2    0    0 -0.10317175123E+02 -0.18412522855E+00  0.34870770480E+02  0.36365640411E+02  0.10566000000E+00 0.  1.
        994    1    1    2    0    0 -0.43855090932E+02 -0.88831910823E+01  0.85202797873E+01  0.17715590662E+03  0.17120000000E+03 0.  0.
        998    1    1    2    0    0  0.54172266055E+02  0.90673163108E+01  0.14566089460E+04  0.14576784530E+04  0.10000000000E+02 0.  1.
</event>
<event>
 5    1  0.1146201E-008  0.3824845E+03  0.7957747E-01  0.3440411E+00
         13   -1    0    0    0    0  0.00000000000E+00  0.00000000000E+00  0.14999999963E+04  0.15000000000E+04  0.10566000000E+00 0. -1.
        994   -1    0    0    0    0 -0.00000000000E+00 -0.00000000000E+00  0.11368683772E-12  0.17120000000E+03  0.17120000000E+03 0.  0.
         13    1    1    2    0    0  0.19469475120E+02  0.13922082186E+02  0.10115436589E+03  0.10394759129E+03  0.10566000000E+00 0. -1.
        994    1    1    2    0    0  0.16673369471E+01 -0.20611028487E+02  0.43032632382E+01  0.17249797849E+03  0.17120000000E+03 0.  0.
        998    1    1    2    0    0 -0.21136812067E+02  0.66889463008E+01  0.13945423672E+04  0.13947544302E+04  0.10000000000E+02 0. -1.
</event>
<event>
 5    1  0.1146201E-008  0.3828514E+03  0.7957747E-01  0.3438836E+00
         13   -1    0    0    0    0  0.00000000000E+00  0.00000000000E+00  0.14999999963E+04  0.15000000000E+04  0.10566000000E+00 0. -1.
        994   -1    0    0    0    0 -0.00000000000E+00 -0.00000000000E+00  0.11368683772E-12  0.17120000000E+03  0.17120000000E+03 0.  0.
         13    1    1    2    0    0 -0.12608229515E+02  0.14667835413E+01  0.29081987117E+02  0.31731562271E+02  0.10566000000E+00 0. -1.
        994    1    1    2    0    0  0.73623747824E+01  0.39844009675E+01  0.29327639176E+01  0.17142963897E+03  0.17120000000E+03 0.  0.
        998    1    1    2    0    0  0.52458547325E+01 -0.54511845088E+01  0.14679852452E+04  0.14680387988E+04  0.10000000000E+02 0. -1.
</event>
<event>
 5    1  0.1146201E-008  0.3845167E+03  0.7957747E-01  0.3431725E+00
         13   -1    0    0    0    0  0.00000000000E+00  0.00000000000E+00  0.14999999963E+04  0.15000000000E+04  0.10566000000E+00 0. -1.
        994   -1    0    0    0    0 -0.00000000000E+00 -0.00000000000E+00  0.11368683772E-12  0.17120000000E+03  0.17120000000E+03 0.  0.
         13    1    1    2    0    0 -0.11001598533E+02 -0.96027426829E+00  0.31923742419E+02  0.33780079796E+02  0.10566000000E+00 0. -1.
        994    1    1    2    0    0  0.95216665774E+01  0.12601367845E+01  0.21742138059E+01  0.17148299416E+03  0.17120000000E+03 0.  0.
        998    1    1    2    0    0  0.14799319560E+01 -0.29986251622E+00  0.14659020401E+04  0.14659369260E+04  0.10000000000E+02 0. -1.
</event>
<event>
 5    1  0.1146201E-008  0.3730962E+03  0.7957747E-01  0.3481781E+00
         13   -1    0    0    0    0  0.00000000000E+00  0.00000000000E+00  0.14999999963E+04  0.15000000000E+04  0.10566000000E+00 0.  1.
        994   -1    0    0    0    0 -0.00000000000E+00 -0.00000000000E+00  0.11368683772E-12  0.17120000000E+03  0.17120000000E+03 0.  0.
         13    1    1    2    0    0 -0.74436078779E+00 -0.12109722788E+02  0.60445301979E+01  0.13555329887E+02  0.10566000000E+00 0.  1.
        994    1    1    2    0    0  0.34230889205E+01  0.12460794075E+02  0.82311110123E+01  0.17188420554E+03  0.17120000000E+03 0.  0.
        998    1    1    2    0    0 -0.26787281328E+01 -0.35107128631E+00  0.14857243551E+04  0.14857604646E+04  0.10000000000E+02 0.  1.
</event>
<event>
 5    1  0.1146201E-008  0.3840125E+03  0.7957747E-01  0.3433871E+00
         13   -1    0    0    0    0  0.00000000000E+00  0.00000000000E+00  0.14999999963E+04  0.15000000000E+04  0.10566000000E+00 0.  1.
        994   -1    0    0    0    0 -0.00000000000E+00 -0.00000000000E+00  0.11368683772E-12  0.17120000000E+03  0.17120000000E+03 0.  0.
         13    1    1    2    0    0 -0.13777148385E+02  0.32612908108E+01  0.45631698351E+02  0.47777702894E+02  0.10566000000E+00 0.  1.
        994    1    1    2    0    0  0.15163022365E+02  0.45894807032E+00  0.28808068004E+01  0.17189492991E+03  0.17120000000E+03 0.  0.
        998    1    1    2    0    0 -0.13858739801E+01 -0.37202388811E+01  0.14514874911E+04  0.14515273672E+04  0.10000000000E+02 0.  1.
</event>
<event>
 5    1  0.1146201E-008  0.3785405E+03  0.7957747E-01  0.3457538E+00
         13   -1    0    0    0    0  0.00000000000E+00  0.00000000000E+00  0.14999999963E+04  0.15000000000E+04  0.10566000000E+00 0. -1.
        994   -1    0    0    0    0 -0.00000000000E+00 -0.00000000000E+00  0.11368683772E-12  0.17120000000E+03  0.17120000000E+03 0.  0.
         13    1    1    2    0    0 -0.85206082302E+02  0.47063338277E+02  0.57789000893E+03  0.58603063730E+03  0.10566000000E+00 0. -1.
        994    1    1    2    0    0  0.85320713291E+02 -0.48754194962E+02  0.38026240224E+02  0.20102743740E+03  0.17120000000E+03 0.  0.
        998    1    1    2    0    0 -0.11463098872E+00  0.16908566843E+01  0.88408374713E+03  0.88414192530E+03  0.10000000000E+02 0.  0.
</event>
<event>
 5    1  0.1146201E-008  0.3768239E+03  0.7957747E-01  0.3465105E+00
         13   -1    0    0    0    0  0.00000000000E+00  0.00000000000E+00  0.14999999963E+04  0.15000000000E+04  0.10566000000E+00 0. -1.
        994   -1    0    0    0    0 -0.00000000000E+00 -0.00000000000E+00  0.11368683772E-12  0.17120000000E+03  0.17120000000E+03 0.  0.
         13    1    1    2    0    0  0.55277636639E+02 -0.46202844728E+02  0.41293020761E+03  0.41916785122E+03  0.10566000000E+00 0. -1.
        994    1    1    2    0    0 -0.48886308395E+02  0.20085699780E+02  0.15240915861E+02  0.17981944278E+03  0.17120000000E+03 0.  0.
        998    1    1    2    0    0 -0.63913282444E+01  0.26117144948E+02  0.10718288728E+04  0.10722127060E+04  0.10000000000E+02 0. -1.
</event>
<event>
 5    1  0.1146201E-008  0.3766259E+03  0.7957747E-01  0.3465983E+00
         13   -1    0    0    0    0  0.00000000000E+00  0.00000000000E+00  0.14999999963E+04  0.15000000000E+04  0.10566000000E+00 0. -1.
        994   -1    0    0    0    0 -0.00000000000E+00 -0.00000000000E+00  0.11368683772E-12  0.17120000000E+03  0.17120000000E+03 0.  0.
         13    1    1    2    0    0 -0.14435981853E+02 -0.26305012609E+01  0.16546198499E+02  0.22115717437E+02  0.10566000000E+00 0. -1.
        994    1    1    2    0    0 -0.34809202346E+01 -0.22514046269E+02  0.76026760533E+01  0.17287637134E+03  0.17120000000E+03 0.  0.
        998    1    1    2    0    0  0.17916902088E+02  0.25144547529E+02  0.14758511217E+04  0.14762079112E+04  0.10000000000E+02 0. -1.
</event>
<event>
 5    1  0.1146201E-008  0.3796429E+03  0.7957747E-01  0.3452715E+00
         13   -1    0    0    0    0  0.00000000000E+00  0.00000000000E+00  0.14999999963E+04  0.15000000000E+04  0.10566000000E+00 0.  1.
        994   -1    0    0    0    0 -0.00000000000E+00 -0.00000000000E+00  0.11368683772E-12  0.17120000000E+03  0.17120000000E+03 0.  0.
         13    1    1    2    0    0  0.88380819593E+01  0.14139562624E+02  0.30109317503E+02  0.34418324893E+02  0.10566000000E+00 0.  1.
        994    1    1    2    0    0 -0.41626107925E+01 -0.15881146955E+02  0.52161204690E+01  0.17206448230E+03  0.17120000000E+03 0.  0.
        998    1    1    2    0    0 -0.46754711668E+01  0.17415843315E+01  0.14646745583E+04  0.14647171928E+04  0.10000000000E+02 0.  1.
</event>
<event>
 5    1  0.1146201E-008  0.3697074E+03  0.7957747E-01  0.3497237E+00
         13   -1    0    0    0    0  0.00000000000E+00  0.00000000000E+00  0.14999999963E+04  0.15000000000E+04  0.10566000000E+00 0.  1.
        994   -1    0    0    0    0 -0.00000000000E+00 -0.00000000000E+00  0.11368683772E-12  0.17120000000E+03  0.17120000000E+03 0.  0.
         13    1    1    2    0    0 -0.39468149534E+02  0.50805103801E+02  0.24789591874E+03  0.25610796765E+03  0.10566000000E+00 0.  1.
        994    1    1    2    0    0 -0.24186051706E+02 -0.39925626773E+02  0.17002062061E+02  0.17826253360E+03  0.17120000000E+03 0.  0.
        998    1    1    2    0    0  0.63654201239E+02 -0.10879477028E+02  0.12351020155E+04  0.12368294988E+04  0.10000000000E+02 0.  1.
</event>
<event>
 5    1  0.1146201E-008  0.3852713E+03  0.7957747E-01  0.3428523E+00
         13   -1    0    0    0    0  0.00000000000E+00  0.00000000000E+00  0.14999999963E+04  0.15000000000E+04  0.10566000000E+00 0.  1.
        994   -1    0    0    0    0 -0.00000000000E+00 -0.00000000000E+00  0.11368683772E-12  0.17120000000E+03  0.17120000000E+03 0.  0.
         13    1    1    2    0    0 -0.15227155654E+02  0.34860363765E+01  0.77816851024E+02  0.79369340341E+02  0.10566000000E+00 0.  1.
        994    1    1    2    0    0  0.16384337425E+02 -0.55056824993E+01  0.24777824366E+01  0.17208817059E+03  0.17120000000E+03 0.  0.
        998    1    1    2    0    0 -0.11571817706E+01  0.20196461228E+01  0.14197053628E+04  0.14197424891E+04  0.10000000000E+02 0.  1.
</event>
<event>
 5    1  0.1146201E-008  0.3850632E+03  0.7957747E-01  0.3429404E+00
         13   -1    0    0    0    0  0.00000000000E+00  0.00000000000E+00  0.14999999963E+04  0.15000000000E+04  0.10566000000E+00 0. -1.
        994   -1    0    0    0    0 -0.00000000000E+00 -0.00000000000E+00  0.11368683772E-12  0.17120000000E+03  0.17120000000E+03 0.  0.
         13    1    1    2    0    0 -0.66728084586E+00 -0.17956098841E+02  0.10049449188E+03  0.10208829909E+03  0.10566000000E+00 0. -1.
        994    1    1    2    0    0 -0.11802505274E+01  0.12260407867E+02  0.20977384834E+01  0.17165532645E+03  0.17120000000E+03 0.  0.
        998    1    1    2    0    0  0.18475313732E+01  0.56956909748E+01  0.13974077659E+04  0.13974563745E+04  0.10000000000E+02 0. -1.
</event>
<event>
 5    1  0.1146201E-008  0.3737988E+03  0.7957747E-01  0.3478613E+00
         13   -1    0    0    0    0  0.00000000000E+00  0.00000000000E+00  0.14999999963E+04  0.15000000000E+04  0.10566000000E+00 0. -1.
        994   -1    0    0    0    0 -0.00000000000E+00 -0.00000000000E+00  0.11368683772E-12  0.17120000000E+03  0.17120000000E+03 0.  0.
         13    1    1    2    0    0  0.25301562098E+02  0.25818206334E+02  0.85508910728E+02  0.92836058731E+02  0.10566000000E+00 0. -1.
        994    1    1    2    0    0 -0.12950705438E+02 -0.24899433754E+02  0.99900236503E+01  0.17377267664E+03  0.17120000000E+03 0.  0.
        998    1    1    2    0    0 -0.12350856659E+02 -0.91877258035E+00  0.14045010619E+04  0.14045912646E+04  0.10000000000E+02 0. -1.
</event>
<event>
 5    1  0.1146201E-008  0.3760363E+03  0.7957747E-01  0.3468601E+00
         13   -1    0    0    0    0  0.00000000000E+00  0.00000000000E+00  0.14999999963E+04  0.15000000000E+04  0.10566000000E+00 0.  1.
        994   -1    0    0    0    0 -0.00000000000E+00 -0.00000000000E+00  0.11368683772E-12  0.17120000000E+03  0.17120000000E+03 0.  0.
         13    1    1    2    0    0 -0.30893775127E+02 -0.84201436904E+01  0.76601631916E+02  0.83024968158E+02  0.10566000000E+00 0.  1.
        994    1    1    2    0    0  0.33964906682E+02  0.82134904618E+01  0.10294926779E+02  0.17503285928E+03  0.17120000000E+03 0.  0.
        998    1    1    2    0    0 -0.30711315556E+01  0.20665322863E+00  0.14131034376E+04  0.14131421726E+04  0.10000000000E+02 0.  1.
</event>
<event>
 5    1  0.1146201E-008  0.3721789E+03  0.7957747E-01  0.3485937E+00
         13   -1    0    0    0    0  0.00000000000E+00  0.00000000000E+00  0.14999999963E+04  0.15000000000E+04  0.10566000000E+00 0.  1.
        994   -1    0    0    0    0 -0.00000000000E+00 -0.00000000000E+00  0.11368683772E-12  0.17120000000E+03  0.17120000000E+03 0.  0.
         13    1    1    2    0    0  0.56049450192E+02  0.20527740653E+02  0.31249597551E+03  0.31814568185E+03  0.10566000000E+00 0.  1.
        994    1    1    2    0    0  0.13744971122E+02  0.41185394972E+01  0.88414792828E+01  0.17202760928E+03  0.17120000000E+03 0.  0.
        998    1    1    2    0    0 -0.69794421315E+02 -0.24646280150E+02  0.11786625415E+04  0.11810267089E+04  0.10000000000E+02 0.  1.
</event>
<event>
 5    1  0.1146201E-008  0.3775290E+03  0.7957747E-01  0.3461989E+00
         13   -1    0    0    0    0  0.00000000000E+00  0.00000000000E+00  0.14999999963E+04  0.15000000000E+04  0.10566000000E+00 0. -1.
        994   -1    0    0    0    0 -0.00000000000E+00 -0.00000000000E+00  0.11368683772E-12  0.17120000000E+03  0.17120000000E+03 0.  0.
         13    1    1    2    0    0 -0.26989898992E+02 -0.99431920462E+01  0.13249442803E+03  0.13558062671E+03  0.10566000000E+00 0. -1.
        994    1    1    2    0    0 -0.87936506482E+02  0.10935838536E+02  0.32326728099E+02  0.19546580030E+03  0.17120000000E+03 0.  0.
        998    1    1    2    0    0  0.11492640547E+03 -0.99264648942E+00  0.13351788401E+04  0.13401535730E+04  0.10000000000E+02 0. -1.
</event>
<event>
 5    1  0.1146201E-008  0.3771534E+03  0.7957747E-01  0.3463648E+00
         13   -1    0    0    0    0  0.00000000000E+00  0.00000000000E+00  0.14999999963E+04  0.15000000000E+04  0.10566000000E+00 0. -1.
        994   -1    0    0    0    0 -0.00000000000E+00 -0.00000000000E+00  0.11368683772E-12  0.17120000000E+03  0.17120000000E+03 0.  0.
         13    1    1    2    0    0  0.35526109426E+02  0.49361291001E+01  0.11374070317E+03  0.11926201635E+03  0.10566000000E+00 0. -1.
        994    1    1    2    0    0 -0.21010685627E+02 -0.10589877843E+01  0.70720187099E+01  0.17263262674E+03  0.17120000000E+03 0.  0.
        998    1    1    2    0    0 -0.14515423799E+02 -0.38771413158E+01  0.13791872744E+04  0.13793053569E+04  0.10000000000E+02 0. -1.
</event>
<event>
 5    1  0.1146201E-008  0.3802521E+03  0.7957747E-01  0.3450061E+00
         13   -1    0    0    0    0  0.00000000000E+00  0.00000000000E+00  0.14999999963E+04  0.15000000000E+04  0.10566000000E+00 0. -1.
        994   -1    0    0    0    0 -0.00000000000E+00 -0.00000000000E+00  0.11368683772E-12  0.17120000000E+03  0.17120000000E+03 0.  0.
         13    1    1    2    0    0  0.10143677344E+02 -0.24116659740E+02  0.13430218259E+02  0.29409001915E+02  0.10566000000E+00 0. -1.
        994    1    1    2    0    0 -0.10847616843E+02  0.28352786844E+02  0.19815256276E+02  0.17499610194E+03  0.17120000000E+03 0.  0.
        998    1    1    2    0    0  0.70393949827E+00 -0.42361271041E+01  0.14667545217E+04  0.14667948961E+04  0.10000000000E+02 0. -1.
</event>
<event>
 5    1  0.1146201E-008  0.3804955E+03  0.7957747E-01  0.3449004E+00
         13   -1    0    0    0    0  0.00000000000E+00  0.00000000000E+00  0.14999999963E+04  0.15000000000E+04  0.10566000000E+00 0. -1.
        994   -1    0    0    0    0 -0.00000000000E+00 -0.00000000000E+00  0.11368683772E-12  0.17120000000E+03  0.17120000000E+03 0.  0.
         13    1    1    2    0    0 -0.16271038542E+02  0.13191191531E+02  0.55071942796E+02  0.58921000302E+02  0.10566000000E+00 0. -1.
        994    1    1    2    0    0  0.16586472366E+02 -0.11892676158E+01  0.48066781984E+01  0.17207286125E+03  0.17120000000E+03 0.  0.
        998    1    1    2    0    0 -0.31543382454E+00 -0.12001923915E+02  0.14401213753E+04  0.14402061384E+04  0.10000000000E+02 0. -1.
</event>
<event>
 5    1  0.1202581E-008  0.3860576E+03  0.7957747E-01  0.3425199E+00
         13   -1    0    0    0    0  0.00000000000E+00  0.00000000000E+00  0.14999999963E+04  0.15000000000E+04  0.10566000000E+00 0. -1.
        994   -1    0    0    0    0 -0.00000000000E+00 -0.00000000000E+00  0.11368683772E-12  0.17120000000E+03  0.17120000000E+03 0.  0.
         13    1    1    2    0    0  0.12499486884E+02 -0.18720458589E+01  0.65522457160E+02  0.66730392509E+02  0.10566000000E+00 0. -1.
        994    1    1    2    0    0 -0.22778744733E+02  0.33100415305E+01  0.28443593686E+01  0.17276387923E+03  0.17120000000E+03 0.  0.
        998    1    1    2    0    0  0.10279257849E+02 -0.14379956716E+01  0.14316331797E+04  0.14317057283E+04  0.10000000000E+02 0. -1.
</event>
<event>
 5    1  0.1146201E-008  0.4198638E+03  0.7957747E-01  0.3294054E+00
         13   -1    0    0    0    0  0.00000000000E+00  0.00000000000E+00  0.14999999963E+04  0.15000000000E+04  0.10566000000E+00 0. -1.
        994   -1    0    0    0    0 -0.00000000000E+00 -0.00000000000E+00  0.11368683772E-12  0.17120000000E+03  0.17120000000E+03 0.  0.
         13    1    1    2    0    0  0.13695859269E+03 -0.16063237641E+01  0.17549445991E+03  0.22261750383E+03  0.10566000000E+00 0. -1.
        994    1    1    2    0    0 -0.15572923214E+03  0.21905394427E+02  0.15656945779E+03  0.28027642634E+03  0.17120000000E+03 0.  0.
        998    1    1    2    0    0  0.18770639451E+02 -0.20299070663E+02  0.11679360786E+04  0.11683060698E+04  0.10000000000E+02 0. -1.
</event>
<event>
 5    1  0.1146201E-008  0.3844847E+03  0.7957747E-01  0.3431861E+00
         13   -1    0    0    0    0  0.00000000000E+00  0.00000000000E+00  0.14999999963E+04  0.15000000000E+04  0.10566000000E+00 0. -1.
        994   -1    0    0    0    0 -0.00000000000E+00 -0.00000000000E+00  0.11368683772E-12  0.17120000000E+03  0.17120000000E+03 0.  0.
         13    1    1    2    0    0 -0.95747853817E+01  0.11291007819E+02  0.55297051176E+02  0.57244549133E+02  0.10566000000E+00 0. -1.
        994    1    1    2    0    0  0.11493653190E+02 -0.13920460690E+02  0.29604329527E+01  0.17217458422E+03  0.17120000000E+03 0.  0.
        998    1    1    2    0    0 -0.19188678081E+01  0.26294528706E+01  0.14417425121E+04  0.14417808666E+04  0.10000000000E+02 0. -1.
</event>
<event>
 5    1  0.1146201E-008  0.2524006E+03  0.7957747E-01  0.4307979E+00
         13   -1    0    0    0    0  0.00000000000E+00  0.00000000000E+00  0.14999999963E+04  0.15000000000E+04  0.10566000000E+00 0.  1.
        994   -1    0    0    0    0 -0.00000000000E+00 -0.00000000000E+00  0.11368683772E-12  0.17120000000E+03  0.17120000000E+03 0.  0.
         13    1    1    2    0    0 -0.17747557954E+03  0.36609213106E+02  0.41637095631E+03  0.45409536470E+03  0.10566000000E+00 0.  1.
        994    1    1    2    0    0  0.10343341223E+03 -0.92040373735E+01  0.88700927879E+02  0.21899881204E+03  0.17120000000E+03 0.  0.
        998    1    1    2    0    0  0.74042167309E+02 -0.27405175733E+02  0.99492811209E+03  0.99810582326E+03  0.10000000000E+02 0. -1.
</event>
<event>
 5    1  0.1146201E-008  0.3789084E+03  0.7957747E-01  0.3455926E+00
         13   -1    0    0    0    0  0.00000000000E+00  0.00000000000E+00  0.14999999963E+04  0.15000000000E+04  0.10566000000E+00 0. -1.
        994   -1    0    0    0    0 -0.00000000000E+00 -0.00000000000E+00  0.11368683772E-12  0.17120000000E+03  0.17120000000E+03 0.  0.
         13    1    1    2    0    0  0.47670987436E+01  0.10321731522E+02 -0.31714801117E+01  0.11803932488E+02  0.10566000000E+00 0. -1.
        994    1    1    2    0    0  0.93703442653E+01 -0.98333453199E+01  0.16395136802E+02  0.17251880634E+03  0.17120000000E+03 0.  0.
        998    1    1    2    0    0 -0.14137443009E+02 -0.48838620252E+00  0.14867763396E+04  0.14868772612E+04  0.10000000000E+02 0. -1.
</event>
<event>
 5    1  0.1146201E-008  0.3780843E+03  0.7957747E-01  0.3459542E+00
         13   -1    0    0    0    0  0.00000000000E+00  0.00000000000E+00  0.14999999963E+04  0.15000000000E+04  0.10566000000E+00 0. -1.
        994   -1    0    0    0    0 -0.00000000000E+00 -0.00000000000E+00  0.11368683772E-12  0.17120000000E+03  0.17120000000E+03 0.  0.
         13    1    1    2    0    0  0.11313102066E+02  0.22718684815E+02  0.61736937715E+02  0.66750172738E+02  0.10566000000E+00 0. -1.
        994    1    1    2    0    0  0.55781501772E+01 -0.18369375334E+02  0.63441597004E+01  0.17238978529E+03  0.17120000000E+03 0.  0.
        998    1    1    2    0    0 -0.16891252243E+02 -0.43493094810E+01  0.14319188989E+04  0.14320600420E+04  0.10000000000E+02 0. -1.
</event>
<event>
 5    1  0.1146201E-008  0.3796070E+03  0.7957747E-01  0.3452872E+00
         13   -1    0    0    0    0  0.00000000000E+00  0.00000000000E+00  0.14999999963E+04  0.15000000000E+04  0.10566000000E+00 0.  1.
        994   -1    0    0    0    0 -0.00000000000E+00 -0.00000000000E+00  0.11368683772E-12  0.17120000000E+03  0.17120000000E+03 0.  0.
         13    1    1    2    0    0 -0.84984092365E+01 -0.14417515482E+02  0.30849973891E+02  0.35097289999E+02  0.10566000000E+00 0.  1.
        994    1    1    2    0    0 -0.12124451164E+01  0.10873375153E+02  0.47324390665E+01  0.17161449907E+03  0.17120000000E+03 0.  0.
        998    1    1    2    0    0  0.97108543529E+01  0.35441403291E+01  0.14644175833E+04  0.14644882109E+04  0.10000000000E+02 0.  1.
</event>
<event>
 5    1  0.1146201E-008  0.3794679E+03  0.7957747E-01  0.3453479E+00
         13   -1    0    0    0    0  0.00000000000E+00  0.00000000000E+00  0.14999999963E+04  0.15000000000E+04  0.10566000000E+00 0.  1.
        994   -1    0    0    0    0 -0.00000000000E+00 -0.00000000000E+00  0.11368683772E-12  0.17120000000E+03  0.17120000000E+03 0.  0.
         13    1    1    2    0    0 -0.14361022191E+02  0.99871549032E+01  0.33890659413E+02  0.38138827734E+02  0.10566000000E+00 0.  1.
        994    1    1    2    0    0  0.49724247527E+01  0.10597534016E+01  0.44885479256E+01  0.17133427896E+03  0.17120000000E+03 0.  0.
        998    1    1    2    0    0  0.93885974380E+01 -0.11046908305E+02  0.14616207889E+04  0.14617268933E+04  0.10000000000E+02 0.  1.
</event>
<event>
 5    1  0.1146201E-008  0.3800279E+03  0.7957747E-01  0.3451037E+00
         13   -1    0    0    0    0  0.00000000000E+00  0.00000000000E+00  0.14999999963E+04  0.15000000000E+04  0.10566000000E+00 0. -1.
        994   -1    0    0    0    0 -0.00000000000E+00 -0.00000000000E+00  0.11368683772E-12  0.17120000000E+03  0.17120000000E+03 0.  0.
         13    1    1    2    0    0 -0.71277915121E+01 -0.31700696945E+02  0.16774881268E+03  0.17086665830E+03  0.10566000000E+00 0. -1.
        994    1    1    2    0    0 -0.47777541538E+01 -0.19943393690E+02  0.55260874457E+01  0.17251244456E+03  0.17120000000E+03 0.  0.
        998    1    1    2    0    0  0.11905545666E+02  0.51644090635E+02  0.13267250961E+04  0.13278208971E+04  0.10000000000E+02 0. -1.
</event>
<event>
 5    1  0.1146201E-008  0.3835694E+03  0.7957747E-01  0.3435762E+00
         13   -1    0    0    0    0  0.00000000000E+00  0.00000000000E+00  0.14999999963E+04  0.15000000000E+04  0.10566000000E+00 0.  1.
        994   -1    0    0    0    0 -0.00000000000E+00 -0.00000000000E+00  0.11368683772E-12  0.17120000000E+03  0.17120000000E+03 0.  0.
         13    1    1    2    0    0  0.77760862026E+01 -0.11364138507E+02  0.39314056484E+02  0.41655940296E+02  0.10566000000E+00 0.  1.
        994    1    1    2    0    0 -0.58898135474E+01  0.10825353634E+02  0.28440538964E+01  0.17166655710E+03  0.17120000000E+03 0.  0.
        998    1    1    2    0    0 -0.18862726552E+01  0.53878487273E+00  0.14578418859E+04  0.14578775026E+04  0.10000000000E+02 0.  1.
</event>
<event>
 5    1  0.1146201E-008  0.3836537E+03  0.7957747E-01  0.3435402E+00
         13   -1    0    0    0    0  0.00000000000E+00  0.00000000000E+00  0.14999999963E+04  0.15000000000E+04  0.10566000000E+00 0.  1.
        994   -1    0    0    0    0 -0.00000000000E+00 -0.00000000000E+00  0.11368683772E-12  0.17120000000E+03  0.17120000000E+03 0.  0.
         13    1    1    2    0    0 -0.57030165342E+01 -0.24349837201E+02  0.14279984299E+03  0.14497325716E+03  0.10566000000E+00 0.  1.
        994    1    1    2    0    0 -0.17811327612E+01  0.92797769008E+01  0.25950220457E+01  0.17148020537E+03  0.17120000000E+03 0.  0.
        998    1    1    2    0    0  0.74841492954E+01  0.15070060300E+02  0.13546051312E+04  0.13547465375E+04  0.10000000000E+02 0.  1.
</event>
<event>
 5    1  0.1146201E-008  0.3746580E+03  0.7957747E-01  0.3474754E+00
         13   -1    0    0    0    0  0.00000000000E+00  0.00000000000E+00  0.14999999963E+04  0.15000000000E+04  0.10566000000E+00 0.  1.
        994   -1    0    0    0    0 -0.00000000000E+00 -0.00000000000E+00  0.11368683772E-12  0.17120000000E+03  0.17120000000E+03 0.  0.
         13    1    1    2    0    0  0.10113041292E+02 -0.13721724455E+02  0.18036342896E+02  0.24816932834E+02  0.10566000000E+00 0.  1.
        994    1    1    2    0    0 -0.14142762572E+02  0.10287460076E+02  0.78959976235E+01  0.17227198364E+03  0.17120000000E+03 0.  0.
        998    1    1    2    0    0  0.40297212802E+01  0.34342643793E+01  0.14740676558E+04  0.14741110835E+04  0.10000000000E+02 0.  1.
</event>
<event>
 5    1  0.1146201E-008  0.3717021E+03  0.7957747E-01  0.3488105E+00
         13   -1    0    0    0    0  0.00000000000E+00  0.00000000000E+00  0.14999999963E+04  0.15000000000E+04  0.10566000000E+00 0.  1.
        994   -1    0    0    0    0 -0.00000000000E+00 -0.00000000000E+00  0.11368683772E-12  0.17120000000E+03  0.17120000000E+03 0.  0.
         13    1    1    2    0    0  0.20816148098E+02 -0.33136838432E+02  0.57571884455E+02  0.69612463874E+02  0.10566000000E+00 0.  1.
        994    1    1    2    0    0 -0.19540727805E+02  0.37637883887E+02  0.18193530948E+02  0.17731016585E+03  0.17120000000E+03 0.  0.
        998    1    1    2    0    0 -0.12754202932E+01 -0.45010454547E+01  0.14242345809E+04  0.14242773703E+04  0.10000000000E+02 0.  1.
</event>
<event>
 5    1  0.1146201E-008  0.3824673E+03  0.7957747E-01  0.3440485E+00
         13   -1    0    0    0    0  0.00000000000E+00  0.00000000000E+00  0.14999999963E+04  0.15000000000E+04  0.10566000000E+00 0. -1.
        994   -1    0    0    0    0 -0.00000000000E+00 -0.00000000000E+00  0.11368683772E-12  0.17120000000E+03  0.17120000000E+03 0.  0.
         13    1    1    2    0    0  0.14871474925E+02  0.20384794004E+02  0.11670939878E+03  0.11940601125E+03  0.10566000000E+00 0. -1.
        994    1    1    2    0    0  0.29523873243E+02 -0.30810825757E+02  0.89545548572E+01  0.17666519218E+03  0.17120000000E+03 0.  0.
        998    1    1    2    0    0 -0.44395348168E+02  0.10426031753E+02  0.13743360426E+04  0.13751287966E+04  0.10000000000E+02 0. -1.
</event>
<event>
 5    1  0.1146201E-008  0.3734598E+03  0.7957747E-01  0.3480140E+00
         13   -1    0    0    0    0  0.00000000000E+00  0.00000000000E+00  0.14999999963E+04  0.15000000000E+04  0.10566000000E+00 0.  1.
        994   -1    0    0    0    0 -0.00000000000E+00 -0.00000000000E+00  0.11368683772E-12  0.17120000000E+03  0.17120000000E+03 0.  0.
         13    1    1    2    0    0  0.34284592570E+02  0.98174947084E+02  0.48092459748E+03  0.49203885329E+03  0.10566000000E+00 0.  1.
        994    1    1    2    0    0 -0.34756052250E+02 -0.97651638295E+02  0.45122661110E+02  0.20515681850E+03  0.17120000000E+03 0.  0.
        998    1    1    2    0    0  0.47145968029E+00 -0.52330878928E+00  0.97395273769E+03  0.97400432821E+03  0.10000000000E+02 0.  0.
</event>
<event>
 5    1  0.1146201E-008  0.3770571E+03  0.7957747E-01  0.3464073E+00
         13   -1    0    0    0    0  0.00000000000E+00  0.00000000000E+00  0.14999999963E+04  0.15000000000E+04  0.10566000000E+00 0. -1.
        994   -1    0    0    0    0 -0.00000000000E+00 -0.00000000000E+00  0.11368683772E-12  0.17120000000E+03  0.17120000000E+03 0.  0.
         13    1    1    2    0    0  0.36538951629E+02  0.17510981741E+01  0.14028883504E+03  0.14497975628E+03  0.10566000000E+00 0. -1.
        994    1    1    2    0    0  0.11348631351E+02  0.18712674082E+01  0.60728356368E+01  0.17169336740E+03  0.17120000000E+03 0.  0.
        998    1    1    2    0    0 -0.47887582981E+02 -0.36223655823E+01  0.13536383256E+04  0.13545268763E+04  0.10000000000E+02 0. -1.
</event>
<event>
 5    1  0.1146201E-008  0.3796545E+03  0.7957747E-01  0.3452664E+00
         13   -1    0    0    0    0  0.00000000000E+00  0.00000000000E+00  0.14999999963E+04  0.15000000000E+04  0.10566000000E+00 0.  1.
        994   -1    0    0    0    0 -0.00000000000E+00 -0.00000000000E+00  0.11368683772E-12  0.17120000000E+03  0.17120000000E+03 0.  0.
         13    1    1    2    0    0 -0.36251782016E+02 -0.37968303455E+01  0.16524478356E+03  0.16921718967E+03  0.10566000000E+00 0.  1.
        994    1    1    2    0    0  0.91117976656E+01  0.37825423640E+01  0.46334555993E+01  0.17154661581E+03  0.17120000000E+03 0.  0.
        998    1    1    2    0    0  0.27139984351E+02  0.14287981488E-01  0.13301217571E+04  0.13304361945E+04  0.10000000000E+02 0.  1.
</event>
<event>
 5    1  0.1146201E-008  0.3848450E+03  0.7957747E-01  0.3430330E+00
         13   -1    0    0    0    0  0.00000000000E+00  0.00000000000E+00  0.14999999963E+04  0.15000000000E+04  0.10566000000E+00 0.  1.
        994   -1    0    0    0    0 -0.00000000000E+00 -0.00000000000E+00  0.11368683772E-12  0.17120000000E+03  0.17120000000E+03 0.  0.
         13    1    1    2    0    0 -0.63902471339E+01  0.13797814088E+02  0.80764253897E+02  0.82183275693E+02  0.10566000000E+00 0.  1.
        994    1    1    2    0    0 -0.21094621524E+02  0.61451351983E+01  0.32970783998E+01  0.17263561762E+03  0.17120000000E+03 0.  0.
        998    1    1    2    0    0  0.27484868658E+02 -0.19942949286E+02  0.14159386640E+04  0.14163811067E+04  0.10000000000E+02 0.  1.
</event>
<event>
 5    1  0.1146201E-008  0.3735623E+03  0.7957747E-01  0.3479678E+00
         13   -1    0    0    0    0  0.00000000000E+00  0.00000000000E+00  0.14999999963E+04  0.15000000000E+04  0.10566000000E+00 0. -1.
        994   -1    0    0    0    0 -0.00000000000E+00 -0.00000000000E+00  0.11368683772E-12  0.17120000000E+03  0.17120000000E+03 0.  0.
         13    1    1    2    0    0  0.53982782802E+02 -0.13301457152E+02  0.22334400119E+03  0.23015999573E+03  0.10566000000E+00 0. -1.
        994    1    1    2    0    0 -0.15276837810E+02  0.18178496484E+02  0.93471910464E+01  0.17309144834E+03  0.17120000000E+03 0.  0.
        998    1    1    2    0    0 -0.38705944992E+02 -0.48770393319E+01  0.12673088040E+04  0.12679485559E+04  0.10000000000E+02 0. -1.
</event>
<event>
 5    1  0.1572574E-008  0.3861105E+03  0.7957747E-01  0.3424976E+00
         13   -1    0    0    0    0  0.00000000000E+00  0.00000000000E+00  0.14999999963E+04  0.15000000000E+04  0.10566000000E+00 0. -1.
        994   -1    0    0    0    0 -0.00000000000E+00 -0.00000000000E+00  0.11368683772E-12  0.17120000000E+03  0.17120000000E+03 0.  0.
         13    1    1    2    0    0  0.56209357233E+01  0.10448143171E+02  0.65969083512E+02  0.67027529848E+02  0.10566000000E+00 0. -1.
        994    1    1    2    0    0 -0.17325978493E+00 -0.91162741641E+01  0.13522841452E+01  0.17144796629E+03  0.17120000000E+03 0.  0.
        998    1    1    2    0    0 -0.54476759383E+01 -0.13318690070E+01  0.14326786286E+04  0.14327245039E+04  0.10000000000E+02 0. -1.
</event>
<event>
 5    1  0.1146201E-008  0.3822613E+03  0.7957747E-01  0.3441371E+00
         13   -1    0    0    0    0  0.00000000000E+00  0.00000000000E+00  0.14999999963E+04  0.15000000000E+04  0.10566000000E+00 0. -1.
        994   -1    0    0    0    0 -0.00000000000E+00 -0.00000000000E+00  0.11368683772E-12  0.17120000000E+03  0.17120000000E+03 0.  0.
         13    1    1    2    0    0 -0.97988950575E+01 -0.32130126742E+01  0.16410768196E+02  0.19382112155E+02  0.10566000000E+00 0. -1.
        994    1    1    2    0    0  0.92136499913E+01  0.46126430475E+01  0.33483665912E+01  0.17154247107E+03  0.17120000000E+03 0.  0.
        998    1    1    2    0    0  0.58524506625E+00 -0.13996303734E+01  0.14802408615E+04  0.14802754168E+04  0.10000000000E+02 0. -1.
</event>
<event>
 5    1  0.1146201E-008  0.3830612E+03  0.7957747E-01  0.3437937E+00
         13   -1    0    0    0    0  0.00000000000E+00  0.00000000000E+00  0.14999999963E+04  0.15000000000E+04  0.10566000000E+00 0.  1.
        994   -1    0    0    0    0 -0.00000000000E+00 -0.00000000000E+00  0.11368683772E-12  0.17120000000E+03  0.17120000000E+03 0.  0.
         13    1    1    2    0    0 -0.27860202060E+02 -0.13421098858E+02  0.17529138319E+03  0.17799830600E+03  0.10566000000E+00 0.  1.
        994    1    1    2    0    0  0.22144805537E+02  0.84195507470E+01  0.44555378511E+01  0.17288890382E+03  0.17120000000E+03 0.  0.
        998    1    1    2    0    0  0.57153965233E+01  0.50015481108E+01  0.13202530752E+04  0.13203127902E+04  0.10000000000E+02 0.  1.
</event>
<event>
 5    1  0.1146201E-008  0.3823910E+03  0.7957747E-01  0.3440813E+00
         13   -1    0    0    0    0  0.00000000000E+00  0.00000000000E+00  0.14999999963E+04  0.15000000000E+04  0.10566000000E+00 0.  1.
        994   -1    0    0    0    0 -0.00000000000E+00 -0.00000000000E+00  0.11368683772E-12  0.17120000000E+03  0.17120000000E+03 0.  0.
         13    1    1    2    0    0 -0.20614015129E+02 -0.19571188970E+02  0.13246724329E+03  0.13548265855E+03  0.10566000000E+00 0.  1.
        994    1    1    2    0    0  0.17488474306E+02  0.13296819840E+02  0.45335053335E+01  0.17266338588E+03  0.17120000000E+03 0.  0.
        998    1    1    2    0    0  0.31255408229E+01  0.62743691296E+01  0.13629992477E+04  0.13630539556E+04  0.10000000000E+02 0.  1.
</event>
<event>
 5    1  0.1146201E-008  0.3848070E+03  0.7957747E-01  0.3430491E+00
         13   -1    0    0    0    0  0.00000000000E+00  0.00000000000E+00  0.14999999963E+04  0.15000000000E+04  0.10566000000E+00 0.  1.
        994   -1    0    0    0    0 -0.00000000000E+00 -0.00000000000E+00  0.11368683772E-12  0.17120000000E+03  0.17120000000E+03 0.  0.
         13    1    1    2    0    0  0.13764770272E+02  0.23455537351E+00  0.53776037171E+02  0.55510334666E+02  0.10566000000E+00 0.  1.
        994    1    1    2    0    0 -0.12604913589E+02  0.66506447803E+01  0.23946802825E+01  0.17180887467E+03  0.17120000000E+03 0.  0.
        998    1    1    2    0    0 -0.11598566829E+01 -0.68852001538E+01  0.14438292788E+04  0.14438807907E+04  0.10000000000E+02 0.  1.
</event>
<event>
 5    1  0.1146201E-008  0.3809975E+03  0.7957747E-01  0.3446827E+00
         13   -1    0    0    0    0  0.00000000000E+00  0.00000000000E+00  0.14999999963E+04  0.15000000000E+04  0.10566000000E+00 0. -1.
        994   -1    0    0    0    0 -0.00000000000E+00 -0.00000000000E+00  0.11368683772E-12  0.17120000000E+03  0.17120000000E+03 0.  0.
         13    1    1    2    0    0  0.23390032763E+02  0.44339282927E+01  0.74943175842E+02  0.78633606824E+02  0.10566000000E+00 0. -1.
        994    1    1    2    0    0 -0.22330065679E+02  0.91423272784E+01  0.55727863044E+01  0.17298181965E+03  0.17120000000E+03 0.  0.
        998    1    1    2    0    0 -0.10599670847E+01 -0.13576255571E+02  0.14194840341E+04  0.14195845735E+04  0.10000000000E+02 0. -1.
</event>
<event>
 5    1  0.1146201E-008  0.3790819E+03  0.7957747E-01  0.3455166E+00
         13   -1    0    0    0    0  0.00000000000E+00  0.00000000000E+00  0.14999999963E+04  0.15000000000E+04  0.10566000000E+00 0. -1.
        994   -1    0    0    0    0 -0.00000000000E+00 -0.00000000000E+00  0.11368683772E-12  0.17120000000E+03  0.17120000000E+03 0.  0.
         13    1    1    2    0    0  0.19453846532E+02  0.72317822087E+02  0.43485679266E+03  0.44125815667E+03  0.10566000000E+00 0. -1.
        994    1    1    2    0    0 -0.37904113538E+02 -0.67546356934E+02  0.24983614105E+02  0.18955962949E+03  0.17120000000E+03 0.  0.
        998    1    1    2    0    0  0.18450267005E+02 -0.47714651528E+01  0.10401595895E+04  0.10403822138E+04  0.10000000000E+02 0. -1.
</event>
<event>
 5    1  0.1146201E-008  0.3838882E+03  0.7957747E-01  0.3434401E+00
         13   -1    0    0    0    0  0.00000000000E+00  0.00000000000E+00  0.14999999963E+04  0.15000000000E+04  0.10566000000E+00 0.  1.
        994   -1    0    0    0    0 -0.00000000000E+00 -0.00000000000E+00  0.11368683772E-12  0.17120000000E+03  0.17120000000E+03 0.  0.
         13    1    1    2    0    0 -0.13950601764E+01  0.12394819173E+02  0.35239583962E+02  0.37382043512E+02  0.10566000000E+00 0.  1.
        994    1    1    2    0    0 -0.33035642555E+01 -0.75538516428E+01  0.24075231661E+01  0.17141531547E+03  0.17120000000E+03 0.  0.
        998    1    1    2    0    0  0.46986244319E+01 -0.48409675306E+01  0.14623528892E+04  0.14624026410E+04  0.10000000000E+02 0.  1.
</event>
<event>
 5    1  0.1146201E-008  0.3713614E+03  0.7957747E-01  0.3489657E+00
         13   -1    0    0    0    0  0.00000000000E+00  0.00000000000E+00  0.14999999963E+04  0.15000000000E+04  0.10566000000E+00 0. -1.
        994   -1    0    0    0    0 -0.00000000000E+00 -0.00000000000E+00  0.11368683772E-12  0.17120000000E+03  0.17120000000E+03 0.  0.
         13    1    1    2    0    0 -0.80235728209E+02  0.50908040749E+02  0.37436973027E+03  0.38624099576E+03  0.10566000000E+00 0. -1.
        994    1    1    2    0    0  0.65015201057E+02 -0.87244789274E+02  0.50474540753E+02  0.20903528144E+03  0.17120000000E+03 0.  0.
        998    1    1    2    0    0  0.15220527152E+02  0.36336748525E+02  0.10751557253E+04  0.10759237228E+04  0.10000000000E+02 0. -1.
</event>
<event>
 5    1  0.1146201E-008  0.3688667E+03  0.7957747E-01  0.3501116E+00
         13   -1    0    0    0    0  0.00000000000E+00  0.00000000000E+00  0.14999999963E+04  0.15000000000E+04  0.10566000000E+00 0. -1.
        994   -1    0    0    0    0 -0.00000000000E+00 -0.00000000000E+00  0.11368683772E-12  0.17120000000E+03  0.17120000000E+03 0.  0.
         13    1    1    2    0    0  0.30129586662E+01  0.26779274818E+02  0.32137226222E+02  0.41940671823E+02  0.10566000000E+00 0. -1.
        994    1    1    2    0    0 -0.58360960987E+01 -0.26472708570E+02  0.12417734417E+02  0.17377716894E+03  0.17120000000E+03 0.  0.
        998    1    1    2    0    0  0.28231374325E+01 -0.30656624757E+00  0.14554450356E+04  0.14554821592E+04  0.10000000000E+02 0. -1.
</event>
<event>
 5    1  0.1146201E-008  0.3849586E+03  0.7957747E-01  0.3429848E+00
         13   -1    0    0    0    0  0.00000000000E+00  0.00000000000E+00  0.14999999963E+04  0.15000000000E+04  0.10566000000E+00 0.  1.
        994   -1    0    0    0    0 -0.00000000000E+00 -0.00000000000E+00  0.11368683772E-12  0.17120000000E+03  0.17120000000E+03 0.  0.
         13    1    1    2    0    0  0.40869946971E+02 -0.88237861736E+02  0.19909270090E+03  0.22157208200E+03  0.10566000000E+00 0.  1.
        994    1    1    2    0    0 -0.38443033735E+02  0.10114189430E+03  0.63696347515E+02  0.21230688710E+03  0.17120000000E+03 0.  0.
        998    1    1    2    0    0 -0.24269132361E+01 -0.12904032564E+02  0.12372109479E+04  0.12373210309E+04  0.10000000000E+02 0.  1.
</event>
<event>
 5    1  0.1146201E-008  0.3832518E+03  0.7957747E-01  0.3437120E+00
         13   -1    0    0    0    0  0.00000000000E+00  0.00000000000E+00  0.14999999963E+04  0.15000000000E+04  0.10566000000E+00 0.  1.
        994   -1    0    0    0    0 -0.00000000000E+00 -0.00000000000E+00  0.11368683772E-12  0.17120000000E+03  0.17120000000E+03 0.  0.
         13    1    1    2    0    0 -0.17941677749E+01  0.22183074346E+02  0.10137096497E+03  0.10378531461E+03  0.10566000000E+00 0.  1.
        994    1    1    2    0    0  0.40549019853E+00 -0.92118971599E+01  0.27818255572E+01  0.17147070311E+03  0.17120000000E+03 0.  0.
        998    1    1    2    0    0  0.13886775764E+01 -0.12971177187E+02  0.13958472058E+04  0.13959439823E+04  0.10000000000E+02 0.  1.
</event>
<event>
 5    1  0.1146201E-008  0.3801021E+03  0.7957747E-01  0.3450714E+00
         13   -1    0    0    0    0  0.00000000000E+00  0.00000000000E+00  0.14999999963E+04  0.15000000000E+04  0.10566000000E+00 0. -1.
        994   -1    0    0    0    0 -0.00000000000E+00 -0.00000000000E+00  0.11368683772E-12  0.17120000000E+03  0.17120000000E+03 0.  0.
         13    1    1    2    0    0  0.63330390197E+02  0.13021746898E+02  0.11652662851E+03  0.13326203709E+03  0.10566000000E+00 0. -1.
        994    1    1    2    0    0 -0.60974432665E+02  0.16657948895E+02  0.31012370079E+02  0.18511233292E+03  0.17120000000E+03 0.  0.
        998    1    1    2    0    0 -0.23559575316E+01 -0.29679695793E+02  0.13524609977E+04  0.13528256300E+04  0.10000000000E+02 0. -1.
</event>
<event>
 5    1  0.1146201E-008  0.3826934E+03  0.7957747E-01  0.3439514E+00
         13   -1    0    0    0    0  0.00000000000E+00  0.00000000000E+00  0.14999999963E+04  0.15000000000E+04  0.10566000000E+00 0. -1.
        994   -1    0    0    0    0 -0.00000000000E+00 -0.00000000000E+00  0.11368683772E-12  0.17120000000E+03  0.17120000000E+03 0.  0.
         13    1    1    2    0    0  0.31556532976E+02 -0.14489254983E+02  0.20458373877E+03  0.20750968801E+03  0.10566000000E+00 0. -1.
        994    1    1    2    0    0 -0.19239574173E+02  0.21762945749E+02  0.55805161330E+01  0.17373649352E+03  0.17120000000E+03 0.  0.
        998    1    1    2    0    0 -0.12316958803E+02 -0.72736907669E+01  0.12898357414E+04  0.12899538185E+04  0.10000000000E+02 0. -1.
</event>
<event>
 5    1  0.1146201E-008  0.3837165E+03  0.7957747E-01  0.3435134E+00
         13   -1    0    0    0    0  0.00000000000E+00  0.00000000000E+00  0.14999999963E+04  0.15000000000E+04  0.10566000000E+00 0. -1.
        994   -1    0    0    0    0 -0.00000000000E+00 -0.00000000000E+00  0.11368683772E-12  0.17120000000E+03  0.17120000000E+03 0.  0.
         13    1    1    2    0    0  0.12801219940E+02 -0.13188997222E+02  0.76501119035E+02  0.78678162519E+02  0.10566000000E+00 0. -1.
        994    1    1    2    0    0 -0.16753695263E+01  0.67868698346E+01  0.24300916647E+01  0.17135989557E+03  0.17120000000E+03 0.  0.
        998    1    1    2    0    0 -0.11125850414E+02  0.64021273872E+01  0.14210687856E+04  0.14211619419E+04  0.10000000000E+02 0. -1.
</event>
<event>
 5    1  0.1146201E-008  0.3749157E+03  0.7957747E-01  0.3473600E+00
         13   -1    0    0    0    0  0.00000000000E+00  0.00000000000E+00  0.14999999963E+04  0.15000000000E+04  0.10566000000E+00 0. -1.
        994   -1    0    0    0    0 -0.00000000000E+00 -0.00000000000E+00  0.11368683772E-12  0.17120000000E+03  0.17120000000E+03 0.  0.
         13    1    1    2    0    0  0.79677790106E+02 -0.13327848872E+03  0.75233115154E+03  0.76818869982E+03  0.10566000000E+00 0. -1.
        994    1    1    2    0    0 -0.82266863249E+02  0.13590304618E+03  0.98041232058E+02  0.25329626514E+03  0.17120000000E+03 0.  0.
        998    1    1    2    0    0  0.25890731432E+01 -0.26245574570E+01  0.64962761268E+03  0.64971503504E+03  0.10000000000E+02 0. -1.
</event>
<event>
 5    1  0.1146201E-008  0.3800787E+03  0.7957747E-01  0.3450816E+00
         13   -1    0    0    0    0  0.00000000000E+00  0.00000000000E+00  0.14999999963E+04  0.15000000000E+04  0.10566000000E+00 0. -1.
        994   -1    0    0    0    0 -0.00000000000E+00 -0.00000000000E+00  0.11368683772E-12  0.17120000000E+03  0.17120000000E+03 0.  0.
         13    1    1    2    0    0  0.41268759426E+01 -0.45875126126E+02  0.20699728369E+03  0.21206000312E+03  0.10566000000E+00 0. -1.
        994    1    1    2    0    0 -0.12795601689E+02  0.55643903137E+02  0.15066357272E+02  0.18109778160E+03  0.17120000000E+03 0.  0.
        998    1    1    2    0    0  0.86687257468E+01 -0.97687770107E+01  0.12779363553E+04  0.12780422153E+04  0.10000000000E+02 0. -1.
</event>
<event>
 5    1  0.1146201E-008  0.3716939E+03  0.7957747E-01  0.3488142E+00
         13   -1    0    0    0    0  0.00000000000E+00  0.00000000000E+00  0.14999999963E+04  0.15000000000E+04  0.10566000000E+00 0. -1.
        994   -1    0    0    0    0 -0.00000000000E+00 -0.00000000000E+00  0.11368683772E-12  0.17120000000E+03  0.17120000000E+03 0.  0.
         13    1    1    2    0    0 -0.73282149498E+01 -0.37894622141E+02  0.54806971267E+02  0.67033725729E+02  0.10566000000E+00 0. -1.
        994    1    1    2    0    0  0.39353492681E+02  0.41890781335E+02  0.23547559677E+02  0.18211936337E+03  0.17120000000E+03 0.  0.
        998    1    1    2    0    0 -0.32025277731E+02 -0.39961591934E+01  0.14216454653E+04  0.14220469109E+04  0.10000000000E+02 0. -1.
</event>
<event>
 5    1  0.1146201E-008  0.3800936E+03  0.7957747E-01  0.3450751E+00
         13   -1    0    0    0    0  0.00000000000E+00  0.00000000000E+00  0.14999999963E+04  0.15000000000E+04  0.10566000000E+00 0.  1.
        994   -1    0    0    0    0 -0.00000000000E+00 -0.00000000000E+00  0.11368683772E-12  0.17120000000E+03  0.17120000000E+03 0.  0.
         13    1    1    2    0    0 -0.35759010816E+02  0.31771752114E+02  0.22647605202E+03  0.23147259965E+03  0.10566000000E+00 0.  1.
        994    1    1    2    0    0  0.39814327644E+02 -0.36933351667E+02  0.14005645339E+02  0.18015230016E+03  0.17120000000E+03 0.  0.
        998    1    1    2    0    0 -0.40553168281E+01  0.51615995527E+01  0.12595182989E+04  0.12595751002E+04  0.10000000000E+02 0.  1.
</event>
<event>
 5    1  0.1146201E-008  0.3837784E+03  0.7957747E-01  0.3434870E+00
         13   -1    0    0    0    0  0.00000000000E+00  0.00000000000E+00  0.14999999963E+04  0.15000000000E+04  0.10566000000E+00 0.  1.
        994   -1    0    0    0    0 -0.00000000000E+00 -0.00000000000E+00  0.11368683772E-12  0.17120000000E+03  0.17120000000E+03 0.  0.
         13    1    1    2    0    0  0.76104956955E+01 -0.20167957609E+02  0.10801387960E+03  0.11014388548E+03  0.10566000000E+00 0.  1.
        994    1    1    2    0    0  0.59349395096E+01  0.10017166293E+02  0.26855898785E+01  0.17161648965E+03  0.17120000000E+03 0.  0.
        998    1    1    2    0    0 -0.13545435205E+02  0.10150791317E+02  0.13893005268E+04  0.13894396249E+04  0.10000000000E+02 0.  1.
</event>
<event>
 5    1  0.1146201E-008  0.3691247E+03  0.7957747E-01  0.3499923E+00
         13   -1    0    0    0    0  0.00000000000E+00  0.00000000000E+00  0.14999999963E+04  0.15000000000E+04  0.10566000000E+00 0. -1.
        994   -1    0    0    0    0 -0.00000000000E+00 -0.00000000000E+00  0.11368683772E-12  0.17120000000E+03  0.17120000000E+03 0.  0.
         13    1    1    2    0    0 -0.19400864376E+02  0.12307618059E+02  0.24912899159E+02  0.33890038497E+02  0.10566000000E+00 0. -1.
        994    1    1    2    0    0 -0.19619965210E+02  0.61477710225E+00  0.11064752074E+02  0.17267654654E+03  0.17120000000E+03 0.  0.
        998    1    1    2    0    0  0.39020829586E+02 -0.12922395161E+02  0.14640223450E+04  0.14646334150E+04  0.10000000000E+02 0. -1.
</event>
<event>
 5    1  0.1146201E-008  0.3860836E+03  0.7957747E-01  0.3425089E+00
         13   -1    0    0    0    0  0.00000000000E+00  0.00000000000E+00  0.14999999963E+04  0.15000000000E+04  0.10566000000E+00 0. -1.
        994   -1    0    0    0    0 -0.00000000000E+00 -0.00000000000E+00  0.11368683772E-12  0.17120000000E+03  0.17120000000E+03 0.  0.
         13    1    1    2    0    0  0.77838898561E+01  0.73305118439E+01  0.52736102724E+02  0.53809228203E+02  0.10566000000E+00 0. -1.
        994    1    1    2    0    0 -0.54415256711E+01 -0.57137292542E+01  0.12971387167E+01  0.17138663738E+03  0.17120000000E+03 0.  0.
        998    1    1    2    0    0 -0.23423641850E+01 -0.16167825897E+01  0.14459667548E+04  0.14460041344E+04  0.10000000000E+02 0. -1.
</event>
<event>
 5    1  0.1146201E-008  0.3700500E+03  0.7957747E-01  0.3495661E+00
         13   -1    0    0    0    0  0.00000000000E+00  0.00000000000E+00  0.14999999963E+04  0.15000000000E+04  0.10566000000E+00 0. -1.
        994   -1    0    0    0    0 -0.00000000000E+00 -0.00000000000E+00  0.11368683772E-12  0.17120000000E+03  0.17120000000E+03 0.  0.
         13    1    1    2    0    0 -0.12891045168E+02  0.18291664749E+02  0.18707854206E+02  0.29167773618E+02  0.10566000000E+00 0. -1.
        994    1    1    2    0    0  0.10934063122E+02  0.39013745221E+01  0.11436632714E+02  0.17197386728E+03  0.17120000000E+03 0.  0.
        998    1    1    2    0    0  0.19569820456E+01 -0.22193039271E+02  0.14698555094E+04  0.14700583591E+04  0.10000000000E+02 0. -1.
</event>
<event>
 5    1  0.1146201E-008  0.2250476E+03  0.7957747E-01  0.4637766E+00
         13   -1    0    0    0    0  0.00000000000E+00  0.00000000000E+00  0.14999999963E+04  0.15000000000E+04  0.10566000000E+00 0.  1.
        994   -1    0    0    0    0 -0.00000000000E+00 -0.00000000000E+00  0.11368683772E-12  0.17120000000E+03  0.17120000000E+03 0.  0.
         13    1    1    2    0    0 -0.12751984327E+03  0.11725239516E+03  0.34126948566E+03  0.38271962009E+03  0.10566000000E+00 0.  1.
        994    1    1    2    0    0  0.41060478199E+02 -0.11801821952E+01  0.68940072443E+02  0.18907545924E+03  0.17120000000E+03 0.  0.
        998    1    1    2    0    0  0.86459365071E+02 -0.11607221297E+03  0.10897904382E+04  0.10994049207E+04  0.10000000000E+02 0.  1.
</event>
<event>
 5    1  0.1146201E-008  0.3785662E+03  0.7957747E-01  0.3457425E+00
         13   -1    0    0    0    0  0.00000000000E+00  0.00000000000E+00  0.14999999963E+04  0.15000000000E+04  0.10566000000E+00 0.  1.
        994   -1    0    0    0    0 -0.00000000000E+00 -0.00000000000E+00  0.11368683772E-12  0.17120000000E+03  0.17120000000E+03 0.  0.
         13    1    1    2    0    0 -0.44445181336E+02  0.22701876271E+02  0.21637690556E+03  0.22205793333E+03  0.10566000000E+00 0.  1.
        994    1    1    2    0    0  0.54658126556E+02 -0.79974072645E+01  0.15177270218E+02  0.18053049286E+03  0.17120000000E+03 0.  0.
        998    1    1    2    0    0 -0.10212945220E+02 -0.14704469007E+02  0.12684458205E+04  0.12686115738E+04  0.10000000000E+02 0.  1.
</event>
<event>
 5    1  0.1146201E-008  0.3802153E+03  0.7957747E-01  0.3450222E+00
         13   -1    0    0    0    0  0.00000000000E+00  0.00000000000E+00  0.14999999963E+04  0.15000000000E+04  0.10566000000E+00 0.  1.
        994   -1    0    0    0    0 -0.00000000000E+00 -0.00000000000E+00  0.11368683772E-12  0.17120000000E+03  0.17120000000E+03 0.  0.
         13    1    1    2    0    0 -0.72551537886E+01  0.76841408181E+01  0.11943040916E+02  0.15947748022E+02  0.10566000000E+00 0.  1.
        994    1    1    2    0    0  0.95418653425E+01 -0.98804190118E+01  0.46550071362E+01  0.17181320952E+03  0.17120000000E+03 0.  0.
        998    1    1    2    0    0 -0.22867115539E+01  0.21962781937E+01  0.14834019482E+04  0.14834390425E+04  0.10000000000E+02 0.  1.
</event>
<event>
 5    1  0.1146201E-008  0.3779952E+03  0.7957747E-01  0.3459935E+00
         13   -1    0    0    0    0  0.00000000000E+00  0.00000000000E+00  0.14999999963E+04  0.15000000000E+04  0.10566000000E+00 0.  1.
        994   -1    0    0    0    0 -0.00000000000E+00 -0.00000000000E+00  0.11368683772E-12  0.17120000000E+03  0.17120000000E+03 0.  0.
         13    1    1    2    0    0 -0.75466221131E+01  0.72621585817E+01  0.82456000141E+01  0.13330098882E+02  0.10566000000E+00 0.  1.
        994    1    1    2    0    0  0.75455992239E+01 -0.90743189667E+01  0.56174532761E+01  0.17169820941E+03  0.17120000000E+03 0.  0.
        998    1    1    2    0    0  0.10228891425E-02  0.18121603850E+01  0.14861369430E+04  0.14861716917E+04  0.10000000000E+02 0.  1.
</event>
<event>
 5    1  0.1146201E-008  0.3710882E+03  0.7957747E-01  0.3490905E+00
         13   -1    0    0    0    0  0.00000000000E+00  0.00000000000E+00  0.14999999963E+04  0.15000000000E+04  0.10566000000E+00 0.  1.
        994   -1    0    0    0    0 -0.00000000000E+00 -0.00000000000E+00  0.11368683772E-12  0.17120000000E+03  0.17120000000E+03 0.  0.
         13    1    1    2    0    0  0.54319948884E+02  0.33207265012E+02  0.31714689673E+03  0.32347417913E+03  0.10566000000E+00 0.  1.
        994    1    1    2    0    0 -0.16321046684E+02  0.36000761967E+02  0.14102728993E+02  0.17626899442E+03  0.17120000000E+03 0.  0.
        998    1    1    2    0    0 -0.37998902199E+02 -0.69208026979E+02  0.11687503706E+04  0.11714568265E+04  0.10000000000E+02 0.  1.
</event>
<event>
 5    1  0.1146201E-008  0.3339088E+03  0.7957747E-01  0.3680203E+00
         13   -1    0    0    0    0  0.00000000000E+00  0.00000000000E+00  0.14999999963E+04  0.15000000000E+04  0.10566000000E+00 0. -1.
        994   -1    0    0    0    0 -0.00000000000E+00 -0.00000000000E+00  0.11368683772E-12  0.17120000000E+03  0.17120000000E+03 0.  0.
         13    1    1    2    0    0  0.17177765206E+03  0.80123252868E+01  0.98446337640E+03  0.99936975627E+03  0.10566000000E+00 0. -1.
        994    1    1    2    0    0 -0.14135233338E+03 -0.60615069028E+02  0.98603437303E+02  0.25037321461E+03  0.17120000000E+03 0.  0.
        998    1    1    2    0    0 -0.30425318683E+02  0.52602743741E+02  0.41693318258E+03  0.42145702913E+03  0.10000000000E+02 0. -1.
</event>
<event>
 5    1  0.1146201E-008  0.3710891E+03  0.7957747E-01  0.3490900E+00
         13   -1    0    0    0    0  0.00000000000E+00  0.00000000000E+00  0.14999999963E+04  0.15000000000E+04  0.10566000000E+00 0. -1.
        994   -1    0    0    0    0 -0.00000000000E+00 -0.00000000000E+00  0.11368683772E-12  0.17120000000E+03  0.17120000000E+03 0.  0.
         13    1    1    2    0    0 -0.13040040929E+03 -0.90231618061E+02  0.51285881938E+03  0.53681485767E+03  0.10566000000E+00 0. -1.
        994    1    1    2    0    0  0.13340252530E+03  0.13158800085E+03  0.14729558045E+03  0.29345709012E+03  0.17120000000E+03 0.  0.
        998    1    1    2    0    0 -0.30021160032E+01 -0.41356382793E+02  0.83984559646E+03  0.84092805220E+03  0.10000000000E+02 0. -1.
</event>
<event>
 5    1  0.1146201E-008  0.3841218E+03  0.7957747E-01  0.3433405E+00
         13   -1    0    0    0    0  0.00000000000E+00  0.00000000000E+00  0.14999999963E+04  0.15000000000E+04  0.10566000000E+00 0.  1.
        994   -1    0    0    0    0 -0.00000000000E+00 -0.00000000000E+00  0.11368683772E-12  0.17120000000E+03  0.17120000000E+03 0.  0.
         13    1    1    2    0    0  0.10129161545E+02  0.14871087457E+02  0.74613805746E+02  0.76752721957E+02  0.10566000000E+00 0.  1.
        994    1    1    2    0    0 -0.92581551101E+01 -0.16491448104E+02  0.32473311989E+01  0.17227207103E+03  0.17120000000E+03 0.  0.
        998    1    1    2    0    0 -0.87100643508E+00  0.16203606461E+01  0.14221388593E+04  0.14221752070E+04  0.10000000000E+02 0.  1.
</event>
<event>
 5    1  0.1146201E-008  0.3764552E+03  0.7957747E-01  0.3466740E+00
         13   -1    0    0    0    0  0.00000000000E+00  0.00000000000E+00  0.14999999963E+04  0.15000000000E+04  0.10566000000E+00 0.  1.
        994   -1    0    0    0    0 -0.00000000000E+00 -0.00000000000E+00  0.11368683772E-12  0.17120000000E+03  0.17120000000E+03 0.  0.
         13    1    1    2    0    0  0.59479619922E+02  0.21017583568E+02  0.35508426492E+03  0.36064443759E+03  0.10566000000E+00 0.  1.
        994    1    1    2    0    0 -0.29742207640E+02 -0.27399495015E+01  0.89569036387E+01  0.17401658645E+03  0.17120000000E+03 0.  0.
        998    1    1    2    0    0 -0.29737412282E+02 -0.18277634067E+02  0.11359588277E+04  0.11365389760E+04  0.10000000000E+02 0.  1.
</event>
<event>
 5    1  0.1146201E-008  0.2879218E+03  0.7957747E-01  0.3986207E+00
         13   -1    0    0    0    0  0.00000000000E+00  0.00000000000E+00  0.14999999963E+04  0.15000000000E+04  0.10566000000E+00 0.  1.
        994   -1    0    0    0    0 -0.00000000000E+00 -0.00000000000E+00  0.11368683772E-12  0.17120000000E+03  0.17120000000E+03 0.  0.
         13    1    1    2    0    0 -0.11930533408E+03  0.17366345802E+03  0.76076159895E+03  0.78939912655E+03  0.10566000000E+00 0.  1.
        994    1    1    2    0    0  0.22415010869E+02 -0.79017419625E+02  0.75553805784E+02  0.20436243022E+03  0.17120000000E+03 0.  0.
        998    1    1    2    0    0  0.96890323211E+02 -0.94646038400E+02  0.66368459155E+03  0.67743844324E+03  0.10000000000E+02 0.  1.
</event>
<event>
 5    1  0.1146201E-008  0.3846324E+03  0.7957747E-01  0.3431233E+00
         13   -1    0    0    0    0  0.00000000000E+00  0.00000000000E+00  0.14999999963E+04  0.15000000000E+04  0.10566000000E+00 0. -1.
        994   -1    0    0    0    0 -0.00000000000E+00 -0.00000000000E+00  0.11368683772E-12  0.17120000000E+03  0.17120000000E+03 0.  0.
         13    1    1    2    0    0  0.20676493111E+02  0.16969579827E+01  0.12523960635E+03  0.12694631620E+03  0.10566000000E+00 0. -1.
        994    1    1    2    0    0 -0.57681920858E+01 -0.11691279832E+02  0.23725433952E+01  0.17171204683E+03  0.17120000000E+03 0.  0.
        998    1    1    2    0    0 -0.14908301025E+02  0.99943218494E+01  0.13723878465E+04  0.13725416370E+04  0.10000000000E+02 0. -1.
</event>
<event>
 5    1  0.1146201E-008  0.3830522E+03  0.7957747E-01  0.3437975E+00
         13   -1    0    0    0    0  0.00000000000E+00  0.00000000000E+00  0.14999999963E+04  0.15000000000E+04  0.10566000000E+00 0.  1.
        994   -1    0    0    0    0 -0.00000000000E+00 -0.00000000000E+00  0.11368683772E-12  0.17120000000E+03  0.17120000000E+03 0.  0.
         13    1    1    2    0    0  0.12202054399E+02  0.91429130542E+01  0.41809324394E+02  0.44502963508E+02  0.10566000000E+00 0.  1.
        994    1    1    2    0    0 -0.15238737719E+02 -0.16180651561E+02  0.42370373029E+01  0.17268880999E+03  0.17120000000E+03 0.  0.
        998    1    1    2    0    0  0.30366833203E+01  0.70377385071E+01  0.14539536346E+04  0.14540082265E+04  0.10000000000E+02 0.  1.
</event>
<event>
 5    1  0.1146201E-008  0.3764838E+03  0.7957747E-01  0.3466613E+00
         13   -1    0    0    0    0  0.00000000000E+00  0.00000000000E+00  0.14999999963E+04  0.15000000000E+04  0.10566000000E+00 0.  1.
        994   -1    0    0    0    0 -0.00000000000E+00 -0.00000000000E+00  0.11368683772E-12  0.17120000000E+03  0.17120000000E+03 0.  0.
         13    1    1    2    0    0 -0.22584393808E+02 -0.15972268506E+02  0.59840584675E+02  0.65924767297E+02  0.10566000000E+00 0.  1.
        994    1    1    2    0    0  0.22535297890E+02  0.19381856779E+02  0.89127528478E+01  0.17398957781E+03  0.17120000000E+03 0.  0.
        998    1    1    2    0    0  0.49095918081E-01 -0.34095882726E+01  0.14312466588E+04  0.14312856549E+04  0.10000000000E+02 0.  1.
</event>
<event>
 5    1  0.1146201E-008  0.3818251E+03  0.7957747E-01  0.3443250E+00
         13   -1    0    0    0    0  0.00000000000E+00  0.00000000000E+00  0.14999999963E+04  0.15000000000E+04  0.10566000000E+00 0.  1.
        994   -1    0    0    0    0 -0.00000000000E+00 -0.00000000000E+00  0.11368683772E-12  0.17120000000E+03  0.17120000000E+03 0.  0.
         13    1    1    2    0    0  0.11800002307E+01 -0.26713420575E+02  0.10442000483E+03  0.10778936780E+03  0.10566000000E+00 0.  1.
        994    1    1    2    0    0 -0.38219304592E+00  0.25493424551E+02  0.53777404262E+01  0.17317165143E+03  0.17120000000E+03 0.  0.
        998    1    1    2    0    0 -0.79780718482E+00  0.12199960240E+01  0.13902022510E+04  0.13902389808E+04  0.10000000000E+02 0.  0.
</event>
<event>
 5    1  0.1146201E-008  0.4025360E+03  0.7957747E-01  0.3358542E+00
         13   -1    0    0    0    0  0.00000000000E+00  0.00000000000E+00  0.14999999963E+04  0.15000000000E+04  0.10566000000E+00 0.  1.
        994   -1    0    0    0    0 -0.00000000000E+00 -0.00000000000E+00  0.11368683772E-12  0.17120000000E+03  0.17120000000E+03 0.  0.
         13    1    1    2    0    0 -0.41974130926E+02  0.14893835258E+02  0.27483244901E+02  0.52335398251E+02  0.10566000000E+00 0.  1.
        994    1    1    2    0    0 -0.35339655392E+02  0.14488214920E+03  0.12403785470E+03  0.25871713858E+03  0.17120000000E+03 0.  0.
        998    1    1    2    0    0  0.77313786318E+02 -0.15977598445E+03  0.13484788967E+04  0.13601474632E+04  0.10000000000E+02 0.  1.
</event>
<event>
 5    1  0.1146201E-008  0.3726356E+03  0.7957747E-01  0.3483865E+00
         13   -1    0    0    0    0  0.00000000000E+00  0.00000000000E+00  0.14999999963E+04  0.15000000000E+04  0.10566000000E+00 0.  1.
        994   -1    0    0    0    0 -0.00000000000E+00 -0.00000000000E+00  0.11368683772E-12  0.17120000000E+03  0.17120000000E+03 0.  0.
         13    1    1    2    0    0  0.34638068278E+01  0.11152272542E+02  0.49255484514E+01  0.12674515067E+02  0.10566000000E+00 0.  1.
        994    1    1    2    0    0 -0.65621689573E+01 -0.12571299981E+02  0.85873242555E+01  0.17200081913E+03  0.17120000000E+03 0.  0.
        998    1    1    2    0    0  0.30983621295E+01  0.14190274385E+01  0.14864871236E+04  0.14865246658E+04  0.10000000000E+02 0.  1.
</event>
<event>
 5    1  0.1146201E-008  0.3807314E+03  0.7957747E-01  0.3447980E+00
         13   -1    0    0    0    0  0.00000000000E+00  0.00000000000E+00  0.14999999963E+04  0.15000000000E+04  0.10566000000E+00 0.  1.
        994   -1    0    0    0    0 -0.00000000000E+00 -0.00000000000E+00  0.11368683772E-12  0.17120000000E+03  0.17120000000E+03 0.  0.
         13    1    1    2    0    0  0.13996244897E+02  0.33593813699E+01  0.26229606125E+02  0.29919620919E+02  0.10566000000E+00 0.  1.
        994    1    1    2    0    0 -0.63556173312E+01 -0.47497634013E+01  0.39743851105E+01  0.17142983947E+03  0.17120000000E+03 0.  0.
        998    1    1    2    0    0 -0.76406275662E+01  0.13903820314E+01  0.14697960050E+04  0.14698505396E+04  0.10000000000E+02 0.  1.
</event>
<event>
 5    1  0.1146201E-008  0.3826313E+03  0.7957747E-01  0.3439780E+00
         13   -1    0    0    0    0  0.00000000000E+00  0.00000000000E+00  0.14999999963E+04  0.15000000000E+04  0.10566000000E+00 0. -1.
        994   -1    0    0    0    0 -0.00000000000E+00 -0.00000000000E+00  0.11368683772E-12  0.17120000000E+03  0.17120000000E+03 0.  0.
         13    1    1    2    0    0  0.10034231853E+02  0.26296393584E+01  0.18190850790E+02  0.20940845937E+02  0.10566000000E+00 0. -1.
        994    1    1    2    0    0 -0.19618544572E+01 -0.10714455390E+02  0.32040325749E+01  0.17157608881E+03  0.17120000000E+03 0.  0.
        998    1    1    2    0    0 -0.80723773962E+01  0.80848160319E+01  0.14786051129E+04  0.14786830653E+04  0.10000000000E+02 0. -1.
</event>
<event>
 5    1  0.1146201E-008  0.3846528E+03  0.7957747E-01  0.3431146E+00
         13   -1    0    0    0    0  0.00000000000E+00  0.00000000000E+00  0.14999999963E+04  0.15000000000E+04  0.10566000000E+00 0. -1.
        994   -1    0    0    0    0 -0.00000000000E+00 -0.00000000000E+00  0.11368683772E-12  0.17120000000E+03  0.17120000000E+03 0.  0.
         13    1    1    2    0    0  0.17632185831E+02 -0.77993518849E+01  0.98733594057E+02  0.10059849714E+03  0.10566000000E+00 0. -1.
        994    1    1    2    0    0 -0.15651188711E+02  0.88946436909E+01  0.28702908746E+01  0.17216780467E+03  0.17120000000E+03 0.  0.
        998    1    1    2    0    0 -0.19809971207E+01 -0.10952918060E+01  0.13983961113E+04  0.13984336982E+04  0.10000000000E+02 0. -1.
</event>
<event>
 5    1  0.1146201E-008  0.3855500E+03  0.7957747E-01  0.3427343E+00
         13   -1    0    0    0    0  0.00000000000E+00  0.00000000000E+00  0.14999999963E+04  0.15000000000E+04  0.10566000000E+00 0. -1.
        994   -1    0    0    0    0 -0.00000000000E+00 -0.00000000000E+00  0.11368683772E-12  0.17120000000E+03  0.17120000000E+03 0.  0.
         13    1    1    2    0    0  0.55781052961E+01  0.10017335850E+02  0.47562231373E+02  0.48924833096E+02  0.10566000000E+00 0. -1.
        994    1    1    2    0    0 -0.20412757661E+01 -0.12138307834E+02  0.18548609192E+01  0.17165193221E+03  0.17120000000E+03 0.  0.
        998    1    1    2    0    0 -0.35368295300E+01  0.21209719844E+01  0.14505829040E+04  0.14506232347E+04  0.10000000000E+02 0. -1.
</event>
<event>
 5    1  0.1146201E-008  0.3806622E+03  0.7957747E-01  0.3448280E+00
         13   -1    0    0    0    0  0.00000000000E+00  0.00000000000E+00  0.14999999963E+04  0.15000000000E+04  0.10566000000E+00 0. -1.
        994   -1    0    0    0    0 -0.00000000000E+00 -0.00000000000E+00  0.11368683772E-12  0.17120000000E+03  0.17120000000E+03 0.  0.
         13    1    1    2    0    0 -0.45142259629E+01  0.13096220706E+02  0.23123835540E+02  0.26955744600E+02  0.10566000000E+00 0. -1.
        994    1    1    2    0    0  0.36994676041E+01 -0.18190275099E+02  0.49494305485E+01  0.17227451649E+03  0.17120000000E+03 0.  0.
        998    1    1    2    0    0  0.81475835885E+00  0.50940543925E+01  0.14719267302E+04  0.14719697389E+04  0.10000000000E+02 0. -1.
</event>
<event>
 5    1  0.1146201E-008  0.3797747E+03  0.7957747E-01  0.3452140E+00
         13   -1    0    0    0    0  0.00000000000E+00  0.00000000000E+00  0.14999999963E+04  0.15000000000E+04  0.10566000000E+00 0. -1.
        994   -1    0    0    0    0 -0.00000000000E+00 -0.00000000000E+00  0.11368683772E-12  0.17120000000E+03  0.17120000000E+03 0.  0.
         13    1    1    2    0    0 -0.29335365262E+02 -0.19017385126E+02  0.17032953542E+03  0.17388037955E+03  0.10566000000E+00 0. -1.
        994    1    1    2    0    0  0.19110917962E+00 -0.10128133991E+02  0.45902897909E+01  0.17156085329E+03  0.17120000000E+03 0.  0.
        998    1    1    2    0    0  0.29144256083E+02  0.29145519116E+02  0.13250801711E+04  0.13257587672E+04  0.10000000000E+02 0. -1.
</event>
<event>
 5    1  0.1146201E-008  0.3774582E+03  0.7957747E-01  0.3462301E+00
         13   -1    0    0    0    0  0.00000000000E+00  0.00000000000E+00  0.14999999963E+04  0.15000000000E+04  0.10566000000E+00 0. -1.
        994   -1    0    0    0    0 -0.00000000000E+00 -0.00000000000E+00  0.11368683772E-12  0.17120000000E+03  0.17120000000E+03 0.  0.
         13    1    1    2    0    0  0.39544812481E+02  0.32511087902E+02  0.23269948395E+03  0.23826418955E+03  0.10566000000E+00 0. -1.
        994    1    1    2    0    0 -0.20207271465E+02 -0.28538267292E+02  0.95551028540E+01  0.17499573284E+03  0.17120000000E+03 0.  0.
        998    1    1    2    0    0 -0.19337541016E+02 -0.39728206099E+01  0.12577454095E+04  0.12579400776E+04  0.10000000000E+02 0. -1.
</event>
<event>
 5    1  0.1146201E-008  0.3785203E+03  0.7957747E-01  0.3457627E+00
         13   -1    0    0    0    0  0.00000000000E+00  0.00000000000E+00  0.14999999963E+04  0.15000000000E+04  0.10566000000E+00 0.  1.
        994   -1    0    0    0    0 -0.00000000000E+00 -0.00000000000E+00  0.11368683772E-12  0.17120000000E+03  0.17120000000E+03 0.  0.
         13    1    1    2    0    0 -0.34864153184E+02 -0.35490113913E+02  0.22659572893E+03  0.23199287251E+03  0.10566000000E+00 0.  1.
        994    1    1    2    0    0  0.49202206852E+02  0.13388199760E+02  0.13666735463E+02  0.17915446048E+03  0.17120000000E+03 0.  0.
        998    1    1    2    0    0 -0.14338053668E+02  0.22101914153E+02  0.12597375319E+04  0.12600526670E+04  0.10000000000E+02 0.  1.
</event>
<event>
 5    1  0.1146201E-008  0.3794385E+03  0.7957747E-01  0.3453607E+00
         13   -1    0    0    0    0  0.00000000000E+00  0.00000000000E+00  0.14999999963E+04  0.15000000000E+04  0.10566000000E+00 0.  1.
        994   -1    0    0    0    0 -0.00000000000E+00 -0.00000000000E+00  0.11368683772E-12  0.17120000000E+03  0.17120000000E+03 0.  0.
         13    1    1    2    0    0  0.19618401871E+02  0.77650506534E+01  0.47465959945E+02  0.51944260714E+02  0.10566000000E+00 0.  1.
        994    1    1    2    0    0 -0.21250940430E+02 -0.36627116574E+01  0.59758135692E+01  0.17265621412E+03  0.17120000000E+03 0.  0.
        998    1    1    2    0    0  0.16325385597E+01 -0.41023389959E+01  0.14465582228E+04  0.14465995252E+04  0.10000000000E+02 0.  1.
</event>
<event>
 5    1  0.1146201E-008  0.3721336E+03  0.7957747E-01  0.3486143E+00
         13   -1    0    0    0    0  0.00000000000E+00  0.00000000000E+00  0.14999999963E+04  0.15000000000E+04  0.10566000000E+00 0. -1.
        994   -1    0    0    0    0 -0.00000000000E+00 -0.00000000000E+00  0.11368683772E-12  0.17120000000E+03  0.17120000000E+03 0.  0.
         13    1    1    2    0    0 -0.10554593589E+02 -0.29349499688E+02  0.36360892343E+02  0.47905304860E+02  0.10566000000E+00 0. -1.
        994    1    1    2    0    0 -0.12632030286E+02  0.17403587488E+02  0.13701998821E+02  0.17308852596E+03  0.17120000000E+03 0.  0.
        998    1    1    2    0    0  0.23186623874E+02  0.11945912199E+02  0.14499371051E+04  0.14502061692E+04  0.10000000000E+02 0. -1.
</event>
<event>
 5    1  0.1146201E-008  0.4464359E+03  0.7957747E-01  0.3204703E+00
         13   -1    0    0    0    0  0.00000000000E+00  0.00000000000E+00  0.14999999963E+04  0.15000000000E+04  0.10566000000E+00 0. -1.
        994   -1    0    0    0    0 -0.00000000000E+00 -0.00000000000E+00  0.11368683772E-12  0.17120000000E+03  0.17120000000E+03 0.  0.
         13    1    1    2    0    0 -0.26275829525E+02 -0.48433520366E+02  0.34438152009E+01  0.55209565652E+02  0.10566000000E+00 0. -1.
        994    1    1    2    0    0  0.18725179384E+02  0.71554140385E+02  0.86308373667E+02  0.20549745184E+03  0.17120000000E+03 0.  0.
        998    1    1    2    0    0  0.75506501412E+01 -0.23120620019E+02  0.14102478074E+04  0.14104929825E+04  0.10000000000E+02 0. -1.
</event>
<event>
 5    1  0.1146201E-008  0.3787295E+03  0.7957747E-01  0.3456709E+00
         13   -1    0    0    0    0  0.00000000000E+00  0.00000000000E+00  0.14999999963E+04  0.15000000000E+04  0.10566000000E+00 0. -1.
        994   -1    0    0    0    0 -0.00000000000E+00 -0.00000000000E+00  0.11368683772E-12  0.17120000000E+03  0.17120000000E+03 0.  0.
         13    1    1    2    0    0  0.15040313580E+02 -0.14315375153E+02  0.47900612998E+02  0.52207479234E+02  0.10566000000E+00 0. -1.
        994    1    1    2    0    0  0.37186997654E+02  0.17343937937E+02  0.10448874615E+02  0.17635845304E+03  0.17120000000E+03 0.  0.
        998    1    1    2    0    0 -0.52227311234E+02 -0.30285627838E+01  0.14416505087E+04  0.14426340677E+04  0.10000000000E+02 0. -1.
</event>
<event>
 5    1  0.1146201E-008  0.3834758E+03  0.7957747E-01  0.3436162E+00
         13   -1    0    0    0    0  0.00000000000E+00  0.00000000000E+00  0.14999999963E+04  0.15000000000E+04  0.10566000000E+00 0. -1.
        994   -1    0    0    0    0 -0.00000000000E+00 -0.00000000000E+00  0.11368683772E-12  0.17120000000E+03  0.17120000000E+03 0.  0.
         13    1    1    2    0    0  0.76839244624E+01 -0.17542071469E+02  0.76943081259E+02  0.79290704904E+02  0.10566000000E+00 0. -1.
        994    1    1    2    0    0 -0.14122489002E+02  0.53830899261E+01  0.31440698950E+01  0.17189458260E+03  0.17120000000E+03 0.  0.
        998    1    1    2    0    0  0.64385645400E+01  0.12158981543E+02  0.14199128451E+04  0.14200147125E+04  0.10000000000E+02 0. -1.
</event>
<event>
 5    1  0.1146201E-008  0.3860543E+03  0.7957747E-01  0.3425213E+00
         13   -1    0    0    0    0  0.00000000000E+00  0.00000000000E+00  0.14999999963E+04  0.15000000000E+04  0.10566000000E+00 0.  1.
        994   -1    0    0    0    0 -0.00000000000E+00 -0.00000000000E+00  0.11368683772E-12  0.17120000000E+03  0.17120000000E+03 0.  0.
         13    1    1    2    0    0 -0.44017240059E+01 -0.98999749252E+01  0.53304110918E+02  0.54394154856E+02  0.10566000000E+00 0.  1.
        994    1    1    2    0    0  0.41998408072E+01  0.71719226235E+01  0.13340325605E+01  0.17140681077E+03  0.17120000000E+03 0.  0.
        998    1    1    2    0    0  0.20188319869E+00  0.27280523017E+01  0.14453618528E+04  0.14453990344E+04  0.10000000000E+02 0.  1.
</event>
<event>
 5    1  0.1146201E-008  0.3786487E+03  0.7957747E-01  0.3457064E+00
         13   -1    0    0    0    0  0.00000000000E+00  0.00000000000E+00  0.14999999963E+04  0.15000000000E+04  0.10566000000E+00 0.  1.
        994   -1    0    0    0    0 -0.00000000000E+00 -0.00000000000E+00  0.11368683772E-12  0.17120000000E+03  0.17120000000E+03 0.  0.
         13    1    1    2    0    0  0.15138458822E+02  0.77897849770E+01  0.30204944677E+02  0.34672806815E+02  0.10566000000E+00 0.  1.
        994    1    1    2    0    0  0.10624108644E+02  0.72902189767E+01  0.53745047496E+01  0.17176828659E+03  0.17120000000E+03 0.  0.
        998    1    1    2    0    0 -0.25762567466E+02 -0.15080003954E+02  0.14644205469E+04  0.14647589066E+04  0.10000000000E+02 0.  1.
</event>
<event>
 5    1  0.1146201E-008  0.3829617E+03  0.7957747E-01  0.3438363E+00
         13   -1    0    0    0    0  0.00000000000E+00  0.00000000000E+00  0.14999999963E+04  0.15000000000E+04  0.10566000000E+00 0.  1.
        994   -1    0    0    0    0 -0.00000000000E+00 -0.00000000000E+00  0.11368683772E-12  0.17120000000E+03  0.17120000000E+03 0.  0.
         13    1    1    2    0    0 -0.11854862587E+01  0.23156509395E+02  0.97742595640E+02  0.10045524113E+03  0.10566000000E+00 0.  1.
        994    1    1    2    0    0 -0.30858882417E+01 -0.19647583600E+02  0.39560792709E+01  0.17239675406E+03  0.17120000000E+03 0.  0.
        998    1    1    2    0    0  0.42713745004E+01 -0.35089257950E+01  0.13983013214E+04  0.13983480048E+04  0.10000000000E+02 0.  1.
</event>
<event>
 5    1  0.1146201E-008  0.3721935E+03  0.7957747E-01  0.3485870E+00
         13   -1    0    0    0    0  0.00000000000E+00  0.00000000000E+00  0.14999999963E+04  0.15000000000E+04  0.10566000000E+00 0.  1.
        994   -1    0    0    0    0 -0.00000000000E+00 -0.00000000000E+00  0.11368683772E-12  0.17120000000E+03  0.17120000000E+03 0.  0.
         13    1    1    2    0    0 -0.14749760768E+02  0.41872839611E+02  0.12854802006E+03  0.13599814251E+03  0.10566000000E+00 0.  1.
        994    1    1    2    0    0  0.13095945632E+02 -0.44518737004E+01  0.87838435636E+01  0.17198232141E+03  0.17120000000E+03 0.  0.
        998    1    1    2    0    0  0.16538151360E+01 -0.37420965911E+02  0.13626681327E+04  0.13632195361E+04  0.10000000000E+02 0.  1.
</event>
<event>
 5    1  0.1146201E-008  0.3773480E+03  0.7957747E-01  0.3462788E+00
         13   -1    0    0    0    0  0.00000000000E+00  0.00000000000E+00  0.14999999963E+04  0.15000000000E+04  0.10566000000E+00 0.  1.
        994   -1    0    0    0    0 -0.00000000000E+00 -0.00000000000E+00  0.11368683772E-12  0.17120000000E+03  0.17120000000E+03 0.  0.
         13    1    1    2    0    0 -0.57735791027E+02  0.29236631540E+02  0.33492323559E+03  0.34111843558E+03  0.10566000000E+00 0.  1.
        994    1    1    2    0    0  0.48325007968E+02 -0.18786821439E+02  0.14598273342E+02  0.17947367673E+03  0.17120000000E+03 0.  0.
        998    1    1    2    0    0  0.94107830591E+01 -0.10449810101E+02  0.11504784873E+04  0.11506078877E+04  0.10000000000E+02 0.  0.
</event>
<event>
 5    1  0.1146201E-008  0.3807972E+03  0.7957747E-01  0.3447695E+00
         13   -1    0    0    0    0  0.00000000000E+00  0.00000000000E+00  0.14999999963E+04  0.15000000000E+04  0.10566000000E+00 0.  1.
        994   -1    0    0    0    0 -0.00000000000E+00 -0.00000000000E+00  0.11368683772E-12  0.17120000000E+03  0.17120000000E+03 0.  0.
         13    1    1    2    0    0  0.82283976347E+02 -0.13970627604E+03  0.87617396317E+03  0.89104956160E+03  0.10566000000E+00 0.  1.
        994    1    1    2    0    0 -0.96218852785E+02  0.14864996017E+03  0.11651419032E+03  0.27246995217E+03  0.17120000000E+03 0.  0.
        998    1    1    2    0    0  0.13934876438E+02 -0.89436841267E+01  0.50731184279E+03  0.50768048623E+03  0.10000000000E+02 0.  1.
</event>
<event>
 5    1  0.1146201E-008  0.3705433E+03  0.7957747E-01  0.3493398E+00
         13   -1    0    0    0    0  0.00000000000E+00  0.00000000000E+00  0.14999999963E+04  0.15000000000E+04  0.10566000000E+00 0.  1.
        994   -1    0    0    0    0 -0.00000000000E+00 -0.00000000000E+00  0.11368683772E-12  0.17120000000E+03  0.17120000000E+03 0.  0.
         13    1    1    2    0    0 -0.34532176857E+02  0.35148807801E+02  0.95176955621E+02  0.10717543550E+03  0.10566000000E+00 0.  1.
        994    1    1    2    0    0  0.43212516308E+02 -0.38334488221E+02  0.23007393585E+02  0.18214179837E+03  0.17120000000E+03 0.  0.
        998    1    1    2    0    0 -0.86803394514E+01  0.31856804203E+01  0.13818156471E+04  0.13818827661E+04  0.10000000000E+02 0.  1.
</event>
<event>
 5    1  0.1146201E-008  0.3753707E+03  0.7957747E-01  0.3471567E+00
         13   -1    0    0    0    0  0.00000000000E+00  0.00000000000E+00  0.14999999963E+04  0.15000000000E+04  0.10566000000E+00 0. -1.
        994   -1    0    0    0    0 -0.00000000000E+00 -0.00000000000E+00  0.11368683772E-12  0.17120000000E+03  0.17120000000E+03 0.  0.
         13    1    1    2    0    0 -0.11147593560E+02 -0.59829114488E+01 -0.59329479002E+00  0.12665987302E+02  0.10566000000E+00 0. -1.
        994    1    1    2    0    0  0.10267010196E+02  0.36894468191E+01  0.14231520151E+02  0.17213657276E+03  0.17120000000E+03 0.  0.
        998    1    1    2    0    0  0.88058336379E+00  0.22934646296E+01  0.14863617709E+04  0.14863974399E+04  0.10000000000E+02 0. -1.
</event>
<event>
 5    1  0.1146201E-008  0.3764762E+03  0.7957747E-01  0.3466647E+00
         13   -1    0    0    0    0  0.00000000000E+00  0.00000000000E+00  0.14999999963E+04  0.15000000000E+04  0.10566000000E+00 0.  1.
        994   -1    0    0    0    0 -0.00000000000E+00 -0.00000000000E+00  0.11368683772E-12  0.17120000000E+03  0.17120000000E+03 0.  0.
         13    1    1    2    0    0 -0.11293084011E+02  0.16316066538E+02  0.31459116399E+02  0.37194555279E+02  0.10566000000E+00 0.  1.
        994    1    1    2    0    0 -0.44678639306E+01 -0.10569924217E+02  0.63681566693E+01  0.17170229621E+03  0.17120000000E+03 0.  0.
        998    1    1    2    0    0  0.15760947942E+02 -0.57461423209E+01  0.14621727232E+04  0.14623031485E+04  0.10000000000E+02 0.  1.
</event>
<event>
 5    1  0.1146201E-008  0.3829784E+03  0.7957747E-01  0.3438292E+00
         13   -1    0    0    0    0  0.00000000000E+00  0.00000000000E+00  0.14999999963E+04  0.15000000000E+04  0.10566000000E+00 0.  1.
        994   -1    0    0    0    0 -0.00000000000E+00 -0.00000000000E+00  0.11368683772E-12  0.17120000000E+03  0.17120000000E+03 0.  0.
         13    1    1    2    0    0  0.11427037661E+02 -0.10891802253E+02  0.46145629215E+02  0.48771290794E+02  0.10566000000E+00 0.  1.
        994    1    1    2    0    0 -0.29240704941E+01  0.14288159018E+02  0.33416019791E+01  0.17185257630E+03  0.17120000000E+03 0.  0.
        998    1    1    2    0    0 -0.85029671669E+01 -0.33963567643E+01  0.14505127651E+04  0.14505761329E+04  0.10000000000E+02 0.  1.
</event>
<event>
 5    1  0.1146201E-008  0.3838605E+03  0.7957747E-01  0.3434519E+00
         13   -1    0    0    0    0  0.00000000000E+00  0.00000000000E+00  0.14999999963E+04  0.15000000000E+04  0.10566000000E+00 0.  1.
        994   -1    0    0    0    0 -0.00000000000E+00 -0.00000000000E+00  0.11368683772E-12  0.17120000000E+03  0.17120000000E+03 0.  0.
         13    1    1    2    0    0  0.43615057074E+01 -0.11734275220E+02  0.34401728109E+02  0.36608824181E+02  0.10566000000E+00 0.  1.
        994    1    1    2    0    0 -0.11039017002E+02  0.99568586842E+01  0.29267480017E+01  0.17186915018E+03  0.17120000000E+03 0.  0.
        998    1    1    2    0    0  0.66775112945E+01  0.17774165363E+01  0.14626715202E+04  0.14627220256E+04  0.10000000000E+02 0.  1.
</event>
<event>
 5    1  0.1146201E-008  0.3829895E+03  0.7957747E-01  0.3438244E+00
         13   -1    0    0    0    0  0.00000000000E+00  0.00000000000E+00  0.14999999963E+04  0.15000000000E+04  0.10566000000E+00 0. -1.
        994   -1    0    0    0    0 -0.00000000000E+00 -0.00000000000E+00  0.11368683772E-12  0.17120000000E+03  0.17120000000E+03 0.  0.
         13    1    1    2    0    0  0.13693849145E+02  0.14910846839E+02  0.11541769157E+03  0.11717981715E+03  0.10566000000E+00 0. -1.
        994    1    1    2    0    0  0.39911697794E+02  0.20397072441E+02  0.93104489156E+01  0.17721486575E+03  0.17120000000E+03 0.  0.
        998    1    1    2    0    0 -0.53605546939E+02 -0.35307919280E+02  0.13752718558E+04  0.13768053171E+04  0.10000000000E+02 0. -1.
</event>
<event>
 5    1  0.1146201E-008  0.3795661E+03  0.7957747E-01  0.3453050E+00
         13   -1    0    0    0    0  0.00000000000E+00  0.00000000000E+00  0.14999999963E+04  0.15000000000E+04  0.10566000000E+00 0.  1.
        994   -1    0    0    0    0 -0.00000000000E+00 -0.00000000000E+00  0.11368683772E-12  0.17120000000E+03  0.17120000000E+03 0.  0.
         13    1    1    2    0    0  0.96144094200E+01  0.36166134000E+02  0.17254290053E+03  0.17655449528E+03  0.10566000000E+00 0.  1.
        994    1    1    2    0    0 -0.85112333082E+01 -0.82194022705E+01  0.48211635213E+01  0.17167609992E+03  0.17120000000E+03 0.  0.
        998    1    1    2    0    0 -0.11031761118E+01 -0.27946731729E+02  0.13226359322E+04  0.13229694048E+04  0.10000000000E+02 0.  1.
</event>
<event>
 5    1  0.1146201E-008  0.3725417E+03  0.7957747E-01  0.3484291E+00
         13   -1    0    0    0    0  0.00000000000E+00  0.00000000000E+00  0.14999999963E+04  0.15000000000E+04  0.10566000000E+00 0. -1.
        994   -1    0    0    0    0 -0.00000000000E+00 -0.00000000000E+00  0.11368683772E-12  0.17120000000E+03  0.17120000000E+03 0.  0.
         13    1    1    2    0    0  0.39300925112E+02 -0.42267517655E+02  0.18526933002E+03  0.19405113133E+03  0.10566000000E+00 0. -1.
        994    1    1    2    0    0 -0.36174884059E+02  0.41183524044E+02  0.18316720502E+02  0.18069213358E+03  0.17120000000E+03 0.  0.
        998    1    1    2    0    0 -0.31260410531E+01  0.10839936113E+01  0.12964139458E+04  0.12964567351E+04  0.10000000000E+02 0. -1.
</event>
<event>
 5    1  0.1146201E-008  0.3833430E+03  0.7957747E-01  0.3436730E+00
         13   -1    0    0    0    0  0.00000000000E+00  0.00000000000E+00  0.14999999963E+04  0.15000000000E+04  0.10566000000E+00 0.  1.
        994   -1    0    0    0    0 -0.00000000000E+00 -0.00000000000E+00  0.11368683772E-12  0.17120000000E+03  0.17120000000E+03 0.  0.
         13    1    1    2    0    0 -0.20901226376E+02  0.15307387272E+02  0.12538811051E+03  0.12803658380E+03  0.10566000000E+00 0.  1.
        994    1    1    2    0    0  0.19754292129E+02 -0.18816879160E+02  0.49199142020E+01  0.17342996441E+03  0.17120000000E+03 0.  0.
        998    1    1    2    0    0  0.11469342470E+01  0.35094918880E+01  0.13696919716E+04  0.13697334518E+04  0.10000000000E+02 0.  1.
</event>
<event>
 5    1  0.1146201E-008  0.3816524E+03  0.7957747E-01  0.3443995E+00
         13   -1    0    0    0    0  0.00000000000E+00  0.00000000000E+00  0.14999999963E+04  0.15000000000E+04  0.10566000000E+00 0.  1.
        994   -1    0    0    0    0 -0.00000000000E+00 -0.00000000000E+00  0.11368683772E-12  0.17120000000E+03  0.17120000000E+03 0.  0.
         13    1    1    2    0    0 -0.98649327176E+01  0.33501002953E+02  0.20580739653E+03  0.20874944246E+03  0.10566000000E+00 0.  1.
        994    1    1    2    0    0 -0.52269455087E+01 -0.88061167807E+01  0.36500890735E+01  0.17154483904E+03  0.17120000000E+03 0.  0.
        998    1    1    2    0    0  0.15091878226E+02 -0.24694886172E+02  0.12905425107E+04  0.12909057185E+04  0.10000000000E+02 0.  1.
</event>
<event>
 5    1  0.1146201E-008  0.3823423E+03  0.7957747E-01  0.3441023E+00
         13   -1    0    0    0    0  0.00000000000E+00  0.00000000000E+00  0.14999999963E+04  0.15000000000E+04  0.10566000000E+00 0.  1.
        994   -1    0    0    0    0 -0.00000000000E+00 -0.00000000000E+00  0.11368683772E-12  0.17120000000E+03  0.17120000000E+03 0.  0.
         13    1    1    2    0    0  0.24882135327E+02  0.56363767014E+01  0.12207119171E+03  0.12470876637E+03  0.10566000000E+00 0.  1.
        994    1    1    2    0    0 -0.15267451558E+01  0.10748217464E+02  0.33464655595E+01  0.17157649595E+03  0.17120000000E+03 0.  0.
        998    1    1    2    0    0 -0.23355390171E+02 -0.16384594166E+02  0.13745823390E+04  0.13749147377E+04  0.10000000000E+02 0.  1.
</event>
<event>
 5    1  0.1146201E-008  0.3853747E+03  0.7957747E-01  0.3428084E+00
         13   -1    0    0    0    0  0.00000000000E+00  0.00000000000E+00  0.14999999963E+04  0.15000000000E+04  0.10566000000E+00 0. -1.
        994   -1    0    0    0    0 -0.00000000000E+00 -0.00000000000E+00  0.11368683772E-12  0.17120000000E+03  0.17120000000E+03 0.  0.
         13    1    1    2    0    0 -0.78080358722E+01  0.87340492609E+01  0.46421810796E+02  0.47877392601E+02  0.10566000000E+00 0. -1.
        994    1    1    2    0    0  0.22773876391E+01 -0.14738523462E+02  0.21750845015E+01  0.17186210042E+03  0.17120000000E+03 0.  0.
        998    1    1    2    0    0  0.55306482332E+01  0.60044742015E+01  0.14514031010E+04  0.14514605070E+04  0.10000000000E+02 0. -1.
</event>
<event>
 5    1  0.1146201E-008  0.3852400E+03  0.7957747E-01  0.3428655E+00
         13   -1    0    0    0    0  0.00000000000E+00  0.00000000000E+00  0.14999999963E+04  0.15000000000E+04  0.10566000000E+00 0.  1.
        994   -1    0    0    0    0 -0.00000000000E+00 -0.00000000000E+00  0.11368683772E-12  0.17120000000E+03  0.17120000000E+03 0.  0.
         13    1    1    2    0    0 -0.45308770378E+01  0.12779712969E+02  0.61579490366E+02  0.63054696161E+02  0.10566000000E+00 0.  1.
        994    1    1    2    0    0  0.81531255826E+01 -0.50554389710E+01  0.18134983253E+01  0.17147816099E+03  0.17120000000E+03 0.  0.
        998    1    1    2    0    0 -0.36222485447E+01 -0.77242739978E+01  0.14366070076E+04  0.14366671428E+04  0.10000000000E+02 0.  1.
</event>
<event>
 5    1  0.1146201E-008  0.3711180E+03  0.7957747E-01  0.3490768E+00
         13   -1    0    0    0    0  0.00000000000E+00  0.00000000000E+00  0.14999999963E+04  0.15000000000E+04  0.10566000000E+00 0.  1.
        994   -1    0    0    0    0 -0.00000000000E+00 -0.00000000000E+00  0.11368683772E-12  0.17120000000E+03  0.17120000000E+03 0.  0.
         13    1    1    2    0    0  0.27760771139E+02 -0.99717943769E+01  0.32429914585E+02  0.43838426310E+02  0.10566000000E+00 0.  1.
        994    1    1    2    0    0 -0.28092429761E+02  0.71006836337E+01  0.14483615736E+02  0.17423782437E+03  0.17120000000E+03 0.  0.
        998    1    1    2    0    0  0.33165862208E+00  0.28711107432E+01  0.14530864660E+04  0.14531237493E+04  0.10000000000E+02 0.  1.
</event>
<event>
 5    1  0.1146201E-008  0.3795443E+03  0.7957747E-01  0.3453145E+00
         13   -1    0    0    0    0  0.00000000000E+00  0.00000000000E+00  0.14999999963E+04  0.15000000000E+04  0.10566000000E+00 0. -1.
        994   -1    0    0    0    0 -0.00000000000E+00 -0.00000000000E+00  0.11368683772E-12  0.17120000000E+03  0.17120000000E+03 0.  0.
         13    1    1    2    0    0  0.21526692555E+02 -0.20216588419E+02  0.94980551129E+02  0.99465698592E+02  0.10566000000E+00 0. -1.
        994    1    1    2    0    0 -0.17232343790E+02  0.18587954180E+02  0.65172961503E+01  0.17318885894E+03  0.17120000000E+03 0.  0.
        998    1    1    2    0    0 -0.42943487652E+01  0.16286342385E+01  0.13985021490E+04  0.13985454425E+04  0.10000000000E+02 0. -1.
</event>
<event>
 5    1  0.1146201E-008  0.4127829E+03  0.7957747E-01  0.3319761E+00
         13   -1    0    0    0    0  0.00000000000E+00  0.00000000000E+00  0.14999999963E+04  0.15000000000E+04  0.10566000000E+00 0. -1.
        994   -1    0    0    0    0 -0.00000000000E+00 -0.00000000000E+00  0.11368683772E-12  0.17120000000E+03  0.17120000000E+03 0.  0.
         13    1    1    2    0    0 -0.31240663878E+02 -0.38897941647E+02  0.21423317040E+02  0.54295475142E+02  0.10566000000E+00 0. -1.
        994    1    1    2    0    0  0.30719949928E+02  0.35155487471E+02  0.44709207624E+02  0.18299720454E+03  0.17120000000E+03 0.  0.
        998    1    1    2    0    0  0.52071394951E+00  0.37424541762E+01  0.14338674716E+04  0.14339073203E+04  0.10000000000E+02 0. -1.
</event>
<event>
 5    1  0.1146201E-008  0.3706128E+03  0.7957747E-01  0.3493079E+00
         13   -1    0    0    0    0  0.00000000000E+00  0.00000000000E+00  0.14999999963E+04  0.15000000000E+04  0.10566000000E+00 0. -1.
        994   -1    0    0    0    0 -0.00000000000E+00 -0.00000000000E+00  0.11368683772E-12  0.17120000000E+03  0.17120000000E+03 0.  0.
         13    1    1    2    0    0 -0.85540172078E+01  0.33489139143E+02  0.62169697935E+02  0.71132103556E+02  0.10566000000E+00 0. -1.
        994    1    1    2    0    0  0.13407178800E+02 -0.26292334969E+02  0.11960417894E+02  0.17413652953E+03  0.17120000000E+03 0.  0.
        998    1    1    2    0    0 -0.48531615918E+01 -0.71968041743E+01  0.14258698804E+04  0.14259313669E+04  0.10000000000E+02 0. -1.
</event>
<event>
 5    1  0.1146201E-008  0.3839477E+03  0.7957747E-01  0.3434147E+00
         13   -1    0    0    0    0  0.00000000000E+00  0.00000000000E+00  0.14999999963E+04  0.15000000000E+04  0.10566000000E+00 0.  1.
        994   -1    0    0    0    0 -0.00000000000E+00 -0.00000000000E+00  0.11368683772E-12  0.17120000000E+03  0.17120000000E+03 0.  0.
         13    1    1    2    0    0  0.68447193533E+01 -0.10326373095E+02  0.35890626732E+02  0.37968834793E+02  0.10566000000E+00 0.  1.
        994    1    1    2    0    0 -0.70744797829E+01 -0.11280300079E+01  0.23228664245E+01  0.17136556371E+03  0.17120000000E+03 0.  0.
        998    1    1    2    0    0  0.22976042958E+00  0.11454403103E+02  0.14617865031E+04  0.14618656015E+04  0.10000000000E+02 0.  1.
</event>
<event>
 5    1  0.1146201E-008  0.3827273E+03  0.7957747E-01  0.3439368E+00
         13   -1    0    0    0    0  0.00000000000E+00  0.00000000000E+00  0.14999999963E+04  0.15000000000E+04  0.10566000000E+00 0. -1.
        994   -1    0    0    0    0 -0.00000000000E+00 -0.00000000000E+00  0.11368683772E-12  0.17120000000E+03  0.17120000000E+03 0.  0.
         13    1    1    2    0    0 -0.18474003265E+02 -0.93732726787E+01  0.77873355242E+02  0.80581745191E+02  0.10566000000E+00 0. -1.
        994    1    1    2    0    0  0.68261495770E+01  0.10219246621E+02  0.32632266661E+01  0.17167154094E+03  0.17120000000E+03 0.  0.
        998    1    1    2    0    0  0.11647853688E+02 -0.84597394220E+00  0.14188634144E+04  0.14189467139E+04  0.10000000000E+02 0. -1.
</event>
<event>
 5    1  0.1146201E-008  0.3779054E+03  0.7957747E-01  0.3460330E+00
         13   -1    0    0    0    0  0.00000000000E+00  0.00000000000E+00  0.14999999963E+04  0.15000000000E+04  0.10566000000E+00 0. -1.
        994   -1    0    0    0    0 -0.00000000000E+00 -0.00000000000E+00  0.11368683772E-12  0.17120000000E+03  0.17120000000E+03 0.  0.
         13    1    1    2    0    0 -0.86381429495E+02  0.19168188927E+02  0.48601560724E+03  0.49400440532E+03  0.10566000000E+00 0. -1.
        994    1    1    2    0    0  0.86750275079E+02 -0.32267375079E+02  0.34596869347E+02  0.19766936305E+03  0.17120000000E+03 0.  0.
        998    1    1    2    0    0 -0.36884558382E+00  0.13099186152E+02  0.97938751969E+03  0.97952623163E+03  0.10000000000E+02 0. -1.
</event>
<event>
 5    1  0.1146201E-008  0.3769799E+03  0.7957747E-01  0.3464415E+00
         13   -1    0    0    0    0  0.00000000000E+00  0.00000000000E+00  0.14999999963E+04  0.15000000000E+04  0.10566000000E+00 0.  1.
        994   -1    0    0    0    0 -0.00000000000E+00 -0.00000000000E+00  0.11368683772E-12  0.17120000000E+03  0.17120000000E+03 0.  0.
         13    1    1    2    0    0 -0.30392190944E+02 -0.39243709131E+02  0.16668027359E+03  0.17391399813E+03  0.10566000000E+00 0.  1.
        994    1    1    2    0    0  0.42621636320E+02  0.60944322370E+02  0.24575238368E+02  0.18826629187E+03  0.17120000000E+03 0.  0.
        998    1    1    2    0    0 -0.12229445377E+02 -0.21700613239E+02  0.13087444843E+04  0.13090197100E+04  0.10000000000E+02 0.  1.
</event>
<event>
 5    1  0.1146201E-008  0.3758919E+03  0.7957747E-01  0.3469244E+00
         13   -1    0    0    0    0  0.00000000000E+00  0.00000000000E+00  0.14999999963E+04  0.15000000000E+04  0.10566000000E+00 0.  1.
        994   -1    0    0    0    0 -0.00000000000E+00 -0.00000000000E+00  0.11368683772E-12  0.17120000000E+03  0.17120000000E+03 0.  0.
         13    1    1    2    0    0 -0.41303530094E+02 -0.33782986352E+02  0.25948139048E+03  0.26491106986E+03  0.10566000000E+00 0.  1.
        994    1    1    2    0    0  0.13444227241E+02  0.27876996601E+01  0.68605902809E+01  0.17188666677E+03  0.17120000000E+03 0.  0.
        998    1    1    2    0    0  0.27859302853E+02  0.30995286692E+02  0.12336580155E+04  0.12344022634E+04  0.10000000000E+02 0.  1.
</event>
<event>
 5    1  0.1146201E-008  0.3685033E+03  0.7957747E-01  0.3502798E+00
         13   -1    0    0    0    0  0.00000000000E+00  0.00000000000E+00  0.14999999963E+04  0.15000000000E+04  0.10566000000E+00 0. -1.
        994   -1    0    0    0    0 -0.00000000000E+00 -0.00000000000E+00  0.11368683772E-12  0.17120000000E+03  0.17120000000E+03 0.  0.
         13    1    1    2    0    0 -0.89894274959E+02 -0.68782439398E+02  0.62048935972E+03  0.63072899199E+03  0.10566000000E+00 0. -1.
        994    1    1    2    0    0  0.48868115402E+02  0.49526137080E+02  0.27072841181E+02  0.18677074098E+03  0.17120000000E+03 0.  0.
        998    1    1    2    0    0  0.41026159557E+02  0.19256302318E+02  0.85243779537E+03  0.85370026703E+03  0.10000000000E+02 0. -1.
</event>
<event>
 5    1  0.1146201E-008  0.3724071E+03  0.7957747E-01  0.3484901E+00
         13   -1    0    0    0    0  0.00000000000E+00  0.00000000000E+00  0.14999999963E+04  0.15000000000E+04  0.10566000000E+00 0.  1.
        994   -1    0    0    0    0 -0.00000000000E+00 -0.00000000000E+00  0.11368683772E-12  0.17120000000E+03  0.17120000000E+03 0.  0.
         13    1    1    2    0    0  0.56648712730E+02  0.20449858752E+02  0.18385934694E+03  0.19347233394E+03  0.10566000000E+00 0.  1.
        994    1    1    2    0    0  0.21985440948E+02 -0.14861473076E+02  0.14704127066E+02  0.17386740450E+03  0.17120000000E+03 0.  0.
        998    1    1    2    0    0 -0.78634153678E+02 -0.55883856760E+01  0.13014365223E+04  0.13038602616E+04  0.10000000000E+02 0.  1.
</event>
<event>
 5    1  0.1146201E-008  0.3844278E+03  0.7957747E-01  0.3432103E+00
         13   -1    0    0    0    0  0.00000000000E+00  0.00000000000E+00  0.14999999963E+04  0.15000000000E+04  0.10566000000E+00 0. -1.
        994   -1    0    0    0    0 -0.00000000000E+00 -0.00000000000E+00  0.11368683772E-12  0.17120000000E+03  0.17120000000E+03 0.  0.
         13    1    1    2    0    0  0.11393070026E+02  0.96060077267E+01  0.56598353064E+02  0.58527447942E+02  0.10566000000E+00 0. -1.
        994    1    1    2    0    0 -0.11410873756E+02 -0.72798570118E+01  0.25183593104E+01  0.17175268991E+03  0.17120000000E+03 0.  0.
        998    1    1    2    0    0  0.17803729385E-01 -0.23261507149E+01  0.14408832839E+04  0.14409198621E+04  0.10000000000E+02 0. -1.
</event>
<event>
 5    1  0.2960273E-008  0.3863352E+03  0.7957747E-01  0.3424029E+00
         13   -1    0    0    0    0  0.00000000000E+00  0.00000000000E+00  0.14999999963E+04  0.15000000000E+04  0.10566000000E+00 0. -1.
        994   -1    0    0    0    0 -0.00000000000E+00 -0.00000000000E+00  0.11368683772E-12  0.17120000000E+03  0.17120000000E+03 0.  0.
         13    1    1    2    0    0  0.93097593842E+01 -0.38371817274E+01  0.53187125162E+02  0.54132033311E+02  0.10566000000E+00 0. -1.
        994    1    1    2    0    0 -0.60574503113E+01  0.38217593309E+01  0.11366733550E+01  0.17135352513E+03  0.17120000000E+03 0.  0.
        998    1    1    2    0    0 -0.32523090729E+01  0.15422396468E-01  0.14456761978E+04  0.14457144416E+04  0.10000000000E+02 0. -1.
</event>
<event>
 5    1  0.1146201E-008  0.3847110E+03  0.7957747E-01  0.3430899E+00
         13   -1    0    0    0    0  0.00000000000E+00  0.00000000000E+00  0.14999999963E+04  0.15000000000E+04  0.10566000000E+00 0. -1.
        994   -1    0    0    0    0 -0.00000000000E+00 -0.00000000000E+00  0.11368683772E-12  0.17120000000E+03  0.17120000000E+03 0.  0.
         13    1    1    2    0    0  0.12986103839E+02  0.39925718570E+01  0.50714166653E+02  0.52502546474E+02  0.10566000000E+00 0. -1.
        994    1    1    2    0    0 -0.12084953701E+02 -0.55041562420E+01  0.23543862774E+01  0.17173038455E+03  0.17120000000E+03 0.  0.
        998    1    1    2    0    0 -0.90115013738E+00  0.15115843850E+01  0.14469314433E+04  0.14469670690E+04  0.10000000000E+02 0. -1.
</event>
<event>
 5    1  0.1146201E-008  0.3795902E+03  0.7957747E-01  0.3452945E+00
         13   -1    0    0    0    0  0.00000000000E+00  0.00000000000E+00  0.14999999963E+04  0.15000000000E+04  0.10566000000E+00 0. -1.
        994   -1    0    0    0    0 -0.00000000000E+00 -0.00000000000E+00  0.11368683772E-12  0.17120000000E+03  0.17120000000E+03 0.  0.
         13    1    1    2    0    0  0.16375959472E+02  0.18620144204E+02  0.67290734880E+02  0.71714266248E+02  0.10566000000E+00 0. -1.
        994    1    1    2    0    0 -0.15216545140E+02 -0.16695320595E+02  0.60501623536E+01  0.17278981868E+03  0.17120000000E+03 0.  0.
        998    1    1    2    0    0 -0.11594143315E+01 -0.19248236096E+01  0.14266590990E+04  0.14266959151E+04  0.10000000000E+02 0. -1.
</event>
<event>
 5    1  0.1146201E-008  0.3843283E+03  0.7957747E-01  0.3432526E+00
         13   -1    0    0    0    0  0.00000000000E+00  0.00000000000E+00  0.14999999963E+04  0.15000000000E+04  0.10566000000E+00 0.  1.
        994   -1    0    0    0    0 -0.00000000000E+00 -0.00000000000E+00  0.11368683772E-12  0.17120000000E+03  0.17120000000E+03 0.  0.
         13    1    1    2    0    0 -0.12341827945E+02  0.14370511693E+02  0.10739472611E+03  0.10905260512E+03  0.10566000000E+00 0.  1.
        994    1    1    2    0    0  0.11599239974E+02  0.21251338869E+02  0.38982460468E+01  0.17294738533E+03  0.17120000000E+03 0.  0.
        998    1    1    2    0    0  0.74258797088E+00 -0.35621850562E+02  0.13887070241E+04  0.13892000095E+04  0.10000000000E+02 0.  1.
</event>
<event>
 5    1  0.1146201E-008  0.3830701E+03  0.7957747E-01  0.3437899E+00
         13   -1    0    0    0    0  0.00000000000E+00  0.00000000000E+00  0.14999999963E+04  0.15000000000E+04  0.10566000000E+00 0. -1.
        994   -1    0    0    0    0 -0.00000000000E+00 -0.00000000000E+00  0.11368683772E-12  0.17120000000E+03  0.17120000000E+03 0.  0.
         13    1    1    2    0    0  0.15401221832E+03 -0.94960601722E+02  0.96266092917E+03  0.97951689878E+03  0.10566000000E+00 0. -1.
        994    1    1    2    0    0 -0.16917741676E+03  0.10527167900E+03  0.14748779925E+03  0.30127266001E+03  0.17120000000E+03 0.  0.
        998    1    1    2    0    0  0.15165198443E+02 -0.10311077275E+02  0.38985126785E+03  0.39041044121E+03  0.10000000000E+02 0. -1.
</event>
<event>
 5    1  0.1146201E-008  0.3826985E+03  0.7957747E-01  0.3439492E+00
         13   -1    0    0    0    0  0.00000000000E+00  0.00000000000E+00  0.14999999963E+04  0.15000000000E+04  0.10566000000E+00 0. -1.
        994   -1    0    0    0    0 -0.00000000000E+00 -0.00000000000E+00  0.11368683772E-12  0.17120000000E+03  0.17120000000E+03 0.  0.
         13    1    1    2    0    0 -0.21387856489E+02 -0.13909740035E+02  0.94983463028E+02  0.98350346648E+02  0.10566000000E+00 0. -1.
        994    1    1    2    0    0  0.50214539261E+02  0.15953985570E+02  0.12030206725E+02  0.17952770116E+03  0.17120000000E+03 0.  0.
        998    1    1    2    0    0 -0.28826682773E+02 -0.20442455348E+01  0.13929863265E+04  0.13933219522E+04  0.10000000000E+02 0. -1.
</event>
<event>
 5    1  0.1146201E-008  0.3750166E+03  0.7957747E-01  0.3473149E+00
         13   -1    0    0    0    0  0.00000000000E+00  0.00000000000E+00  0.14999999963E+04  0.15000000000E+04  0.10566000000E+00 0. -1.
        994   -1    0    0    0    0 -0.00000000000E+00 -0.00000000000E+00  0.11368683772E-12  0.17120000000E+03  0.17120000000E+03 0.  0.
         13    1    1    2    0    0 -0.84726462734E+00 -0.52443414707E+02  0.16372065780E+03  0.17191711537E+03  0.10566000000E+00 0. -1.
        994    1    1    2    0    0 -0.17758738884E+02  0.72911129588E+02  0.26058938673E+02  0.18873238702E+03  0.17120000000E+03 0.  0.
        998    1    1    2    0    0  0.18606003511E+02 -0.20467714882E+02  0.13102203998E+04  0.13105504976E+04  0.10000000000E+02 0. -1.
</event>
<event>
 5    1  0.1146201E-008  0.3853814E+03  0.7957747E-01  0.3428056E+00
         13   -1    0    0    0    0  0.00000000000E+00  0.00000000000E+00  0.14999999963E+04  0.15000000000E+04  0.10566000000E+00 0.  1.
        994   -1    0    0    0    0 -0.00000000000E+00 -0.00000000000E+00  0.11368683772E-12  0.17120000000E+03  0.17120000000E+03 0.  0.
         13    1    1    2    0    0 -0.41840530314E+01 -0.10108941181E+02  0.41146257316E+02  0.42576080688E+02  0.10566000000E+00 0.  1.
        994    1    1    2    0    0  0.10063030852E+02  0.61109644450E+01  0.18962974226E+01  0.17161481411E+03  0.17120000000E+03 0.  0.
        998    1    1    2    0    0 -0.58789778210E+01  0.39979767361E+01  0.14569574415E+04  0.14570091052E+04  0.10000000000E+02 0.  1.
</event>
<event>
 5    1  0.1146201E-008  0.3742457E+03  0.7957747E-01  0.3476603E+00
         13   -1    0    0    0    0  0.00000000000E+00  0.00000000000E+00  0.14999999963E+04  0.15000000000E+04  0.10566000000E+00 0. -1.
        994   -1    0    0    0    0 -0.00000000000E+00 -0.00000000000E+00  0.11368683772E-12  0.17120000000E+03  0.17120000000E+03 0.  0.
         13    1    1    2    0    0  0.36155768415E+02 -0.10717417474E+03  0.45357719210E+03  0.46746745735E+03  0.10566000000E+00 0. -1.
        994    1    1    2    0    0 -0.11077787247E+03  0.51811954304E+02  0.68368462860E+02  0.22122364781E+03  0.17120000000E+03 0.  0.
        998    1    1    2    0    0  0.74622104057E+02  0.55362220437E+02  0.97805434132E+03  0.98250889484E+03  0.10000000000E+02 0. -1.
</event>
<event>
 5    1  0.1146201E-008  0.3716012E+03  0.7957747E-01  0.3488564E+00
         13   -1    0    0    0    0  0.00000000000E+00  0.00000000000E+00  0.14999999963E+04  0.15000000000E+04  0.10566000000E+00 0.  1.
        994   -1    0    0    0    0 -0.00000000000E+00 -0.00000000000E+00  0.11368683772E-12  0.17120000000E+03  0.17120000000E+03 0.  0.
         13    1    1    2    0    0 -0.45610377990E+01  0.91519872978E+01  0.23810009838E+01  0.10499631757E+02  0.10566000000E+00 0.  1.
        994    1    1    2    0    0  0.97265574246E+01  0.11919847062E+02  0.92488559292E+01  0.17213851983E+03  0.17120000000E+03 0.  0.
        998    1    1    2    0    0 -0.51655196256E+01 -0.21071834360E+02  0.14883701394E+04  0.14885618484E+04  0.10000000000E+02 0.  1.
</event>
<event>
 5    1  0.1146201E-008  0.3834446E+03  0.7957747E-01  0.3436296E+00
         13   -1    0    0    0    0  0.00000000000E+00  0.00000000000E+00  0.14999999963E+04  0.15000000000E+04  0.10566000000E+00 0.  1.
        994   -1    0    0    0    0 -0.00000000000E+00 -0.00000000000E+00  0.11368683772E-12  0.17120000000E+03  0.17120000000E+03 0.  0.
         13    1    1    2    0    0  0.16126580918E+02  0.10165106555E+02  0.73157020664E+02  0.75599979100E+02  0.10566000000E+00 0.  1.
        994    1    1    2    0    0 -0.10957968965E+02 -0.13714934837E+02  0.34236363996E+01  0.17213174550E+03  0.17120000000E+03 0.  0.
        998    1    1    2    0    0 -0.51686119538E+01  0.35498282823E+01  0.14234193392E+04  0.14234682754E+04  0.10000000000E+02 0.  1.
</event>
<event>
 5    1  0.1146201E-008  0.3816237E+03  0.7957747E-01  0.3444119E+00
         13   -1    0    0    0    0  0.00000000000E+00  0.00000000000E+00  0.14999999963E+04  0.15000000000E+04  0.10566000000E+00 0.  1.
        994   -1    0    0    0    0 -0.00000000000E+00 -0.00000000000E+00  0.11368683772E-12  0.17120000000E+03  0.17120000000E+03 0.  0.
         13    1    1    2    0    0 -0.76421692868E+01 -0.50011288259E+02  0.24994963291E+03  0.25501835593E+03  0.10566000000E+00 0.  1.
        994    1    1    2    0    0  0.28605733108E+02  0.76067221543E+02  0.25596741758E+02  0.19123060254E+03  0.17120000000E+03 0.  0.
        998    1    1    2    0    0 -0.20963563821E+02 -0.26055933284E+02  0.12244536216E+04  0.12249510415E+04  0.10000000000E+02 0.  1.
</event>
<event>
 5    1  0.1146201E-008  0.3849005E+03  0.7957747E-01  0.3430094E+00
         13   -1    0    0    0    0  0.00000000000E+00  0.00000000000E+00  0.14999999963E+04  0.15000000000E+04  0.10566000000E+00 0. -1.
        994   -1    0    0    0    0 -0.00000000000E+00 -0.00000000000E+00  0.11368683772E-12  0.17120000000E+03  0.17120000000E+03 0.  0.
         13    1    1    2    0    0 -0.16567834282E+02  0.51871409197E+00  0.91214782222E+02  0.92708736680E+02  0.10566000000E+00 0. -1.
        994    1    1    2    0    0 -0.38677998649E+01 -0.13091607506E+02  0.22928237346E+01  0.17175868858E+03  0.17120000000E+03 0.  0.
        998    1    1    2    0    0  0.20435634147E+02  0.12572893414E+02  0.14064923903E+04  0.14067325747E+04  0.10000000000E+02 0. -1.
</event>
<event>
 5    1  0.1146201E-008  0.3801370E+03  0.7957747E-01  0.3450562E+00
         13   -1    0    0    0    0  0.00000000000E+00  0.00000000000E+00  0.14999999963E+04  0.15000000000E+04  0.10566000000E+00 0.  1.
        994   -1    0    0    0    0 -0.00000000000E+00 -0.00000000000E+00  0.11368683772E-12  0.17120000000E+03  0.17120000000E+03 0.  0.
         13    1    1    2    0    0  0.54288355904E+02 -0.25788776770E+02  0.34441617463E+03  0.34962093630E+03  0.10566000000E+00 0.  1.
        994    1    1    2    0    0 -0.50065749491E+02  0.34396955207E+02  0.16492911066E+02  0.18240390872E+03  0.17120000000E+03 0.  0.
        998    1    1    2    0    0 -0.42226064123E+01 -0.86081784365E+01  0.11390909106E+04  0.11391751550E+04  0.10000000000E+02 0.  1.
</event>
<event>
 5    1  0.1146201E-008  0.3855273E+03  0.7957747E-01  0.3427439E+00
         13   -1    0    0    0    0  0.00000000000E+00  0.00000000000E+00  0.14999999963E+04  0.15000000000E+04  0.10566000000E+00 0.  1.
        994   -1    0    0    0    0 -0.00000000000E+00 -0.00000000000E+00  0.11368683772E-12  0.17120000000E+03  0.17120000000E+03 0.  0.
         13    1    1    2    0    0  0.88424922932E+01  0.84467150867E+01  0.52135986313E+02  0.53550993442E+02  0.10566000000E+00 0.  1.
        994    1    1    2    0    0 -0.52002242916E+01 -0.18822815734E+02  0.26215047392E+01  0.17233006996E+03  0.17120000000E+03 0.  0.
        998    1    1    2    0    0 -0.36422680016E+01  0.10376100647E+02  0.14452425052E+04  0.14453189366E+04  0.10000000000E+02 0.  1.
</event>
<event>
 5    1  0.1146201E-008  0.3825525E+03  0.7957747E-01  0.3440119E+00
         13   -1    0    0    0    0  0.00000000000E+00  0.00000000000E+00  0.14999999963E+04  0.15000000000E+04  0.10566000000E+00 0. -1.
        994   -1    0    0    0    0 -0.00000000000E+00 -0.00000000000E+00  0.11368683772E-12  0.17120000000E+03  0.17120000000E+03 0.  0.
         13    1    1    2    0    0  0.13112599099E+02 -0.53397306998E+01  0.34361736014E+02  0.37164405619E+02  0.10566000000E+00 0. -1.
        994    1    1    2    0    0 -0.33349454049E+01  0.13551635514E+02  0.34960795655E+01  0.17180346696E+03  0.17120000000E+03 0.  0.
        998    1    1    2    0    0 -0.97776536945E+01 -0.82119048141E+01  0.14621421807E+04  0.14622321274E+04  0.10000000000E+02 0. -1.
</event>
<event>
 5    1  0.1146201E-008  0.3829222E+03  0.7957747E-01  0.3438533E+00
         13   -1    0    0    0    0  0.00000000000E+00  0.00000000000E+00  0.14999999963E+04  0.15000000000E+04  0.10566000000E+00 0. -1.
        994   -1    0    0    0    0 -0.00000000000E+00 -0.00000000000E+00  0.11368683772E-12  0.17120000000E+03  0.17120000000E+03 0.  0.
         13    1    1    2    0    0  0.28110891021E+02  0.21443946468E+02  0.20841326290E+03  0.21139102240E+03  0.10566000000E+00 0. -1.
        994    1    1    2    0    0 -0.28504297795E+02 -0.17358807716E+02  0.63618497738E+01  0.17453863850E+03  0.17120000000E+03 0.  0.
        998    1    1    2    0    0  0.39340677414E+00 -0.40851387527E+01  0.12852248836E+04  0.12852703391E+04  0.10000000000E+02 0. -1.
</event>
<event>
 5    1  0.1146201E-008  0.3760080E+03  0.7957747E-01  0.3468727E+00
         13   -1    0    0    0    0  0.00000000000E+00  0.00000000000E+00  0.14999999963E+04  0.15000000000E+04  0.10566000000E+00 0.  1.
        994   -1    0    0    0    0 -0.00000000000E+00 -0.00000000000E+00  0.11368683772E-12  0.17120000000E+03  0.17120000000E+03 0.  0.
         13    1    1    2    0    0  0.20396694594E+03 -0.79548297286E+02  0.12283812572E+04  0.12477383423E+04  0.10566000000E+00 0.  1.
        994    1    1    2    0    0 -0.20744734840E+03  0.63951761747E+02  0.17994430643E+03  0.32986910072E+03  0.17120000000E+03 0.  0.
        998    1    1    2    0    0  0.34804024607E+01  0.15596535539E+02  0.91674432676E+02  0.93592557014E+02  0.10000000000E+02 0.  0.
</event>
<event>
 5    1  0.1146201E-008  0.3760967E+03  0.7957747E-01  0.3468333E+00
         13   -1    0    0    0    0  0.00000000000E+00  0.00000000000E+00  0.14999999963E+04  0.15000000000E+04  0.10566000000E+00 0.  1.
        994   -1    0    0    0    0 -0.00000000000E+00 -0.00000000000E+00  0.11368683772E-12  0.17120000000E+03  0.17120000000E+03 0.  0.
         13    1    1    2    0    0 -0.21838526598E+02  0.78863303076E+01  0.41692544570E+02  0.47722058699E+02  0.10566000000E+00 0.  1.
        994    1    1    2    0    0  0.13817256682E+02 -0.62139554174E+01  0.68943599826E+01  0.17200727317E+03  0.17120000000E+03 0.  0.
        998    1    1    2    0    0  0.80212699156E+01 -0.16723748902E+01  0.14514130917E+04  0.14514706681E+04  0.10000000000E+02 0.  1.
</event>
<event>
 5    1  0.1146201E-008  0.3825381E+03  0.7957747E-01  0.3440181E+00
         13   -1    0    0    0    0  0.00000000000E+00  0.00000000000E+00  0.14999999963E+04  0.15000000000E+04  0.10566000000E+00 0.  1.
        994   -1    0    0    0    0 -0.00000000000E+00 -0.00000000000E+00  0.11368683772E-12  0.17120000000E+03  0.17120000000E+03 0.  0.
         13    1    1    2    0    0 -0.98780780567E+00  0.37146932590E+02  0.22139761236E+03  0.22449450837E+03  0.10566000000E+00 0.  1.
        994    1    1    2    0    0 -0.15688074826E+01 -0.30699594364E+02  0.59962278177E+01  0.17404114743E+03  0.17120000000E+03 0.  0.
        998    1    1    2    0    0  0.25566152883E+01 -0.64473382253E+01  0.12726061561E+04  0.12726643442E+04  0.10000000000E+02 0.  1.
</event>
<event>
 5    1  0.1146201E-008  0.3803003E+03  0.7957747E-01  0.3449852E+00
         13   -1    0    0    0    0  0.00000000000E+00  0.00000000000E+00  0.14999999963E+04  0.15000000000E+04  0.10566000000E+00 0.  1.
        994   -1    0    0    0    0 -0.00000000000E+00 -0.00000000000E+00  0.11368683772E-12  0.17120000000E+03  0.17120000000E+03 0.  0.
         13    1    1    2    0    0  0.21593293048E+02  0.10653336689E+01  0.59189479891E+02  0.63014370856E+02  0.10566000000E+00 0.  1.
        994    1    1    2    0    0 -0.58967072518E+01  0.19100598372E+01  0.41099750527E+01  0.17136146410E+03  0.17120000000E+03 0.  0.
        998    1    1    2    0    0 -0.15696585796E+02 -0.29753935061E+01  0.14367005413E+04  0.14368241650E+04  0.10000000000E+02 0.  1.
</event>
<event>
 5    1  0.1146201E-008  0.3772598E+03  0.7957747E-01  0.3463177E+00
         13   -1    0    0    0    0  0.00000000000E+00  0.00000000000E+00  0.14999999963E+04  0.15000000000E+04  0.10566000000E+00 0.  1.
        994   -1    0    0    0    0 -0.00000000000E+00 -0.00000000000E+00  0.11368683772E-12  0.17120000000E+03  0.17120000000E+03 0.  0.
         13    1    1    2    0    0 -0.33087000197E+02  0.91105734073E+01  0.99202043319E+02  0.10497051344E+03  0.10566000000E+00 0.  1.
        994    1    1    2    0    0  0.32906079914E+02 -0.39028383845E+01  0.92359892671E+01  0.17462183638E+03  0.17120000000E+03 0.  0.
        998    1    1    2    0    0  0.18092028374E+00 -0.52077350229E+01  0.13915619637E+04  0.13916076502E+04  0.10000000000E+02 0.  1.
</event>
<event>
 5    1  0.1146201E-008  0.3788547E+03  0.7957747E-01  0.3456160E+00
         13   -1    0    0    0    0  0.00000000000E+00  0.00000000000E+00  0.14999999963E+04  0.15000000000E+04  0.10566000000E+00 0.  1.
        994   -1    0    0    0    0 -0.00000000000E+00 -0.00000000000E+00  0.11368683772E-12  0.17120000000E+03  0.17120000000E+03 0.  0.
         13    1    1    2    0    0 -0.97427268121E+01  0.10096277015E+02  0.18956020623E+02  0.23583838051E+02  0.10566000000E+00 0.  1.
        994    1    1    2    0    0  0.19269295876E+01 -0.98828218551E+01  0.50526524676E+01  0.17157025535E+03  0.17120000000E+03 0.  0.
        998    1    1    2    0    0  0.78157972245E+01 -0.21345516004E+00  0.14759913232E+04  0.14760459066E+04  0.10000000000E+02 0.  1.
</event>
<event>
 5    1  0.1146201E-008  0.3831080E+03  0.7957747E-01  0.3437736E+00
         13   -1    0    0    0    0  0.00000000000E+00  0.00000000000E+00  0.14999999963E+04  0.15000000000E+04  0.10566000000E+00 0. -1.
        994   -1    0    0    0    0 -0.00000000000E+00 -0.00000000000E+00  0.11368683772E-12  0.17120000000E+03  0.17120000000E+03 0.  0.
         13    1    1    2    0    0  0.14592725499E+02 -0.13952435732E+02  0.73971673615E+02  0.76677491885E+02  0.10566000000E+00 0. -1.
        994    1    1    2    0    0 -0.19559421013E+02  0.14021958624E+02  0.44912674736E+01  0.17294160216E+03  0.17120000000E+03 0.  0.
        998    1    1    2    0    0  0.49666955144E+01 -0.69522892018E-01  0.14215370552E+04  0.14215809060E+04  0.10000000000E+02 0. -1.
</event>
<event>
 5    1  0.1146201E-008  0.3859853E+03  0.7957747E-01  0.3425504E+00
         13   -1    0    0    0    0  0.00000000000E+00  0.00000000000E+00  0.14999999963E+04  0.15000000000E+04  0.10566000000E+00 0.  1.
        994   -1    0    0    0    0 -0.00000000000E+00 -0.00000000000E+00  0.11368683772E-12  0.17120000000E+03  0.17120000000E+03 0.  0.
         13    1    1    2    0    0 -0.11417878495E+02 -0.29270765494E+01  0.59630311035E+02  0.60784215752E+02  0.10566000000E+00 0.  1.
        994    1    1    2    0    0  0.11325006492E+02  0.53954487970E+01  0.16577624380E+01  0.17166698814E+03  0.17120000000E+03 0.  0.
        998    1    1    2    0    0  0.92872003539E-01 -0.24683722476E+01  0.14387119228E+04  0.14387487961E+04  0.10000000000E+02 0.  1.
</event>
<event>
 5    1  0.1146201E-008  0.3840696E+03  0.7957747E-01  0.3433628E+00
         13   -1    0    0    0    0  0.00000000000E+00  0.00000000000E+00  0.14999999963E+04  0.15000000000E+04  0.10566000000E+00 0. -1.
        994   -1    0    0    0    0 -0.00000000000E+00 -0.00000000000E+00  0.11368683772E-12  0.17120000000E+03  0.17120000000E+03 0.  0.
         13    1    1    2    0    0  0.14039991262E+02  0.10410616281E+01  0.51928850993E+02  0.53803549078E+02  0.10566000000E+00 0. -1.
        994    1    1    2    0    0  0.10462812076E+02 -0.42402394822E+00  0.24545543302E+01  0.17153750339E+03  0.17120000000E+03 0.  0.
        998    1    1    2    0    0 -0.24502803338E+02 -0.61703767986E+00  0.14456165910E+04  0.14458589475E+04  0.10000000000E+02 0. -1.
</event>
<event>
 5    1  0.1146201E-008  0.3791222E+03  0.7957747E-01  0.3454990E+00
         13   -1    0    0    0    0  0.00000000000E+00  0.00000000000E+00  0.14999999963E+04  0.15000000000E+04  0.10566000000E+00 0. -1.
        994   -1    0    0    0    0 -0.00000000000E+00 -0.00000000000E+00  0.11368683772E-12  0.17120000000E+03  0.17120000000E+03 0.  0.
         13    1    1    2    0    0  0.53607829380E+01 -0.99065436231E+01  0.11700623145E+02  0.16241716236E+02  0.10566000000E+00 0. -1.
        994    1    1    2    0    0 -0.62271954140E+01  0.11705622892E+02  0.51665192988E+01  0.17179037369E+03  0.17120000000E+03 0.  0.
        998    1    1    2    0    0  0.86641247599E+00 -0.17990792692E+01  0.14831328538E+04  0.14831679101E+04  0.10000000000E+02 0. -1.
</event>
<event>
 5    1  0.1146201E-008  0.3774750E+03  0.7957747E-01  0.3462227E+00
         13   -1    0    0    0    0  0.00000000000E+00  0.00000000000E+00  0.14999999963E+04  0.15000000000E+04  0.10566000000E+00 0.  1.
        994   -1    0    0    0    0 -0.00000000000E+00 -0.00000000000E+00  0.11368683772E-12  0.17120000000E+03  0.17120000000E+03 0.  0.
         13    1    1    2    0    0  0.32196975444E+02 -0.81467148539E+02  0.48459832146E+03  0.49245211528E+03  0.10566000000E+00 0.  1.
        994    1    1    2    0    0 -0.60014023630E+02  0.70736174070E+02  0.34994711519E+02  0.19783669829E+03  0.17120000000E+03 0.  0.
        998    1    1    2    0    0  0.27817048186E+02  0.10730974469E+02  0.98040696330E+03  0.98091118643E+03  0.10000000000E+02 0.  1.
</event>
<event>
 5    1  0.1146201E-008  0.3781378E+03  0.7957747E-01  0.3459307E+00
         13   -1    0    0    0    0  0.00000000000E+00  0.00000000000E+00  0.14999999963E+04  0.15000000000E+04  0.10566000000E+00 0.  1.
        994   -1    0    0    0    0 -0.00000000000E+00 -0.00000000000E+00  0.11368683772E-12  0.17120000000E+03  0.17120000000E+03 0.  0.
         13    1    1    2    0    0 -0.12841072462E+02 -0.11998420497E+02  0.27969129627E+02  0.33032387327E+02  0.10566000000E+00 0.  1.
        994    1    1    2    0    0  0.13326531378E+02  0.10267751581E+02  0.60286683947E+01  0.17213020654E+03  0.17120000000E+03 0.  0.
        998    1    1    2    0    0 -0.48545891618E+00  0.17306689159E+01  0.14660021983E+04  0.14660374061E+04  0.10000000000E+02 0.  1.
</event>
<event>
 5    1  0.1146201E-008  0.3821791E+03  0.7957747E-01  0.3441725E+00
         13   -1    0    0    0    0  0.00000000000E+00  0.00000000000E+00  0.14999999963E+04  0.15000000000E+04  0.10566000000E+00 0. -1.
        994   -1    0    0    0    0 -0.00000000000E+00 -0.00000000000E+00  0.11368683772E-12  0.17120000000E+03  0.17120000000E+03 0.  0.
         13    1    1    2    0    0 -0.68413728513E+01  0.12625068024E+02  0.31807899361E+02  0.34899145418E+02  0.10566000000E+00 0. -1.
        994    1    1    2    0    0  0.64691237209E+01 -0.18065877600E+02  0.42602929395E+01  0.17232473877E+03  0.17120000000E+03 0.  0.
        998    1    1    2    0    0  0.37224913040E+00  0.54408095764E+01  0.14639318040E+04  0.14639761158E+04  0.10000000000E+02 0. -1.
</event>
<event>
 5    1  0.1146201E-008  0.3822051E+03  0.7957747E-01  0.3441613E+00
         13   -1    0    0    0    0  0.00000000000E+00  0.00000000000E+00  0.14999999963E+04  0.15000000000E+04  0.10566000000E+00 0. -1.
        994   -1    0    0    0    0 -0.00000000000E+00 -0.00000000000E+00  0.11368683772E-12  0.17120000000E+03  0.17120000000E+03 0.  0.
         13    1    1    2    0    0  0.18466908108E+02 -0.16666483919E+02  0.94140029538E+02  0.97371221143E+02  0.10566000000E+00 0. -1.
        994    1    1    2    0    0 -0.26384443447E+02  0.13173355264E+02  0.59157190365E+01  0.17382206959E+03  0.17120000000E+03 0.  0.
        998    1    1    2    0    0  0.79175353387E+01  0.34931286548E+01  0.13999442477E+04  0.14000067093E+04  0.10000000000E+02 0. -1.
</event>
<event>
 5    1  0.1146201E-008  0.3774945E+03  0.7957747E-01  0.3462141E+00
         13   -1    0    0    0    0  0.00000000000E+00  0.00000000000E+00  0.14999999963E+04  0.15000000000E+04  0.10566000000E+00 0. -1.
        994   -1    0    0    0    0 -0.00000000000E+00 -0.00000000000E+00  0.11368683772E-12  0.17120000000E+03  0.17120000000E+03 0.  0.
         13    1    1    2    0    0 -0.42838441467E+02  0.18417395983E+02  0.18713673113E+03  0.19285875620E+03  0.10566000000E+00 0. -1.
        994    1    1    2    0    0  0.34112608180E+02 -0.14621214799E+02  0.10060544612E+02  0.17546539407E+03  0.17120000000E+03 0.  0.
        998    1    1    2    0    0  0.87258332875E+01 -0.37961811840E+01  0.13028027205E+04  0.13028758497E+04  0.10000000000E+02 0. -1.
</event>
<event>
 5    1  0.1146201E-008  0.3720146E+03  0.7957747E-01  0.3486683E+00
         13   -1    0    0    0    0  0.00000000000E+00  0.00000000000E+00  0.14999999963E+04  0.15000000000E+04  0.10566000000E+00 0. -1.
        994   -1    0    0    0    0 -0.00000000000E+00 -0.00000000000E+00  0.11368683772E-12  0.17120000000E+03  0.17120000000E+03 0.  0.
         13    1    1    2    0    0  0.64697735289E+01  0.65051686224E+02  0.24568553102E+03  0.25423408734E+03  0.10566000000E+00 0. -1.
        994    1    1    2    0    0 -0.24160055971E+02 -0.43591982098E+02  0.16797982885E+02  0.17909657014E+03  0.17120000000E+03 0.  0.
        998    1    1    2    0    0  0.17690282442E+02 -0.21459704126E+02  0.12375164824E+04  0.12378693425E+04  0.10000000000E+02 0. -1.
</event>
<event>
 5    1  0.1146201E-008  0.3726671E+03  0.7957747E-01  0.3483722E+00
         13   -1    0    0    0    0  0.00000000000E+00  0.00000000000E+00  0.14999999963E+04  0.15000000000E+04  0.10566000000E+00 0. -1.
        994   -1    0    0    0    0 -0.00000000000E+00 -0.00000000000E+00  0.11368683772E-12  0.17120000000E+03  0.17120000000E+03 0.  0.
         13    1    1    2    0    0  0.16643050861E+02 -0.56951063435E+02  0.20291980078E+03  0.21141634630E+03  0.10566000000E+00 0. -1.
        994    1    1    2    0    0 -0.21477815813E+02  0.45547101701E+02  0.16620236311E+02  0.17922473964E+03  0.17120000000E+03 0.  0.
        998    1    1    2    0    0  0.48347649528E+01  0.11403961734E+02  0.12804599592E+04  0.12805589141E+04  0.10000000000E+02 0. -1.
</event>
<event>
 5    1  0.1788386E-008  0.3858310E+03  0.7957747E-01  0.3426156E+00
         13   -1    0    0    0    0  0.00000000000E+00  0.00000000000E+00  0.14999999963E+04  0.15000000000E+04  0.10566000000E+00 0. -1.
        994   -1    0    0    0    0 -0.00000000000E+00 -0.00000000000E+00  0.11368683772E-12  0.17120000000E+03  0.17120000000E+03 0.  0.
         13    1    1    2    0    0 -0.12577217499E+02 -0.17246070310E+01  0.67428900965E+02  0.68613617591E+02  0.10566000000E+00 0. -1.
        994    1    1    2    0    0  0.69577329683E+01  0.13835837784E+01  0.13832163974E+01  0.17135249528E+03  0.17120000000E+03 0.  0.
        998    1    1    2    0    0  0.56194845308E+01  0.34102325256E+00  0.14311878789E+04  0.14312338871E+04  0.10000000000E+02 0. -1.
</event>
<event>
 5    1  0.1146201E-008  0.3826966E+03  0.7957747E-01  0.3439500E+00
         13   -1    0    0    0    0  0.00000000000E+00  0.00000000000E+00  0.14999999963E+04  0.15000000000E+04  0.10566000000E+00 0. -1.
        994   -1    0    0    0    0 -0.00000000000E+00 -0.00000000000E+00  0.11368683772E-12  0.17120000000E+03  0.17120000000E+03 0.  0.
         13    1    1    2    0    0  0.19356283345E+02  0.98261952435E+00  0.70407607512E+02  0.73026526726E+02  0.10566000000E+00 0. -1.
        994    1    1    2    0    0 -0.19254851169E+01 -0.64609129520E+01  0.29286754769E+01  0.17135771949E+03  0.17120000000E+03 0.  0.
        998    1    1    2    0    0 -0.17430798228E+02  0.54782934277E+01  0.14266637133E+04  0.14268157538E+04  0.10000000000E+02 0. -1.
</event>
<event>
 5    1  0.1146201E-008  0.3850288E+03  0.7957747E-01  0.3429550E+00
         13   -1    0    0    0    0  0.00000000000E+00  0.00000000000E+00  0.14999999963E+04  0.15000000000E+04  0.10566000000E+00 0. -1.
        994   -1    0    0    0    0 -0.00000000000E+00 -0.00000000000E+00  0.11368683772E-12  0.17120000000E+03  0.17120000000E+03 0.  0.
         13    1    1    2    0    0  0.10542076663E+02  0.10640321980E+02  0.66935890878E+02  0.68591373246E+02  0.10566000000E+00 0. -1.
        994    1    1    2    0    0 -0.16090440862E+02 -0.61528678453E+01  0.25922792338E+01  0.17208404918E+03  0.17120000000E+03 0.  0.
        998    1    1    2    0    0  0.55483641995E+01 -0.44874541349E+01  0.14304718262E+04  0.14305245776E+04  0.10000000000E+02 0. -1.
</event>
<event>
 5    1  0.1146201E-008  0.4041581E+03  0.7957747E-01  0.3352274E+00
         13   -1    0    0    0    0  0.00000000000E+00  0.00000000000E+00  0.14999999963E+04  0.15000000000E+04  0.10566000000E+00 0.  1.
        994   -1    0    0    0    0 -0.00000000000E+00 -0.00000000000E+00  0.11368683772E-12  0.17120000000E+03  0.17120000000E+03 0.  0.
         13    1    1    2    0    0 -0.70475892535E+02  0.21672762573E+02  0.82144190788E+02  0.11038224182E+03  0.10566000000E+00 0.  1.
        994    1    1    2    0    0  0.44953607667E+02 -0.13434221892E+02  0.39103794427E+02  0.18176867689E+03  0.17120000000E+03 0.  0.
        998    1    1    2    0    0  0.25522284868E+02 -0.82385406808E+01  0.13787520111E+04  0.13790490813E+04  0.10000000000E+02 0.  1.
</event>
<event>
 5    1  0.1146201E-008  0.3834143E+03  0.7957747E-01  0.3436425E+00
         13   -1    0    0    0    0  0.00000000000E+00  0.00000000000E+00  0.14999999963E+04  0.15000000000E+04  0.10566000000E+00 0.  1.
        994   -1    0    0    0    0 -0.00000000000E+00 -0.00000000000E+00  0.11368683772E-12  0.17120000000E+03  0.17120000000E+03 0.  0.
         13    1    1    2    0    0  0.51348066547E+02 -0.68889219140E+02  0.20321133158E+03  0.22062911163E+03  0.10566000000E+00 0.  1.
        994    1    1    2    0    0 -0.28305993252E+02  0.36932538810E+02  0.26203503120E+02  0.17933573334E+03  0.17120000000E+03 0.  0.
        998    1    1    2    0    0 -0.23042073295E+02  0.31956680330E+02  0.12705851616E+04  0.12712351550E+04  0.10000000000E+02 0.  1.
</event>
<event>
 5    1  0.1146201E-008  0.3813651E+03  0.7957747E-01  0.3445236E+00
         13   -1    0    0    0    0  0.00000000000E+00  0.00000000000E+00  0.14999999963E+04  0.15000000000E+04  0.10566000000E+00 0.  1.
        994   -1    0    0    0    0 -0.00000000000E+00 -0.00000000000E+00  0.11368683772E-12  0.17120000000E+03  0.17120000000E+03 0.  0.
         13    1    1    2    0    0 -0.10999985137E+01 -0.38625535042E+02  0.19679449806E+03  0.20055230635E+03  0.10566000000E+00 0.  1.
        994    1    1    2    0    0  0.39745807151E+02  0.35270360348E+02  0.12900364342E+02  0.17972085829E+03  0.17120000000E+03 0.  0.
        998    1    1    2    0    0 -0.38645808637E+02  0.33551746942E+01  0.12903051339E+04  0.12909268354E+04  0.10000000000E+02 0.  1.
</event>
<event>
 5    1  0.1146201E-008  0.3719824E+03  0.7957747E-01  0.3486829E+00
         13   -1    0    0    0    0  0.00000000000E+00  0.00000000000E+00  0.14999999963E+04  0.15000000000E+04  0.10566000000E+00 0. -1.
        994   -1    0    0    0    0 -0.00000000000E+00 -0.00000000000E+00  0.11368683772E-12  0.17120000000E+03  0.17120000000E+03 0.  0.
         13    1    1    2    0    0 -0.57834397136E+01 -0.11300142110E+02  0.11690980484E+01  0.12748307374E+02  0.10566000000E+00 0. -1.
        994    1    1    2    0    0  0.58900223838E+01  0.91680526557E+01  0.12409056806E+02  0.17199468086E+03  0.17120000000E+03 0.  0.
        998    1    1    2    0    0 -0.10658267014E+00  0.21320894544E+01  0.14864218414E+04  0.14864570118E+04  0.10000000000E+02 0. -1.
</event>
<event>
 5    1  0.1146201E-008  0.3791575E+03  0.7957747E-01  0.3454835E+00
         13   -1    0    0    0    0  0.00000000000E+00  0.00000000000E+00  0.14999999963E+04  0.15000000000E+04  0.10566000000E+00 0. -1.
        994   -1    0    0    0    0 -0.00000000000E+00 -0.00000000000E+00  0.11368683772E-12  0.17120000000E+03  0.17120000000E+03 0.  0.
         13    1    1    2    0    0  0.21624177315E+02  0.87066968106E+01  0.55610093280E+02  0.60298468078E+02  0.10566000000E+00 0. -1.
        994    1    1    2    0    0 -0.24120032025E+02 -0.88463564554E+01  0.67747725478E+01  0.17324944880E+03  0.17120000000E+03 0.  0.
        998    1    1    2    0    0  0.24958547102E+01  0.13965964479E+00  0.14376151305E+04  0.14376520831E+04  0.10000000000E+02 0. -1.
</event>
<event>
 5    1  0.1146201E-008  0.3764095E+03  0.7957747E-01  0.3466943E+00
         13   -1    0    0    0    0  0.00000000000E+00  0.00000000000E+00  0.14999999963E+04  0.15000000000E+04  0.10566000000E+00 0.  1.
        994   -1    0    0    0    0 -0.00000000000E+00 -0.00000000000E+00  0.11368683772E-12  0.17120000000E+03  0.17120000000E+03 0.  0.
         13    1    1    2    0    0  0.11722872927E+02  0.86715948897E+01  0.15141326890E+02  0.21021257137E+02  0.10566000000E+00 0.  1.
        994    1    1    2    0    0 -0.13656357178E+02 -0.38484128889E+01  0.66380064005E+01  0.17191512296E+03  0.17120000000E+03 0.  0.
        998    1    1    2    0    0  0.19334842508E+01 -0.48231820008E+01  0.14782206630E+04  0.14782636199E+04  0.10000000000E+02 0.  1.
</event>
<event>
 5    1  0.1146201E-008  0.3897376E+03  0.7957747E-01  0.3409825E+00
         13   -1    0    0    0    0  0.00000000000E+00  0.00000000000E+00  0.14999999963E+04  0.15000000000E+04  0.10566000000E+00 0. -1.
        994   -1    0    0    0    0 -0.00000000000E+00 -0.00000000000E+00  0.11368683772E-12  0.17120000000E+03  0.17120000000E+03 0.  0.
         13    1    1    2    0    0  0.94364869431E+02  0.12081986404E+03  0.36955140219E+03  0.40008801301E+03  0.10566000000E+00 0. -1.
        994    1    1    2    0    0 -0.91854686069E+02 -0.12711372831E+03  0.12141156181E+03  0.26200265384E+03  0.17120000000E+03 0.  0.
        998    1    1    2    0    0 -0.25101833624E+01  0.62938642706E+01  0.10090370323E+04  0.10091093331E+04  0.10000000000E+02 0. -1.
</event>
<event>
 5    1  0.1146201E-008  0.3862569E+03  0.7957747E-01  0.3424359E+00
         13   -1    0    0    0    0  0.00000000000E+00  0.00000000000E+00  0.14999999963E+04  0.15000000000E+04  0.10566000000E+00 0. -1.
        994   -1    0    0    0    0 -0.00000000000E+00 -0.00000000000E+00  0.11368683772E-12  0.17120000000E+03  0.17120000000E+03 0.  0.
         13    1    1    2    0    0  0.10667328035E+02  0.42657823233E+01  0.63234939773E+02  0.64270191833E+02  0.10566000000E+00 0. -1.
        994    1    1    2    0    0 -0.60346177191E+01 -0.25376098203E+02  0.32389653487E+01  0.17320592908E+03  0.17120000000E+03 0.  0.
        998    1    1    2    0    0 -0.46327103157E+01  0.21110315880E+02  0.14335260912E+04  0.14337238791E+04  0.10000000000E+02 0. -1.
</event>
<event>
 5    1  0.1146201E-008  0.3840582E+03  0.7957747E-01  0.3433676E+00
         13   -1    0    0    0    0  0.00000000000E+00  0.00000000000E+00  0.14999999963E+04  0.15000000000E+04  0.10566000000E+00 0. -1.
        994   -1    0    0    0    0 -0.00000000000E+00 -0.00000000000E+00  0.11368683772E-12  0.17120000000E+03  0.17120000000E+03 0.  0.
         13    1    1    2    0    0 -0.16507491752E+02  0.18394348290E+02  0.13760875152E+03  0.13981068984E+03  0.10566000000E+00 0. -1.
        994    1    1    2    0    0  0.21391026046E+02 -0.99393856853E+01  0.39359089724E+01  0.17286208018E+03  0.17120000000E+03 0.  0.
        998    1    1    2    0    0 -0.48835342935E+01 -0.84549626049E+01  0.13584553358E+04  0.13585272300E+04  0.10000000000E+02 0. -1.
</event>
<event>
 5    1  0.1146201E-008  0.3822216E+03  0.7957747E-01  0.3441542E+00
         13   -1    0    0    0    0  0.00000000000E+00  0.00000000000E+00  0.14999999963E+04  0.15000000000E+04  0.10566000000E+00 0.  1.
        994   -1    0    0    0    0 -0.00000000000E+00 -0.00000000000E+00  0.11368683772E-12  0.17120000000E+03  0.17120000000E+03 0.  0.
         13    1    1    2    0    0  0.26120163409E+02  0.21164985666E+02  0.17203412712E+03  0.17528825292E+03  0.10566000000E+00 0.  1.
        994    1    1    2    0    0 -0.26784442528E+02 -0.14742104015E+02  0.61240390680E+01  0.17401632063E+03  0.17120000000E+03 0.  0.
        998    1    1    2    0    0  0.66427911884E+00 -0.64228816516E+01  0.13218418301E+04  0.13218954264E+04  0.10000000000E+02 0.  1.
</event>
<event>
 5    1  0.1260773E-008  0.3849816E+03  0.7957747E-01  0.3429750E+00
         13   -1    0    0    0    0  0.00000000000E+00  0.00000000000E+00  0.14999999963E+04  0.15000000000E+04  0.10566000000E+00 0.  1.
        994   -1    0    0    0    0 -0.00000000000E+00 -0.00000000000E+00  0.11368683772E-12  0.17120000000E+03  0.17120000000E+03 0.  0.
         13    1    1    2    0    0  0.12948430891E+02 -0.12332395250E+02  0.10277044984E+03  0.10431455487E+03  0.10566000000E+00 0.  1.
        994    1    1    2    0    0 -0.65667200118E+01  0.34900604634E+00  0.17814854354E+01  0.17133551093E+03  0.17120000000E+03 0.  0.
        998    1    1    2    0    0 -0.63817108789E+01  0.11983389204E+02  0.13954480610E+04  0.13955499342E+04  0.10000000000E+02 0.  1.
</event>
<event>
 5    1  0.1146201E-008  0.3845800E+03  0.7957747E-01  0.3431455E+00
         13   -1    0    0    0    0  0.00000000000E+00  0.00000000000E+00  0.14999999963E+04  0.15000000000E+04  0.10566000000E+00 0. -1.
        994   -1    0    0    0    0 -0.00000000000E+00 -0.00000000000E+00  0.11368683772E-12  0.17120000000E+03  0.17120000000E+03 0.  0.
         13    1    1    2    0    0  0.22797213312E+02 -0.63266962416E+01  0.14199900837E+03  0.14395648496E+03  0.10566000000E+00 0. -1.
        994    1    1    2    0    0 -0.20074808621E+02  0.10823491046E+02  0.35535789860E+01  0.17274899080E+03  0.17120000000E+03 0.  0.
        998    1    1    2    0    0 -0.27224046910E+01 -0.44967948045E+01  0.13544474089E+04  0.13544945242E+04  0.10000000000E+02 0. -1.
</event>
<event>
 5    1  0.1281564E-008  0.3818919E+03  0.7957747E-01  0.3442962E+00
         13   -1    0    0    0    0  0.00000000000E+00  0.00000000000E+00  0.14999999963E+04  0.15000000000E+04  0.10566000000E+00 0. -1.
        994   -1    0    0    0    0 -0.00000000000E+00 -0.00000000000E+00  0.11368683772E-12  0.17120000000E+03  0.17120000000E+03 0.  0.
         13    1    1    2    0    0 -0.52368962739E+01  0.95306646743E+01  0.17100087138E+02  0.20265310160E+02  0.10566000000E+00 0. -1.
        994    1    1    2    0    0  0.57725891526E+01 -0.10339138117E+02  0.36471225994E+01  0.17164778491E+03  0.17120000000E+03 0.  0.
        998    1    1    2    0    0 -0.53569287866E+00  0.80847344256E+00  0.14792527865E+04  0.14792869049E+04  0.10000000000E+02 0. -1.
</event>
<event>
 5    1  0.1146201E-008  0.3849798E+03  0.7957747E-01  0.3429758E+00
         13   -1    0    0    0    0  0.00000000000E+00  0.00000000000E+00  0.14999999963E+04  0.15000000000E+04  0.10566000000E+00 0. -1.
        994   -1    0    0    0    0 -0.00000000000E+00 -0.00000000000E+00  0.11368683772E-12  0.17120000000E+03  0.17120000000E+03 0.  0.
         13    1    1    2    0    0  0.95130338321E+01  0.13972946177E+02  0.89403226412E+02  0.90987301831E+02  0.10566000000E+00 0. -1.
        994    1    1    2    0    0 -0.65813382852E+01 -0.45736802953E+01  0.18514620320E+01  0.17139749262E+03  0.17120000000E+03 0.  0.
        998    1    1    2    0    0 -0.29316955469E+01 -0.93992658815E+01  0.14087453078E+04  0.14088152055E+04  0.10000000000E+02 0. -1.
</event>
<event>
 5    1  0.1146201E-008  0.3861140E+03  0.7957747E-01  0.3424961E+00
         13   -1    0    0    0    0  0.00000000000E+00  0.00000000000E+00  0.14999999963E+04  0.15000000000E+04  0.10566000000E+00 0. -1.
        994   -1    0    0    0    0 -0.00000000000E+00 -0.00000000000E+00  0.11368683772E-12  0.17120000000E+03  0.17120000000E+03 0.  0.
         13    1    1    2    0    0  0.72416655019E+01  0.76594064911E+02  0.12316450829E+03  0.14521914394E+03  0.10566000000E+00 0. -1.
        994    1    1    2    0    0  0.19666651375E+02 -0.98756877008E+02  0.58370969050E+02  0.20701765133E+03  0.17120000000E+03 0.  0.
        998    1    1    2    0    0 -0.26908316877E+02  0.22162812097E+02  0.13184645189E+04  0.13189632047E+04  0.10000000000E+02 0. -1.
</event>
<event>
 5    1  0.1146201E-008  0.3828301E+03  0.7957747E-01  0.3438928E+00
         13   -1    0    0    0    0  0.00000000000E+00  0.00000000000E+00  0.14999999963E+04  0.15000000000E+04  0.10566000000E+00 0. -1.
        994   -1    0    0    0    0 -0.00000000000E+00 -0.00000000000E+00  0.11368683772E-12  0.17120000000E+03  0.17120000000E+03 0.  0.
         13    1    1    2    0    0  0.10391651562E+02  0.25852215405E+02  0.16274679988E+03  0.16511467378E+03  0.10566000000E+00 0. -1.
        994    1    1    2    0    0 -0.20247589781E+02  0.69583856000E+01  0.42309374226E+01  0.17258541321E+03  0.17120000000E+03 0.  0.
        998    1    1    2    0    0  0.98559382184E+01 -0.32810601005E+02  0.13330222590E+04  0.13334999130E+04  0.10000000000E+02 0. -1.
</event>
<event>
 5    1  0.1146201E-008  0.3823949E+03  0.7957747E-01  0.3440796E+00
         13   -1    0    0    0    0  0.00000000000E+00  0.00000000000E+00  0.14999999963E+04  0.15000000000E+04  0.10566000000E+00 0. -1.
        994   -1    0    0    0    0 -0.00000000000E+00 -0.00000000000E+00  0.11368683772E-12  0.17120000000E+03  0.17120000000E+03 0.  0.
         13    1    1    2    0    0  0.55535511229E+00 -0.13623020555E+02  0.31712067805E+02  0.34519002258E+02  0.10566000000E+00 0. -1.
        994    1    1    2    0    0  0.11223355258E+02  0.53156300276E+00  0.33478787352E+01  0.17160097481E+03  0.17120000000E+03 0.  0.
        998    1    1    2    0    0 -0.11778710370E+02  0.13091457552E+02  0.14649400497E+04  0.14650800229E+04  0.10000000000E+02 0. -1.
</event>
<event>
 5    1  0.1146201E-008  0.3768472E+03  0.7957747E-01  0.3465003E+00
         13   -1    0    0    0    0  0.00000000000E+00  0.00000000000E+00  0.14999999963E+04  0.15000000000E+04  0.10566000000E+00 0. -1.
        994   -1    0    0    0    0 -0.00000000000E+00 -0.00000000000E+00  0.11368683772E-12  0.17120000000E+03  0.17120000000E+03 0.  0.
         13    1    1    2    0    0  0.32585678202E+02  0.25970808350E+02  0.14441040908E+03  0.15030198510E+03  0.10566000000E+00 0. -1.
        994    1    1    2    0    0 -0.19485475534E+02 -0.25392133174E+02  0.92017233246E+01  0.17440916231E+03  0.17120000000E+03 0.  0.
        998    1    1    2    0    0 -0.13100202668E+02 -0.57867517674E+00  0.13463878639E+04  0.13464888526E+04  0.10000000000E+02 0. -1.
</event>
<event>
 5    1  0.1146201E-008  0.3701846E+03  0.7957747E-01  0.3495043E+00
         13   -1    0    0    0    0  0.00000000000E+00  0.00000000000E+00  0.14999999963E+04  0.15000000000E+04  0.10566000000E+00 0.  1.
        994   -1    0    0    0    0 -0.00000000000E+00 -0.00000000000E+00  0.11368683772E-12  0.17120000000E+03  0.17120000000E+03 0.  0.
         13    1    1    2    0    0  0.22955971726E+01  0.27872794165E+02  0.30216691324E+02  0.41173073963E+02  0.10566000000E+00 0.  1.
        994    1    1    2    0    0  0.50835241579E+01 -0.29869724714E+02  0.14254720268E+02  0.17444391569E+03  0.17120000000E+03 0.  0.
        998    1    1    2    0    0 -0.73791213306E+01  0.19969305487E+01  0.14555285847E+04  0.14555830103E+04  0.10000000000E+02 0.  1.
</event>
<event>
 5    1  0.1146201E-008  0.3705487E+03  0.7957747E-01  0.3493373E+00
         13   -1    0    0    0    0  0.00000000000E+00  0.00000000000E+00  0.14999999963E+04  0.15000000000E+04  0.10566000000E+00 0. -1.
        994   -1    0    0    0    0 -0.00000000000E+00 -0.00000000000E+00  0.11368683772E-12  0.17120000000E+03  0.17120000000E+03 0.  0.
         13    1    1    2    0    0  0.30299971519E+02  0.33842320341E+02  0.10833421545E+03  0.11747214274E+03  0.10566000000E+00 0. -1.
        994    1    1    2    0    0 -0.28454836788E+02 -0.22847788836E+02  0.13592332390E+02  0.17557303521E+03  0.17120000000E+03 0.  0.
        998    1    1    2    0    0 -0.18451347315E+01 -0.10994531504E+02  0.13780734484E+04  0.13781548221E+04  0.10000000000E+02 0. -1.
</event>
<event>
 5    1  0.1146201E-008  0.3812063E+03  0.7957747E-01  0.3445923E+00
         13   -1    0    0    0    0  0.00000000000E+00  0.00000000000E+00  0.14999999963E+04  0.15000000000E+04  0.10566000000E+00 0. -1.
        994   -1    0    0    0    0 -0.00000000000E+00 -0.00000000000E+00  0.11368683772E-12  0.17120000000E+03  0.17120000000E+03 0.  0.
         13    1    1    2    0    0  0.55741139068E+01  0.10372283984E+02  0.18147115512E+02  0.21632937534E+02  0.10566000000E+00 0. -1.
        994    1    1    2    0    0 -0.53791884205E+01 -0.80967054791E+01  0.38401543852E+01  0.17151874269E+03  0.17120000000E+03 0.  0.
        998    1    1    2    0    0 -0.19492548630E+00 -0.22755785049E+01  0.14780127264E+04  0.14780483198E+04  0.10000000000E+02 0. -1.
</event>
<event>
 5    1  0.1146201E-008  0.3834524E+03  0.7957747E-01  0.3436262E+00
         13   -1    0    0    0    0  0.00000000000E+00  0.00000000000E+00  0.14999999963E+04  0.15000000000E+04  0.10566000000E+00 0. -1.
        994   -1    0    0    0    0 -0.00000000000E+00 -0.00000000000E+00  0.11368683772E-12  0.17120000000E+03  0.17120000000E+03 0.  0.
         13    1    1    2    0    0  0.12922704053E+02  0.10844927106E+02  0.58420714360E+02  0.60807892204E+02  0.10566000000E+00 0. -1.
        994    1    1    2    0    0  0.81564414328E+00 -0.19628629630E+02  0.36771279123E+01  0.17236272696E+03  0.17120000000E+03 0.  0.
        998    1    1    2    0    0 -0.13738348196E+02  0.87837025240E+01  0.14379021540E+04  0.14380293808E+04  0.10000000000E+02 0. -1.
</event>
<event>
 5    1  0.1146201E-008  0.3714493E+03  0.7957747E-01  0.3489257E+00
         13   -1    0    0    0    0  0.00000000000E+00  0.00000000000E+00  0.14999999963E+04  0.15000000000E+04  0.10566000000E+00 0.  1.
        994   -1    0    0    0    0 -0.00000000000E+00 -0.00000000000E+00  0.11368683772E-12  0.17120000000E+03  0.17120000000E+03 0.  0.
         13    1    1    2    0    0  0.32791596303E+02  0.15951085906E+02  0.48292890091E+02  0.60513968033E+02  0.10566000000E+00 0.  1.
        994    1    1    2    0    0 -0.42452906904E+02 -0.35870154631E+02  0.22641389842E+02  0.18141386339E+03  0.17120000000E+03 0.  0.
        998    1    1    2    0    0  0.96613106009E+01  0.19919068725E+02  0.14290657163E+04  0.14292721686E+04  0.10000000000E+02 0.  1.
</event>
<event>
 5    1  0.1146201E-008  0.3777414E+03  0.7957747E-01  0.3461052E+00
         13   -1    0    0    0    0  0.00000000000E+00  0.00000000000E+00  0.14999999963E+04  0.15000000000E+04  0.10566000000E+00 0. -1.
        994   -1    0    0    0    0 -0.00000000000E+00 -0.00000000000E+00  0.11368683772E-12  0.17120000000E+03  0.17120000000E+03 0.  0.
         13    1    1    2    0    0 -0.43143184839E+02  0.77112351215E+01  0.61632829955E+02  0.75626810308E+02  0.10566000000E+00 0. -1.
        994    1    1    2    0    0  0.85374383433E+01 -0.28360766738E+01  0.15383173499E+02  0.17212499299E+03  0.17120000000E+03 0.  0.
        998    1    1    2    0    0  0.34605746496E+02 -0.48751584477E+01  0.14229839928E+04  0.14234481967E+04  0.10000000000E+02 0. -1.
</event>
<event>
 5    1  0.1146201E-008  0.2617399E+03  0.7957747E-01  0.4213740E+00
         13   -1    0    0    0    0  0.00000000000E+00  0.00000000000E+00  0.14999999963E+04  0.15000000000E+04  0.10566000000E+00 0.  1.
        994   -1    0    0    0    0 -0.00000000000E+00 -0.00000000000E+00  0.11368683772E-12  0.17120000000E+03  0.17120000000E+03 0.  0.
         13    1    1    2    0    0 -0.12601807421E+03 -0.81886129416E+01  0.70847958122E+02  0.14480004401E+03  0.10566000000E+00 0.  1.
        994    1    1    2    0    0  0.88853316787E+02  0.22991753757E+03  0.96461622404E+03  0.10102231861E+04  0.17120000000E+03 0.  0.
        998    1    1    2    0    0  0.37164757427E+02 -0.22172892463E+03  0.46453581412E+03  0.51617676993E+03  0.10000000000E+02 0.  1.
</event>
<event>
 5    1  0.1146201E-008  0.3761997E+03  0.7957747E-01  0.3467875E+00
         13   -1    0    0    0    0  0.00000000000E+00  0.00000000000E+00  0.14999999963E+04  0.15000000000E+04  0.10566000000E+00 0.  1.
        994   -1    0    0    0    0 -0.00000000000E+00 -0.00000000000E+00  0.11368683772E-12  0.17120000000E+03  0.17120000000E+03 0.  0.
         13    1    1    2    0    0 -0.23059718560E+01 -0.85323252019E+02  0.41131146415E+03  0.42007440597E+03  0.10566000000E+00 0.  1.
        994    1    1    2    0    0  0.22507214269E+02  0.90226350897E+02  0.35925294336E+02  0.19810965616E+03  0.17120000000E+03 0.  0.
        998    1    1    2    0    0 -0.20201242413E+02 -0.49030988778E+01  0.10527632378E+04  0.10530159379E+04  0.10000000000E+02 0. -1.
</event>
<event>
 5    1  0.1146201E-008  0.3903267E+03  0.7957747E-01  0.3407391E+00
         13   -1    0    0    0    0  0.00000000000E+00  0.00000000000E+00  0.14999999963E+04  0.15000000000E+04  0.10566000000E+00 0.  1.
        994   -1    0    0    0    0 -0.00000000000E+00 -0.00000000000E+00  0.11368683772E-12  0.17120000000E+03  0.17120000000E+03 0.  0.
         13    1    1    2    0    0 -0.68615638335E+01  0.34308664200E+02  0.18270191418E+02  0.39471211736E+02  0.10566000000E+00 0.  1.
        994    1    1    2    0    0  0.19674930289E+00 -0.37968250886E+02  0.27568983395E+02  0.17751370547E+03  0.17120000000E+03 0.  0.
        998    1    1    2    0    0  0.66648145306E+01  0.36595866862E+01  0.14541608215E+04  0.14542150828E+04  0.10000000000E+02 0.  1.
</event>
<event>
 5    1  0.1146201E-008  0.3857069E+03  0.7957747E-01  0.3426680E+00
         13   -1    0    0    0    0  0.00000000000E+00  0.00000000000E+00  0.14999999963E+04  0.15000000000E+04  0.10566000000E+00 0. -1.
        994   -1    0    0    0    0 -0.00000000000E+00 -0.00000000000E+00  0.11368683772E-12  0.17120000000E+03  0.17120000000E+03 0.  0.
         13    1    1    2    0    0 -0.11879646690E+02  0.91169956147E+01  0.88902528138E+02  0.90154957090E+02  0.10566000000E+00 0. -1.
        994    1    1    2    0    0  0.89488642923E+01 -0.29156764872E+01  0.15702940966E+01  0.17146570842E+03  0.17120000000E+03 0.  0.
        998    1    1    2    0    0  0.29307823973E+01 -0.62013191275E+01  0.14095271740E+04  0.14095793345E+04  0.10000000000E+02 0. -1.
</event>
<event>
 5    1  0.1146201E-008  0.3834562E+03  0.7957747E-01  0.3436246E+00
         13   -1    0    0    0    0  0.00000000000E+00  0.00000000000E+00  0.14999999963E+04  0.15000000000E+04  0.10566000000E+00 0. -1.
        994   -1    0    0    0    0 -0.00000000000E+00 -0.00000000000E+00  0.11368683772E-12  0.17120000000E+03  0.17120000000E+03 0.  0.
         13    1    1    2    0    0 -0.90420926460E+01 -0.27539995984E+02  0.17179235609E+03  0.17422065202E+03  0.10566000000E+00 0. -1.
        994    1    1    2    0    0  0.33513999825E+02  0.10599490372E+02  0.64929688290E+01  0.17489178375E+03  0.17120000000E+03 0.  0.
        998    1    1    2    0    0 -0.24471907179E+02  0.16940505612E+02  0.13217146714E+04  0.13220875642E+04  0.10000000000E+02 0. -1.
</event>
<event>
 5    1  0.1146201E-008  0.3816615E+03  0.7957747E-01  0.3443956E+00
         13   -1    0    0    0    0  0.00000000000E+00  0.00000000000E+00  0.14999999963E+04  0.15000000000E+04  0.10566000000E+00 0.  1.
        994   -1    0    0    0    0 -0.00000000000E+00 -0.00000000000E+00  0.11368683772E-12  0.17120000000E+03  0.17120000000E+03 0.  0.
         13    1    1    2    0    0 -0.16712282563E+02 -0.70302613038E+01  0.47735732958E+02  0.51063062261E+02  0.10566000000E+00 0.  1.
        994    1    1    2    0    0  0.16161282139E+02  0.51710736161E+01  0.42546082562E+01  0.17209145456E+03  0.17120000000E+03 0.  0.
        998    1    1    2    0    0  0.55100042429E+00  0.18591876877E+01  0.14480096551E+04  0.14480454832E+04  0.10000000000E+02 0.  1.
</event>
<event>
 5    1  0.1146201E-008  0.3742773E+03  0.7957747E-01  0.3476461E+00
         13   -1    0    0    0    0  0.00000000000E+00  0.00000000000E+00  0.14999999963E+04  0.15000000000E+04  0.10566000000E+00 0.  1.
        994   -1    0    0    0    0 -0.00000000000E+00 -0.00000000000E+00  0.11368683772E-12  0.17120000000E+03  0.17120000000E+03 0.  0.
         13    1    1    2    0    0  0.54344183315E+02  0.33439599880E+02  0.24028583974E+03  0.24861374267E+03  0.10566000000E+00 0.  1.
        994    1    1    2    0    0 -0.68907423579E+02 -0.12307507346E+02  0.23934116423E+02  0.18649930212E+03  0.17120000000E+03 0.  0.
        998    1    1    2    0    0  0.14563240264E+02 -0.21132092534E+02  0.12357800401E+04  0.12360869552E+04  0.10000000000E+02 0.  1.
</event>
<event>
 5    1  0.1146201E-008  0.3779217E+03  0.7957747E-01  0.3460258E+00
         13   -1    0    0    0    0  0.00000000000E+00  0.00000000000E+00  0.14999999963E+04  0.15000000000E+04  0.10566000000E+00 0.  1.
        994   -1    0    0    0    0 -0.00000000000E+00 -0.00000000000E+00  0.11368683772E-12  0.17120000000E+03  0.17120000000E+03 0.  0.
         13    1    1    2    0    0  0.12754208182E+02 -0.11895422409E+02  0.27538404789E+02  0.32596714605E+02  0.10566000000E+00 0.  1.
        994    1    1    2    0    0 -0.86107720797E+00  0.99599096932E+01  0.55224064951E+01  0.17158052986E+03  0.17120000000E+03 0.  0.
        998    1    1    2    0    0 -0.11893130974E+02  0.19355127161E+01  0.14669391850E+04  0.14670227555E+04  0.10000000000E+02 0.  1.
</event>
<event>
 5    1  0.1146201E-008  0.3792186E+03  0.7957747E-01  0.3454568E+00
         13   -1    0    0    0    0  0.00000000000E+00  0.00000000000E+00  0.14999999963E+04  0.15000000000E+04  0.10566000000E+00 0. -1.
        994   -1    0    0    0    0 -0.00000000000E+00 -0.00000000000E+00  0.11368683772E-12  0.17120000000E+03  0.17120000000E+03 0.  0.
         13    1    1    2    0    0  0.13077537644E+02 -0.12013427824E+02  0.32808316549E+02  0.37306048273E+02  0.10566000000E+00 0. -1.
        994    1    1    2    0    0 -0.92210834886E+01  0.10802171251E+02  0.52044452897E+01  0.17186692973E+03  0.17120000000E+03 0.  0.
        998    1    1    2    0    0 -0.38564541552E+01  0.12112565735E+01  0.14619872344E+04  0.14620270220E+04  0.10000000000E+02 0. -1.
</event>
<event>
 5    1  0.1146201E-008  0.3716189E+03  0.7957747E-01  0.3488484E+00
         13   -1    0    0    0    0  0.00000000000E+00  0.00000000000E+00  0.14999999963E+04  0.15000000000E+04  0.10566000000E+00 0. -1.
        994   -1    0    0    0    0 -0.00000000000E+00 -0.00000000000E+00  0.11368683772E-12  0.17120000000E+03  0.17120000000E+03 0.  0.
         13    1    1    2    0    0  0.19426702917E+02 -0.25571024549E+02  0.54505027368E+02  0.63262020637E+02  0.10566000000E+00 0. -1.
        994    1    1    2    0    0 -0.11371878457E+02  0.43145048872E+02  0.15301881152E+02  0.17757928491E+03  0.17120000000E+03 0.  0.
        998    1    1    2    0    0 -0.80548244598E+01 -0.17574024323E+02  0.14301930878E+04  0.14303586945E+04  0.10000000000E+02 0. -1.
</event>
<event>
 5    1  0.1146201E-008  0.3720421E+03  0.7957747E-01  0.3486558E+00
         13   -1    0    0    0    0  0.00000000000E+00  0.00000000000E+00  0.14999999963E+04  0.15000000000E+04  0.10566000000E+00 0.  1.
        994   -1    0    0    0    0 -0.00000000000E+00 -0.00000000000E+00  0.11368683772E-12  0.17120000000E+03  0.17120000000E+03 0.  0.
         13    1    1    2    0    0  0.56630416205E+01  0.16079958587E+02  0.14322833081E+02  0.22266338272E+02  0.10566000000E+00 0.  1.
        994    1    1    2    0    0  0.42822357264E+00 -0.62259170752E+01  0.83393236562E+01  0.17151655820E+03  0.17120000000E+03 0.  0.
        998    1    1    2    0    0 -0.60912651932E+01 -0.98540415114E+01  0.14773378395E+04  0.14774171035E+04  0.10000000000E+02 0.  1.
</event>
<event>
 5    1  0.1146201E-008  0.4042566E+03  0.7957747E-01  0.3351895E+00
         13   -1    0    0    0    0  0.00000000000E+00  0.00000000000E+00  0.14999999963E+04  0.15000000000E+04  0.10566000000E+00 0.  1.
        994   -1    0    0    0    0 -0.00000000000E+00 -0.00000000000E+00  0.11368683772E-12  0.17120000000E+03  0.17120000000E+03 0.  0.
         13    1    1    2    0    0 -0.35970972213E+02 -0.34699172945E+02  0.29624293237E+02  0.58099512552E+02  0.10566000000E+00 0.  1.
        994    1    1    2    0    0  0.36099049512E+02  0.27563904159E+02  0.38609615842E+02  0.18128169412E+03  0.17120000000E+03 0.  0.
        998    1    1    2    0    0 -0.12807729964E+00  0.71352687859E+01  0.14317660872E+04  0.14318187933E+04  0.10000000000E+02 0.  1.
</event>
<event>
 5    1  0.1146201E-008  0.3846458E+03  0.7957747E-01  0.3431176E+00
         13   -1    0    0    0    0  0.00000000000E+00  0.00000000000E+00  0.14999999963E+04  0.15000000000E+04  0.10566000000E+00 0. -1.
        994   -1    0    0    0    0 -0.00000000000E+00 -0.00000000000E+00  0.11368683772E-12  0.17120000000E+03  0.17120000000E+03 0.  0.
         13    1    1    2    0    0 -0.44635617704E+01 -0.16037231240E+02  0.75710666090E+02  0.77519238215E+02  0.10566000000E+00 0. -1.
        994    1    1    2    0    0  0.65452707638E+01  0.11211018035E+02  0.23611698328E+01  0.17170772440E+03  0.17120000000E+03 0.  0.
        998    1    1    2    0    0 -0.20817089934E+01  0.48262132044E+01  0.14219281604E+04  0.14219730374E+04  0.10000000000E+02 0. -1.
</event>
<event>
 5    1  0.1146201E-008  0.3849972E+03  0.7957747E-01  0.3429684E+00
         13   -1    0    0    0    0  0.00000000000E+00  0.00000000000E+00  0.14999999963E+04  0.15000000000E+04  0.10566000000E+00 0.  1.
        994   -1    0    0    0    0 -0.00000000000E+00 -0.00000000000E+00  0.11368683772E-12  0.17120000000E+03  0.17120000000E+03 0.  0.
         13    1    1    2    0    0 -0.10460716476E+02 -0.10298936358E+01  0.32414600074E+02  0.34076454218E+02  0.10566000000E+00 0.  1.
        994    1    1    2    0    0  0.15541625662E+02 -0.32953725532E-01  0.24262869847E+01  0.17192111587E+03  0.17120000000E+03 0.  0.
        998    1    1    2    0    0 -0.50809091854E+01  0.10628473614E+01  0.14651591092E+04  0.14652024299E+04  0.10000000000E+02 0.  1.
</event>
<event>
 5    1  0.1146201E-008  0.3797936E+03  0.7957747E-01  0.3452058E+00
         13   -1    0    0    0    0  0.00000000000E+00  0.00000000000E+00  0.14999999963E+04  0.15000000000E+04  0.10566000000E+00 0.  1.
        994   -1    0    0    0    0 -0.00000000000E+00 -0.00000000000E+00  0.11368683772E-12  0.17120000000E+03  0.17120000000E+03 0.  0.
         13    1    1    2    0    0  0.57689590306E+02  0.47961776732E+01  0.28882952314E+03  0.29457358461E+03  0.10566000000E+00 0.  1.
        994    1    1    2    0    0 -0.69685818040E+02  0.25798303620E+01  0.20679716445E+02  0.18601037453E+03  0.17120000000E+03 0.  0.
        998    1    1    2    0    0  0.11996227735E+02 -0.73760080352E+01  0.11904907567E+04  0.11906160409E+04  0.10000000000E+02 0.  1.
</event>
<event>
 5    1  0.1146201E-008  0.3844869E+03  0.7957747E-01  0.3431851E+00
         13   -1    0    0    0    0  0.00000000000E+00  0.00000000000E+00  0.14999999963E+04  0.15000000000E+04  0.10566000000E+00 0.  1.
        994   -1    0    0    0    0 -0.00000000000E+00 -0.00000000000E+00  0.11368683772E-12  0.17120000000E+03  0.17120000000E+03 0.  0.
         13    1    1    2    0    0 -0.51554046389E+02  0.47349583090E+01  0.69446958783E+02  0.86620614045E+02  0.10566000000E+00 0.  1.
        994    1    1    2    0    0  0.12007489341E+02  0.23634205444E+02  0.21407267208E+02  0.17455791748E+03  0.17120000000E+03 0.  0.
        998    1    1    2    0    0  0.39546557049E+02 -0.28369163753E+02  0.14091457703E+04  0.14100214685E+04  0.10000000000E+02 0.  1.
</event>
<event>
 5    1  0.1146201E-008  0.4030603E+03  0.7957747E-01  0.3356511E+00
         13   -1    0    0    0    0  0.00000000000E+00  0.00000000000E+00  0.14999999963E+04  0.15000000000E+04  0.10566000000E+00 0. -1.
        994   -1    0    0    0    0 -0.00000000000E+00 -0.00000000000E+00  0.11368683772E-12  0.17120000000E+03  0.17120000000E+03 0.  0.
         13    1    1    2    0    0  0.51444594985E+02 -0.21857273286E+02  0.40756411731E+02  0.69176462831E+02  0.10566000000E+00 0. -1.
        994    1    1    2    0    0  0.89554949786E+02  0.18327404174E+03  0.22313225359E+03  0.34742899418E+03  0.17120000000E+03 0.  0.
        998    1    1    2    0    0 -0.14099954477E+03 -0.16141676845E+03  0.12361113310E+04  0.12545945430E+04  0.10000000000E+02 0. -1.
</event>
<event>
 5    1  0.1146201E-008  0.3756319E+03  0.7957747E-01  0.3470401E+00
         13   -1    0    0    0    0  0.00000000000E+00  0.00000000000E+00  0.14999999963E+04  0.15000000000E+04  0.10566000000E+00 0. -1.
        994   -1    0    0    0    0 -0.00000000000E+00 -0.00000000000E+00  0.11368683772E-12  0.17120000000E+03  0.17120000000E+03 0.  0.
         13    1    1    2    0    0 -0.27323501338E+02  0.64767453843E+01  0.59152000375E+02  0.65478945230E+02  0.10566000000E+00 0. -1.
        994    1    1    2    0    0  0.25584193517E+02  0.19146844463E+02  0.98261027471E+01  0.17443378373E+03  0.17120000000E+03 0.  0.
        998    1    1    2    0    0  0.17393078207E+01 -0.25623589847E+02  0.14310218932E+04  0.14312872710E+04  0.10000000000E+02 0. -1.
</event>
