<event>
 5    1  0.6487493E-012  0.2322670E+03  0.7957747E-01  0.4541666E+00
         13   -1    0    0    0    0  0.00000000000E+00  0.00000000000E+00  0.49999998884E+03  0.50000000000E+03  0.10566000000E+00 0.  1.
        994   -1    0    0    0    0 -0.00000000000E+00 -0.00000000000E+00  0.00000000000E+00  0.13100000000E+03  0.13100000000E+03 0.  0.
         13    1    1    2    0    0 -0.10547820720E+02 -0.20318944958E+01  0.28199744130E+01  0.11106238648E+02  0.10566000000E+00 0. -1.
        994    1    1    2    0    0  0.21362959151E+02 -0.75944847584E+01  0.75319702624E+02  0.15280088294E+03  0.13100000000E+03 0.  0.
        997    1    1    2    0    0 -0.10815138431E+02  0.96263792541E+01  0.42186031180E+03  0.46709287842E+03  0.20000000000E+03 0.  0.
</event>
<event>
 5    1  0.6487493E-012  0.2371013E+03  0.7957747E-01  0.4481247E+00
         13   -1    0    0    0    0  0.00000000000E+00  0.00000000000E+00  0.49999998884E+03  0.50000000000E+03  0.10566000000E+00 0. -1.
        994   -1    0    0    0    0 -0.00000000000E+00 -0.00000000000E+00  0.00000000000E+00  0.13100000000E+03  0.13100000000E+03 0.  0.
         13    1    1    2    0    0  0.73133913501E+01 -0.22191140596E+02  0.18007069925E+02  0.29499121094E+02  0.10566000000E+00 0.  1.
        994    1    1    2    0    0 -0.18485218391E+02  0.25092586448E+02  0.92063858556E+02  0.16311987998E+03  0.13100000000E+03 0.  0.
        997    1    1    2    0    0  0.11171827041E+02 -0.29014458523E+01  0.38992906035E+03  0.43838099892E+03  0.20000000000E+03 0.  0.
</event>
<event>
 5    1  0.6487493E-012  0.2472013E+03  0.7957747E-01  0.4364036E+00
         13   -1    0    0    0    0  0.00000000000E+00  0.00000000000E+00  0.49999998884E+03  0.50000000000E+03  0.10566000000E+00 0. -1.
        994   -1    0    0    0    0 -0.00000000000E+00 -0.00000000000E+00  0.00000000000E+00  0.13100000000E+03  0.13100000000E+03 0.  0.
         13    1    1    2    0    0 -0.34162689309E+01 -0.18467291319E+02 -0.46803327716E+01  0.19355320223E+02  0.10566000000E+00 0.  1.
        994    1    1    2    0    0  0.18635378946E+02  0.27344168457E+02  0.13522144590E+03  0.19115653357E+03  0.13100000000E+03 0.  0.
        997    1    1    2    0    0 -0.15219110015E+02 -0.88768771381E+01  0.36945887571E+03  0.42048814620E+03  0.20000000000E+03 0.  0.
</event>
<event>
 5    1  0.6487493E-012  0.2327123E+03  0.7957747E-01  0.4535975E+00
         13   -1    0    0    0    0  0.00000000000E+00  0.00000000000E+00  0.49999998884E+03  0.50000000000E+03  0.10566000000E+00 0. -1.
        994   -1    0    0    0    0 -0.00000000000E+00 -0.00000000000E+00  0.00000000000E+00  0.13100000000E+03  0.13100000000E+03 0.  0.
         13    1    1    2    0    0 -0.15305779455E+02 -0.32960867521E+01  0.13818906865E+02  0.20883113359E+02  0.10566000000E+00 0.  1.
        994    1    1    2    0    0  0.15939129141E+01  0.10206796372E+02  0.71808567867E+02  0.14974708568E+03  0.13100000000E+03 0.  0.
        997    1    1    2    0    0  0.13711866541E+02 -0.69107096198E+01  0.41437251410E+03  0.46036980096E+03  0.20000000000E+03 0.  0.
</event>
<event>
 5    1  0.6487493E-012  0.2352569E+03  0.7957747E-01  0.4503947E+00
         13   -1    0    0    0    0  0.00000000000E+00  0.00000000000E+00  0.49999998884E+03  0.50000000000E+03  0.10566000000E+00 0. -1.
        994   -1    0    0    0    0 -0.00000000000E+00 -0.00000000000E+00  0.00000000000E+00  0.13100000000E+03  0.13100000000E+03 0.  0.
         13    1    1    2    0    0  0.12664938768E+02  0.96470186233E+01  0.85870171849E+01  0.18089048357E+02  0.10566000000E+00 0.  1.
        994    1    1    2    0    0 -0.55142273216E+01  0.10294890574E+02  0.77326873195E+02  0.15256748275E+03  0.13100000000E+03 0.  0.
        997    1    1    2    0    0 -0.71507114460E+01 -0.19941909197E+02  0.41408609846E+03  0.46034346889E+03  0.20000000000E+03 0.  0.
</event>
<event>
 5    1  0.9820524E-012  0.2403846E+03  0.7957747E-01  0.4441863E+00
         13   -1    0    0    0    0  0.00000000000E+00  0.00000000000E+00  0.49999998884E+03  0.50000000000E+03  0.10566000000E+00 0. -1.
        994   -1    0    0    0    0 -0.00000000000E+00 -0.00000000000E+00  0.00000000000E+00  0.13100000000E+03  0.13100000000E+03 0.  0.
         13    1    1    2    0    0  0.10747715100E+02 -0.15383556365E+02  0.20239414397E+01  0.18875240112E+02  0.10566000000E+00 0.  1.
        994    1    1    2    0    0 -0.18222108629E+02  0.36000045491E+02  0.11261258644E+03  0.17739967064E+03  0.13100000000E+03 0.  0.
        997    1    1    2    0    0  0.74743935296E+01 -0.20616489126E+02  0.38536346096E+03  0.43472508925E+03  0.20000000000E+03 0.  0.
</event>
<event>
 5    1  0.6487493E-012  0.2417161E+03  0.7957747E-01  0.4426254E+00
         13   -1    0    0    0    0  0.00000000000E+00  0.00000000000E+00  0.49999998884E+03  0.50000000000E+03  0.10566000000E+00 0.  1.
        994   -1    0    0    0    0 -0.00000000000E+00 -0.00000000000E+00  0.00000000000E+00  0.13100000000E+03  0.13100000000E+03 0.  0.
         13    1    1    2    0    0  0.23191478843E+02  0.12474093617E+01  0.10566833949E+02  0.25516070716E+02  0.10566000000E+00 0. -1.
        994    1    1    2    0    0 -0.29245520620E+00 -0.29111184318E+02  0.10408340386E+03  0.16982903621E+03  0.13100000000E+03 0.  0.
        997    1    1    2    0    0 -0.22899023637E+02  0.27863774956E+02  0.38534975103E+03  0.43565489307E+03  0.20000000000E+03 0.  0.
</event>
<event>
 5    1  0.6487493E-012  0.2437115E+03  0.7957747E-01  0.4403239E+00
         13   -1    0    0    0    0  0.00000000000E+00  0.00000000000E+00  0.49999998884E+03  0.50000000000E+03  0.10566000000E+00 0. -1.
        994   -1    0    0    0    0 -0.00000000000E+00 -0.00000000000E+00  0.00000000000E+00  0.13100000000E+03  0.13100000000E+03 0.  0.
         13    1    1    2    0    0 -0.29689678731E+02 -0.62213323711E+01  0.19658417937E+02  0.36147566438E+02  0.10566000000E+00 0.  1.
        994    1    1    2    0    0 -0.11690674592E+02  0.51221119714E+02  0.17652721569E+03  0.22601578011E+03  0.13100000000E+03 0.  0.
        997    1    1    2    0    0  0.41380353323E+02 -0.44999787343E+02  0.30381435520E+03  0.36883665345E+03  0.20000000000E+03 0.  0.
</event>
<event>
 5    1  0.6487493E-012  0.2286550E+03  0.7957747E-01  0.4588826E+00
         13   -1    0    0    0    0  0.00000000000E+00  0.00000000000E+00  0.49999998884E+03  0.50000000000E+03  0.10566000000E+00 0. -1.
        994   -1    0    0    0    0 -0.00000000000E+00 -0.00000000000E+00  0.00000000000E+00  0.13100000000E+03  0.13100000000E+03 0.  0.
         13    1    1    2    0    0 -0.85556265735E+01 -0.69861481492E+01  0.83176588836E+01  0.13827495267E+02  0.10566000000E+00 0.  1.
        994    1    1    2    0    0  0.63973201551E+02 -0.16497660234E+02  0.11482267664E+03  0.18630617376E+03  0.13100000000E+03 0.  0.
        997    1    1    2    0    0 -0.55417574977E+02  0.23483808384E+02  0.37685965331E+03  0.43086633097E+03  0.20000000000E+03 0.  0.
</event>
<event>
 5    1  0.6487493E-012  0.2430832E+03  0.7957747E-01  0.4410437E+00
         13   -1    0    0    0    0  0.00000000000E+00  0.00000000000E+00  0.49999998884E+03  0.50000000000E+03  0.10566000000E+00 0.  1.
        994   -1    0    0    0    0 -0.00000000000E+00 -0.00000000000E+00  0.00000000000E+00  0.13100000000E+03  0.13100000000E+03 0.  0.
         13    1    1    2    0    0 -0.30037323042E+02  0.21861177391E+01  0.21891259486E+02  0.37232489740E+02  0.10566000000E+00 0. -1.
        994    1    1    2    0    0  0.17002195496E+02  0.60903513312E+01  0.10017555467E+03  0.16589848940E+03  0.13100000000E+03 0.  0.
        997    1    1    2    0    0  0.13035127546E+02 -0.82764690703E+01  0.37793317468E+03  0.42786902086E+03  0.20000000000E+03 0.  0.
</event>
<event>
 5    1  0.6487493E-012  0.2321438E+03  0.7957747E-01  0.4543246E+00
         13   -1    0    0    0    0  0.00000000000E+00  0.00000000000E+00  0.49999998884E+03  0.50000000000E+03  0.10566000000E+00 0.  1.
        994   -1    0    0    0    0 -0.00000000000E+00 -0.00000000000E+00  0.00000000000E+00  0.13100000000E+03  0.13100000000E+03 0.  0.
         13    1    1    2    0    0 -0.83753780230E+01  0.67578929545E+01  0.85466339429E+00  0.10796188576E+02  0.10566000000E+00 0. -1.
        994    1    1    2    0    0  0.30827793196E+02 -0.52964914073E+02  0.11775610373E+03  0.18650237243E+03  0.13100000000E+03 0.  0.
        997    1    1    2    0    0 -0.22452415173E+02  0.46207021118E+02  0.38138922171E+03  0.43370143900E+03  0.20000000000E+03 0.  0.
</event>
<event>
 5    1  0.6487493E-012  0.2376354E+03  0.7957747E-01  0.4474751E+00
         13   -1    0    0    0    0  0.00000000000E+00  0.00000000000E+00  0.49999998884E+03  0.50000000000E+03  0.10566000000E+00 0. -1.
        994   -1    0    0    0    0 -0.00000000000E+00 -0.00000000000E+00  0.00000000000E+00  0.13100000000E+03  0.13100000000E+03 0.  0.
         13    1    1    2    0    0  0.27250894991E+02  0.10710751269E+02  0.75365714849E+02  0.80853779190E+02  0.10566000000E+00 0.  1.
        994    1    1    2    0    0 -0.42009270609E+02 -0.21193457056E+02  0.11240903305E+03  0.17891543296E+03  0.13100000000E+03 0.  0.
        997    1    1    2    0    0  0.14758375617E+02  0.10482705787E+02  0.31222524094E+03  0.37123078785E+03  0.20000000000E+03 0.  0.
</event>
<event>
 5    1  0.6487493E-012  0.2306997E+03  0.7957747E-01  0.4561910E+00
         13   -1    0    0    0    0  0.00000000000E+00  0.00000000000E+00  0.49999998884E+03  0.50000000000E+03  0.10566000000E+00 0. -1.
        994   -1    0    0    0    0 -0.00000000000E+00 -0.00000000000E+00  0.00000000000E+00  0.13100000000E+03  0.13100000000E+03 0.  0.
         13    1    1    2    0    0  0.39663907722E+01  0.13307198592E+02  0.43773774090E+02  0.45923504355E+02  0.10566000000E+00 0.  1.
        994    1    1    2    0    0  0.92496188773E+01 -0.58025983552E+00  0.67793480669E+02  0.14779326159E+03  0.13100000000E+03 0.  0.
        997    1    1    2    0    0 -0.13216009650E+02 -0.12726938756E+02  0.38843273408E+03  0.43728323405E+03  0.20000000000E+03 0.  0.
</event>
<event>
 5    1  0.6487493E-012  0.2450614E+03  0.7957747E-01  0.4387919E+00
         13   -1    0    0    0    0  0.00000000000E+00  0.00000000000E+00  0.49999998884E+03  0.50000000000E+03  0.10566000000E+00 0. -1.
        994   -1    0    0    0    0 -0.00000000000E+00 -0.00000000000E+00  0.00000000000E+00  0.13100000000E+03  0.13100000000E+03 0.  0.
         13    1    1    2    0    0 -0.20440523306E+02 -0.21580918801E+02  0.11248419694E+02  0.31781899864E+02  0.10566000000E+00 0.  1.
        994    1    1    2    0    0  0.35151873640E+02  0.15491986516E+02  0.13186835281E+03  0.18980494814E+03  0.13100000000E+03 0.  0.
        997    1    1    2    0    0 -0.14711350334E+02  0.60889322842E+01  0.35688321634E+03  0.40941315200E+03  0.20000000000E+03 0.  0.
</event>
<event>
 5    1  0.6487493E-012  0.2335282E+03  0.7957747E-01  0.4525614E+00
         13   -1    0    0    0    0  0.00000000000E+00  0.00000000000E+00  0.49999998884E+03  0.50000000000E+03  0.10566000000E+00 0.  1.
        994   -1    0    0    0    0 -0.00000000000E+00 -0.00000000000E+00  0.00000000000E+00  0.13100000000E+03  0.13100000000E+03 0.  0.
         13    1    1    2    0    0 -0.21245968661E+02  0.26723366357E+01  0.27755250712E+02  0.35055636830E+02  0.10566000000E+00 0. -1.
        994    1    1    2    0    0  0.24641534884E+02 -0.33888955938E+02  0.92947495797E+02  0.16599970949E+03  0.13100000000E+03 0.  0.
        997    1    1    2    0    0 -0.33955662233E+01  0.31216619302E+02  0.37929724233E+03  0.42994465368E+03  0.20000000000E+03 0.  0.
</event>
<event>
 5    1  0.6487493E-012  0.2442734E+03  0.7957747E-01  0.4396837E+00
         13   -1    0    0    0    0  0.00000000000E+00  0.00000000000E+00  0.49999998884E+03  0.50000000000E+03  0.10566000000E+00 0. -1.
        994   -1    0    0    0    0 -0.00000000000E+00 -0.00000000000E+00  0.00000000000E+00  0.13100000000E+03  0.13100000000E+03 0.  0.
         13    1    1    2    0    0 -0.29091495439E+02 -0.23424031659E+02  0.79565037682E+02  0.87895430777E+02  0.10566000000E+00 0.  1.
        994    1    1    2    0    0 -0.11520862845E+01  0.42101416239E+02  0.13501950423E+03  0.19278257980E+03  0.13100000000E+03 0.  0.
        997    1    1    2    0    0  0.30243581724E+02 -0.18677384580E+02  0.28541544692E+03  0.35032198942E+03  0.20000000000E+03 0.  0.
</event>
<event>
 5    1  0.6487493E-012  0.2332978E+03  0.7957747E-01  0.4528531E+00
         13   -1    0    0    0    0  0.00000000000E+00  0.00000000000E+00  0.49999998884E+03  0.50000000000E+03  0.10566000000E+00 0. -1.
        994   -1    0    0    0    0 -0.00000000000E+00 -0.00000000000E+00  0.00000000000E+00  0.13100000000E+03  0.13100000000E+03 0.  0.
         13    1    1    2    0    0  0.11971021731E+02  0.12422137493E+02  0.64346201408E+02  0.66618763579E+02  0.10566000000E+00 0.  1.
        994    1    1    2    0    0  0.35641853134E+01 -0.47390237959E+02  0.99018396951E+02  0.17095081458E+03  0.13100000000E+03 0.  0.
        997    1    1    2    0    0 -0.15535207045E+02  0.34968100467E+02  0.33663539048E+03  0.39343042184E+03  0.20000000000E+03 0.  0.
</event>
<event>
 5    1  0.6487493E-012  0.2484215E+03  0.7957747E-01  0.4350634E+00
         13   -1    0    0    0    0  0.00000000000E+00  0.00000000000E+00  0.49999998884E+03  0.50000000000E+03  0.10566000000E+00 0.  1.
        994   -1    0    0    0    0 -0.00000000000E+00 -0.00000000000E+00  0.00000000000E+00  0.13100000000E+03  0.13100000000E+03 0.  0.
         13    1    1    2    0    0  0.33098648958E+02 -0.27730911435E+02  0.54945637243E+02  0.69882460088E+02  0.10566000000E+00 0. -1.
        994    1    1    2    0    0  0.75960287422E+01  0.31464961106E+02  0.14361939632E+03  0.19706667508E+03  0.13100000000E+03 0.  0.
        997    1    1    2    0    0 -0.40694677700E+02 -0.37340496707E+01  0.30143495528E+03  0.36405086483E+03  0.20000000000E+03 0.  0.
</event>
<event>
 5    1  0.6487493E-012  0.2301699E+03  0.7957747E-01  0.4568829E+00
         13   -1    0    0    0    0  0.00000000000E+00  0.00000000000E+00  0.49999998884E+03  0.50000000000E+03  0.10566000000E+00 0. -1.
        994   -1    0    0    0    0 -0.00000000000E+00 -0.00000000000E+00  0.00000000000E+00  0.13100000000E+03  0.13100000000E+03 0.  0.
         13    1    1    2    0    0  0.33310414359E+01  0.11380026032E+02  0.52517306080E+02  0.53839385505E+02  0.10566000000E+00 0.  1.
        994    1    1    2    0    0 -0.14032019618E+02 -0.69412494048E+02  0.13203277565E+03  0.19901920950E+03  0.13100000000E+03 0.  0.
        997    1    1    2    0    0  0.10700978182E+02  0.58032468015E+02  0.31544990711E+03  0.37814140500E+03  0.20000000000E+03 0.  0.
</event>
<event>
 5    1  0.6487493E-012  0.2291994E+03  0.7957747E-01  0.4581603E+00
         13   -1    0    0    0    0  0.00000000000E+00  0.00000000000E+00  0.49999998884E+03  0.50000000000E+03  0.10566000000E+00 0. -1.
        994   -1    0    0    0    0 -0.00000000000E+00 -0.00000000000E+00  0.00000000000E+00  0.13100000000E+03  0.13100000000E+03 0.  0.
         13    1    1    2    0    0 -0.48629969721E+01  0.10448819633E+02  0.11023193143E+02  0.15948307822E+02  0.10566000000E+00 0.  1.
        994    1    1    2    0    0 -0.39791456490E+02 -0.34031048172E+02  0.94210303757E+02  0.16964095491E+03  0.13100000000E+03 0.  0.
        997    1    1    2    0    0  0.44654453462E+02  0.23582228539E+02  0.39476649194E+03  0.44541073727E+03  0.20000000000E+03 0.  0.
</event>
<event>
 5    1  0.6487493E-012  0.2437768E+03  0.7957747E-01  0.4402493E+00
         13   -1    0    0    0    0  0.00000000000E+00  0.00000000000E+00  0.49999998884E+03  0.50000000000E+03  0.10566000000E+00 0.  1.
        994   -1    0    0    0    0 -0.00000000000E+00 -0.00000000000E+00  0.00000000000E+00  0.13100000000E+03  0.13100000000E+03 0.  0.
         13    1    1    2    0    0  0.39993261274E+02  0.58353955252E+00  0.42887925539E+02  0.58644580200E+02  0.10566000000E+00 0. -1.
        994    1    1    2    0    0 -0.41182032129E+02 -0.22447109543E+02  0.14455557073E+03  0.20064183394E+03  0.13100000000E+03 0.  0.
        997    1    1    2    0    0  0.11887708554E+01  0.21863569990E+02  0.31255649256E+03  0.37171358586E+03  0.20000000000E+03 0.  0.
</event>
<event>
 5    1  0.6487493E-012  0.2377207E+03  0.7957747E-01  0.4473717E+00
         13   -1    0    0    0    0  0.00000000000E+00  0.00000000000E+00  0.49999998884E+03  0.50000000000E+03  0.10566000000E+00 0. -1.
        994   -1    0    0    0    0 -0.00000000000E+00 -0.00000000000E+00  0.00000000000E+00  0.13100000000E+03  0.13100000000E+03 0.  0.
         13    1    1    2    0    0  0.79194951143E+01  0.24710274814E+02  0.22581232191E+02  0.34398245530E+02  0.10566000000E+00 0.  1.
        994    1    1    2    0    0  0.22729931193E+02 -0.39855369076E+02  0.11088520754E+03  0.17765593001E+03  0.13100000000E+03 0.  0.
        997    1    1    2    0    0 -0.30649426307E+02  0.15145094263E+02  0.36653354911E+03  0.41894582446E+03  0.20000000000E+03 0.  0.
</event>
<event>
 5    1  0.6487493E-012  0.2310743E+03  0.7957747E-01  0.4557041E+00
         13   -1    0    0    0    0  0.00000000000E+00  0.00000000000E+00  0.49999998884E+03  0.50000000000E+03  0.10566000000E+00 0. -1.
        994   -1    0    0    0    0 -0.00000000000E+00 -0.00000000000E+00  0.00000000000E+00  0.13100000000E+03  0.13100000000E+03 0.  0.
         13    1    1    2    0    0  0.17922217219E+01  0.18707719010E+02  0.48195080727E+02  0.51729757196E+02  0.10566000000E+00 0.  1.
        994    1    1    2    0    0 -0.22793678638E+02 -0.51300231328E+02  0.10488191165E+03  0.17695332975E+03  0.13100000000E+03 0.  0.
        997    1    1    2    0    0  0.21001456917E+02  0.32592512319E+02  0.34692299646E+03  0.40231691305E+03  0.20000000000E+03 0.  0.
</event>
<event>
 5    1  0.6487493E-012  0.2444445E+03  0.7957747E-01  0.4394895E+00
         13   -1    0    0    0    0  0.00000000000E+00  0.00000000000E+00  0.49999998884E+03  0.50000000000E+03  0.10566000000E+00 0.  1.
        994   -1    0    0    0    0 -0.00000000000E+00 -0.00000000000E+00  0.00000000000E+00  0.13100000000E+03  0.13100000000E+03 0.  0.
         13    1    1    2    0    0  0.27809004590E+01 -0.27836149470E+02  0.10618397355E+02  0.29922335321E+02  0.10566000000E+00 0. -1.
        994    1    1    2    0    0 -0.70155693049E+01  0.30857473502E+02  0.11751426182E+03  0.17880716880E+03  0.13100000000E+03 0.  0.
        997    1    1    2    0    0  0.42346688459E+01 -0.30213240321E+01  0.37186732966E+03  0.42227049588E+03  0.20000000000E+03 0.  0.
</event>
<event>
 5    1  0.6487493E-012  0.2321545E+03  0.7957747E-01  0.4543108E+00
         13   -1    0    0    0    0  0.00000000000E+00  0.00000000000E+00  0.49999998884E+03  0.50000000000E+03  0.10566000000E+00 0.  1.
        994   -1    0    0    0    0 -0.00000000000E+00 -0.00000000000E+00  0.00000000000E+00  0.13100000000E+03  0.13100000000E+03 0.  0.
         13    1    1    2    0    0 -0.13221260793E+02  0.14404438556E+02  0.30658429047E+02  0.36362618480E+02  0.10566000000E+00 0. -1.
        994    1    1    2    0    0 -0.18297192910E+02 -0.56989035048E+02  0.11496234450E+03  0.18428206108E+03  0.13100000000E+03 0.  0.
        997    1    1    2    0    0  0.31518453702E+02  0.42584596493E+02  0.35437921529E+03  0.41035532044E+03  0.20000000000E+03 0.  0.
</event>
<event>
 5    1  0.6487493E-012  0.2398939E+03  0.7957747E-01  0.4447668E+00
         13   -1    0    0    0    0  0.00000000000E+00  0.00000000000E+00  0.49999998884E+03  0.50000000000E+03  0.10566000000E+00 0. -1.
        994   -1    0    0    0    0 -0.00000000000E+00 -0.00000000000E+00  0.00000000000E+00  0.13100000000E+03  0.13100000000E+03 0.  0.
         13    1    1    2    0    0 -0.25999729729E+02 -0.12049015376E+02  0.44462525398E+02  0.52896994682E+02  0.10566000000E+00 0.  1.
        994    1    1    2    0    0 -0.63214492123E+01  0.11441807732E+01  0.86937851377E+02  0.15735456737E+03  0.13100000000E+03 0.  0.
        997    1    1    2    0    0  0.32321178941E+02  0.10904834603E+02  0.36859961206E+03  0.42074843795E+03  0.20000000000E+03 0.  0.
</event>
<event>
 5    1  0.7897075E-012  0.2449498E+03  0.7957747E-01  0.4389177E+00
         13   -1    0    0    0    0  0.00000000000E+00  0.00000000000E+00  0.49999998884E+03  0.50000000000E+03  0.10566000000E+00 0. -1.
        994   -1    0    0    0    0 -0.00000000000E+00 -0.00000000000E+00  0.00000000000E+00  0.13100000000E+03  0.13100000000E+03 0.  0.
         13    1    1    2    0    0  0.12758064548E+02  0.51067686451E+01 -0.48746054424E+01  0.14581503326E+02  0.10566000000E+00 0.  1.
        994    1    1    2    0    0  0.29672198109E+01  0.14211573739E+02  0.10459262786E+03  0.16825989131E+03  0.13100000000E+03 0.  0.
        997    1    1    2    0    0 -0.15725284359E+02 -0.19318342384E+02  0.40028196642E+03  0.44815860536E+03  0.20000000000E+03 0.  0.
</event>
<event>
 5    1  0.6487493E-012  0.2305410E+03  0.7957747E-01  0.4563979E+00
         13   -1    0    0    0    0  0.00000000000E+00  0.00000000000E+00  0.49999998884E+03  0.50000000000E+03  0.10566000000E+00 0. -1.
        994   -1    0    0    0    0 -0.00000000000E+00 -0.00000000000E+00  0.00000000000E+00  0.13100000000E+03  0.13100000000E+03 0.  0.
         13    1    1    2    0    0  0.14006268372E+02  0.12794174687E+02  0.33984293994E+02  0.38920558345E+02  0.10566000000E+00 0.  1.
        994    1    1    2    0    0 -0.13941522884E+02 -0.78299130041E+02  0.17004698800E+03  0.22891504528E+03  0.13100000000E+03 0.  0.
        997    1    1    2    0    0 -0.64745488062E-01  0.65504955354E+02  0.29596870684E+03  0.36316439638E+03  0.20000000000E+03 0.  0.
</event>
<event>
 5    1  0.6487493E-012  0.2313539E+03  0.7957747E-01  0.4553420E+00
         13   -1    0    0    0    0  0.00000000000E+00  0.00000000000E+00  0.49999998884E+03  0.50000000000E+03  0.10566000000E+00 0. -1.
        994   -1    0    0    0    0 -0.00000000000E+00 -0.00000000000E+00  0.00000000000E+00  0.13100000000E+03  0.13100000000E+03 0.  0.
         13    1    1    2    0    0  0.16415210979E+02 -0.21776711433E+01  0.24164929860E+02  0.29294306653E+02  0.10566000000E+00 0.  1.
        994    1    1    2    0    0 -0.13996180980E+02 -0.23545408936E+02  0.76032701684E+02  0.15392287383E+03  0.13100000000E+03 0.  0.
        997    1    1    2    0    0 -0.24190299992E+01  0.25723080079E+02  0.39980235729E+03  0.44778281951E+03  0.20000000000E+03 0.  0.
</event>
<event>
 5    1  0.6487493E-012  0.2482214E+03  0.7957747E-01  0.4352822E+00
         13   -1    0    0    0    0  0.00000000000E+00  0.00000000000E+00  0.49999998884E+03  0.50000000000E+03  0.10566000000E+00 0. -1.
        994   -1    0    0    0    0 -0.00000000000E+00 -0.00000000000E+00  0.00000000000E+00  0.13100000000E+03  0.13100000000E+03 0.  0.
         13    1    1    2    0    0  0.12099139290E+02 -0.37284830507E+02  0.28776490176E+02  0.48627618782E+02  0.10566000000E+00 0.  1.
        994    1    1    2    0    0 -0.11521707311E+02  0.21718890324E+02  0.12783673211E+03  0.18468267383E+03  0.13100000000E+03 0.  0.
        997    1    1    2    0    0 -0.57743197896E+00  0.15565940183E+02  0.34338676655E+03  0.39768970739E+03  0.20000000000E+03 0.  0.
</event>
<event>
 5    1  0.6487493E-012  0.2350905E+03  0.7957747E-01  0.4506016E+00
         13   -1    0    0    0    0  0.00000000000E+00  0.00000000000E+00  0.49999998884E+03  0.50000000000E+03  0.10566000000E+00 0.  1.
        994   -1    0    0    0    0 -0.00000000000E+00 -0.00000000000E+00  0.00000000000E+00  0.13100000000E+03  0.13100000000E+03 0.  0.
         13    1    1    2    0    0 -0.65566841656E+01 -0.11458665623E+02  0.52427724258E+01  0.14205243816E+02  0.10566000000E+00 0. -1.
        994    1    1    2    0    0 -0.31987727810E+02 -0.28703907871E+02  0.98475910470E+02  0.16942737087E+03  0.13100000000E+03 0.  0.
        997    1    1    2    0    0  0.38544411976E+02  0.40162573494E+02  0.39628130594E+03  0.44736738531E+03  0.20000000000E+03 0.  0.
</event>
<event>
 5    1  0.6487493E-012  0.2385248E+03  0.7957747E-01  0.4464013E+00
         13   -1    0    0    0    0  0.00000000000E+00  0.00000000000E+00  0.49999998884E+03  0.50000000000E+03  0.10566000000E+00 0.  1.
        994   -1    0    0    0    0 -0.00000000000E+00 -0.00000000000E+00  0.00000000000E+00  0.13100000000E+03  0.13100000000E+03 0.  0.
         13    1    1    2    0    0 -0.39998504398E+01  0.18873411713E+02  0.85611539055E+01  0.21107083964E+02  0.10566000000E+00 0. -1.
        994    1    1    2    0    0  0.19885251723E+02 -0.21929543483E+01  0.88187747579E+02  0.15918012159E+03  0.13100000000E+03 0.  0.
        997    1    1    2    0    0 -0.15885401283E+02 -0.16680457364E+02  0.40325108735E+03  0.45071279445E+03  0.20000000000E+03 0.  0.
</event>
<event>
 5    1  0.6487493E-012  0.2334692E+03  0.7957747E-01  0.4526360E+00
         13   -1    0    0    0    0  0.00000000000E+00  0.00000000000E+00  0.49999998884E+03  0.50000000000E+03  0.10566000000E+00 0.  1.
        994   -1    0    0    0    0 -0.00000000000E+00 -0.00000000000E+00  0.00000000000E+00  0.13100000000E+03  0.13100000000E+03 0.  0.
         13    1    1    2    0    0  0.13981783270E+02  0.94182942612E+01  0.62555659743E+02  0.64787469932E+02  0.10566000000E+00 0. -1.
        994    1    1    2    0    0 -0.57506008856E+02  0.19635347715E+02  0.12191129187E+03  0.18898637787E+03  0.13100000000E+03 0.  0.
        997    1    1    2    0    0  0.43524225586E+02 -0.29053641976E+02  0.31553303722E+03  0.37722615220E+03  0.20000000000E+03 0.  0.
</event>
<event>
 5    1  0.6487493E-012  0.2448532E+03  0.7957747E-01  0.4390269E+00
         13   -1    0    0    0    0  0.00000000000E+00  0.00000000000E+00  0.49999998884E+03  0.50000000000E+03  0.10566000000E+00 0.  1.
        994   -1    0    0    0    0 -0.00000000000E+00 -0.00000000000E+00  0.00000000000E+00  0.13100000000E+03  0.13100000000E+03 0.  0.
         13    1    1    2    0    0 -0.18402974912E+02  0.38963269784E+02  0.61746401125E+02  0.75295651228E+02  0.10566000000E+00 0. -1.
        994    1    1    2    0    0  0.15489659327E+02 -0.37281851579E+02  0.13479810741E+03  0.19225346750E+03  0.13100000000E+03 0.  0.
        997    1    1    2    0    0  0.29133155859E+01 -0.16814182057E+01  0.30345548030E+03  0.36345088128E+03  0.20000000000E+03 0.  0.
</event>
<event>
 5    1  0.6487493E-012  0.2466251E+03  0.7957747E-01  0.4370419E+00
         13   -1    0    0    0    0  0.00000000000E+00  0.00000000000E+00  0.49999998884E+03  0.50000000000E+03  0.10566000000E+00 0.  1.
        994   -1    0    0    0    0 -0.00000000000E+00 -0.00000000000E+00  0.00000000000E+00  0.13100000000E+03  0.13100000000E+03 0.  0.
         13    1    1    2    0    0  0.24217543694E+02 -0.27862608913E+02  0.60053928320E+02  0.70493261158E+02  0.10566000000E+00 0. -1.
        994    1    1    2    0    0  0.22445673842E+02  0.40669199921E+01  0.11736023868E+03  0.17735493716E+03  0.13100000000E+03 0.  0.
        997    1    1    2    0    0 -0.46663217535E+02  0.23795688921E+02  0.32258582183E+03  0.38315180168E+03  0.20000000000E+03 0.  0.
</event>
<event>
 5    1  0.6487493E-012  0.2445174E+03  0.7957747E-01  0.4394069E+00
         13   -1    0    0    0    0  0.00000000000E+00  0.00000000000E+00  0.49999998884E+03  0.50000000000E+03  0.10566000000E+00 0.  1.
        994   -1    0    0    0    0 -0.00000000000E+00 -0.00000000000E+00  0.00000000000E+00  0.13100000000E+03  0.13100000000E+03 0.  0.
         13    1    1    2    0    0  0.15195042225E+02  0.28427884609E+01 -0.64099603303E+01  0.16735277408E+02  0.10566000000E+00 0. -1.
        994    1    1    2    0    0 -0.27439857371E+02 -0.40484093982E+02  0.16169787705E+03  0.21377350416E+03  0.13100000000E+03 0.  0.
        997    1    1    2    0    0  0.12244815146E+02  0.37641305521E+02  0.34471207211E+03  0.40049121843E+03  0.20000000000E+03 0.  0.
</event>
<event>
 5    1  0.6487493E-012  0.2353502E+03  0.7957747E-01  0.4502788E+00
         13   -1    0    0    0    0  0.00000000000E+00  0.00000000000E+00  0.49999998884E+03  0.50000000000E+03  0.10566000000E+00 0. -1.
        994   -1    0    0    0    0 -0.00000000000E+00 -0.00000000000E+00  0.00000000000E+00  0.13100000000E+03  0.13100000000E+03 0.  0.
         13    1    1    2    0    0 -0.57849958234E+01  0.19165134660E+02  0.13803570713E+02  0.24317037066E+02  0.10566000000E+00 0.  1.
        994    1    1    2    0    0  0.11510325209E+02 -0.30387071414E+02  0.88636597824E+02  0.16147231394E+03  0.13100000000E+03 0.  0.
        997    1    1    2    0    0 -0.57253293853E+01  0.11221936755E+02  0.39755982030E+03  0.44521064899E+03  0.20000000000E+03 0.  0.
</event>
<event>
 5    1  0.6487493E-012  0.2431062E+03  0.7957747E-01  0.4410172E+00
         13   -1    0    0    0    0  0.00000000000E+00  0.00000000000E+00  0.49999998884E+03  0.50000000000E+03  0.10566000000E+00 0. -1.
        994   -1    0    0    0    0 -0.00000000000E+00 -0.00000000000E+00  0.00000000000E+00  0.13100000000E+03  0.13100000000E+03 0.  0.
         13    1    1    2    0    0  0.27704027803E+02 -0.27028645814E+02  0.64547065089E+02  0.75262179258E+02  0.10566000000E+00 0.  1.
        994    1    1    2    0    0 -0.36151664044E+02  0.79006954357E+01  0.11905005999E+03  0.18084048381E+03  0.13100000000E+03 0.  0.
        997    1    1    2    0    0  0.84476362411E+01  0.19127950378E+02  0.31640286376E+03  0.37489733693E+03  0.20000000000E+03 0.  0.
</event>
<event>
 5    1  0.6487493E-012  0.2384166E+03  0.7957747E-01  0.4465315E+00
         13   -1    0    0    0    0  0.00000000000E+00  0.00000000000E+00  0.49999998884E+03  0.50000000000E+03  0.10566000000E+00 0.  1.
        994   -1    0    0    0    0 -0.00000000000E+00 -0.00000000000E+00  0.00000000000E+00  0.13100000000E+03  0.13100000000E+03 0.  0.
         13    1    1    2    0    0  0.15659055169E+02 -0.23375525575E+00 -0.34803432571E+01  0.16043210512E+02  0.10566000000E+00 0. -1.
        994    1    1    2    0    0 -0.50313267497E+02 -0.40532023698E+02  0.20878102330E+03  0.25480342525E+03  0.13100000000E+03 0.  0.
        997    1    1    2    0    0  0.34654212328E+02  0.40765778954E+02  0.29469930880E+03  0.36015336424E+03  0.20000000000E+03 0.  0.
</event>
<event>
 5    1  0.6487493E-012  0.2409431E+03  0.7957747E-01  0.4435291E+00
         13   -1    0    0    0    0  0.00000000000E+00  0.00000000000E+00  0.49999998884E+03  0.50000000000E+03  0.10566000000E+00 0.  1.
        994   -1    0    0    0    0 -0.00000000000E+00 -0.00000000000E+00  0.00000000000E+00  0.13100000000E+03  0.13100000000E+03 0.  0.
         13    1    1    2    0    0  0.21305669443E+02 -0.28746013680E+02  0.36423876065E+02  0.51058542523E+02  0.10566000000E+00 0. -1.
        994    1    1    2    0    0 -0.27834811313E+02  0.40265881769E+02  0.13091393454E+03  0.19156089427E+03  0.13100000000E+03 0.  0.
        997    1    1    2    0    0  0.65291418696E+01 -0.11519868089E+02  0.33266217823E+03  0.38838056321E+03  0.20000000000E+03 0.  0.
</event>
<event>
 5    1  0.6487493E-012  0.2456907E+03  0.7957747E-01  0.4380845E+00
         13   -1    0    0    0    0  0.00000000000E+00  0.00000000000E+00  0.49999998884E+03  0.50000000000E+03  0.10566000000E+00 0. -1.
        994   -1    0    0    0    0 -0.00000000000E+00 -0.00000000000E+00  0.00000000000E+00  0.13100000000E+03  0.13100000000E+03 0.  0.
         13    1    1    2    0    0 -0.97162998772E+01  0.34253389944E+02  0.26686519986E+02  0.44495873055E+02  0.10566000000E+00 0.  1.
        994    1    1    2    0    0 -0.40847128222E+01 -0.26746459189E+02  0.11755539653E+03  0.17807955866E+03  0.13100000000E+03 0.  0.
        997    1    1    2    0    0  0.13801012699E+02 -0.75069307546E+01  0.35575807232E+03  0.40842456829E+03  0.20000000000E+03 0.  0.
</event>
<event>
 5    1  0.6487493E-012  0.2379792E+03  0.7957747E-01  0.4470589E+00
         13   -1    0    0    0    0  0.00000000000E+00  0.00000000000E+00  0.49999998884E+03  0.50000000000E+03  0.10566000000E+00 0.  1.
        994   -1    0    0    0    0 -0.00000000000E+00 -0.00000000000E+00  0.00000000000E+00  0.13100000000E+03  0.13100000000E+03 0.  0.
         13    1    1    2    0    0 -0.95791286721E+00  0.27421676597E+02  0.35337687035E+02  0.44739571226E+02  0.10566000000E+00 0. -1.
        994    1    1    2    0    0  0.14597980795E+02 -0.15517068041E+02  0.87504135871E+02  0.15897123714E+03  0.13100000000E+03 0.  0.
        997    1    1    2    0    0 -0.13640067928E+02 -0.11904608556E+02  0.37715816593E+03  0.42728919163E+03  0.20000000000E+03 0.  0.
</event>
<event>
 5    1  0.6487493E-012  0.2415403E+03  0.7957747E-01  0.4428302E+00
         13   -1    0    0    0    0  0.00000000000E+00  0.00000000000E+00  0.49999998884E+03  0.50000000000E+03  0.10566000000E+00 0. -1.
        994   -1    0    0    0    0 -0.00000000000E+00 -0.00000000000E+00  0.00000000000E+00  0.13100000000E+03  0.13100000000E+03 0.  0.
         13    1    1    2    0    0  0.27368781717E+02  0.25653481288E+01  0.23149969878E+02  0.35938329025E+02  0.10566000000E+00 0.  1.
        994    1    1    2    0    0  0.11059804867E+00  0.33255859409E+02  0.10779804104E+03  0.17287967512E+03  0.13100000000E+03 0.  0.
        997    1    1    2    0    0 -0.27479379766E+02 -0.35821207538E+02  0.36905197791E+03  0.42218199585E+03  0.20000000000E+03 0.  0.
</event>
<event>
 5    1  0.6487493E-012  0.2345564E+03  0.7957747E-01  0.4512680E+00
         13   -1    0    0    0    0  0.00000000000E+00  0.00000000000E+00  0.49999998884E+03  0.50000000000E+03  0.10566000000E+00 0. -1.
        994   -1    0    0    0    0 -0.00000000000E+00 -0.00000000000E+00  0.00000000000E+00  0.13100000000E+03  0.13100000000E+03 0.  0.
         13    1    1    2    0    0 -0.15170344365E+02 -0.21381454591E+02  0.37989483799E+02  0.46157534508E+02  0.10566000000E+00 0.  1.
        994    1    1    2    0    0  0.55640220961E+02  0.20710403652E+02  0.12343736504E+03  0.18953241965E+03  0.13100000000E+03 0.  0.
        997    1    1    2    0    0 -0.40469876596E+02  0.67105093866E+00  0.33857313999E+03  0.39531004585E+03  0.20000000000E+03 0.  0.
</event>
<event>
 5    1  0.6487493E-012  0.2480668E+03  0.7957747E-01  0.4354514E+00
         13   -1    0    0    0    0  0.00000000000E+00  0.00000000000E+00  0.49999998884E+03  0.50000000000E+03  0.10566000000E+00 0. -1.
        994   -1    0    0    0    0 -0.00000000000E+00 -0.00000000000E+00  0.00000000000E+00  0.13100000000E+03  0.13100000000E+03 0.  0.
         13    1    1    2    0    0 -0.16181545274E+02 -0.18934876973E+02  0.17842295553E+01  0.24971315796E+02  0.10566000000E+00 0.  1.
        994    1    1    2    0    0 -0.17205947115E+02  0.27897466103E+02  0.14138068888E+03  0.19550911083E+03  0.13100000000E+03 0.  0.
        997    1    1    2    0    0  0.33387492389E+02 -0.89625891298E+01  0.35683507040E+03  0.41051957337E+03  0.20000000000E+03 0.  0.
</event>
<event>
 5    1  0.6487493E-012  0.2384043E+03  0.7957747E-01  0.4465463E+00
         13   -1    0    0    0    0  0.00000000000E+00  0.00000000000E+00  0.49999998884E+03  0.50000000000E+03  0.10566000000E+00 0. -1.
        994   -1    0    0    0    0 -0.00000000000E+00 -0.00000000000E+00  0.00000000000E+00  0.13100000000E+03  0.13100000000E+03 0.  0.
         13    1    1    2    0    0  0.29125010690E+02  0.47731678038E+01  0.69978338748E+02  0.75947537397E+02  0.10566000000E+00 0.  1.
        994    1    1    2    0    0 -0.25114115851E+02 -0.21099996509E+02  0.97163976782E+02  0.16636636394E+03  0.13100000000E+03 0.  0.
        997    1    1    2    0    0 -0.40108948390E+01  0.16326828706E+02  0.33285767331E+03  0.38868609866E+03  0.20000000000E+03 0.  0.
</event>
<event>
 5    1  0.6487493E-012  0.2294054E+03  0.7957747E-01  0.4578880E+00
         13   -1    0    0    0    0  0.00000000000E+00  0.00000000000E+00  0.49999998884E+03  0.50000000000E+03  0.10566000000E+00 0.  1.
        994   -1    0    0    0    0 -0.00000000000E+00 -0.00000000000E+00  0.00000000000E+00  0.13100000000E+03  0.13100000000E+03 0.  0.
         13    1    1    2    0    0  0.98174582201E+01 -0.39717163198E+01  0.80404145478E+01  0.13297234546E+02  0.10566000000E+00 0. -1.
        994    1    1    2    0    0 -0.19480800931E+02 -0.15369805739E+02  0.70788745184E+02  0.15095621543E+03  0.13100000000E+03 0.  0.
        997    1    1    2    0    0  0.96633427112E+01  0.19341522059E+02  0.42117082910E+03  0.46674655002E+03  0.20000000000E+03 0.  0.
</event>
<event>
 5    1  0.6487493E-012  0.2353317E+03  0.7957747E-01  0.4503018E+00
         13   -1    0    0    0    0  0.00000000000E+00  0.00000000000E+00  0.49999998884E+03  0.50000000000E+03  0.10566000000E+00 0. -1.
        994   -1    0    0    0    0 -0.00000000000E+00 -0.00000000000E+00  0.00000000000E+00  0.13100000000E+03  0.13100000000E+03 0.  0.
         13    1    1    2    0    0 -0.13984884190E+02  0.57125100579E+01  0.76927456637E+01  0.16952853945E+02  0.10566000000E+00 0.  1.
        994    1    1    2    0    0 -0.10359989712E+02  0.16823897158E+02  0.80445535051E+02  0.15499308698E+03  0.13100000000E+03 0.  0.
        997    1    1    2    0    0  0.24344873903E+02 -0.22536407216E+02  0.41186170812E+03  0.45905405907E+03  0.20000000000E+03 0.  0.
</event>
<event>
 5    1  0.6487493E-012  0.2297004E+03  0.7957747E-01  0.4574992E+00
         13   -1    0    0    0    0  0.00000000000E+00  0.00000000000E+00  0.49999998884E+03  0.50000000000E+03  0.10566000000E+00 0. -1.
        994   -1    0    0    0    0 -0.00000000000E+00 -0.00000000000E+00  0.00000000000E+00  0.13100000000E+03  0.13100000000E+03 0.  0.
         13    1    1    2    0    0 -0.31810184253E+01 -0.98568496179E+01  0.60289416095E+01  0.11984809701E+02  0.10566000000E+00 0.  1.
        994    1    1    2    0    0 -0.10260182466E+01  0.25571498316E+02  0.71752772401E+02  0.15154014183E+03  0.13100000000E+03 0.  0.
        997    1    1    2    0    0  0.42070366720E+01 -0.15714648698E+02  0.42221827483E+03  0.46747504847E+03  0.20000000000E+03 0.  0.
</event>
<event>
 5    1  0.6487493E-012  0.2307104E+03  0.7957747E-01  0.4561771E+00
         13   -1    0    0    0    0  0.00000000000E+00  0.00000000000E+00  0.49999998884E+03  0.50000000000E+03  0.10566000000E+00 0.  1.
        994   -1    0    0    0    0 -0.00000000000E+00 -0.00000000000E+00  0.00000000000E+00  0.13100000000E+03  0.13100000000E+03 0.  0.
         13    1    1    2    0    0 -0.73248732212E+01 -0.12850579846E+02  0.14362967930E+02  0.20617885000E+02  0.10566000000E+00 0. -1.
        994    1    1    2    0    0 -0.36412112691E+01  0.35236162511E+02  0.80251396555E+02  0.15765827672E+03  0.13100000000E+03 0.  0.
        997    1    1    2    0    0  0.10966084490E+02 -0.22385582666E+02  0.40538562435E+03  0.45272383828E+03  0.20000000000E+03 0.  0.
</event>
<event>
 5    1  0.7672424E-012  0.2405292E+03  0.7957747E-01  0.4440158E+00
         13   -1    0    0    0    0  0.00000000000E+00  0.00000000000E+00  0.49999998884E+03  0.50000000000E+03  0.10566000000E+00 0. -1.
        994   -1    0    0    0    0 -0.00000000000E+00 -0.00000000000E+00  0.00000000000E+00  0.13100000000E+03  0.13100000000E+03 0.  0.
         13    1    1    2    0    0  0.59220012315E+01 -0.15478606112E+02  0.12842097016E+01  0.16622806753E+02  0.10566000000E+00 0.  1.
        994    1    1    2    0    0  0.94851531582E+01  0.16207308478E+02  0.92899244543E+02  0.16169079941E+03  0.13100000000E+03 0.  0.
        997    1    1    2    0    0 -0.15407154390E+02 -0.72870236580E+00  0.40581653459E+03  0.45268639383E+03  0.20000000000E+03 0.  0.
</event>
<event>
 5    1  0.6487493E-012  0.2370085E+03  0.7957747E-01  0.4482379E+00
         13   -1    0    0    0    0  0.00000000000E+00  0.00000000000E+00  0.49999998884E+03  0.50000000000E+03  0.10566000000E+00 0.  1.
        994   -1    0    0    0    0 -0.00000000000E+00 -0.00000000000E+00  0.00000000000E+00  0.13100000000E+03  0.13100000000E+03 0.  0.
         13    1    1    2    0    0 -0.48337010892E+01  0.21128247224E+02  0.11134083983E+02  0.24366913780E+02  0.10566000000E+00 0. -1.
        994    1    1    2    0    0  0.27482235151E+02 -0.39500295750E+02  0.11181469487E+03  0.17882693478E+03  0.13100000000E+03 0.  0.
        997    1    1    2    0    0 -0.22648534062E+02  0.18372048526E+02  0.37705120998E+03  0.42780615144E+03  0.20000000000E+03 0.  0.
</event>
<event>
 5    1  0.6487493E-012  0.2455047E+03  0.7957747E-01  0.4382931E+00
         13   -1    0    0    0    0  0.00000000000E+00  0.00000000000E+00  0.49999998884E+03  0.50000000000E+03  0.10566000000E+00 0. -1.
        994   -1    0    0    0    0 -0.00000000000E+00 -0.00000000000E+00  0.00000000000E+00  0.13100000000E+03  0.13100000000E+03 0.  0.
         13    1    1    2    0    0 -0.65752394491E+01 -0.29356549085E+02  0.14281677454E+02  0.33301925213E+02  0.10566000000E+00 0.  1.
        994    1    1    2    0    0 -0.91070113116E+01  0.24056691288E+02  0.11525363549E+03  0.17636910881E+03  0.13100000000E+03 0.  0.
        997    1    1    2    0    0  0.15682250761E+02  0.52998577964E+01  0.37046467590E+03  0.42132896597E+03  0.20000000000E+03 0.  0.
</event>
<event>
 5    1  0.6487493E-012  0.2462495E+03  0.7957747E-01  0.4374599E+00
         13   -1    0    0    0    0  0.00000000000E+00  0.00000000000E+00  0.49999998884E+03  0.50000000000E+03  0.10566000000E+00 0.  1.
        994   -1    0    0    0    0 -0.00000000000E+00 -0.00000000000E+00  0.00000000000E+00  0.13100000000E+03  0.13100000000E+03 0.  0.
         13    1    1    2    0    0 -0.27891030160E+02  0.30501709737E+02  0.69893475851E+02  0.81199587381E+02  0.10566000000E+00 0. -1.
        994    1    1    2    0    0 -0.52350022689E+00 -0.26754431183E+02  0.11985895261E+03  0.17956403360E+03  0.13100000000E+03 0.  0.
        997    1    1    2    0    0  0.28414530387E+02 -0.37472785542E+01  0.31024756037E+03  0.37023637902E+03  0.20000000000E+03 0.  0.
</event>
<event>
 5    1  0.6487493E-012  0.2482820E+03  0.7957747E-01  0.4352159E+00
         13   -1    0    0    0    0  0.00000000000E+00  0.00000000000E+00  0.49999998884E+03  0.50000000000E+03  0.10566000000E+00 0. -1.
        994   -1    0    0    0    0 -0.00000000000E+00 -0.00000000000E+00  0.00000000000E+00  0.13100000000E+03  0.13100000000E+03 0.  0.
         13    1    1    2    0    0  0.18688054044E+00 -0.18794561349E+02 -0.38235004730E+01  0.19180739833E+02  0.10566000000E+00 0.  1.
        994    1    1    2    0    0 -0.26073021587E+02 -0.10492050687E+02  0.13355373402E+03  0.18917580567E+03  0.13100000000E+03 0.  0.
        997    1    1    2    0    0  0.25886141047E+02  0.29286612036E+02  0.37026975529E+03  0.42264345449E+03  0.20000000000E+03 0.  0.
</event>
<event>
 5    1  0.6487493E-012  0.2298022E+03  0.7957747E-01  0.4573653E+00
         13   -1    0    0    0    0  0.00000000000E+00  0.00000000000E+00  0.49999998884E+03  0.50000000000E+03  0.10566000000E+00 0. -1.
        994   -1    0    0    0    0 -0.00000000000E+00 -0.00000000000E+00  0.00000000000E+00  0.13100000000E+03  0.13100000000E+03 0.  0.
         13    1    1    2    0    0 -0.54554180529E+00 -0.10568351218E+02  0.50668684114E+01  0.11733370482E+02  0.10566000000E+00 0.  1.
        994    1    1    2    0    0 -0.12814779276E+02  0.42341368705E+02  0.86241884744E+02  0.16295911376E+03  0.13100000000E+03 0.  0.
        997    1    1    2    0    0  0.13360321081E+02 -0.31773017487E+02  0.40869123568E+03  0.45630751576E+03  0.20000000000E+03 0.  0.
</event>
<event>
 5    1  0.6487493E-012  0.2519275E+03  0.7957747E-01  0.4312969E+00
         13   -1    0    0    0    0  0.00000000000E+00  0.00000000000E+00  0.49999998884E+03  0.50000000000E+03  0.10566000000E+00 0. -1.
        994   -1    0    0    0    0 -0.00000000000E+00 -0.00000000000E+00  0.00000000000E+00  0.13100000000E+03  0.13100000000E+03 0.  0.
         13    1    1    2    0    0 -0.52748907695E+01  0.36449282718E+02  0.16937456271E+02  0.40537183822E+02  0.10566000000E+00 0.  1.
        994    1    1    2    0    0 -0.11189561102E+02 -0.69488225653E+01  0.14200844029E+03  0.19365146404E+03  0.13100000000E+03 0.  0.
        997    1    1    2    0    0  0.16464451872E+02 -0.29500460152E+02  0.34105409228E+03  0.39681135214E+03  0.20000000000E+03 0.  0.
</event>
<event>
 5    1  0.6487493E-012  0.2372564E+03  0.7957747E-01  0.4479357E+00
         13   -1    0    0    0    0  0.00000000000E+00  0.00000000000E+00  0.49999998884E+03  0.50000000000E+03  0.10566000000E+00 0. -1.
        994   -1    0    0    0    0 -0.00000000000E+00 -0.00000000000E+00  0.00000000000E+00  0.13100000000E+03  0.13100000000E+03 0.  0.
         13    1    1    2    0    0 -0.93689345468E+01  0.19503762639E+02  0.23198659851E+02  0.31723219801E+02  0.10566000000E+00 0.  1.
        994    1    1    2    0    0  0.36445169335E+02  0.44036856696E+02  0.13101828080E+03  0.19389245736E+03  0.13100000000E+03 0.  0.
        997    1    1    2    0    0 -0.27076234789E+02 -0.63540619335E+02  0.34578304818E+03  0.40538432284E+03  0.20000000000E+03 0.  0.
</event>
<event>
 5    1  0.6487493E-012  0.2295925E+03  0.7957747E-01  0.4576412E+00
         13   -1    0    0    0    0  0.00000000000E+00  0.00000000000E+00  0.49999998884E+03  0.50000000000E+03  0.10566000000E+00 0.  1.
        994   -1    0    0    0    0 -0.00000000000E+00 -0.00000000000E+00  0.00000000000E+00  0.13100000000E+03  0.13100000000E+03 0.  0.
         13    1    1    2    0    0  0.11802328450E+02  0.89953574420E+01  0.38561516118E+02  0.41318435373E+02  0.10566000000E+00 0. -1.
        994    1    1    2    0    0 -0.29276099177E+02 -0.10206034906E+02  0.74746717198E+02  0.15397832595E+03  0.13100000000E+03 0.  0.
        997    1    1    2    0    0  0.17473770727E+02  0.12106774640E+01  0.38669175552E+03  0.43570323867E+03  0.20000000000E+03 0.  0.
</event>
<event>
 5    1  0.6487493E-012  0.2406853E+03  0.7957747E-01  0.4438321E+00
         13   -1    0    0    0    0  0.00000000000E+00  0.00000000000E+00  0.49999998884E+03  0.50000000000E+03  0.10566000000E+00 0.  1.
        994   -1    0    0    0    0 -0.00000000000E+00 -0.00000000000E+00  0.00000000000E+00  0.13100000000E+03  0.13100000000E+03 0.  0.
         13    1    1    2    0    0  0.32561748042E+02 -0.35363189815E+01  0.23471669981E+02  0.40295203725E+02  0.10566000000E+00 0. -1.
        994    1    1    2    0    0 -0.54629405274E+02 -0.22712434916E+01  0.14548803720E+03  0.20326657235E+03  0.13100000000E+03 0.  0.
        997    1    1    2    0    0  0.22067657232E+02  0.58075624732E+01  0.33104028166E+03  0.38743822392E+03  0.20000000000E+03 0.  0.
</event>
<event>
 5    1  0.6487493E-012  0.2320644E+03  0.7957747E-01  0.4544265E+00
         13   -1    0    0    0    0  0.00000000000E+00  0.00000000000E+00  0.49999998884E+03  0.50000000000E+03  0.10566000000E+00 0.  1.
        994   -1    0    0    0    0 -0.00000000000E+00 -0.00000000000E+00  0.00000000000E+00  0.13100000000E+03  0.13100000000E+03 0.  0.
         13    1    1    2    0    0  0.10781015611E+02 -0.13662076066E+02  0.32077575339E+02  0.36494720491E+02  0.10566000000E+00 0. -1.
        994    1    1    2    0    0  0.11353597290E+02  0.79962877441E+01  0.71465572183E+02  0.14987052010E+03  0.13100000000E+03 0.  0.
        997    1    1    2    0    0 -0.22134612901E+02  0.56657883218E+01  0.39645684131E+03  0.44463475940E+03  0.20000000000E+03 0.  0.
</event>
<event>
 5    1  0.6487493E-012  0.2479846E+03  0.7957747E-01  0.4355416E+00
         13   -1    0    0    0    0  0.00000000000E+00  0.00000000000E+00  0.49999998884E+03  0.50000000000E+03  0.10566000000E+00 0.  1.
        994   -1    0    0    0    0 -0.00000000000E+00 -0.00000000000E+00  0.00000000000E+00  0.13100000000E+03  0.13100000000E+03 0.  0.
         13    1    1    2    0    0  0.14222550548E+02  0.11903253438E+02 -0.33724673795E+01  0.18850811302E+02  0.10566000000E+00 0. -1.
        994    1    1    2    0    0 -0.45814551600E+01  0.99242497919E+01  0.11502080978E+03  0.17467188425E+03  0.13100000000E+03 0.  0.
        997    1    1    2    0    0 -0.96410953878E+01 -0.21827503230E+02  0.38835164643E+03  0.43747730444E+03  0.20000000000E+03 0.  0.
</event>
<event>
 5    1  0.6487493E-012  0.2399565E+03  0.7957747E-01  0.4446926E+00
         13   -1    0    0    0    0  0.00000000000E+00  0.00000000000E+00  0.49999998884E+03  0.50000000000E+03  0.10566000000E+00 0.  1.
        994   -1    0    0    0    0 -0.00000000000E+00 -0.00000000000E+00  0.00000000000E+00  0.13100000000E+03  0.13100000000E+03 0.  0.
         13    1    1    2    0    0  0.12003962320E+02 -0.64300096364E+00 -0.25381517812E+01  0.12286656995E+02  0.10566000000E+00 0. -1.
        994    1    1    2    0    0 -0.86387981472E+00 -0.19540810614E+01  0.86611099525E+02  0.15705746490E+03  0.13100000000E+03 0.  0.
        997    1    1    2    0    0 -0.11140082505E+02  0.25970820251E+01  0.41592704109E+03  0.46165587810E+03  0.20000000000E+03 0.  0.
</event>
<event>
 5    1  0.6487493E-012  0.2481259E+03  0.7957747E-01  0.4353867E+00
         13   -1    0    0    0    0  0.00000000000E+00  0.00000000000E+00  0.49999998884E+03  0.50000000000E+03  0.10566000000E+00 0. -1.
        994   -1    0    0    0    0 -0.00000000000E+00 -0.00000000000E+00  0.00000000000E+00  0.13100000000E+03  0.13100000000E+03 0.  0.
         13    1    1    2    0    0  0.94288820287E+01  0.16621185334E+02 -0.41571621950E+01  0.19556604505E+02  0.10566000000E+00 0.  1.
        994    1    1    2    0    0  0.38091258725E+02  0.63597109358E+01  0.16505529559E+03  0.21423267845E+03  0.13100000000E+03 0.  0.
        997    1    1    2    0    0 -0.47520140754E+02 -0.22980896269E+02  0.33910185544E+03  0.39721071704E+03  0.20000000000E+03 0.  0.
</event>
<event>
 5    1  0.6487493E-012  0.2398907E+03  0.7957747E-01  0.4447706E+00
         13   -1    0    0    0    0  0.00000000000E+00  0.00000000000E+00  0.49999998884E+03  0.50000000000E+03  0.10566000000E+00 0.  1.
        994   -1    0    0    0    0 -0.00000000000E+00 -0.00000000000E+00  0.00000000000E+00  0.13100000000E+03  0.13100000000E+03 0.  0.
         13    1    1    2    0    0  0.14184349970E+02 -0.14183819976E+02  0.29643457141E+01  0.20277451584E+02  0.10566000000E+00 0. -1.
        994    1    1    2    0    0 -0.24250777180E+02  0.44813529891E+02  0.12984552273E+03  0.19135624481E+03  0.13100000000E+03 0.  0.
        997    1    1    2    0    0  0.10066427210E+02 -0.30629709915E+02  0.36719012039E+03  0.41936630360E+03  0.20000000000E+03 0.  0.
</event>
<event>
 5    1  0.6487493E-012  0.2468515E+03  0.7957747E-01  0.4367908E+00
         13   -1    0    0    0    0  0.00000000000E+00  0.00000000000E+00  0.49999998884E+03  0.50000000000E+03  0.10566000000E+00 0. -1.
        994   -1    0    0    0    0 -0.00000000000E+00 -0.00000000000E+00  0.00000000000E+00  0.13100000000E+03  0.13100000000E+03 0.  0.
         13    1    1    2    0    0  0.18689500631E+02  0.20124227412E+02  0.18939736119E+01  0.27529625186E+02  0.10566000000E+00 0.  1.
        994    1    1    2    0    0 -0.41050374402E+02 -0.14627293593E+02  0.17704302579E+03  0.22450907318E+03  0.13100000000E+03 0.  0.
        997    1    1    2    0    0  0.22360873771E+02 -0.54969338199E+01  0.32106298943E+03  0.37896130164E+03  0.20000000000E+03 0.  0.
</event>
<event>
 5    1  0.6487493E-012  0.2380248E+03  0.7957747E-01  0.4470038E+00
         13   -1    0    0    0    0  0.00000000000E+00  0.00000000000E+00  0.49999998884E+03  0.50000000000E+03  0.10566000000E+00 0. -1.
        994   -1    0    0    0    0 -0.00000000000E+00 -0.00000000000E+00  0.00000000000E+00  0.13100000000E+03  0.13100000000E+03 0.  0.
         13    1    1    2    0    0 -0.96423748903E+01 -0.51069021781E+01 -0.16280059420E+01  0.11032561387E+02  0.10566000000E+00 0.  1.
        994    1    1    2    0    0 -0.42585143147E+02 -0.19565441207E+02  0.11357097330E+03  0.17959862717E+03  0.13100000000E+03 0.  0.
        997    1    1    2    0    0  0.52227518037E+02  0.24672343386E+02  0.38805702148E+03  0.44036881144E+03  0.20000000000E+03 0.  0.
</event>
<event>
 5    1  0.6487493E-012  0.2346426E+03  0.7957747E-01  0.4511603E+00
         13   -1    0    0    0    0  0.00000000000E+00  0.00000000000E+00  0.49999998884E+03  0.50000000000E+03  0.10566000000E+00 0.  1.
        994   -1    0    0    0    0 -0.00000000000E+00 -0.00000000000E+00  0.00000000000E+00  0.13100000000E+03  0.13100000000E+03 0.  0.
         13    1    1    2    0    0 -0.15385998673E+02  0.13346888673E+02  0.21759629408E+02  0.29805385896E+02  0.10566000000E+00 0. -1.
        994    1    1    2    0    0 -0.18992560521E+01 -0.19480125257E+02  0.78843550612E+02  0.15414404927E+03  0.13100000000E+03 0.  0.
        997    1    1    2    0    0  0.17285254725E+02  0.61332365838E+01  0.39939680882E+03  0.44705056483E+03  0.20000000000E+03 0.  0.
</event>
<event>
 5    1  0.6487493E-012  0.2519987E+03  0.7957747E-01  0.4312217E+00
         13   -1    0    0    0    0  0.00000000000E+00  0.00000000000E+00  0.49999998884E+03  0.50000000000E+03  0.10566000000E+00 0.  1.
        994   -1    0    0    0    0 -0.00000000000E+00 -0.00000000000E+00  0.00000000000E+00  0.13100000000E+03  0.13100000000E+03 0.  0.
         13    1    1    2    0    0 -0.26802770075E+02  0.21411395464E+01  0.95537627008E+00  0.26905331630E+02  0.10566000000E+00 0. -1.
        994    1    1    2    0    0  0.13614376411E+01  0.63144514006E+01  0.13732621931E+03  0.18989791025E+03  0.13100000000E+03 0.  0.
        997    1    1    2    0    0  0.25441332434E+02 -0.84555909471E+01  0.36171839325E+03  0.41419675812E+03  0.20000000000E+03 0.  0.
</event>
<event>
 5    1  0.6487493E-012  0.2416420E+03  0.7957747E-01  0.4427116E+00
         13   -1    0    0    0    0  0.00000000000E+00  0.00000000000E+00  0.49999998884E+03  0.50000000000E+03  0.10566000000E+00 0.  1.
        994   -1    0    0    0    0 -0.00000000000E+00 -0.00000000000E+00  0.00000000000E+00  0.13100000000E+03  0.13100000000E+03 0.  0.
         13    1    1    2    0    0 -0.26291736870E+02 -0.25070374854E+02  0.62351916147E+02  0.72163368368E+02  0.10566000000E+00 0. -1.
        994    1    1    2    0    0  0.11669675253E+02  0.31743319783E+02  0.10882222193E+03  0.17362919011E+03  0.13100000000E+03 0.  0.
        997    1    1    2    0    0  0.14622061617E+02 -0.66729449284E+01  0.32882585075E+03  0.38520744152E+03  0.20000000000E+03 0.  0.
</event>
<event>
 5    1  0.6487493E-012  0.2317453E+03  0.7957747E-01  0.4548368E+00
         13   -1    0    0    0    0  0.00000000000E+00  0.00000000000E+00  0.49999998884E+03  0.50000000000E+03  0.10566000000E+00 0. -1.
        994   -1    0    0    0    0 -0.00000000000E+00 -0.00000000000E+00  0.00000000000E+00  0.13100000000E+03  0.13100000000E+03 0.  0.
         13    1    1    2    0    0 -0.48161980776E+01  0.13096161166E+02  0.58540663066E+01  0.15132298489E+02  0.10566000000E+00 0.  1.
        994    1    1    2    0    0  0.47341574261E+02 -0.41439782750E+02  0.11963285586E+03  0.18823257010E+03  0.13100000000E+03 0.  0.
        997    1    1    2    0    0 -0.42525376183E+02  0.28343621584E+02  0.37451306667E+03  0.42763513141E+03  0.20000000000E+03 0.  0.
</event>
<event>
 5    1  0.6487493E-012  0.2410814E+03  0.7957747E-01  0.4433669E+00
         13   -1    0    0    0    0  0.00000000000E+00  0.00000000000E+00  0.49999998884E+03  0.50000000000E+03  0.10566000000E+00 0. -1.
        994   -1    0    0    0    0 -0.00000000000E+00 -0.00000000000E+00  0.00000000000E+00  0.13100000000E+03  0.13100000000E+03 0.  0.
         13    1    1    2    0    0  0.24751661181E+02 -0.14469874022E+02  0.32771456982E+02  0.43543099823E+02  0.10566000000E+00 0.  1.
        994    1    1    2    0    0  0.39359242040E+02  0.38864762933E+02  0.22230474022E+03  0.26389395078E+03  0.13100000000E+03 0.  0.
        997    1    1    2    0    0 -0.64110903220E+02 -0.24394888912E+02  0.24492379163E+03  0.32356294940E+03  0.20000000000E+03 0.  0.
</event>
<event>
 5    1  0.6487493E-012  0.2290566E+03  0.7957747E-01  0.4583493E+00
         13   -1    0    0    0    0  0.00000000000E+00  0.00000000000E+00  0.49999998884E+03  0.50000000000E+03  0.10566000000E+00 0. -1.
        994   -1    0    0    0    0 -0.00000000000E+00 -0.00000000000E+00  0.00000000000E+00  0.13100000000E+03  0.13100000000E+03 0.  0.
         13    1    1    2    0    0  0.13309027518E+02  0.39013453484E+01  0.38235245737E+02  0.40673036395E+02  0.10566000000E+00 0.  1.
        994    1    1    2    0    0 -0.31200477169E+02 -0.13152513082E+02  0.75637993569E+02  0.15501149779E+03  0.13100000000E+03 0.  0.
        997    1    1    2    0    0  0.17891449650E+02  0.92511677333E+01  0.38612674953E+03  0.43531546582E+03  0.20000000000E+03 0.  0.
</event>
<event>
 5    1  0.6487493E-012  0.2426138E+03  0.7957747E-01  0.4415844E+00
         13   -1    0    0    0    0  0.00000000000E+00  0.00000000000E+00  0.49999998884E+03  0.50000000000E+03  0.10566000000E+00 0. -1.
        994   -1    0    0    0    0 -0.00000000000E+00 -0.00000000000E+00  0.00000000000E+00  0.13100000000E+03  0.13100000000E+03 0.  0.
         13    1    1    2    0    0  0.86884449092E+01 -0.32609034510E+02  0.49422127464E+02  0.59844766302E+02  0.10566000000E+00 0.  1.
        994    1    1    2    0    0 -0.16527319858E+02  0.68127347509E+00  0.97864066104E+02  0.16435325330E+03  0.13100000000E+03 0.  0.
        997    1    1    2    0    0  0.78388749492E+01  0.31927761035E+02  0.35271379527E+03  0.40680198040E+03  0.20000000000E+03 0.  0.
</event>
<event>
 5    1  0.6487493E-012  0.2427764E+03  0.7957747E-01  0.4413968E+00
         13   -1    0    0    0    0  0.00000000000E+00  0.00000000000E+00  0.49999998884E+03  0.50000000000E+03  0.10566000000E+00 0. -1.
        994   -1    0    0    0    0 -0.00000000000E+00 -0.00000000000E+00  0.00000000000E+00  0.13100000000E+03  0.13100000000E+03 0.  0.
         13    1    1    2    0    0 -0.20210523913E+02  0.24301941134E+01 -0.25574610329E+01  0.20516405417E+02  0.10566000000E+00 0.  1.
        994    1    1    2    0    0  0.50417787278E+02 -0.22322728889E+02  0.18197056333E+03  0.23089942273E+03  0.13100000000E+03 0.  0.
        997    1    1    2    0    0 -0.30207263365E+02  0.19892534775E+02  0.32058688653E+03  0.37958417185E+03  0.20000000000E+03 0.  0.
</event>
<event>
 5    1  0.6487493E-012  0.2493125E+03  0.7957747E-01  0.4340945E+00
         13   -1    0    0    0    0  0.00000000000E+00  0.00000000000E+00  0.49999998884E+03  0.50000000000E+03  0.10566000000E+00 0.  1.
        994   -1    0    0    0    0 -0.00000000000E+00 -0.00000000000E+00  0.00000000000E+00  0.13100000000E+03  0.13100000000E+03 0.  0.
         13    1    1    2    0    0 -0.77053013477E+01 -0.34101422318E+02  0.16052135010E+02  0.38470259622E+02  0.10566000000E+00 0. -1.
        994    1    1    2    0    0  0.21030186567E+02 -0.17936450969E+02  0.21144307527E+03  0.25026617650E+03  0.13100000000E+03 0.  0.
        997    1    1    2    0    0 -0.13324885219E+02  0.52037873287E+02  0.27250477855E+03  0.34226356387E+03  0.20000000000E+03 0.  0.
</event>
<event>
 5    1  0.6487493E-012  0.2295568E+03  0.7957747E-01  0.4576883E+00
         13   -1    0    0    0    0  0.00000000000E+00  0.00000000000E+00  0.49999998884E+03  0.50000000000E+03  0.10566000000E+00 0. -1.
        994   -1    0    0    0    0 -0.00000000000E+00 -0.00000000000E+00  0.00000000000E+00  0.13100000000E+03  0.13100000000E+03 0.  0.
         13    1    1    2    0    0  0.74076194637E+01 -0.90664038243E+01  0.12558526030E+02  0.17169747945E+02  0.10566000000E+00 0.  1.
        994    1    1    2    0    0  0.38338374171E+02  0.28427703544E+02  0.89450500485E+02  0.16565131240E+03  0.13100000000E+03 0.  0.
        997    1    1    2    0    0 -0.45745993635E+02 -0.19361299720E+02  0.39799096232E+03  0.44817893965E+03  0.20000000000E+03 0.  0.
</event>
<event>
 5    1  0.6487493E-012  0.2329497E+03  0.7957747E-01  0.4532952E+00
         13   -1    0    0    0    0  0.00000000000E+00  0.00000000000E+00  0.49999998884E+03  0.50000000000E+03  0.10566000000E+00 0.  1.
        994   -1    0    0    0    0 -0.00000000000E+00 -0.00000000000E+00  0.00000000000E+00  0.13100000000E+03  0.13100000000E+03 0.  0.
         13    1    1    2    0    0  0.12547408062E+02 -0.13111525352E+02  0.22608427139E+02  0.28991407139E+02  0.10566000000E+00 0. -1.
        994    1    1    2    0    0 -0.12694718209E+01  0.71327390813E+01  0.71692175289E+02  0.14951005158E+03  0.13100000000E+03 0.  0.
        997    1    1    2    0    0 -0.11277936241E+02  0.59787862710E+01  0.40569938641E+03  0.45249854128E+03  0.20000000000E+03 0.  0.
</event>
<event>
 5    1  0.6487493E-012  0.2357849E+03  0.7957747E-01  0.4497405E+00
         13   -1    0    0    0    0  0.00000000000E+00  0.00000000000E+00  0.49999998884E+03  0.50000000000E+03  0.10566000000E+00 0.  1.
        994   -1    0    0    0    0 -0.00000000000E+00 -0.00000000000E+00  0.00000000000E+00  0.13100000000E+03  0.13100000000E+03 0.  0.
         13    1    1    2    0    0 -0.10695556027E+02 -0.12004616805E+02  0.66890613264E+01  0.17414374776E+02  0.10566000000E+00 0. -1.
        994    1    1    2    0    0  0.84198686562E+01  0.12256706053E+02  0.79457791605E+02  0.15393395232E+03  0.13100000000E+03 0.  0.
        997    1    1    2    0    0  0.22756873707E+01 -0.25208924762E+00  0.41385313590E+03  0.45965167290E+03  0.20000000000E+03 0.  0.
</event>
<event>
 5    1  0.6487493E-012  0.2449030E+03  0.7957747E-01  0.4389706E+00
         13   -1    0    0    0    0  0.00000000000E+00  0.00000000000E+00  0.49999998884E+03  0.50000000000E+03  0.10566000000E+00 0.  1.
        994   -1    0    0    0    0 -0.00000000000E+00 -0.00000000000E+00  0.00000000000E+00  0.13100000000E+03  0.13100000000E+03 0.  0.
         13    1    1    2    0    0  0.88284766283E+01  0.29774154790E+02  0.18025735654E+02  0.35907946236E+02  0.10566000000E+00 0. -1.
        994    1    1    2    0    0 -0.92961969536E+01 -0.19810612727E+02  0.10922557096E+03  0.17195960283E+03  0.13100000000E+03 0.  0.
        997    1    1    2    0    0  0.46772032522E+00 -0.99635420624E+01  0.37274868223E+03  0.42313245093E+03  0.20000000000E+03 0.  0.
</event>
<event>
 5    1  0.6487493E-012  0.2420872E+03  0.7957747E-01  0.4421939E+00
         13   -1    0    0    0    0  0.00000000000E+00  0.00000000000E+00  0.49999998884E+03  0.50000000000E+03  0.10566000000E+00 0.  1.
        994   -1    0    0    0    0 -0.00000000000E+00 -0.00000000000E+00  0.00000000000E+00  0.13100000000E+03  0.13100000000E+03 0.  0.
         13    1    1    2    0    0 -0.26717154148E+01 -0.36800115359E+02  0.31427362070E+02  0.48467275603E+02  0.10566000000E+00 0. -1.
        994    1    1    2    0    0  0.16669813577E+02  0.50458084709E+02  0.15212121959E+03  0.20766744195E+03  0.13100000000E+03 0.  0.
        997    1    1    2    0    0 -0.13998098162E+02 -0.13657969351E+02  0.31645140718E+03  0.37486528245E+03  0.20000000000E+03 0.  0.
</event>
<event>
 5    1  0.6487493E-012  0.2344341E+03  0.7957747E-01  0.4514212E+00
         13   -1    0    0    0    0  0.00000000000E+00  0.00000000000E+00  0.49999998884E+03  0.50000000000E+03  0.10566000000E+00 0.  1.
        994   -1    0    0    0    0 -0.00000000000E+00 -0.00000000000E+00  0.00000000000E+00  0.13100000000E+03  0.13100000000E+03 0.  0.
         13    1    1    2    0    0 -0.73037888170E+01 -0.21191074705E+02  0.34259812074E+02  0.40940845932E+02  0.10566000000E+00 0. -1.
        994    1    1    2    0    0 -0.14575830574E+02  0.21870764130E+02  0.81978730904E+02  0.15675553413E+03  0.13100000000E+03 0.  0.
        997    1    1    2    0    0  0.21879619391E+02 -0.67968942567E+00  0.38376144586E+03  0.43330361994E+03  0.20000000000E+03 0.  0.
</event>
<event>
 5    1  0.6487493E-012  0.2373904E+03  0.7957747E-01  0.4477726E+00
         13   -1    0    0    0    0  0.00000000000E+00  0.00000000000E+00  0.49999998884E+03  0.50000000000E+03  0.10566000000E+00 0. -1.
        994   -1    0    0    0    0 -0.00000000000E+00 -0.00000000000E+00  0.00000000000E+00  0.13100000000E+03  0.13100000000E+03 0.  0.
         13    1    1    2    0    0 -0.16509220758E+02  0.23199291694E+02  0.39709231973E+02  0.48863030739E+02  0.10566000000E+00 0.  1.
        994    1    1    2    0    0 -0.19520652747E+02 -0.49519708741E+02  0.12266995630E+03  0.18719555448E+03  0.13100000000E+03 0.  0.
        997    1    1    2    0    0  0.36029873505E+02  0.26320417047E+02  0.33762080056E+03  0.39494141478E+03  0.20000000000E+03 0.  0.
</event>
<event>
 5    1  0.6487493E-012  0.2379873E+03  0.7957747E-01  0.4470492E+00
         13   -1    0    0    0    0  0.00000000000E+00  0.00000000000E+00  0.49999998884E+03  0.50000000000E+03  0.10566000000E+00 0. -1.
        994   -1    0    0    0    0 -0.00000000000E+00 -0.00000000000E+00  0.00000000000E+00  0.13100000000E+03  0.13100000000E+03 0.  0.
         13    1    1    2    0    0  0.18809817881E+02  0.12378610831E+02  0.10109352345E+02  0.24682978420E+02  0.10566000000E+00 0.  1.
        994    1    1    2    0    0 -0.56679555730E+02  0.13864047451E+02  0.13843856290E+03  0.19932641457E+03  0.13100000000E+03 0.  0.
        997    1    1    2    0    0  0.37869737849E+02 -0.26242658282E+02  0.35145207359E+03  0.40699060701E+03  0.20000000000E+03 0.  0.
</event>
<event>
 5    1  0.6487493E-012  0.2397434E+03  0.7957747E-01  0.4449453E+00
         13   -1    0    0    0    0  0.00000000000E+00  0.00000000000E+00  0.49999998884E+03  0.50000000000E+03  0.10566000000E+00 0.  1.
        994   -1    0    0    0    0 -0.00000000000E+00 -0.00000000000E+00  0.00000000000E+00  0.13100000000E+03  0.13100000000E+03 0.  0.
         13    1    1    2    0    0  0.30815389259E+02 -0.56348877885E+01  0.20249218498E+02  0.37301235762E+02  0.10566000000E+00 0. -1.
        994    1    1    2    0    0 -0.55487928413E+02 -0.28856120726E+02  0.19129751508E+03  0.24014021983E+03  0.13100000000E+03 0.  0.
        997    1    1    2    0    0  0.24672539154E+02  0.34491008515E+02  0.28845325525E+03  0.35355854441E+03  0.20000000000E+03 0.  0.
</event>
<event>
 5    1  0.6487493E-012  0.2520424E+03  0.7957747E-01  0.4311755E+00
         13   -1    0    0    0    0  0.00000000000E+00  0.00000000000E+00  0.49999998884E+03  0.50000000000E+03  0.10566000000E+00 0.  1.
        994   -1    0    0    0    0 -0.00000000000E+00 -0.00000000000E+00  0.00000000000E+00  0.13100000000E+03  0.13100000000E+03 0.  0.
         13    1    1    2    0    0  0.11706512489E+02  0.33804644610E+02  0.13085311571E+02  0.38092426739E+02  0.10566000000E+00 0. -1.
        994    1    1    2    0    0  0.47094017822E+01 -0.13777864907E+02  0.14504296971E+03  0.19598589513E+03  0.13100000000E+03 0.  0.
        997    1    1    2    0    0 -0.16415914272E+02 -0.20026779704E+02  0.34187170755E+03  0.39692167813E+03  0.20000000000E+03 0.  0.
</event>
<event>
 5    1  0.6487493E-012  0.2488472E+03  0.7957747E-01  0.4345995E+00
         13   -1    0    0    0    0  0.00000000000E+00  0.00000000000E+00  0.49999998884E+03  0.50000000000E+03  0.10566000000E+00 0. -1.
        994   -1    0    0    0    0 -0.00000000000E+00 -0.00000000000E+00  0.00000000000E+00  0.13100000000E+03  0.13100000000E+03 0.  0.
         13    1    1    2    0    0  0.42254516737E+01  0.22412224269E+02  0.44729427614E+00  0.22811696007E+02  0.10566000000E+00 0.  1.
        994    1    1    2    0    0  0.23445519642E+02  0.20566226671E+02  0.14474147455E+03  0.19769612168E+03  0.13100000000E+03 0.  0.
        997    1    1    2    0    0 -0.27670971315E+02 -0.42978450940E+02  0.35481122001E+03  0.41049218231E+03  0.20000000000E+03 0.  0.
</event>
<event>
 5    1  0.6487493E-012  0.2412719E+03  0.7957747E-01  0.4431438E+00
         13   -1    0    0    0    0  0.00000000000E+00  0.00000000000E+00  0.49999998884E+03  0.50000000000E+03  0.10566000000E+00 0.  1.
        994   -1    0    0    0    0 -0.00000000000E+00 -0.00000000000E+00  0.00000000000E+00  0.13100000000E+03  0.13100000000E+03 0.  0.
         13    1    1    2    0    0 -0.14741139435E+02 -0.15142882490E+01 -0.47201523480E+01  0.15552660961E+02  0.10566000000E+00 0. -1.
        994    1    1    2    0    0  0.55302800710E+02 -0.57868622870E+01  0.15459446079E+03  0.21012456984E+03  0.13100000000E+03 0.  0.
        997    1    1    2    0    0 -0.40561661275E+02  0.73011505360E+01  0.35012568039E+03  0.40532276920E+03  0.20000000000E+03 0.  0.
</event>
<event>
 5    1  0.6487493E-012  0.2298242E+03  0.7957747E-01  0.4573364E+00
         13   -1    0    0    0    0  0.00000000000E+00  0.00000000000E+00  0.49999998884E+03  0.50000000000E+03  0.10566000000E+00 0.  1.
        994   -1    0    0    0    0 -0.00000000000E+00 -0.00000000000E+00  0.00000000000E+00  0.13100000000E+03  0.13100000000E+03 0.  0.
         13    1    1    2    0    0  0.14809456406E+02  0.45561134215E+01  0.44973200195E+02  0.47567615752E+02  0.10566000000E+00 0. -1.
        994    1    1    2    0    0 -0.60239056322E+02 -0.43547657095E+02  0.14083872485E+03  0.20620787754E+03  0.13100000000E+03 0.  0.
        997    1    1    2    0    0  0.45429599916E+02  0.38991543673E+02  0.31418806380E+03  0.37722450670E+03  0.20000000000E+03 0.  0.
</event>
<event>
 5    1  0.6487493E-012  0.2404879E+03  0.7957747E-01  0.4440645E+00
         13   -1    0    0    0    0  0.00000000000E+00  0.00000000000E+00  0.49999998884E+03  0.50000000000E+03  0.10566000000E+00 0.  1.
        994   -1    0    0    0    0 -0.00000000000E+00 -0.00000000000E+00  0.00000000000E+00  0.13100000000E+03  0.13100000000E+03 0.  0.
         13    1    1    2    0    0 -0.37747103947E+01 -0.21665584976E+02  0.46917352063E+01  0.22487097505E+02  0.10566000000E+00 0. -1.
        994    1    1    2    0    0  0.50701491906E+01  0.49358175952E+02  0.12995875771E+03  0.19108169627E+03  0.13100000000E+03 0.  0.
        997    1    1    2    0    0 -0.12954387959E+01 -0.27692590976E+02  0.36534949592E+03  0.41743120622E+03  0.20000000000E+03 0.  0.
</event>
<event>
 5    1  0.6487493E-012  0.2271261E+03  0.7957747E-01  0.4609337E+00
         13   -1    0    0    0    0  0.00000000000E+00  0.00000000000E+00  0.49999998884E+03  0.50000000000E+03  0.10566000000E+00 0.  1.
        994   -1    0    0    0    0 -0.00000000000E+00 -0.00000000000E+00  0.00000000000E+00  0.13100000000E+03  0.13100000000E+03 0.  0.
         13    1    1    2    0    0 -0.10134682106E+02  0.29741644548E+01  0.23861063160E+02  0.26094423442E+02  0.10566000000E+00 0. -1.
        994    1    1    2    0    0  0.57246162916E+02  0.38375889042E+02  0.11537154465E+03  0.18767372044E+03  0.13100000000E+03 0.  0.
        997    1    1    2    0    0 -0.47111480810E+02 -0.41350053497E+02  0.36076738103E+03  0.41723185612E+03  0.20000000000E+03 0.  0.
</event>
<event>
 5    1  0.6487493E-012  0.2309728E+03  0.7957747E-01  0.4558359E+00
         13   -1    0    0    0    0  0.00000000000E+00  0.00000000000E+00  0.49999998884E+03  0.50000000000E+03  0.10566000000E+00 0. -1.
        994   -1    0    0    0    0 -0.00000000000E+00 -0.00000000000E+00  0.00000000000E+00  0.13100000000E+03  0.13100000000E+03 0.  0.
         13    1    1    2    0    0 -0.34415054939E+01  0.99692782970E+01  0.58245444666E+01  0.12048524893E+02  0.10566000000E+00 0.  1.
        994    1    1    2    0    0 -0.75841147705E+01  0.75901739035E+01  0.68593417178E+02  0.14826053560E+03  0.13100000000E+03 0.  0.
        997    1    1    2    0    0  0.11025620264E+02 -0.17559452200E+02  0.42558202719E+03  0.47069093950E+03  0.20000000000E+03 0.  0.
</event>
<event>
 5    1  0.6487493E-012  0.2297397E+03  0.7957747E-01  0.4574475E+00
         13   -1    0    0    0    0  0.00000000000E+00  0.00000000000E+00  0.49999998884E+03  0.50000000000E+03  0.10566000000E+00 0.  1.
        994   -1    0    0    0    0 -0.00000000000E+00 -0.00000000000E+00  0.00000000000E+00  0.13100000000E+03  0.13100000000E+03 0.  0.
         13    1    1    2    0    0 -0.11335353486E+02 -0.16610143694E+01  0.69542098573E+01  0.13402291079E+02  0.10566000000E+00 0. -1.
        994    1    1    2    0    0  0.25217967699E+02  0.55965329114E+02  0.10955286709E+03  0.18146871533E+03  0.13100000000E+03 0.  0.
        997    1    1    2    0    0 -0.13882614214E+02 -0.54304314745E+02  0.38349291189E+03  0.43612899359E+03  0.20000000000E+03 0.  0.
</event>
<event>
 5    1  0.6487493E-012  0.2302767E+03  0.7957747E-01  0.4567430E+00
         13   -1    0    0    0    0  0.00000000000E+00  0.00000000000E+00  0.49999998884E+03  0.50000000000E+03  0.10566000000E+00 0. -1.
        994   -1    0    0    0    0 -0.00000000000E+00 -0.00000000000E+00  0.00000000000E+00  0.13100000000E+03  0.13100000000E+03 0.  0.
         13    1    1    2    0    0  0.99325054798E+01 -0.16419614862E+02  0.18050858797E+02  0.26345836192E+02  0.10566000000E+00 0.  1.
        994    1    1    2    0    0 -0.56817480920E+02  0.56530321443E+02  0.17115505459E+03  0.22995424783E+03  0.13100000000E+03 0.  0.
        997    1    1    2    0    0  0.46884975440E+02 -0.40110706582E+02  0.31079407545E+03  0.37469991598E+03  0.20000000000E+03 0.  0.
</event>
<event>
 5    1  0.6487493E-012  0.2433843E+03  0.7957747E-01  0.4406982E+00
         13   -1    0    0    0    0  0.00000000000E+00  0.00000000000E+00  0.49999998884E+03  0.50000000000E+03  0.10566000000E+00 0. -1.
        994   -1    0    0    0    0 -0.00000000000E+00 -0.00000000000E+00  0.00000000000E+00  0.13100000000E+03  0.13100000000E+03 0.  0.
         13    1    1    2    0    0  0.28054268776E+02 -0.19988462252E+02  0.76969312762E+02  0.84325956211E+02  0.10566000000E+00 0.  1.
        994    1    1    2    0    0  0.87731952972E+01  0.41521399487E+02  0.13023766134E+03  0.18953586469E+03  0.13100000000E+03 0.  0.
        997    1    1    2    0    0 -0.36827464073E+02 -0.21532937235E+02  0.29279301473E+03  0.35713817910E+03  0.20000000000E+03 0.  0.
</event>
<event>
 5    1  0.6487493E-012  0.2401411E+03  0.7957747E-01  0.4444740E+00
         13   -1    0    0    0    0  0.00000000000E+00  0.00000000000E+00  0.49999998884E+03  0.50000000000E+03  0.10566000000E+00 0.  1.
        994   -1    0    0    0    0 -0.00000000000E+00 -0.00000000000E+00  0.00000000000E+00  0.13100000000E+03  0.13100000000E+03 0.  0.
         13    1    1    2    0    0 -0.19155774329E+02 -0.25756319682E+02  0.40743543038E+02  0.51868865006E+02  0.10566000000E+00 0. -1.
        994    1    1    2    0    0 -0.12405937376E+02  0.40344227684E+02  0.11442936749E+03  0.17898783236E+03  0.13100000000E+03 0.  0.
        997    1    1    2    0    0  0.31561711706E+02 -0.14587908002E+02  0.34482707831E+03  0.40014330263E+03  0.20000000000E+03 0.  0.
</event>
<event>
 5    1  0.6487493E-012  0.2506956E+03  0.7957747E-01  0.4326063E+00
         13   -1    0    0    0    0  0.00000000000E+00  0.00000000000E+00  0.49999998884E+03  0.50000000000E+03  0.10566000000E+00 0.  1.
        994   -1    0    0    0    0 -0.00000000000E+00 -0.00000000000E+00  0.00000000000E+00  0.13100000000E+03  0.13100000000E+03 0.  0.
         13    1    1    2    0    0  0.20674843403E+02  0.42245130122E+02  0.63729224492E+02  0.79205589368E+02  0.10566000000E+00 0. -1.
        994    1    1    2    0    0 -0.23218205317E+02 -0.69779667113E+01  0.14758594136E+03  0.19882250166E+03  0.13100000000E+03 0.  0.
        997    1    1    2    0    0  0.25433619138E+01 -0.35267163411E+02  0.28868482298E+03  0.35297190897E+03  0.20000000000E+03 0.  0.
</event>
<event>
 5    1  0.6487493E-012  0.2351495E+03  0.7957747E-01  0.4505282E+00
         13   -1    0    0    0    0  0.00000000000E+00  0.00000000000E+00  0.49999998884E+03  0.50000000000E+03  0.10566000000E+00 0.  1.
        994   -1    0    0    0    0 -0.00000000000E+00 -0.00000000000E+00  0.00000000000E+00  0.13100000000E+03  0.13100000000E+03 0.  0.
         13    1    1    2    0    0 -0.24114118366E+02 -0.70123788105E+01  0.40015334710E+02  0.47243013633E+02  0.10566000000E+00 0. -1.
        994    1    1    2    0    0  0.33325812179E+02 -0.13520319939E+02  0.91179073368E+02  0.16360938918E+03  0.13100000000E+03 0.  0.
        997    1    1    2    0    0 -0.92116938133E+01  0.20532698750E+02  0.36880558076E+03  0.42014759718E+03  0.20000000000E+03 0.  0.
</event>
<event>
 5    1  0.6487493E-012  0.2467902E+03  0.7957747E-01  0.4368587E+00
         13   -1    0    0    0    0  0.00000000000E+00  0.00000000000E+00  0.49999998884E+03  0.50000000000E+03  0.10566000000E+00 0.  1.
        994   -1    0    0    0    0 -0.00000000000E+00 -0.00000000000E+00  0.00000000000E+00  0.13100000000E+03  0.13100000000E+03 0.  0.
         13    1    1    2    0    0  0.59254390225E+01  0.34389320398E+02  0.24047993555E+02  0.42379869551E+02  0.10566000000E+00 0. -1.
        994    1    1    2    0    0 -0.16955923252E+02 -0.12811330749E+02  0.11664964611E+03  0.17669118106E+03  0.13100000000E+03 0.  0.
        997    1    1    2    0    0  0.11030484230E+02 -0.21577989649E+02  0.35930234917E+03  0.41192894939E+03  0.20000000000E+03 0.  0.
</event>
<event>
 5    1  0.6487493E-012  0.2376464E+03  0.7957747E-01  0.4474618E+00
         13   -1    0    0    0    0  0.00000000000E+00  0.00000000000E+00  0.49999998884E+03  0.50000000000E+03  0.10566000000E+00 0. -1.
        994   -1    0    0    0    0 -0.00000000000E+00 -0.00000000000E+00  0.00000000000E+00  0.13100000000E+03  0.13100000000E+03 0.  0.
         13    1    1    2    0    0 -0.10954035191E+02  0.23383717126E+02  0.27987489170E+02  0.38080176309E+02  0.10566000000E+00 0.  1.
        994    1    1    2    0    0  0.57398188854E+02  0.12383628752E+02  0.13743607499E+03  0.19873998353E+03  0.13100000000E+03 0.  0.
        997    1    1    2    0    0 -0.46444153663E+02 -0.35767345878E+02  0.33457642468E+03  0.39417984016E+03  0.20000000000E+03 0.  0.
</event>
<event>
 5    1  0.6487493E-012  0.2368651E+03  0.7957747E-01  0.4484131E+00
         13   -1    0    0    0    0  0.00000000000E+00  0.00000000000E+00  0.49999998884E+03  0.50000000000E+03  0.10566000000E+00 0. -1.
        994   -1    0    0    0    0 -0.00000000000E+00 -0.00000000000E+00  0.00000000000E+00  0.13100000000E+03  0.13100000000E+03 0.  0.
         13    1    1    2    0    0  0.98512649621E+01  0.22798211977E+02  0.25336783237E+02  0.35479143726E+02  0.10566000000E+00 0.  1.
        994    1    1    2    0    0 -0.65746298321E+02  0.11441724583E+02  0.16369392163E+03  0.22002315511E+03  0.13100000000E+03 0.  0.
        997    1    1    2    0    0  0.55895033359E+02 -0.34239936560E+02  0.31096928397E+03  0.37549770116E+03  0.20000000000E+03 0.  0.
</event>
<event>
 5    1  0.6487493E-012  0.2331945E+03  0.7957747E-01  0.4529841E+00
         13   -1    0    0    0    0  0.00000000000E+00  0.00000000000E+00  0.49999998884E+03  0.50000000000E+03  0.10566000000E+00 0.  1.
        994   -1    0    0    0    0 -0.00000000000E+00 -0.00000000000E+00  0.00000000000E+00  0.13100000000E+03  0.13100000000E+03 0.  0.
         13    1    1    2    0    0 -0.18813419532E+02  0.30433932964E+01  0.34498021442E+02  0.39412328588E+02  0.10566000000E+00 0. -1.
        994    1    1    2    0    0 -0.53582088248E+01 -0.20775264278E+02  0.76638308262E+02  0.15327998010E+03  0.13100000000E+03 0.  0.
        997    1    1    2    0    0  0.24171628357E+02  0.17731870982E+02  0.38886365913E+03  0.43830769131E+03  0.20000000000E+03 0.  0.
</event>
<event>
 5    1  0.6487493E-012  0.2390803E+03  0.7957747E-01  0.4457354E+00
         13   -1    0    0    0    0  0.00000000000E+00  0.00000000000E+00  0.49999998884E+03  0.50000000000E+03  0.10566000000E+00 0.  1.
        994   -1    0    0    0    0 -0.00000000000E+00 -0.00000000000E+00  0.00000000000E+00  0.13100000000E+03  0.13100000000E+03 0.  0.
         13    1    1    2    0    0  0.15942834882E+02 -0.17590832872E+02  0.15705528230E+02  0.28465525925E+02  0.10566000000E+00 0. -1.
        994    1    1    2    0    0  0.29933641207E+01  0.26008516983E+02  0.93543878357E+02  0.16308543884E+03  0.13100000000E+03 0.  0.
        997    1    1    2    0    0 -0.18936199003E+02 -0.84176841119E+01  0.39075058225E+03  0.43944903523E+03  0.20000000000E+03 0.  0.
</event>
<event>
 5    1  0.6487493E-012  0.2321723E+03  0.7957747E-01  0.4542880E+00
         13   -1    0    0    0    0  0.00000000000E+00  0.00000000000E+00  0.49999998884E+03  0.50000000000E+03  0.10566000000E+00 0. -1.
        994   -1    0    0    0    0 -0.00000000000E+00 -0.00000000000E+00  0.00000000000E+00  0.13100000000E+03  0.13100000000E+03 0.  0.
         13    1    1    2    0    0  0.10137579762E+02 -0.16178100548E+02  0.53594973641E+02  0.56894057901E+02  0.10566000000E+00 0.  1.
        994    1    1    2    0    0 -0.45130886682E+02  0.19125049670E+02  0.97793532282E+02  0.17066674958E+03  0.13100000000E+03 0.  0.
        997    1    1    2    0    0  0.34993306920E+02 -0.29469491216E+01  0.34861148291E+03  0.40343919251E+03  0.20000000000E+03 0.  0.
</event>
<event>
 5    1  0.6487493E-012  0.2288640E+03  0.7957747E-01  0.4586047E+00
         13   -1    0    0    0    0  0.00000000000E+00  0.00000000000E+00  0.49999998884E+03  0.50000000000E+03  0.10566000000E+00 0.  1.
        994   -1    0    0    0    0 -0.00000000000E+00 -0.00000000000E+00  0.00000000000E+00  0.13100000000E+03  0.13100000000E+03 0.  0.
         13    1    1    2    0    0  0.12767796799E+02  0.42458628310E+01  0.19395495643E+02  0.23605939963E+02  0.10566000000E+00 0. -1.
        994    1    1    2    0    0 -0.25619377787E+02 -0.19016315000E+02  0.73905953255E+02  0.15375650452E+03  0.13100000000E+03 0.  0.
        997    1    1    2    0    0  0.12851580988E+02  0.14770452169E+02  0.40669853994E+03  0.45363755552E+03  0.20000000000E+03 0.  0.
</event>
<event>
 5    1  0.6487493E-012  0.2329880E+03  0.7957747E-01  0.4532464E+00
         13   -1    0    0    0    0  0.00000000000E+00  0.00000000000E+00  0.49999998884E+03  0.50000000000E+03  0.10566000000E+00 0.  1.
        994   -1    0    0    0    0 -0.00000000000E+00 -0.00000000000E+00  0.00000000000E+00  0.13100000000E+03  0.13100000000E+03 0.  0.
         13    1    1    2    0    0  0.20455474407E+01  0.19003020292E+02  0.25657672992E+02  0.31994161841E+02  0.10566000000E+00 0. -1.
        994    1    1    2    0    0 -0.34273701136E+02 -0.89084554629E+01  0.85358235075E+02  0.16031554966E+03  0.13100000000E+03 0.  0.
        997    1    1    2    0    0  0.32228153695E+02 -0.10094564829E+02  0.38898408077E+03  0.43869028850E+03  0.20000000000E+03 0.  0.
</event>
<event>
 5    1  0.6487493E-012  0.2378883E+03  0.7957747E-01  0.4471688E+00
         13   -1    0    0    0    0  0.00000000000E+00  0.00000000000E+00  0.49999998884E+03  0.50000000000E+03  0.10566000000E+00 0. -1.
        994   -1    0    0    0    0 -0.00000000000E+00 -0.00000000000E+00  0.00000000000E+00  0.13100000000E+03  0.13100000000E+03 0.  0.
         13    1    1    2    0    0  0.21542465842E+02 -0.16671190471E+02  0.40938708915E+02  0.49173117432E+02  0.10566000000E+00 0.  1.
        994    1    1    2    0    0  0.75563289576E+01  0.25363954794E+02  0.90520456084E+02  0.16141679367E+03  0.13100000000E+03 0.  0.
        997    1    1    2    0    0 -0.29098794800E+02 -0.86927643232E+01  0.36854082384E+03  0.42041008890E+03  0.20000000000E+03 0.  0.
</event>
<event>
 5    1  0.6487493E-012  0.2492106E+03  0.7957747E-01  0.4342049E+00
         13   -1    0    0    0    0  0.00000000000E+00  0.00000000000E+00  0.49999998884E+03  0.50000000000E+03  0.10566000000E+00 0. -1.
        994   -1    0    0    0    0 -0.00000000000E+00 -0.00000000000E+00  0.00000000000E+00  0.13100000000E+03  0.13100000000E+03 0.  0.
         13    1    1    2    0    0  0.27383491039E+01 -0.19428926187E+02 -0.68065380211E+01  0.20768289589E+02  0.10566000000E+00 0.  1.
        994    1    1    2    0    0 -0.39095618831E+01 -0.28261992653E+02  0.21071246148E+03  0.24974940706E+03  0.13100000000E+03 0.  0.
        997    1    1    2    0    0  0.11712127792E+01  0.47690918840E+02  0.29609406537E+03  0.36048230335E+03  0.20000000000E+03 0.  0.
</event>
<event>
 5    1  0.6487493E-012  0.2348437E+03  0.7957747E-01  0.4509092E+00
         13   -1    0    0    0    0  0.00000000000E+00  0.00000000000E+00  0.49999998884E+03  0.50000000000E+03  0.10566000000E+00 0. -1.
        994   -1    0    0    0    0 -0.00000000000E+00 -0.00000000000E+00  0.00000000000E+00  0.13100000000E+03  0.13100000000E+03 0.  0.
         13    1    1    2    0    0 -0.17979620513E+02  0.18491489280E+01  0.98463804758E+01  0.20582722805E+02  0.10566000000E+00 0.  1.
        994    1    1    2    0    0  0.38553276731E+02  0.68584673195E+01  0.93522149886E+02  0.16565260710E+03  0.13100000000E+03 0.  0.
        997    1    1    2    0    0 -0.20573656217E+02 -0.87076162475E+01  0.39663145847E+03  0.44476467009E+03  0.20000000000E+03 0.  0.
</event>
<event>
 5    1  0.6487493E-012  0.2305327E+03  0.7957747E-01  0.4564087E+00
         13   -1    0    0    0    0  0.00000000000E+00  0.00000000000E+00  0.49999998884E+03  0.50000000000E+03  0.10566000000E+00 0.  1.
        994   -1    0    0    0    0 -0.00000000000E+00 -0.00000000000E+00  0.00000000000E+00  0.13100000000E+03  0.13100000000E+03 0.  0.
         13    1    1    2    0    0  0.99668464524E+00 -0.14705517050E+02  0.23162761377E+02  0.27454877356E+02  0.10566000000E+00 0. -1.
        994    1    1    2    0    0 -0.48710916288E+01  0.70773750487E+00  0.66867661274E+02  0.14716151858E+03  0.13100000000E+03 0.  0.
        997    1    1    2    0    0  0.38744069836E+01  0.13997779546E+02  0.40996956619E+03  0.45638360407E+03  0.20000000000E+03 0.  0.
</event>
<event>
 5    1  0.6487493E-012  0.2360472E+03  0.7957747E-01  0.4494168E+00
         13   -1    0    0    0    0  0.00000000000E+00  0.00000000000E+00  0.49999998884E+03  0.50000000000E+03  0.10566000000E+00 0.  1.
        994   -1    0    0    0    0 -0.00000000000E+00 -0.00000000000E+00  0.00000000000E+00  0.13100000000E+03  0.13100000000E+03 0.  0.
         13    1    1    2    0    0  0.35005992127E+01  0.23294336495E+02  0.29075108688E+02  0.37419960139E+02  0.10566000000E+00 0. -1.
        994    1    1    2    0    0  0.21650192183E+02 -0.14772159189E+02  0.85704112775E+02  0.15872347796E+03  0.13100000000E+03 0.  0.
        997    1    1    2    0    0 -0.25150791396E+02 -0.85221773054E+01  0.38522076737E+03  0.43485656190E+03  0.20000000000E+03 0.  0.
</event>
<event>
 5    1  0.8040541E-012  0.2424199E+03  0.7957747E-01  0.4418085E+00
         13   -1    0    0    0    0  0.00000000000E+00  0.00000000000E+00  0.49999998884E+03  0.50000000000E+03  0.10566000000E+00 0.  1.
        994   -1    0    0    0    0 -0.00000000000E+00 -0.00000000000E+00  0.00000000000E+00  0.13100000000E+03  0.13100000000E+03 0.  0.
         13    1    1    2    0    0  0.11633096942E+02  0.13610702099E+02  0.63239102525E+00  0.17916228356E+02  0.10566000000E+00 0. -1.
        994    1    1    2    0    0 -0.13866614212E+02 -0.99665657647E+01  0.97542914265E+02  0.16421703793E+03  0.13100000000E+03 0.  0.
        997    1    1    2    0    0  0.22335172705E+01 -0.36441363342E+01  0.40182468355E+03  0.44886673371E+03  0.20000000000E+03 0.  0.
</event>
<event>
 5    1  0.6487493E-012  0.2333490E+03  0.7957747E-01  0.4527882E+00
         13   -1    0    0    0    0  0.00000000000E+00  0.00000000000E+00  0.49999998884E+03  0.50000000000E+03  0.10566000000E+00 0. -1.
        994   -1    0    0    0    0 -0.00000000000E+00 -0.00000000000E+00  0.00000000000E+00  0.13100000000E+03  0.13100000000E+03 0.  0.
         13    1    1    2    0    0  0.54522691795E+01 -0.17529760203E+02  0.21824327474E+02  0.28518979043E+02  0.10566000000E+00 0.  1.
        994    1    1    2    0    0 -0.40945573977E+02 -0.96073247649E+01  0.92648930002E+02  0.16587243577E+03  0.13100000000E+03 0.  0.
        997    1    1    2    0    0  0.35493304797E+02  0.27137084968E+02  0.38552673136E+03  0.43660858519E+03  0.20000000000E+03 0.  0.
</event>
<event>
 5    1  0.6487493E-012  0.2483271E+03  0.7957747E-01  0.4351666E+00
         13   -1    0    0    0    0  0.00000000000E+00  0.00000000000E+00  0.49999998884E+03  0.50000000000E+03  0.10566000000E+00 0. -1.
        994   -1    0    0    0    0 -0.00000000000E+00 -0.00000000000E+00  0.00000000000E+00  0.13100000000E+03  0.13100000000E+03 0.  0.
         13    1    1    2    0    0 -0.31216178836E+01 -0.40172069402E+02  0.29403904650E+02  0.49881263325E+02  0.10566000000E+00 0.  1.
        994    1    1    2    0    0  0.80754676394E+01  0.28130975072E+02  0.13598185882E+03  0.19107231841E+03  0.13100000000E+03 0.  0.
        997    1    1    2    0    0 -0.49538497557E+01  0.12041094330E+02  0.33461422537E+03  0.39004641826E+03  0.20000000000E+03 0.  0.
</event>
<event>
 5    1  0.6487493E-012  0.2415688E+03  0.7957747E-01  0.4427971E+00
         13   -1    0    0    0    0  0.00000000000E+00  0.00000000000E+00  0.49999998884E+03  0.50000000000E+03  0.10566000000E+00 0.  1.
        994   -1    0    0    0    0 -0.00000000000E+00 -0.00000000000E+00  0.00000000000E+00  0.13100000000E+03  0.13100000000E+03 0.  0.
         13    1    1    2    0    0  0.20622982722E+02 -0.25730262113E+02  0.54419444055E+02  0.63630502591E+02  0.10566000000E+00 0. -1.
        994    1    1    2    0    0 -0.14548664714E+02 -0.12291970590E+01  0.93843044957E+02  0.16180448590E+03  0.13100000000E+03 0.  0.
        997    1    1    2    0    0 -0.60743180085E+01  0.26959459172E+02  0.35173749982E+03  0.40556501151E+03  0.20000000000E+03 0.  0.
</event>
<event>
 5    1  0.6487493E-012  0.2455801E+03  0.7957747E-01  0.4382085E+00
         13   -1    0    0    0    0  0.00000000000E+00  0.00000000000E+00  0.49999998884E+03  0.50000000000E+03  0.10566000000E+00 0. -1.
        994   -1    0    0    0    0 -0.00000000000E+00 -0.00000000000E+00  0.00000000000E+00  0.13100000000E+03  0.13100000000E+03 0.  0.
         13    1    1    2    0    0 -0.31394601867E+02 -0.16570702766E+02  0.80661852826E+02  0.88128059560E+02  0.10566000000E+00 0.  1.
        994    1    1    2    0    0  0.11375221927E+01 -0.87183567483E+01  0.10451814933E+03  0.16781640933E+03  0.13100000000E+03 0.  0.
        997    1    1    2    0    0  0.30257079675E+02  0.25289059515E+02  0.31481998668E+03  0.37505553111E+03  0.20000000000E+03 0.  0.
</event>
<event>
 5    1  0.6487493E-012  0.2393748E+03  0.7957747E-01  0.4453839E+00
         13   -1    0    0    0    0  0.00000000000E+00  0.00000000000E+00  0.49999998884E+03  0.50000000000E+03  0.10566000000E+00 0. -1.
        994   -1    0    0    0    0 -0.00000000000E+00 -0.00000000000E+00  0.00000000000E+00  0.13100000000E+03  0.13100000000E+03 0.  0.
         13    1    1    2    0    0  0.57275407314E+01 -0.24996124666E+02  0.16291318693E+02  0.30381395622E+02  0.10566000000E+00 0.  1.
        994    1    1    2    0    0 -0.42416083059E+02  0.20600681952E+02  0.11954526334E+03  0.18350907930E+03  0.13100000000E+03 0.  0.
        997    1    1    2    0    0  0.36688542328E+02  0.43954427149E+01  0.36416340680E+03  0.41710952508E+03  0.20000000000E+03 0.  0.
</event>
<event>
 5    1  0.6487493E-012  0.2299151E+03  0.7957747E-01  0.4572169E+00
         13   -1    0    0    0    0  0.00000000000E+00  0.00000000000E+00  0.49999998884E+03  0.50000000000E+03  0.10566000000E+00 0.  1.
        994   -1    0    0    0    0 -0.00000000000E+00 -0.00000000000E+00  0.00000000000E+00  0.13100000000E+03  0.13100000000E+03 0.  0.
         13    1    1    2    0    0 -0.76246884873E+01  0.12818575626E+02  0.34761773792E+02  0.37826496491E+02  0.10566000000E+00 0. -1.
        994    1    1    2    0    0 -0.15846766372E+02 -0.32074282137E+02  0.78837397834E+02  0.15702297563E+03  0.13100000000E+03 0.  0.
        997    1    1    2    0    0  0.23471454860E+02  0.19255706510E+02  0.38640081721E+03  0.43615052788E+03  0.20000000000E+03 0.  0.
</event>
<event>
 5    1  0.6487493E-012  0.2404534E+03  0.7957747E-01  0.4441051E+00
         13   -1    0    0    0    0  0.00000000000E+00  0.00000000000E+00  0.49999998884E+03  0.50000000000E+03  0.10566000000E+00 0. -1.
        994   -1    0    0    0    0 -0.00000000000E+00 -0.00000000000E+00  0.00000000000E+00  0.13100000000E+03  0.13100000000E+03 0.  0.
         13    1    1    2    0    0 -0.28387852353E+02 -0.70358150590E+01  0.23703378829E+02  0.37646170943E+02  0.10566000000E+00 0.  1.
        994    1    1    2    0    0  0.30867487762E+02 -0.50644772327E+02  0.16499976018E+03  0.21886894623E+03  0.13100000000E+03 0.  0.
        997    1    1    2    0    0 -0.24796354097E+01  0.57680587386E+02  0.31129684982E+03  0.37448488282E+03  0.20000000000E+03 0.  0.
</event>
<event>
 5    1  0.6487493E-012  0.2477878E+03  0.7957747E-01  0.4357576E+00
         13   -1    0    0    0    0  0.00000000000E+00  0.00000000000E+00  0.49999998884E+03  0.50000000000E+03  0.10566000000E+00 0. -1.
        994   -1    0    0    0    0 -0.00000000000E+00 -0.00000000000E+00  0.00000000000E+00  0.13100000000E+03  0.13100000000E+03 0.  0.
         13    1    1    2    0    0  0.28587461374E+02  0.97613105566E+01  0.12350321948E+02  0.32635375712E+02  0.10566000000E+00 0.  1.
        994    1    1    2    0    0 -0.76810814864E+00 -0.18489816509E+02  0.11900065607E+03  0.17794555193E+03  0.13100000000E+03 0.  0.
        997    1    1    2    0    0 -0.27819353226E+02  0.87285059526E+01  0.36864901082E+03  0.42041907236E+03  0.20000000000E+03 0.  0.
</event>
<event>
 5    1  0.6487493E-012  0.2340352E+03  0.7957747E-01  0.4519220E+00
         13   -1    0    0    0    0  0.00000000000E+00  0.00000000000E+00  0.49999998884E+03  0.50000000000E+03  0.10566000000E+00 0. -1.
        994   -1    0    0    0    0 -0.00000000000E+00 -0.00000000000E+00  0.00000000000E+00  0.13100000000E+03  0.13100000000E+03 0.  0.
         13    1    1    2    0    0  0.47944227018E+01 -0.18353745270E+02  0.31784095690E+02  0.37014677593E+02  0.10566000000E+00 0.  1.
        994    1    1    2    0    0 -0.10368599145E+01 -0.18652287337E+02  0.77152930023E+02  0.15317492456E+03  0.13100000000E+03 0.  0.
        997    1    1    2    0    0 -0.37575627873E+01  0.37006032606E+02  0.39106296312E+03  0.44081039785E+03  0.20000000000E+03 0.  0.
</event>
<event>
 5    1  0.6487493E-012  0.2308224E+03  0.7957747E-01  0.4560313E+00
         13   -1    0    0    0    0  0.00000000000E+00  0.00000000000E+00  0.49999998884E+03  0.50000000000E+03  0.10566000000E+00 0. -1.
        994   -1    0    0    0    0 -0.00000000000E+00 -0.00000000000E+00  0.00000000000E+00  0.13100000000E+03  0.13100000000E+03 0.  0.
         13    1    1    2    0    0  0.18847186577E+02 -0.85727985906E+01  0.29997480249E+02  0.36449544618E+02  0.10566000000E+00 0.  1.
        994    1    1    2    0    0 -0.77548936818E+02 -0.62135687087E+01  0.16236671426E+03  0.22265757552E+03  0.13100000000E+03 0.  0.
        997    1    1    2    0    0  0.58701750242E+02  0.14786367299E+02  0.30763579433E+03  0.37189287986E+03  0.20000000000E+03 0.  0.
</event>
<event>
 5    1  0.6487493E-012  0.2279626E+03  0.7957747E-01  0.4598074E+00
         13   -1    0    0    0    0  0.00000000000E+00  0.00000000000E+00  0.49999998884E+03  0.50000000000E+03  0.10566000000E+00 0. -1.
        994   -1    0    0    0    0 -0.00000000000E+00 -0.00000000000E+00  0.00000000000E+00  0.13100000000E+03  0.13100000000E+03 0.  0.
         13    1    1    2    0    0  0.68825351519E+00 -0.10207229275E+02  0.17821468459E+02  0.20549382581E+02  0.10566000000E+00 0.  1.
        994    1    1    2    0    0 -0.26773977876E+02 -0.68149212025E+01  0.69593255297E+02  0.15088906596E+03  0.13100000000E+03 0.  0.
        997    1    1    2    0    0  0.26085724361E+02  0.17022150477E+02  0.41258526508E+03  0.45956155146E+03  0.20000000000E+03 0.  0.
</event>
<event>
 5    1  0.6487493E-012  0.2468306E+03  0.7957747E-01  0.4368139E+00
         13   -1    0    0    0    0  0.00000000000E+00  0.00000000000E+00  0.49999998884E+03  0.50000000000E+03  0.10566000000E+00 0. -1.
        994   -1    0    0    0    0 -0.00000000000E+00 -0.00000000000E+00  0.00000000000E+00  0.13100000000E+03  0.13100000000E+03 0.  0.
         13    1    1    2    0    0 -0.39287162956E+02 -0.20477799564E+02  0.48387524623E+02  0.65606288961E+02  0.10566000000E+00 0.  1.
        994    1    1    2    0    0  0.17945412955E+02  0.39806797270E+02  0.18009420037E+03  0.22693950727E+03  0.13100000000E+03 0.  0.
        997    1    1    2    0    0  0.21341750001E+02 -0.19328997706E+02  0.27151826385E+03  0.33845420377E+03  0.20000000000E+03 0.  0.
</event>
<event>
 5    1  0.6487493E-012  0.2491897E+03  0.7957747E-01  0.4342275E+00
         13   -1    0    0    0    0  0.00000000000E+00  0.00000000000E+00  0.49999998884E+03  0.50000000000E+03  0.10566000000E+00 0.  1.
        994   -1    0    0    0    0 -0.00000000000E+00 -0.00000000000E+00  0.00000000000E+00  0.13100000000E+03  0.13100000000E+03 0.  0.
         13    1    1    2    0    0 -0.28786302190E+01 -0.20345057529E+02 -0.22192652085E+01  0.20667466703E+02  0.10566000000E+00 0. -1.
        994    1    1    2    0    0 -0.65989402124E+01 -0.11414783553E+02  0.12225900242E+03  0.17967222091E+03  0.13100000000E+03 0.  0.
        997    1    1    2    0    0  0.94775704314E+01  0.31759841082E+02  0.37996025163E+03  0.43066031239E+03  0.20000000000E+03 0.  0.
</event>
<event>
 5    1  0.6487493E-012  0.2404519E+03  0.7957747E-01  0.4441069E+00
         13   -1    0    0    0    0  0.00000000000E+00  0.00000000000E+00  0.49999998884E+03  0.50000000000E+03  0.10566000000E+00 0.  1.
        994   -1    0    0    0    0 -0.00000000000E+00 -0.00000000000E+00  0.00000000000E+00  0.13100000000E+03  0.13100000000E+03 0.  0.
         13    1    1    2    0    0  0.27896490691E+02  0.74349599598E+01  0.64909545137E+02  0.71040502789E+02  0.10566000000E+00 0. -1.
        994    1    1    2    0    0 -0.10675073231E+02  0.37789500410E+02  0.11134327527E+03  0.17635285220E+03  0.13100000000E+03 0.  0.
        997    1    1    2    0    0 -0.17221417460E+02 -0.45224460369E+02  0.32374716843E+03  0.38360664501E+03  0.20000000000E+03 0.  0.
</event>
<event>
 5    1  0.6487493E-012  0.2331873E+03  0.7957747E-01  0.4529932E+00
         13   -1    0    0    0    0  0.00000000000E+00  0.00000000000E+00  0.49999998884E+03  0.50000000000E+03  0.10566000000E+00 0.  1.
        994   -1    0    0    0    0 -0.00000000000E+00 -0.00000000000E+00  0.00000000000E+00  0.13100000000E+03  0.13100000000E+03 0.  0.
         13    1    1    2    0    0 -0.14663738302E+02 -0.13556359441E+02  0.22476655283E+02  0.30066780656E+02  0.10566000000E+00 0. -1.
        994    1    1    2    0    0  0.23957415499E+02  0.17139061621E+02  0.81256246044E+02  0.15694356537E+03  0.13100000000E+03 0.  0.
        997    1    1    2    0    0 -0.92936771969E+01 -0.35827021807E+01  0.39626708751E+03  0.44398965397E+03  0.20000000000E+03 0.  0.
</event>
<event>
 5    1  0.6487493E-012  0.2320218E+03  0.7957747E-01  0.4544811E+00
         13   -1    0    0    0    0  0.00000000000E+00  0.00000000000E+00  0.49999998884E+03  0.50000000000E+03  0.10566000000E+00 0.  1.
        994   -1    0    0    0    0 -0.00000000000E+00 -0.00000000000E+00  0.00000000000E+00  0.13100000000E+03  0.13100000000E+03 0.  0.
         13    1    1    2    0    0 -0.84533158858E+01 -0.10835576864E+02  0.10881296514E+02  0.17529462437E+02  0.10566000000E+00 0. -1.
        994    1    1    2    0    0 -0.60849036661E+01  0.16503382163E+01  0.69776574147E+02  0.14855813666E+03  0.13100000000E+03 0.  0.
        997    1    1    2    0    0  0.14538219552E+02  0.91852386479E+01  0.41934211817E+03  0.46491240090E+03  0.20000000000E+03 0.  0.
</event>
<event>
 5    1  0.6487493E-012  0.2439430E+03  0.7957747E-01  0.4400597E+00
         13   -1    0    0    0    0  0.00000000000E+00  0.00000000000E+00  0.49999998884E+03  0.50000000000E+03  0.10566000000E+00 0. -1.
        994   -1    0    0    0    0 -0.00000000000E+00 -0.00000000000E+00  0.00000000000E+00  0.13100000000E+03  0.13100000000E+03 0.  0.
         13    1    1    2    0    0  0.11255007991E+02 -0.16507384686E+02  0.21140956310E+01  0.20091030796E+02  0.10566000000E+00 0.  1.
        994    1    1    2    0    0  0.36000704098E+02  0.11209943925E+02  0.12422291198E+03  0.18442897115E+03  0.13100000000E+03 0.  0.
        997    1    1    2    0    0 -0.47255712089E+02  0.52974407618E+01  0.37366298122E+03  0.42647999805E+03  0.20000000000E+03 0.  0.
</event>
<event>
 5    1  0.6487493E-012  0.2356428E+03  0.7957747E-01  0.4499162E+00
         13   -1    0    0    0    0  0.00000000000E+00  0.00000000000E+00  0.49999998884E+03  0.50000000000E+03  0.10566000000E+00 0. -1.
        994   -1    0    0    0    0 -0.00000000000E+00 -0.00000000000E+00  0.00000000000E+00  0.13100000000E+03  0.13100000000E+03 0.  0.
         13    1    1    2    0    0 -0.17749172984E+02 -0.62949899548E+01  0.76630576769E+02  0.78910813582E+02  0.10566000000E+00 0.  1.
        994    1    1    2    0    0  0.12632141083E+02  0.39258020449E+02  0.98022073447E+02  0.16873082125E+03  0.13100000000E+03 0.  0.
        997    1    1    2    0    0  0.51170319013E+01 -0.32963030495E+02  0.32534733862E+03  0.38335836516E+03  0.20000000000E+03 0.  0.
</event>
<event>
 5    1  0.6487493E-012  0.2322887E+03  0.7957747E-01  0.4541389E+00
         13   -1    0    0    0    0  0.00000000000E+00  0.00000000000E+00  0.49999998884E+03  0.50000000000E+03  0.10566000000E+00 0. -1.
        994   -1    0    0    0    0 -0.00000000000E+00 -0.00000000000E+00  0.00000000000E+00  0.13100000000E+03  0.13100000000E+03 0.  0.
         13    1    1    2    0    0  0.10012365564E+02 -0.12231935138E+02  0.62117067993E+02  0.64096872010E+02  0.10566000000E+00 0.  1.
        994    1    1    2    0    0 -0.67349025359E+01  0.26202549445E+02  0.77769462557E+02  0.15472886549E+03  0.13100000000E+03 0.  0.
        997    1    1    2    0    0 -0.32774630277E+01 -0.13970614307E+02  0.36011345829E+03  0.41217426250E+03  0.20000000000E+03 0.  0.
</event>
<event>
 5    1  0.6487493E-012  0.2482599E+03  0.7957747E-01  0.4352401E+00
         13   -1    0    0    0    0  0.00000000000E+00  0.00000000000E+00  0.49999998884E+03  0.50000000000E+03  0.10566000000E+00 0.  1.
        994   -1    0    0    0    0 -0.00000000000E+00 -0.00000000000E+00  0.00000000000E+00  0.13100000000E+03  0.13100000000E+03 0.  0.
         13    1    1    2    0    0 -0.34178492395E+02  0.16491469821E+02  0.58815085221E+02  0.69995452230E+02  0.10566000000E+00 0. -1.
        994    1    1    2    0    0 -0.14053912952E+01  0.35277463658E+02  0.15069529773E+03  0.20277215619E+03  0.13100000000E+03 0.  0.
        997    1    1    2    0    0  0.35583883690E+02 -0.51768933480E+02  0.29048960589E+03  0.35823239158E+03  0.20000000000E+03 0.  0.
</event>
<event>
 5    1  0.6487493E-012  0.2368471E+03  0.7957747E-01  0.4484351E+00
         13   -1    0    0    0    0  0.00000000000E+00  0.00000000000E+00  0.49999998884E+03  0.50000000000E+03  0.10566000000E+00 0. -1.
        994   -1    0    0    0    0 -0.00000000000E+00 -0.00000000000E+00  0.00000000000E+00  0.13100000000E+03  0.13100000000E+03 0.  0.
         13    1    1    2    0    0  0.23099037559E+02  0.20590061297E+02  0.40388243354E+02  0.50879637632E+02  0.10566000000E+00 0.  1.
        994    1    1    2    0    0 -0.21051685281E+02 -0.56943546463E+02  0.13851823588E+03  0.20008508842E+03  0.13100000000E+03 0.  0.
        997    1    1    2    0    0 -0.20473522779E+01  0.36353485167E+02  0.32109350960E+03  0.38003527395E+03  0.20000000000E+03 0.  0.
</event>
<event>
 5    1  0.6487493E-012  0.2297937E+03  0.7957747E-01  0.4573765E+00
         13   -1    0    0    0    0  0.00000000000E+00  0.00000000000E+00  0.49999998884E+03  0.50000000000E+03  0.10566000000E+00 0.  1.
        994   -1    0    0    0    0 -0.00000000000E+00 -0.00000000000E+00  0.00000000000E+00  0.13100000000E+03  0.13100000000E+03 0.  0.
         13    1    1    2    0    0 -0.88721828408E+01  0.10133260649E+02  0.14008887626E+02  0.19433442729E+02  0.10566000000E+00 0. -1.
        994    1    1    2    0    0  0.41210198300E+02  0.13533898023E+01  0.83265758109E+02  0.16060603532E+03  0.13100000000E+03 0.  0.
        997    1    1    2    0    0 -0.32338015459E+02 -0.11486650451E+02  0.40272534310E+03  0.45096052195E+03  0.20000000000E+03 0.  0.
</event>
<event>
 5    1  0.6487493E-012  0.2434938E+03  0.7957747E-01  0.4405727E+00
         13   -1    0    0    0    0  0.00000000000E+00  0.00000000000E+00  0.49999998884E+03  0.50000000000E+03  0.10566000000E+00 0.  1.
        994   -1    0    0    0    0 -0.00000000000E+00 -0.00000000000E+00  0.00000000000E+00  0.13100000000E+03  0.13100000000E+03 0.  0.
         13    1    1    2    0    0  0.17365399602E+02  0.25916566150E+02  0.54324446409E+02  0.62644889225E+02  0.10566000000E+00 0. -1.
        994    1    1    2    0    0  0.14480714019E+02  0.19819291162E+02  0.10617161378E+03  0.17039925749E+03  0.13100000000E+03 0.  0.
        997    1    1    2    0    0 -0.31846113621E+02 -0.45735857312E+02  0.33950392865E+03  0.39795585328E+03  0.20000000000E+03 0.  0.
</event>
<event>
 5    1  0.6487493E-012  0.2393177E+03  0.7957747E-01  0.4454520E+00
         13   -1    0    0    0    0  0.00000000000E+00  0.00000000000E+00  0.49999998884E+03  0.50000000000E+03  0.10566000000E+00 0.  1.
        994   -1    0    0    0    0 -0.00000000000E+00 -0.00000000000E+00  0.00000000000E+00  0.13100000000E+03  0.13100000000E+03 0.  0.
         13    1    1    2    0    0  0.92291606496E+01 -0.26359284769E+02  0.32329785748E+02  0.42722541010E+02  0.10566000000E+00 0. -1.
        994    1    1    2    0    0 -0.10416048634E+02  0.57951639878E+01  0.86807384939E+02  0.15760266519E+03  0.13100000000E+03 0.  0.
        997    1    1    2    0    0  0.11868879843E+01  0.20564120781E+02  0.38086281815E+03  0.43067479380E+03  0.20000000000E+03 0.  0.
</event>
<event>
 5    1  0.6487493E-012  0.2430077E+03  0.7957747E-01  0.4411305E+00
         13   -1    0    0    0    0  0.00000000000E+00  0.00000000000E+00  0.49999998884E+03  0.50000000000E+03  0.10566000000E+00 0. -1.
        994   -1    0    0    0    0 -0.00000000000E+00 -0.00000000000E+00  0.00000000000E+00  0.13100000000E+03  0.13100000000E+03 0.  0.
         13    1    1    2    0    0  0.84569179362E+01 -0.24726461894E+02  0.12085283248E+02  0.28792058175E+02  0.10566000000E+00 0.  1.
        994    1    1    2    0    0 -0.20087323677E+02  0.12601613919E+02  0.10377868494E+03  0.16879963475E+03  0.13100000000E+03 0.  0.
        997    1    1    2    0    0  0.11630405740E+02  0.12124847974E+02  0.38413602065E+03  0.43340830707E+03  0.20000000000E+03 0.  0.
</event>
<event>
 5    1  0.6487493E-012  0.2423893E+03  0.7957747E-01  0.4418439E+00
         13   -1    0    0    0    0  0.00000000000E+00  0.00000000000E+00  0.49999998884E+03  0.50000000000E+03  0.10566000000E+00 0. -1.
        994   -1    0    0    0    0 -0.00000000000E+00 -0.00000000000E+00  0.00000000000E+00  0.13100000000E+03  0.13100000000E+03 0.  0.
         13    1    1    2    0    0  0.13525465088E+02 -0.25516025342E+02  0.57052092027E+02  0.63944961676E+02  0.10566000000E+00 0.  1.
        994    1    1    2    0    0 -0.13605419843E+02 -0.37361125781E+02  0.12014119326E+03  0.18214243736E+03  0.13100000000E+03 0.  0.
        997    1    1    2    0    0  0.79954755749E-01  0.62877151123E+02  0.32280670355E+03  0.38491260097E+03  0.20000000000E+03 0.  0.
</event>
<event>
 5    1  0.7089483E-012  0.2401827E+03  0.7957747E-01  0.4444249E+00
         13   -1    0    0    0    0  0.00000000000E+00  0.00000000000E+00  0.49999998884E+03  0.50000000000E+03  0.10566000000E+00 0. -1.
        994   -1    0    0    0    0 -0.00000000000E+00 -0.00000000000E+00  0.00000000000E+00  0.13100000000E+03  0.13100000000E+03 0.  0.
         13    1    1    2    0    0 -0.15857942557E+02 -0.13955899886E+02  0.63502813263E+01  0.22058529433E+02  0.10566000000E+00 0.  1.
        994    1    1    2    0    0  0.31469693920E+02  0.13445412372E+02  0.10416330232E+03  0.17082773282E+03  0.13100000000E+03 0.  0.
        997    1    1    2    0    0 -0.15611751362E+02  0.51048751389E+00  0.38948640519E+03  0.43811373775E+03  0.20000000000E+03 0.  0.
</event>
<event>
 5    1  0.6487493E-012  0.2303282E+03  0.7957747E-01  0.4566758E+00
         13   -1    0    0    0    0  0.00000000000E+00  0.00000000000E+00  0.49999998884E+03  0.50000000000E+03  0.10566000000E+00 0.  1.
        994   -1    0    0    0    0 -0.00000000000E+00 -0.00000000000E+00  0.00000000000E+00  0.13100000000E+03  0.13100000000E+03 0.  0.
         13    1    1    2    0    0 -0.85912806911E+01  0.54844942798E+01  0.64154886623E+01  0.12044062447E+02  0.10566000000E+00 0. -1.
        994    1    1    2    0    0 -0.12409551183E+02  0.11740451906E+01  0.67818177600E+02  0.14803945608E+03  0.13100000000E+03 0.  0.
        997    1    1    2    0    0  0.21000831874E+02 -0.66585394705E+01  0.42576632257E+03  0.47091648148E+03  0.20000000000E+03 0.  0.
</event>
<event>
 5    1  0.6487493E-012  0.2495813E+03  0.7957747E-01  0.4338038E+00
         13   -1    0    0    0    0  0.00000000000E+00  0.00000000000E+00  0.49999998884E+03  0.50000000000E+03  0.10566000000E+00 0.  1.
        994   -1    0    0    0    0 -0.00000000000E+00 -0.00000000000E+00  0.00000000000E+00  0.13100000000E+03  0.13100000000E+03 0.  0.
         13    1    1    2    0    0  0.34015953489E+02 -0.12960289690E+02  0.29642602416E+02  0.46944107646E+02  0.10566000000E+00 0. -1.
        994    1    1    2    0    0  0.25267876072E+02  0.10580962390E+02  0.14283673524E+03  0.19573899780E+03  0.13100000000E+03 0.  0.
        997    1    1    2    0    0 -0.59283829561E+02  0.23793273000E+01  0.32752065118E+03  0.38831689455E+03  0.20000000000E+03 0.  0.
</event>
<event>
 5    1  0.6487493E-012  0.2388969E+03  0.7957747E-01  0.4459549E+00
         13   -1    0    0    0    0  0.00000000000E+00  0.00000000000E+00  0.49999998884E+03  0.50000000000E+03  0.10566000000E+00 0.  1.
        994   -1    0    0    0    0 -0.00000000000E+00 -0.00000000000E+00  0.00000000000E+00  0.13100000000E+03  0.13100000000E+03 0.  0.
         13    1    1    2    0    0  0.95356522105E+01 -0.28463857082E+02  0.14177865278E+02  0.33198536880E+02  0.10566000000E+00 0. -1.
        994    1    1    2    0    0 -0.21510782887E+02  0.59533840725E+02  0.21001112618E+03  0.25548515631E+03  0.13100000000E+03 0.  0.
        997    1    1    2    0    0  0.11975130676E+02 -0.31069983643E+02  0.27581099737E+03  0.34231630681E+03  0.20000000000E+03 0.  0.
</event>
<event>
 5    1  0.6487493E-012  0.2368712E+03  0.7957747E-01  0.4484055E+00
         13   -1    0    0    0    0  0.00000000000E+00  0.00000000000E+00  0.49999998884E+03  0.50000000000E+03  0.10566000000E+00 0.  1.
        994   -1    0    0    0    0 -0.00000000000E+00 -0.00000000000E+00  0.00000000000E+00  0.13100000000E+03  0.13100000000E+03 0.  0.
         13    1    1    2    0    0 -0.60271453341E+00  0.15316434721E+02  0.63723653946E+01  0.16600441023E+02  0.10566000000E+00 0. -1.
        994    1    1    2    0    0  0.26170507076E+02  0.53426815498E+02  0.13511563597E+03  0.19737415013E+03  0.13100000000E+03 0.  0.
        997    1    1    2    0    0 -0.25567792543E+02 -0.68743250219E+02  0.35851198747E+03  0.41702540885E+03  0.20000000000E+03 0.  0.
</event>
<event>
 5    1  0.6487493E-012  0.2341684E+03  0.7957747E-01  0.4517545E+00
         13   -1    0    0    0    0  0.00000000000E+00  0.00000000000E+00  0.49999998884E+03  0.50000000000E+03  0.10566000000E+00 0.  1.
        994   -1    0    0    0    0 -0.00000000000E+00 -0.00000000000E+00  0.00000000000E+00  0.13100000000E+03  0.13100000000E+03 0.  0.
         13    1    1    2    0    0  0.15561243761E+01 -0.17629386689E+02  0.14579214349E+02  0.22929924840E+02  0.10566000000E+00 0. -1.
        994    1    1    2    0    0 -0.93817324336E+01  0.85208120653E+01  0.75316020000E+02  0.15163813508E+03  0.13100000000E+03 0.  0.
        997    1    1    2    0    0  0.78256080575E+01  0.91085746233E+01  0.41010475449E+03  0.45643194008E+03  0.20000000000E+03 0.  0.
</event>
<event>
 5    1  0.6487493E-012  0.2411892E+03  0.7957747E-01  0.4432406E+00
         13   -1    0    0    0    0  0.00000000000E+00  0.00000000000E+00  0.49999998884E+03  0.50000000000E+03  0.10566000000E+00 0.  1.
        994   -1    0    0    0    0 -0.00000000000E+00 -0.00000000000E+00  0.00000000000E+00  0.13100000000E+03  0.13100000000E+03 0.  0.
         13    1    1    2    0    0  0.38445578373E+02 -0.11924562420E+01  0.53245970852E+02  0.65685835797E+02  0.10566000000E+00 0. -1.
        994    1    1    2    0    0 -0.48760310398E+02  0.17611083071E+02  0.14007457021E+03  0.19866958332E+03  0.13100000000E+03 0.  0.
        997    1    1    2    0    0  0.10314732025E+02 -0.16418626829E+02  0.30667944777E+03  0.36664458088E+03  0.20000000000E+03 0.  0.
</event>
<event>
 5    1  0.6487493E-012  0.2433334E+03  0.7957747E-01  0.4407566E+00
         13   -1    0    0    0    0  0.00000000000E+00  0.00000000000E+00  0.49999998884E+03  0.50000000000E+03  0.10566000000E+00 0.  1.
        994   -1    0    0    0    0 -0.00000000000E+00 -0.00000000000E+00  0.00000000000E+00  0.13100000000E+03  0.13100000000E+03 0.  0.
         13    1    1    2    0    0  0.11924557773E+02  0.21011925512E+02  0.11500638636E+02  0.26757652081E+02  0.10566000000E+00 0. -1.
        994    1    1    2    0    0 -0.13035862979E+02  0.50107696648E+02  0.16048985430E+03  0.21353854060E+03  0.13100000000E+03 0.  0.
        997    1    1    2    0    0  0.11113052065E+01 -0.71119622160E+02  0.32800949590E+03  0.39070380732E+03  0.20000000000E+03 0.  0.
</event>
<event>
 5    1  0.6487493E-012  0.2377072E+03  0.7957747E-01  0.4473881E+00
         13   -1    0    0    0    0  0.00000000000E+00  0.00000000000E+00  0.49999998884E+03  0.50000000000E+03  0.10566000000E+00 0.  1.
        994   -1    0    0    0    0 -0.00000000000E+00 -0.00000000000E+00  0.00000000000E+00  0.13100000000E+03  0.13100000000E+03 0.  0.
         13    1    1    2    0    0 -0.94509796592E+01  0.11334834196E+02  0.84243495188E+00  0.14782433610E+02  0.10566000000E+00 0. -1.
        994    1    1    2    0    0  0.44098674798E+02  0.10283782624E+01  0.10821528668E+03  0.17554856579E+03  0.13100000000E+03 0.  0.
        997    1    1    2    0    0 -0.34647695139E+02 -0.12363212458E+02  0.39094226720E+03  0.44066900059E+03  0.20000000000E+03 0.  0.
</event>
<event>
 5    1  0.6487493E-012  0.2421654E+03  0.7957747E-01  0.4421032E+00
         13   -1    0    0    0    0  0.00000000000E+00  0.00000000000E+00  0.49999998884E+03  0.50000000000E+03  0.10566000000E+00 0. -1.
        994   -1    0    0    0    0 -0.00000000000E+00 -0.00000000000E+00  0.00000000000E+00  0.13100000000E+03  0.13100000000E+03 0.  0.
         13    1    1    2    0    0  0.21836214038E+02 -0.19372603286E+02  0.26386848528E+02  0.39349649819E+02  0.10566000000E+00 0.  1.
        994    1    1    2    0    0  0.20479078910E+02  0.22268551723E+02  0.10678363586E+03  0.17169457172E+03  0.13100000000E+03 0.  0.
        997    1    1    2    0    0 -0.42315292948E+02 -0.28959484377E+01  0.36682950445E+03  0.41995577846E+03  0.20000000000E+03 0.  0.
</event>
<event>
 5    1  0.6487493E-012  0.2421351E+03  0.7957747E-01  0.4421384E+00
         13   -1    0    0    0    0  0.00000000000E+00  0.00000000000E+00  0.49999998884E+03  0.50000000000E+03  0.10566000000E+00 0.  1.
        994   -1    0    0    0    0 -0.00000000000E+00 -0.00000000000E+00  0.00000000000E+00  0.13100000000E+03  0.13100000000E+03 0.  0.
         13    1    1    2    0    0  0.28461810552E+02  0.20964861221E+02  0.34424633086E+02  0.49342340774E+02  0.10566000000E+00 0. -1.
        994    1    1    2    0    0 -0.33660744227E+02 -0.19764667591E+02  0.11784125773E+03  0.18047506701E+03  0.13100000000E+03 0.  0.
        997    1    1    2    0    0  0.51989336747E+01 -0.12001936293E+01  0.34773409802E+03  0.40118259222E+03  0.20000000000E+03 0.  0.
</event>
<event>
 5    1  0.6487493E-012  0.2343705E+03  0.7957747E-01  0.4515008E+00
         13   -1    0    0    0    0  0.00000000000E+00  0.00000000000E+00  0.49999998884E+03  0.50000000000E+03  0.10566000000E+00 0. -1.
        994   -1    0    0    0    0 -0.00000000000E+00 -0.00000000000E+00  0.00000000000E+00  0.13100000000E+03  0.13100000000E+03 0.  0.
         13    1    1    2    0    0 -0.18317571606E+02 -0.22942906707E+00  0.67523318650E+02  0.69964246532E+02  0.10566000000E+00 0.  1.
        994    1    1    2    0    0  0.11737164216E+02  0.20888650959E+02  0.80464576244E+02  0.15559448831E+03  0.13100000000E+03 0.  0.
        997    1    1    2    0    0  0.65804073897E+01 -0.20659221892E+02  0.35201209394E+03  0.40544126516E+03  0.20000000000E+03 0.  0.
</event>
<event>
 5    1  0.6487493E-012  0.2308044E+03  0.7957747E-01  0.4560547E+00
         13   -1    0    0    0    0  0.00000000000E+00  0.00000000000E+00  0.49999998884E+03  0.50000000000E+03  0.10566000000E+00 0. -1.
        994   -1    0    0    0    0 -0.00000000000E+00 -0.00000000000E+00  0.00000000000E+00  0.13100000000E+03  0.13100000000E+03 0.  0.
         13    1    1    2    0    0  0.80855608053E+01  0.13350925791E+02  0.29360917699E+02  0.33252040016E+02  0.10566000000E+00 0.  1.
        994    1    1    2    0    0  0.61567885256E+01 -0.67033807891E+01  0.67954269501E+02  0.14785676888E+03  0.13100000000E+03 0.  0.
        997    1    1    2    0    0 -0.14242349331E+02 -0.66475450021E+01  0.40268480164E+03  0.44989119111E+03  0.20000000000E+03 0.  0.
</event>
<event>
 5    1  0.6487493E-012  0.2334650E+03  0.7957747E-01  0.4526413E+00
         13   -1    0    0    0    0  0.00000000000E+00  0.00000000000E+00  0.49999998884E+03  0.50000000000E+03  0.10566000000E+00 0.  1.
        994   -1    0    0    0    0 -0.00000000000E+00 -0.00000000000E+00  0.00000000000E+00  0.13100000000E+03  0.13100000000E+03 0.  0.
         13    1    1    2    0    0  0.14255194232E+02 -0.11411728066E+02  0.32610076230E+02  0.37374675060E+02  0.10566000000E+00 0. -1.
        994    1    1    2    0    0 -0.11271313694E+02 -0.37680302346E+02  0.90116952297E+02  0.16379533812E+03  0.13100000000E+03 0.  0.
        997    1    1    2    0    0 -0.29838805383E+01  0.49092030412E+02  0.37727296031E+03  0.42982998682E+03  0.20000000000E+03 0.  0.
</event>
<event>
 5    1  0.6487493E-012  0.2319506E+03  0.7957747E-01  0.4545727E+00
         13   -1    0    0    0    0  0.00000000000E+00  0.00000000000E+00  0.49999998884E+03  0.50000000000E+03  0.10566000000E+00 0. -1.
        994   -1    0    0    0    0 -0.00000000000E+00 -0.00000000000E+00  0.00000000000E+00  0.13100000000E+03  0.13100000000E+03 0.  0.
         13    1    1    2    0    0  0.55940877994E+01  0.19468821284E+02  0.29468555735E+02  0.35759415006E+02  0.10566000000E+00 0.  1.
        994    1    1    2    0    0 -0.23759963954E+02 -0.34913400542E+02  0.89292779402E+02  0.16406608997E+03  0.13100000000E+03 0.  0.
        997    1    1    2    0    0  0.18165876155E+02  0.15444579258E+02  0.38123865370E+03  0.43117449502E+03  0.20000000000E+03 0.  0.
</event>
<event>
 5    1  0.6487493E-012  0.2330426E+03  0.7957747E-01  0.4531769E+00
         13   -1    0    0    0    0  0.00000000000E+00  0.00000000000E+00  0.49999998884E+03  0.50000000000E+03  0.10566000000E+00 0.  1.
        994   -1    0    0    0    0 -0.00000000000E+00 -0.00000000000E+00  0.00000000000E+00  0.13100000000E+03  0.13100000000E+03 0.  0.
         13    1    1    2    0    0  0.19139254545E+02  0.40078707573E+01  0.32369141685E+02  0.37817278987E+02  0.10566000000E+00 0. -1.
        994    1    1    2    0    0 -0.11568236025E+02  0.16666019360E+02  0.75782099035E+02  0.15269416105E+03  0.13100000000E+03 0.  0.
        997    1    1    2    0    0 -0.75710185199E+01 -0.20673890117E+02  0.39184874812E+03  0.44048855996E+03  0.20000000000E+03 0.  0.
</event>
<event>
 5    1  0.6487493E-012  0.2326442E+03  0.7957747E-01  0.4536843E+00
         13   -1    0    0    0    0  0.00000000000E+00  0.00000000000E+00  0.49999998884E+03  0.50000000000E+03  0.10566000000E+00 0.  1.
        994   -1    0    0    0    0 -0.00000000000E+00 -0.00000000000E+00  0.00000000000E+00  0.13100000000E+03  0.13100000000E+03 0.  0.
         13    1    1    2    0    0 -0.10516246731E+02  0.19746132064E+02  0.46131436624E+02  0.51270086657E+02  0.10566000000E+00 0. -1.
        994    1    1    2    0    0  0.11107714894E+02 -0.44715408880E+02  0.95383293652E+02  0.16846905303E+03  0.13100000000E+03 0.  0.
        997    1    1    2    0    0 -0.59146816283E+00  0.24969276816E+02  0.35848525856E+03  0.41126086031E+03  0.20000000000E+03 0.  0.
</event>
<event>
 5    1  0.6487493E-012  0.2465202E+03  0.7957747E-01  0.4371585E+00
         13   -1    0    0    0    0  0.00000000000E+00  0.00000000000E+00  0.49999998884E+03  0.50000000000E+03  0.10566000000E+00 0.  1.
        994   -1    0    0    0    0 -0.00000000000E+00 -0.00000000000E+00  0.00000000000E+00  0.13100000000E+03  0.13100000000E+03 0.  0.
         13    1    1    2    0    0 -0.38627569190E+02 -0.44228577502E+01  0.36226986594E+02  0.53141852563E+02  0.10566000000E+00 0. -1.
        994    1    1    2    0    0  0.13574814177E+02  0.36974559139E+02  0.14533915924E+03  0.19958924022E+03  0.13100000000E+03 0.  0.
        997    1    1    2    0    0  0.25052755013E+02 -0.32551701389E+02  0.31843384300E+03  0.37826890721E+03  0.20000000000E+03 0.  0.
</event>
<event>
 5    1  0.8595104E-012  0.2377277E+03  0.7957747E-01  0.4473633E+00
         13   -1    0    0    0    0  0.00000000000E+00  0.00000000000E+00  0.49999998884E+03  0.50000000000E+03  0.10566000000E+00 0. -1.
        994   -1    0    0    0    0 -0.00000000000E+00 -0.00000000000E+00  0.00000000000E+00  0.13100000000E+03  0.13100000000E+03 0.  0.
         13    1    1    2    0    0 -0.11052384625E+02  0.39109221206E+01 -0.13197181368E+01  0.11798446411E+02  0.10566000000E+00 0.  1.
        994    1    1    2    0    0  0.11533927728E+02 -0.61164595345E+01  0.83284535020E+02  0.15578111676E+03  0.13100000000E+03 0.  0.
        997    1    1    2    0    0 -0.48154310296E+00  0.22055374139E+01  0.41803517195E+03  0.46342043683E+03  0.20000000000E+03 0.  0.
</event>
<event>
 5    1  0.6487493E-012  0.2513608E+03  0.7957747E-01  0.4318974E+00
         13   -1    0    0    0    0  0.00000000000E+00  0.00000000000E+00  0.49999998884E+03  0.50000000000E+03  0.10566000000E+00 0. -1.
        994   -1    0    0    0    0 -0.00000000000E+00 -0.00000000000E+00  0.00000000000E+00  0.13100000000E+03  0.13100000000E+03 0.  0.
         13    1    1    2    0    0 -0.32712387617E+01 -0.97385061423E+01 -0.15204320425E+02  0.18349987154E+02  0.10566000000E+00 0.  1.
        994    1    1    2    0    0 -0.30894010727E+01  0.40067103008E+01  0.21530201098E+03  0.25207450101E+03  0.13100000000E+03 0.  0.
        997    1    1    2    0    0  0.63606398344E+01  0.57317958415E+01  0.29990229828E+03  0.36057551184E+03  0.20000000000E+03 0.  0.
</event>
<event>
 5    1  0.6487493E-012  0.2291634E+03  0.7957747E-01  0.4582079E+00
         13   -1    0    0    0    0  0.00000000000E+00  0.00000000000E+00  0.49999998884E+03  0.50000000000E+03  0.10566000000E+00 0.  1.
        994   -1    0    0    0    0 -0.00000000000E+00 -0.00000000000E+00  0.00000000000E+00  0.13100000000E+03  0.13100000000E+03 0.  0.
         13    1    1    2    0    0 -0.11503914443E+02 -0.36630015876E+01  0.45605172505E+02  0.47176271063E+02  0.10566000000E+00 0. -1.
        994    1    1    2    0    0  0.28948284968E+02  0.19842452754E+02  0.76761626071E+02  0.15583668814E+03  0.13100000000E+03 0.  0.
        997    1    1    2    0    0 -0.17444370525E+02 -0.16179451166E+02  0.37763319026E+03  0.42798704080E+03  0.20000000000E+03 0.  0.
</event>
<event>
 5    1  0.6487493E-012  0.2302989E+03  0.7957747E-01  0.4567140E+00
         13   -1    0    0    0    0  0.00000000000E+00  0.00000000000E+00  0.49999998884E+03  0.50000000000E+03  0.10566000000E+00 0. -1.
        994   -1    0    0    0    0 -0.00000000000E+00 -0.00000000000E+00  0.00000000000E+00  0.13100000000E+03  0.13100000000E+03 0.  0.
         13    1    1    2    0    0  0.10014049087E+02 -0.68215615059E+01  0.17297818761E+02  0.21119672782E+02  0.10566000000E+00 0.  1.
        994    1    1    2    0    0  0.10783746335E+02 -0.44317007827E+02  0.88874186687E+02  0.16474194192E+03  0.13100000000E+03 0.  0.
        997    1    1    2    0    0 -0.20797795422E+02  0.51138569332E+02  0.39382798339E+03  0.44513838530E+03  0.20000000000E+03 0.  0.
</event>
<event>
 5    1  0.6487493E-012  0.2516246E+03  0.7957747E-01  0.4316175E+00
         13   -1    0    0    0    0  0.00000000000E+00  0.00000000000E+00  0.49999998884E+03  0.50000000000E+03  0.10566000000E+00 0. -1.
        994   -1    0    0    0    0 -0.00000000000E+00 -0.00000000000E+00  0.00000000000E+00  0.13100000000E+03  0.13100000000E+03 0.  0.
         13    1    1    2    0    0 -0.77262030349E+01 -0.81401476633E+01 -0.13702093932E+02  0.17711994791E+02  0.10566000000E+00 0.  1.
        994    1    1    2    0    0 -0.19313342505E+02  0.10765576817E+02  0.19087154378E+03  0.23255504524E+03  0.13100000000E+03 0.  0.
        997    1    1    2    0    0  0.27039545540E+02 -0.26254291541E+01  0.32283053899E+03  0.38073295997E+03  0.20000000000E+03 0.  0.
</event>
<event>
 5    1  0.6487493E-012  0.2304272E+03  0.7957747E-01  0.4565463E+00
         13   -1    0    0    0    0  0.00000000000E+00  0.00000000000E+00  0.49999998884E+03  0.50000000000E+03  0.10566000000E+00 0. -1.
        994   -1    0    0    0    0 -0.00000000000E+00 -0.00000000000E+00  0.00000000000E+00  0.13100000000E+03  0.13100000000E+03 0.  0.
         13    1    1    2    0    0  0.18690732991E+02 -0.74029350952E+01  0.21556216591E+02  0.29475898384E+02  0.10566000000E+00 0.  1.
        994    1    1    2    0    0 -0.65440899109E+02  0.44228258106E+02  0.16523799460E+03  0.22517381054E+03  0.13100000000E+03 0.  0.
        997    1    1    2    0    0  0.46750166118E+02 -0.36825323011E+02  0.31320577764E+03  0.37635029108E+03  0.20000000000E+03 0.  0.
</event>
<event>
 5    1  0.6487493E-012  0.2474187E+03  0.7957747E-01  0.4361637E+00
         13   -1    0    0    0    0  0.00000000000E+00  0.00000000000E+00  0.49999998884E+03  0.50000000000E+03  0.10566000000E+00 0.  1.
        994   -1    0    0    0    0 -0.00000000000E+00 -0.00000000000E+00  0.00000000000E+00  0.13100000000E+03  0.13100000000E+03 0.  0.
         13    1    1    2    0    0 -0.94164205545E+01  0.34611827121E+02  0.30594175153E+02  0.47145119260E+02  0.10566000000E+00 0. -1.
        994    1    1    2    0    0  0.55992005033E+01  0.11677613738E+01  0.11077808408E+03  0.17165517360E+03  0.13100000000E+03 0.  0.
        997    1    1    2    0    0  0.38172200512E+01 -0.35779588495E+02  0.35862772960E+03  0.41219970714E+03  0.20000000000E+03 0.  0.
</event>
<event>
 5    1  0.7443240E-012  0.2367660E+03  0.7957747E-01  0.4485342E+00
         13   -1    0    0    0    0  0.00000000000E+00  0.00000000000E+00  0.49999998884E+03  0.50000000000E+03  0.10566000000E+00 0. -1.
        994   -1    0    0    0    0 -0.00000000000E+00 -0.00000000000E+00  0.00000000000E+00  0.13100000000E+03  0.13100000000E+03 0.  0.
         13    1    1    2    0    0 -0.92492707303E+01  0.10226089227E+02  0.14120764808E+01  0.13860989645E+02  0.10566000000E+00 0.  1.
        994    1    1    2    0    0  0.28970789929E+02 -0.26844320651E+01  0.89531186335E+02  0.16131753213E+03  0.13100000000E+03 0.  0.
        997    1    1    2    0    0 -0.19721519199E+02 -0.75416571621E+01  0.40905672602E+03  0.45582147823E+03  0.20000000000E+03 0.  0.
</event>
<event>
 5    1  0.7304370E-012  0.2378853E+03  0.7957747E-01  0.4471725E+00
         13   -1    0    0    0    0  0.00000000000E+00  0.00000000000E+00  0.49999998884E+03  0.50000000000E+03  0.10566000000E+00 0.  1.
        994   -1    0    0    0    0 -0.00000000000E+00 -0.00000000000E+00  0.00000000000E+00  0.13100000000E+03  0.13100000000E+03 0.  0.
         13    1    1    2    0    0  0.15110081908E+02 -0.14084995824E+02  0.81586080924E+01  0.22209811631E+02  0.10566000000E+00 0. -1.
        994    1    1    2    0    0 -0.32854139311E+02  0.26718020535E+02  0.10637915186E+03  0.17398497361E+03  0.13100000000E+03 0.  0.
        997    1    1    2    0    0  0.17744057404E+02 -0.12633024711E+02  0.38546222889E+03  0.43480521476E+03  0.20000000000E+03 0.  0.
</event>
<event>
 5    1  0.6487493E-012  0.2416339E+03  0.7957747E-01  0.4427211E+00
         13   -1    0    0    0    0  0.00000000000E+00  0.00000000000E+00  0.49999998884E+03  0.50000000000E+03  0.10566000000E+00 0.  1.
        994   -1    0    0    0    0 -0.00000000000E+00 -0.00000000000E+00  0.00000000000E+00  0.13100000000E+03  0.13100000000E+03 0.  0.
         13    1    1    2    0    0  0.26685715048E+02  0.96413146824E+01  0.92959019875E+02  0.97192967218E+02  0.10566000000E+00 0. -1.
        994    1    1    2    0    0 -0.15228642470E+02  0.52945214796E+01  0.94715462222E+02  0.16245603188E+03  0.13100000000E+03 0.  0.
        997    1    1    2    0    0 -0.11457072578E+02 -0.14935836162E+02  0.31232550674E+03  0.37135100091E+03  0.20000000000E+03 0.  0.
</event>
<event>
 5    1  0.6487493E-012  0.2324309E+03  0.7957747E-01  0.4539569E+00
         13   -1    0    0    0    0  0.00000000000E+00  0.00000000000E+00  0.49999998884E+03  0.50000000000E+03  0.10566000000E+00 0. -1.
        994   -1    0    0    0    0 -0.00000000000E+00 -0.00000000000E+00  0.00000000000E+00  0.13100000000E+03  0.13100000000E+03 0.  0.
         13    1    1    2    0    0  0.14923401906E+02  0.12056039455E+02  0.28509943764E+02  0.34363993791E+02  0.10566000000E+00 0.  1.
        994    1    1    2    0    0 -0.64940078549E+02  0.32299863519E+02  0.24531886945E+03  0.28740710272E+03  0.13100000000E+03 0.  0.
        997    1    1    2    0    0  0.50016676643E+02 -0.44355902974E+02  0.22617117562E+03  0.30922890349E+03  0.20000000000E+03 0.  0.
</event>
<event>
 5    1  0.6487493E-012  0.2500303E+03  0.7957747E-01  0.4333198E+00
         13   -1    0    0    0    0  0.00000000000E+00  0.00000000000E+00  0.49999998884E+03  0.50000000000E+03  0.10566000000E+00 0. -1.
        994   -1    0    0    0    0 -0.00000000000E+00 -0.00000000000E+00  0.00000000000E+00  0.13100000000E+03  0.13100000000E+03 0.  0.
         13    1    1    2    0    0  0.13720750222E+02  0.28983954297E+02  0.11786218272E+02  0.34165109374E+02  0.10566000000E+00 0.  1.
        994    1    1    2    0    0 -0.15150359568E+02  0.28290792996E+02  0.17827470407E+03  0.22354590686E+03  0.13100000000E+03 0.  0.
        997    1    1    2    0    0  0.14296093455E+01 -0.57274747293E+02  0.30993906650E+03  0.37328898377E+03  0.20000000000E+03 0.  0.
</event>
<event>
 5    1  0.6487493E-012  0.2415616E+03  0.7957747E-01  0.4428054E+00
         13   -1    0    0    0    0  0.00000000000E+00  0.00000000000E+00  0.49999998884E+03  0.50000000000E+03  0.10566000000E+00 0. -1.
        994   -1    0    0    0    0 -0.00000000000E+00 -0.00000000000E+00  0.00000000000E+00  0.13100000000E+03  0.13100000000E+03 0.  0.
         13    1    1    2    0    0 -0.31201550430E+01 -0.37562337048E+02  0.73534733906E+02  0.82631911431E+02  0.10566000000E+00 0.  1.
        994    1    1    2    0    0 -0.15813359956E+02  0.54658010408E+02  0.16599378220E+03  0.21898058404E+03  0.13100000000E+03 0.  0.
        997    1    1    2    0    0  0.18933514999E+02 -0.17095673360E+02  0.26047147273E+03  0.32938750453E+03  0.20000000000E+03 0.  0.
</event>
<event>
 5    1  0.6487493E-012  0.2482368E+03  0.7957747E-01  0.4352653E+00
         13   -1    0    0    0    0  0.00000000000E+00  0.00000000000E+00  0.49999998884E+03  0.50000000000E+03  0.10566000000E+00 0. -1.
        994   -1    0    0    0    0 -0.00000000000E+00 -0.00000000000E+00  0.00000000000E+00  0.13100000000E+03  0.13100000000E+03 0.  0.
         13    1    1    2    0    0  0.15882722525E+02 -0.56971117297E+01 -0.67218068573E+01  0.18163474567E+02  0.10566000000E+00 0.  1.
        994    1    1    2    0    0 -0.62153161994E+01  0.31427591648E+02  0.14110490708E+03  0.19518688090E+03  0.13100000000E+03 0.  0.
        997    1    1    2    0    0 -0.96674063259E+01 -0.25730479919E+02  0.36561688861E+03  0.41764964454E+03  0.20000000000E+03 0.  0.
</event>
<event>
 5    1  0.6487493E-012  0.2439576E+03  0.7957747E-01  0.4400431E+00
         13   -1    0    0    0    0  0.00000000000E+00  0.00000000000E+00  0.49999998884E+03  0.50000000000E+03  0.10566000000E+00 0. -1.
        994   -1    0    0    0    0 -0.00000000000E+00 -0.00000000000E+00  0.00000000000E+00  0.13100000000E+03  0.13100000000E+03 0.  0.
         13    1    1    2    0    0  0.11313177779E+02  0.31680074223E+02  0.39671689795E+02  0.52014125287E+02  0.10566000000E+00 0.  1.
        994    1    1    2    0    0  0.13075631277E+02 -0.32076174879E+01  0.10069204566E+03  0.16577439188E+03  0.13100000000E+03 0.  0.
        997    1    1    2    0    0 -0.24388809057E+02 -0.28472456735E+02  0.35963625338E+03  0.41321148284E+03  0.20000000000E+03 0.  0.
</event>
<event>
 5    1  0.6487493E-012  0.2480193E+03  0.7957747E-01  0.4355035E+00
         13   -1    0    0    0    0  0.00000000000E+00  0.00000000000E+00  0.49999998884E+03  0.50000000000E+03  0.10566000000E+00 0. -1.
        994   -1    0    0    0    0 -0.00000000000E+00 -0.00000000000E+00  0.00000000000E+00  0.13100000000E+03  0.13100000000E+03 0.  0.
         13    1    1    2    0    0 -0.18032852570E+02  0.10030737857E+02 -0.56258196914E+01  0.21388325905E+02  0.10566000000E+00 0.  1.
        994    1    1    2    0    0  0.22842056149E+01  0.32752728349E+02  0.21455670086E+03  0.25352226075E+03  0.13100000000E+03 0.  0.
        997    1    1    2    0    0  0.15748646955E+02 -0.42783466206E+02  0.29106910767E+03  0.35608941335E+03  0.20000000000E+03 0.  0.
</event>
<event>
 5    1  0.6487493E-012  0.2287265E+03  0.7957747E-01  0.4587875E+00
         13   -1    0    0    0    0  0.00000000000E+00  0.00000000000E+00  0.49999998884E+03  0.50000000000E+03  0.10566000000E+00 0. -1.
        994   -1    0    0    0    0 -0.00000000000E+00 -0.00000000000E+00  0.00000000000E+00  0.13100000000E+03  0.13100000000E+03 0.  0.
         13    1    1    2    0    0 -0.99504216335E+01  0.79797158315E+01  0.28402955024E+02  0.31135602990E+02  0.10566000000E+00 0.  1.
        994    1    1    2    0    0  0.17942042440E+02 -0.98276594540E+00  0.66602788454E+02  0.14805341653E+03  0.13100000000E+03 0.  0.
        997    1    1    2    0    0 -0.79916208061E+01 -0.69969498861E+01  0.40499424536E+03  0.45181098048E+03  0.20000000000E+03 0.  0.
</event>
<event>
 5    1  0.6487493E-012  0.2308636E+03  0.7957747E-01  0.4559778E+00
         13   -1    0    0    0    0  0.00000000000E+00  0.00000000000E+00  0.49999998884E+03  0.50000000000E+03  0.10566000000E+00 0.  1.
        994   -1    0    0    0    0 -0.00000000000E+00 -0.00000000000E+00  0.00000000000E+00  0.13100000000E+03  0.13100000000E+03 0.  0.
         13    1    1    2    0    0  0.12975909402E+02 -0.36611596390E+01  0.79452911910E+01  0.15649828461E+02  0.10566000000E+00 0. -1.
        994    1    1    2    0    0  0.18628950175E+02  0.76594823132E+02  0.23111327756E+03  0.27710675159E+03  0.13100000000E+03 0.  0.
        997    1    1    2    0    0 -0.31604859577E+02 -0.72933663493E+02  0.26094142009E+03  0.33824341995E+03  0.20000000000E+03 0.  0.
</event>
<event>
 5    1  0.6487493E-012  0.2511885E+03  0.7957747E-01  0.4320807E+00
         13   -1    0    0    0    0  0.00000000000E+00  0.00000000000E+00  0.49999998884E+03  0.50000000000E+03  0.10566000000E+00 0. -1.
        994   -1    0    0    0    0 -0.00000000000E+00 -0.00000000000E+00  0.00000000000E+00  0.13100000000E+03  0.13100000000E+03 0.  0.
         13    1    1    2    0    0 -0.26739199634E+02 -0.27679556624E+02  0.18114848988E+02  0.42535885671E+02  0.10566000000E+00 0.  1.
        994    1    1    2    0    0 -0.15337110108E+02  0.14793562494E+02  0.20055831155E+03  0.24049680407E+03  0.13100000000E+03 0.  0.
        997    1    1    2    0    0  0.42076309742E+02  0.12885994129E+02  0.28132682830E+03  0.34796731026E+03  0.20000000000E+03 0.  0.
</event>
<event>
 5    1  0.6487493E-012  0.2396402E+03  0.7957747E-01  0.4450680E+00
         13   -1    0    0    0    0  0.00000000000E+00  0.00000000000E+00  0.49999998884E+03  0.50000000000E+03  0.10566000000E+00 0. -1.
        994   -1    0    0    0    0 -0.00000000000E+00 -0.00000000000E+00  0.00000000000E+00  0.13100000000E+03  0.13100000000E+03 0.  0.
         13    1    1    2    0    0  0.29171345990E+02  0.29132393219E+01  0.44248686133E+02  0.53079297082E+02  0.10566000000E+00 0.  1.
        994    1    1    2    0    0 -0.25077603543E+01 -0.15397798862E+02  0.88983535471E+02  0.15913029459E+03  0.13100000000E+03 0.  0.
        997    1    1    2    0    0 -0.26663585636E+02  0.12484559540E+02  0.36676776723E+03  0.41879040833E+03  0.20000000000E+03 0.  0.
</event>
<event>
 5    1  0.6487493E-012  0.2367159E+03  0.7957747E-01  0.4485956E+00
         13   -1    0    0    0    0  0.00000000000E+00  0.00000000000E+00  0.49999998884E+03  0.50000000000E+03  0.10566000000E+00 0.  1.
        994   -1    0    0    0    0 -0.00000000000E+00 -0.00000000000E+00  0.00000000000E+00  0.13100000000E+03  0.13100000000E+03 0.  0.
         13    1    1    2    0    0 -0.17717762817E+02 -0.15631742907E+02  0.51256368822E+02  0.56440207427E+02  0.10566000000E+00 0. -1.
        994    1    1    2    0    0 -0.37922811987E+01 -0.91153124113E+01  0.80064004091E+02  0.15384640089E+03  0.13100000000E+03 0.  0.
        997    1    1    2    0    0  0.21510044016E+02  0.24747055318E+02  0.36867961592E+03  0.42071339168E+03  0.20000000000E+03 0.  0.
</event>
<event>
 5    1  0.6487493E-012  0.2385103E+03  0.7957747E-01  0.4464187E+00
         13   -1    0    0    0    0  0.00000000000E+00  0.00000000000E+00  0.49999998884E+03  0.50000000000E+03  0.10566000000E+00 0. -1.
        994   -1    0    0    0    0 -0.00000000000E+00 -0.00000000000E+00  0.00000000000E+00  0.13100000000E+03  0.13100000000E+03 0.  0.
         13    1    1    2    0    0  0.20611925622E+02 -0.22283157118E+02  0.38611913720E+02  0.49114983601E+02  0.10566000000E+00 0.  1.
        994    1    1    2    0    0 -0.47104376773E+02 -0.62427416035E+00  0.11587176493E+03  0.18112558610E+03  0.13100000000E+03 0.  0.
        997    1    1    2    0    0  0.26492451151E+02  0.22907431278E+02  0.34551631018E+03  0.40075943030E+03  0.20000000000E+03 0.  0.
</event>
<event>
 5    1  0.6487493E-012  0.2473142E+03  0.7957747E-01  0.4362790E+00
         13   -1    0    0    0    0  0.00000000000E+00  0.00000000000E+00  0.49999998884E+03  0.50000000000E+03  0.10566000000E+00 0.  1.
        994   -1    0    0    0    0 -0.00000000000E+00 -0.00000000000E+00  0.00000000000E+00  0.13100000000E+03  0.13100000000E+03 0.  0.
         13    1    1    2    0    0  0.28302643169E+01  0.31737443801E+02  0.24613562496E+02  0.40263064437E+02  0.10566000000E+00 0. -1.
        994    1    1    2    0    0 -0.15498993670E+02  0.37710701060E+02  0.16145790322E+03  0.21187725289E+03  0.13100000000E+03 0.  0.
        997    1    1    2    0    0  0.12668729353E+02 -0.69448144861E+02  0.31392852312E+03  0.37885968267E+03  0.20000000000E+03 0.  0.
</event>
<event>
 5    1  0.6783030E-012  0.2385142E+03  0.7957747E-01  0.4464141E+00
         13   -1    0    0    0    0  0.00000000000E+00  0.00000000000E+00  0.49999998884E+03  0.50000000000E+03  0.10566000000E+00 0. -1.
        994   -1    0    0    0    0 -0.00000000000E+00 -0.00000000000E+00  0.00000000000E+00  0.13100000000E+03  0.13100000000E+03 0.  0.
         13    1    1    2    0    0 -0.14694850487E+02 -0.62697193417E+01  0.26115030689E+01  0.16188858013E+02  0.10566000000E+00 0.  1.
        994    1    1    2    0    0  0.19002729424E+02 -0.32906189379E+01  0.87788495600E+02  0.15887023591E+03  0.13100000000E+03 0.  0.
        997    1    1    2    0    0 -0.43078789372E+01  0.95603382797E+01  0.40959999017E+03  0.45594090608E+03  0.20000000000E+03 0.  0.
</event>
<event>
 5    1  0.6487493E-012  0.2336513E+03  0.7957747E-01  0.4524058E+00
         13   -1    0    0    0    0  0.00000000000E+00  0.00000000000E+00  0.49999998884E+03  0.50000000000E+03  0.10566000000E+00 0.  1.
        994   -1    0    0    0    0 -0.00000000000E+00 -0.00000000000E+00  0.00000000000E+00  0.13100000000E+03  0.13100000000E+03 0.  0.
         13    1    1    2    0    0  0.98435552736E+01  0.11510727202E+02  0.64650325365E+01  0.16468158090E+02  0.10566000000E+00 0. -1.
        994    1    1    2    0    0 -0.14959914738E+02 -0.38648366942E+02  0.92775769417E+02  0.16578853611E+03  0.13100000000E+03 0.  0.
        997    1    1    2    0    0  0.51163594642E+01  0.27137639739E+02  0.40075918688E+03  0.44874330579E+03  0.20000000000E+03 0.  0.
</event>
<event>
 5    1  0.6487493E-012  0.2278546E+03  0.7957747E-01  0.4599522E+00
         13   -1    0    0    0    0  0.00000000000E+00  0.00000000000E+00  0.49999998884E+03  0.50000000000E+03  0.10566000000E+00 0. -1.
        994   -1    0    0    0    0 -0.00000000000E+00 -0.00000000000E+00  0.00000000000E+00  0.13100000000E+03  0.13100000000E+03 0.  0.
         13    1    1    2    0    0 -0.81313837524E+01  0.66108054075E+01  0.13450207915E+02  0.17051140925E+02  0.10566000000E+00 0.  1.
        994    1    1    2    0    0 -0.14439356333E+02 -0.46522968196E+02  0.86553132234E+02  0.16439381461E+03  0.13100000000E+03 0.  0.
        997    1    1    2    0    0  0.22570740085E+02  0.39912162789E+02  0.39999664869E+03  0.44955504447E+03  0.20000000000E+03 0.  0.
</event>
<event>
 5    1  0.6487493E-012  0.2369958E+03  0.7957747E-01  0.4482533E+00
         13   -1    0    0    0    0  0.00000000000E+00  0.00000000000E+00  0.49999998884E+03  0.50000000000E+03  0.10566000000E+00 0. -1.
        994   -1    0    0    0    0 -0.00000000000E+00 -0.00000000000E+00  0.00000000000E+00  0.13100000000E+03  0.13100000000E+03 0.  0.
         13    1    1    2    0    0  0.16405114781E+02 -0.21861328937E+02  0.38450499140E+02  0.47175179300E+02  0.10566000000E+00 0.  1.
        994    1    1    2    0    0 -0.29986422605E+02  0.76769261757E+01  0.91605553993E+02  0.16282106208E+03  0.13100000000E+03 0.  0.
        997    1    1    2    0    0  0.13581307823E+02  0.14184402762E+02  0.36994393570E+03  0.42100375861E+03  0.20000000000E+03 0.  0.
</event>
<event>
 5    1  0.6487493E-012  0.2375902E+03  0.7957747E-01  0.4475300E+00
         13   -1    0    0    0    0  0.00000000000E+00  0.00000000000E+00  0.49999998884E+03  0.50000000000E+03  0.10566000000E+00 0.  1.
        994   -1    0    0    0    0 -0.00000000000E+00 -0.00000000000E+00  0.00000000000E+00  0.13100000000E+03  0.13100000000E+03 0.  0.
         13    1    1    2    0    0  0.28645487967E+02 -0.66841837842E+01  0.15293455892E+02  0.33153329409E+02  0.10566000000E+00 0. -1.
        994    1    1    2    0    0 -0.48113031227E+02  0.29301254774E+02  0.25206757083E+03  0.28960747154E+03  0.13100000000E+03 0.  0.
        997    1    1    2    0    0  0.19467543260E+02 -0.22617070989E+02  0.23263896211E+03  0.30823919905E+03  0.20000000000E+03 0.  0.
</event>
<event>
 5    1  0.6487493E-012  0.2467325E+03  0.7957747E-01  0.4369227E+00
         13   -1    0    0    0    0  0.00000000000E+00  0.00000000000E+00  0.49999998884E+03  0.50000000000E+03  0.10566000000E+00 0.  1.
        994   -1    0    0    0    0 -0.00000000000E+00 -0.00000000000E+00  0.00000000000E+00  0.13100000000E+03  0.13100000000E+03 0.  0.
         13    1    1    2    0    0 -0.14581378364E+02 -0.74979729054E+01 -0.53559121388E+01  0.17249149300E+02  0.10566000000E+00 0. -1.
        994    1    1    2    0    0 -0.19580184628E+02  0.31663827162E+02  0.14112526085E+03  0.19612067925E+03  0.13100000000E+03 0.  0.
        997    1    1    2    0    0  0.34161562992E+02 -0.24165854256E+02  0.36423064012E+03  0.41763017145E+03  0.20000000000E+03 0.  0.
</event>
<event>
 5    1  0.6487493E-012  0.2367415E+03  0.7957747E-01  0.4485641E+00
         13   -1    0    0    0    0  0.00000000000E+00  0.00000000000E+00  0.49999998884E+03  0.50000000000E+03  0.10566000000E+00 0. -1.
        994   -1    0    0    0    0 -0.00000000000E+00 -0.00000000000E+00  0.00000000000E+00  0.13100000000E+03  0.13100000000E+03 0.  0.
         13    1    1    2    0    0  0.19234563735E+02  0.13961895989E+01  0.10515605632E+02  0.21966040001E+02  0.10566000000E+00 0.  1.
        994    1    1    2    0    0 -0.19975011999E+02  0.27736506618E+02  0.93755207930E+02  0.16467954918E+03  0.13100000000E+03 0.  0.
        997    1    1    2    0    0  0.74044826383E+00 -0.29132696216E+02  0.39572917527E+03  0.44435441082E+03  0.20000000000E+03 0.  0.
</event>
<event>
 5    1  0.6487493E-012  0.2333278E+03  0.7957747E-01  0.4528150E+00
         13   -1    0    0    0    0  0.00000000000E+00  0.00000000000E+00  0.49999998884E+03  0.50000000000E+03  0.10566000000E+00 0. -1.
        994   -1    0    0    0    0 -0.00000000000E+00 -0.00000000000E+00  0.00000000000E+00  0.13100000000E+03  0.13100000000E+03 0.  0.
         13    1    1    2    0    0 -0.14548513814E+02 -0.91128868873E+01  0.28481354469E+02  0.33255115066E+02  0.10566000000E+00 0.  1.
        994    1    1    2    0    0 -0.14807927033E+02 -0.27611388030E+02  0.82904427182E+02  0.15816386281E+03  0.13100000000E+03 0.  0.
        997    1    1    2    0    0  0.29356440847E+02  0.36724274918E+02  0.38861420719E+03  0.43958102213E+03  0.20000000000E+03 0.  0.
</event>
<event>
 5    1  0.6487493E-012  0.2319793E+03  0.7957747E-01  0.4545358E+00
         13   -1    0    0    0    0  0.00000000000E+00  0.00000000000E+00  0.49999998884E+03  0.50000000000E+03  0.10566000000E+00 0.  1.
        994   -1    0    0    0    0 -0.00000000000E+00 -0.00000000000E+00  0.00000000000E+00  0.13100000000E+03  0.13100000000E+03 0.  0.
         13    1    1    2    0    0  0.17325583039E+02 -0.41596017297E+01  0.27826135496E+02  0.33042141197E+02  0.10566000000E+00 0. -1.
        994    1    1    2    0    0 -0.48539412291E+01  0.24489824679E+02  0.75926743862E+02  0.15345742957E+03  0.13100000000E+03 0.  0.
        997    1    1    2    0    0 -0.12471641810E+02 -0.20330222949E+02  0.39624710948E+03  0.44450042923E+03  0.20000000000E+03 0.  0.
</event>
<event>
 5    1  0.6679021E-012  0.2380059E+03  0.7957747E-01  0.4470266E+00
         13   -1    0    0    0    0  0.00000000000E+00  0.00000000000E+00  0.49999998884E+03  0.50000000000E+03  0.10566000000E+00 0.  1.
        994   -1    0    0    0    0 -0.00000000000E+00 -0.00000000000E+00  0.00000000000E+00  0.13100000000E+03  0.13100000000E+03 0.  0.
         13    1    1    2    0    0 -0.10561079117E+02  0.14782423450E+02  0.77893947764E+01  0.19767201881E+02  0.10566000000E+00 0. -1.
        994    1    1    2    0    0 -0.14103309698E+02 -0.11284028428E+02  0.85923650920E+02  0.15770258853E+03  0.13100000000E+03 0.  0.
        997    1    1    2    0    0  0.24664388816E+02 -0.34983950215E+01  0.40628694314E+03  0.45353020959E+03  0.20000000000E+03 0.  0.
</event>
<event>
 5    1  0.6487493E-012  0.2337477E+03  0.7957747E-01  0.4522841E+00
         13   -1    0    0    0    0  0.00000000000E+00  0.00000000000E+00  0.49999998884E+03  0.50000000000E+03  0.10566000000E+00 0.  1.
        994   -1    0    0    0    0 -0.00000000000E+00 -0.00000000000E+00  0.00000000000E+00  0.13100000000E+03  0.13100000000E+03 0.  0.
         13    1    1    2    0    0 -0.76017830306E+01 -0.15281939380E+02  0.16978824394E+02  0.24075224159E+02  0.10566000000E+00 0. -1.
        994    1    1    2    0    0  0.26805748568E+02 -0.24886912321E+02  0.88205775468E+02  0.16210849881E+03  0.13100000000E+03 0.  0.
        997    1    1    2    0    0 -0.19203965537E+02  0.40168851701E+02  0.39481538897E+03  0.44481627703E+03  0.20000000000E+03 0.  0.
</event>
<event>
 5    1  0.6487493E-012  0.2295616E+03  0.7957747E-01  0.4576819E+00
         13   -1    0    0    0    0  0.00000000000E+00  0.00000000000E+00  0.49999998884E+03  0.50000000000E+03  0.10566000000E+00 0. -1.
        994   -1    0    0    0    0 -0.00000000000E+00 -0.00000000000E+00  0.00000000000E+00  0.13100000000E+03  0.13100000000E+03 0.  0.
         13    1    1    2    0    0  0.77451623095E+01 -0.12735367739E+02  0.23694931279E+02  0.27993536093E+02  0.10566000000E+00 0.  1.
        994    1    1    2    0    0 -0.17473554890E+02  0.21681016571E+02  0.72735700075E+02  0.15240365371E+03  0.13100000000E+03 0.  0.
        997    1    1    2    0    0  0.97283925802E+01 -0.89456488319E+01  0.40356935748E+03  0.45060281019E+03  0.20000000000E+03 0.  0.
</event>
<event>
 5    1  0.6487493E-012  0.2356878E+03  0.7957747E-01  0.4498606E+00
         13   -1    0    0    0    0  0.00000000000E+00  0.00000000000E+00  0.49999998884E+03  0.50000000000E+03  0.10566000000E+00 0. -1.
        994   -1    0    0    0    0 -0.00000000000E+00 -0.00000000000E+00  0.00000000000E+00  0.13100000000E+03  0.13100000000E+03 0.  0.
         13    1    1    2    0    0 -0.26031165367E+02 -0.21701826647E+01  0.29225910526E+02  0.39198166708E+02  0.10566000000E+00 0.  1.
        994    1    1    2    0    0  0.38998782333E+02  0.41826284329E+02  0.12356551279E+03  0.18894385154E+03  0.13100000000E+03 0.  0.
        997    1    1    2    0    0 -0.12967616966E+02 -0.39656101665E+02  0.34720856552E+03  0.40285798175E+03  0.20000000000E+03 0.  0.
</event>
<event>
 5    1  0.6487493E-012  0.2352513E+03  0.7957747E-01  0.4504016E+00
         13   -1    0    0    0    0  0.00000000000E+00  0.00000000000E+00  0.49999998884E+03  0.50000000000E+03  0.10566000000E+00 0.  1.
        994   -1    0    0    0    0 -0.00000000000E+00 -0.00000000000E+00  0.00000000000E+00  0.13100000000E+03  0.13100000000E+03 0.  0.
         13    1    1    2    0    0  0.62792573776E+01  0.22291928394E+02  0.27929271981E+02  0.36282427457E+02  0.10566000000E+00 0. -1.
        994    1    1    2    0    0  0.19880112351E+02 -0.27636876263E+02  0.89704823827E+02  0.16237909722E+03  0.13100000000E+03 0.  0.
        997    1    1    2    0    0 -0.26159369729E+02  0.53449478689E+01  0.38236589303E+03  0.43233847532E+03  0.20000000000E+03 0.  0.
</event>
<event>
 5    1  0.6487493E-012  0.2356757E+03  0.7957747E-01  0.4498755E+00
         13   -1    0    0    0    0  0.00000000000E+00  0.00000000000E+00  0.49999998884E+03  0.50000000000E+03  0.10566000000E+00 0.  1.
        994   -1    0    0    0    0 -0.00000000000E+00 -0.00000000000E+00  0.00000000000E+00  0.13100000000E+03  0.13100000000E+03 0.  0.
         13    1    1    2    0    0 -0.13417783510E+02  0.20451374917E+02  0.39659414366E+02  0.46595879241E+02  0.10566000000E+00 0. -1.
        994    1    1    2    0    0 -0.17253637207E+00 -0.16399672576E+02  0.79779424457E+02  0.15425542323E+03  0.13100000000E+03 0.  0.
        997    1    1    2    0    0  0.13590319882E+02 -0.40517023414E+01  0.38056115001E+03  0.43014869753E+03  0.20000000000E+03 0.  0.
</event>
<event>
 5    1  0.6487493E-012  0.2419444E+03  0.7957747E-01  0.4423598E+00
         13   -1    0    0    0    0  0.00000000000E+00  0.00000000000E+00  0.49999998884E+03  0.50000000000E+03  0.10566000000E+00 0. -1.
        994   -1    0    0    0    0 -0.00000000000E+00 -0.00000000000E+00  0.00000000000E+00  0.13100000000E+03  0.13100000000E+03 0.  0.
         13    1    1    2    0    0  0.11822460305E+02 -0.21914317653E+02  0.20657831435E+02  0.32353748616E+02  0.10566000000E+00 0.  1.
        994    1    1    2    0    0  0.25836428267E+02 -0.49544512289E+02  0.20632231985E+03  0.25070316989E+03  0.13100000000E+03 0.  0.
        997    1    1    2    0    0 -0.37658888571E+02  0.71458829941E+02  0.27301983755E+03  0.34794308150E+03  0.20000000000E+03 0.  0.
</event>
<event>
 5    1  0.6487493E-012  0.2346359E+03  0.7957747E-01  0.4511687E+00
         13   -1    0    0    0    0  0.00000000000E+00  0.00000000000E+00  0.49999998884E+03  0.50000000000E+03  0.10566000000E+00 0. -1.
        994   -1    0    0    0    0 -0.00000000000E+00 -0.00000000000E+00  0.00000000000E+00  0.13100000000E+03  0.13100000000E+03 0.  0.
         13    1    1    2    0    0 -0.78613250088E+01 -0.22095152298E+02  0.25725757997E+02  0.34811233453E+02  0.10566000000E+00 0.  1.
        994    1    1    2    0    0  0.80069428225E+01  0.38906240860E+02  0.93553917072E+02  0.16580452983E+03  0.13100000000E+03 0.  0.
        997    1    1    2    0    0 -0.14561781367E+00 -0.16811088562E+02  0.38072031377E+03  0.43038423672E+03  0.20000000000E+03 0.  0.
</event>
<event>
 5    1  0.6487493E-012  0.2423995E+03  0.7957747E-01  0.4418321E+00
         13   -1    0    0    0    0  0.00000000000E+00  0.00000000000E+00  0.49999998884E+03  0.50000000000E+03  0.10566000000E+00 0.  1.
        994   -1    0    0    0    0 -0.00000000000E+00 -0.00000000000E+00  0.00000000000E+00  0.13100000000E+03  0.13100000000E+03 0.  0.
         13    1    1    2    0    0 -0.19798957580E+02 -0.23942770374E+02  0.63198074247E+02  0.70422032966E+02  0.10566000000E+00 0. -1.
        994    1    1    2    0    0  0.49171787464E+02 -0.19379138363E+02  0.21609219822E+03  0.25816710445E+03  0.13100000000E+03 0.  0.
        997    1    1    2    0    0 -0.29372829883E+02  0.43321908737E+02  0.22070971636E+03  0.30241086259E+03  0.20000000000E+03 0.  0.
</event>
<event>
 5    1  0.6487493E-012  0.2340835E+03  0.7957747E-01  0.4518612E+00
         13   -1    0    0    0    0  0.00000000000E+00  0.00000000000E+00  0.49999998884E+03  0.50000000000E+03  0.10566000000E+00 0.  1.
        994   -1    0    0    0    0 -0.00000000000E+00 -0.00000000000E+00  0.00000000000E+00  0.13100000000E+03  0.13100000000E+03 0.  0.
         13    1    1    2    0    0 -0.23346154620E+02  0.47773842346E+00  0.35760905432E+02  0.42709772780E+02  0.10566000000E+00 0. -1.
        994    1    1    2    0    0  0.29804772316E+02 -0.34827527777E+01  0.83672468096E+02  0.15831151549E+03  0.13100000000E+03 0.  0.
        997    1    1    2    0    0 -0.64586176961E+01  0.30050143542E+01  0.38056661531E+03  0.42997871173E+03  0.20000000000E+03 0.  0.
</event>
<event>
 5    1  0.6487493E-012  0.2388491E+03  0.7957747E-01  0.4460121E+00
         13   -1    0    0    0    0  0.00000000000E+00  0.00000000000E+00  0.49999998884E+03  0.50000000000E+03  0.10566000000E+00 0. -1.
        994   -1    0    0    0    0 -0.00000000000E+00 -0.00000000000E+00  0.00000000000E+00  0.13100000000E+03  0.13100000000E+03 0.  0.
         13    1    1    2    0    0  0.23731745195E+02  0.16316458721E+02  0.23066397576E+02  0.36898406691E+02  0.10566000000E+00 0.  1.
        994    1    1    2    0    0 -0.37057492284E+02 -0.26752548908E+02  0.11487022870E+03  0.18012530652E+03  0.13100000000E+03 0.  0.
        997    1    1    2    0    0  0.13325747089E+02  0.10436090187E+02  0.36206336256E+03  0.41397628679E+03  0.20000000000E+03 0.  0.
</event>
<event>
 5    1  0.6487493E-012  0.2295215E+03  0.7957747E-01  0.4577349E+00
         13   -1    0    0    0    0  0.00000000000E+00  0.00000000000E+00  0.49999998884E+03  0.50000000000E+03  0.10566000000E+00 0. -1.
        994   -1    0    0    0    0 -0.00000000000E+00 -0.00000000000E+00  0.00000000000E+00  0.13100000000E+03  0.13100000000E+03 0.  0.
         13    1    1    2    0    0  0.11986497326E+02 -0.10095716004E+02  0.21836156419E+02  0.26878029894E+02  0.10566000000E+00 0.  1.
        994    1    1    2    0    0 -0.39831159435E+02  0.21456249287E+02  0.86638139141E+02  0.16344436071E+03  0.13100000000E+03 0.  0.
        997    1    1    2    0    0  0.27844662109E+02 -0.11360533283E+02  0.39152569328E+03  0.44067760939E+03  0.20000000000E+03 0.  0.
</event>
<event>
 5    1  0.6487493E-012  0.2461161E+03  0.7957747E-01  0.4376087E+00
         13   -1    0    0    0    0  0.00000000000E+00  0.00000000000E+00  0.49999998884E+03  0.50000000000E+03  0.10566000000E+00 0.  1.
        994   -1    0    0    0    0 -0.00000000000E+00 -0.00000000000E+00  0.00000000000E+00  0.13100000000E+03  0.13100000000E+03 0.  0.
         13    1    1    2    0    0 -0.26411786790E+02 -0.34719304327E+02  0.52371575622E+02  0.68160147238E+02  0.10566000000E+00 0. -1.
        994    1    1    2    0    0  0.21727304127E+02  0.29463332972E+02  0.13497355961E+03  0.19162209040E+03  0.13100000000E+03 0.  0.
        997    1    1    2    0    0  0.46844826626E+01  0.52559713544E+01  0.31265485361E+03  0.37121776237E+03  0.20000000000E+03 0.  0.
</event>
<event>
 5    1  0.7772025E-012  0.2345358E+03  0.7957747E-01  0.4512938E+00
         13   -1    0    0    0    0  0.00000000000E+00  0.00000000000E+00  0.49999998884E+03  0.50000000000E+03  0.10566000000E+00 0.  1.
        994   -1    0    0    0    0 -0.00000000000E+00 -0.00000000000E+00  0.00000000000E+00  0.13100000000E+03  0.13100000000E+03 0.  0.
         13    1    1    2    0    0 -0.17580813918E+02  0.76772259632E+01  0.10366035190E+02  0.21805748464E+02  0.10566000000E+00 0. -1.
        994    1    1    2    0    0  0.49531210474E+02 -0.20200588908E+02  0.11188097303E+03  0.18038779540E+03  0.13100000000E+03 0.  0.
        997    1    1    2    0    0 -0.31950396556E+02  0.12523362945E+02  0.37775298061E+03  0.42880645613E+03  0.20000000000E+03 0.  0.
</event>
<event>
 5    1  0.6487493E-012  0.2342119E+03  0.7957747E-01  0.4516999E+00
         13   -1    0    0    0    0  0.00000000000E+00  0.00000000000E+00  0.49999998884E+03  0.50000000000E+03  0.10566000000E+00 0.  1.
        994   -1    0    0    0    0 -0.00000000000E+00 -0.00000000000E+00  0.00000000000E+00  0.13100000000E+03  0.13100000000E+03 0.  0.
         13    1    1    2    0    0  0.13318840164E+02 -0.11763184141E+02  0.11250715433E+02  0.21032207831E+02  0.10566000000E+00 0. -1.
        994    1    1    2    0    0 -0.45395787538E+02 -0.71192883601E+01  0.99621221855E+02  0.17087085660E+03  0.13100000000E+03 0.  0.
        997    1    1    2    0    0  0.32076947374E+02  0.18882472502E+02  0.38912805155E+03  0.43909693556E+03  0.20000000000E+03 0.  0.
</event>
<event>
 5    1  0.6487493E-012  0.2391650E+03  0.7957747E-01  0.4456342E+00
         13   -1    0    0    0    0  0.00000000000E+00  0.00000000000E+00  0.49999998884E+03  0.50000000000E+03  0.10566000000E+00 0.  1.
        994   -1    0    0    0    0 -0.00000000000E+00 -0.00000000000E+00  0.00000000000E+00  0.13100000000E+03  0.13100000000E+03 0.  0.
         13    1    1    2    0    0 -0.11676701408E+02  0.21982237580E+02  0.25841460314E+02  0.35879748606E+02  0.10566000000E+00 0. -1.
        994    1    1    2    0    0  0.31689229261E+02  0.31673005921E+02  0.11465069513E+03  0.17975863943E+03  0.13100000000E+03 0.  0.
        997    1    1    2    0    0 -0.20012527853E+02 -0.53655243501E+02  0.35950783339E+03  0.41536161196E+03  0.20000000000E+03 0.  0.
</event>
<event>
 5    1  0.6487493E-012  0.2340244E+03  0.7957747E-01  0.4519355E+00
         13   -1    0    0    0    0  0.00000000000E+00  0.00000000000E+00  0.49999998884E+03  0.50000000000E+03  0.10566000000E+00 0. -1.
        994   -1    0    0    0    0 -0.00000000000E+00 -0.00000000000E+00  0.00000000000E+00  0.13100000000E+03  0.13100000000E+03 0.  0.
         13    1    1    2    0    0  0.21127681669E+01  0.16017752292E+02  0.10408213684E+02  0.19219111684E+02  0.10566000000E+00 0.  1.
        994    1    1    2    0    0  0.10220276408E+02 -0.14132151562E+02  0.76624671202E+02  0.15276292742E+03  0.13100000000E+03 0.  0.
        997    1    1    2    0    0 -0.12333044575E+02 -0.18856007296E+01  0.41296710395E+03  0.45901796089E+03  0.20000000000E+03 0.  0.
</event>
<event>
 5    1  0.6487493E-012  0.2417196E+03  0.7957747E-01  0.4426213E+00
         13   -1    0    0    0    0  0.00000000000E+00  0.00000000000E+00  0.49999998884E+03  0.50000000000E+03  0.10566000000E+00 0.  1.
        994   -1    0    0    0    0 -0.00000000000E+00 -0.00000000000E+00  0.00000000000E+00  0.13100000000E+03  0.13100000000E+03 0.  0.
         13    1    1    2    0    0  0.90579236486E+01 -0.25902064018E+02  0.11922163463E+02  0.29918423202E+02  0.10566000000E+00 0. -1.
        994    1    1    2    0    0  0.79126763442E+01  0.48043886143E+02  0.13485858579E+03  0.19421293367E+03  0.13100000000E+03 0.  0.
        997    1    1    2    0    0 -0.16970599993E+02 -0.22141822126E+02  0.35321923958E+03  0.40686864313E+03  0.20000000000E+03 0.  0.
</event>
<event>
 5    1  0.6487493E-012  0.2429877E+03  0.7957747E-01  0.4411536E+00
         13   -1    0    0    0    0  0.00000000000E+00  0.00000000000E+00  0.49999998884E+03  0.50000000000E+03  0.10566000000E+00 0. -1.
        994   -1    0    0    0    0 -0.00000000000E+00 -0.00000000000E+00  0.00000000000E+00  0.13100000000E+03  0.13100000000E+03 0.  0.
         13    1    1    2    0    0 -0.31855106956E+02 -0.76710380264E+01  0.15202190897E+02  0.36120775680E+02  0.10566000000E+00 0.  1.
        994    1    1    2    0    0  0.99332030743E+01  0.23281840933E+02  0.26370015985E+03  0.29553254803E+03  0.13100000000E+03 0.  0.
        997    1    1    2    0    0  0.21921903882E+02 -0.15610802906E+02  0.22109763809E+03  0.29934667629E+03  0.20000000000E+03 0.  0.
</event>
<event>
 5    1  0.6487493E-012  0.2482164E+03  0.7957747E-01  0.4352876E+00
         13   -1    0    0    0    0  0.00000000000E+00  0.00000000000E+00  0.49999998884E+03  0.50000000000E+03  0.10566000000E+00 0. -1.
        994   -1    0    0    0    0 -0.00000000000E+00 -0.00000000000E+00  0.00000000000E+00  0.13100000000E+03  0.13100000000E+03 0.  0.
         13    1    1    2    0    0  0.11377498447E+02 -0.26544548154E+02  0.11248142430E+02  0.30993424783E+02  0.10566000000E+00 0.  1.
        994    1    1    2    0    0  0.13506846079E+02 -0.41301328674E+01  0.11786519844E+03  0.17678432592E+03  0.13100000000E+03 0.  0.
        997    1    1    2    0    0 -0.24884344526E+02  0.30674681021E+02  0.37088664797E+03  0.42322224930E+03  0.20000000000E+03 0.  0.
</event>
<event>
 5    1  0.6487493E-012  0.2478912E+03  0.7957747E-01  0.4356440E+00
         13   -1    0    0    0    0  0.00000000000E+00  0.00000000000E+00  0.49999998884E+03  0.50000000000E+03  0.10566000000E+00 0.  1.
        994   -1    0    0    0    0 -0.00000000000E+00 -0.00000000000E+00  0.00000000000E+00  0.13100000000E+03  0.13100000000E+03 0.  0.
         13    1    1    2    0    0  0.11867434589E+02 -0.67468928419E+01 -0.83449701242E+01  0.16000195535E+02  0.10566000000E+00 0. -1.
        994    1    1    2    0    0  0.28736243723E+02 -0.27476151293E+02  0.16838837254E+03  0.21701694542E+03  0.13100000000E+03 0.  0.
        997    1    1    2    0    0 -0.40603678312E+02  0.34223044135E+02  0.33995658642E+03  0.39798285905E+03  0.20000000000E+03 0.  0.
</event>
<event>
 5    1  0.6487493E-012  0.2339799E+03  0.7957747E-01  0.4519915E+00
         13   -1    0    0    0    0  0.00000000000E+00  0.00000000000E+00  0.49999998884E+03  0.50000000000E+03  0.10566000000E+00 0. -1.
        994   -1    0    0    0    0 -0.00000000000E+00 -0.00000000000E+00  0.00000000000E+00  0.13100000000E+03  0.13100000000E+03 0.  0.
         13    1    1    2    0    0 -0.21336046144E+02  0.10722539950E+01  0.47734419978E+02  0.52296869968E+02  0.10566000000E+00 0.  1.
        994    1    1    2    0    0  0.11150925850E+02 -0.23659083553E+02  0.80881327713E+02  0.15616300636E+03  0.13100000000E+03 0.  0.
        997    1    1    2    0    0  0.10185120295E+02  0.22586829558E+02  0.37138424114E+03  0.42254012368E+03  0.20000000000E+03 0.  0.
</event>
<event>
 5    1  0.6487493E-012  0.2530359E+03  0.7957747E-01  0.4301313E+00
         13   -1    0    0    0    0  0.00000000000E+00  0.00000000000E+00  0.49999998884E+03  0.50000000000E+03  0.10566000000E+00 0.  1.
        994   -1    0    0    0    0 -0.00000000000E+00 -0.00000000000E+00  0.00000000000E+00  0.13100000000E+03  0.13100000000E+03 0.  0.
         13    1    1    2    0    0  0.81325747365E+01  0.36260619066E+02  0.13898998989E+02  0.39675743268E+02  0.10566000000E+00 0. -1.
        994    1    1    2    0    0 -0.14790811701E+02  0.78286609205E+00  0.16558463604E+03  0.21165692212E+03  0.13100000000E+03 0.  0.
        997    1    1    2    0    0  0.66582369647E+01 -0.37043485158E+02  0.32051635380E+03  0.37966733461E+03  0.20000000000E+03 0.  0.
</event>
<event>
 5    1  0.6487493E-012  0.2386982E+03  0.7957747E-01  0.4461931E+00
         13   -1    0    0    0    0  0.00000000000E+00  0.00000000000E+00  0.49999998884E+03  0.50000000000E+03  0.10566000000E+00 0. -1.
        994   -1    0    0    0    0 -0.00000000000E+00 -0.00000000000E+00  0.00000000000E+00  0.13100000000E+03  0.13100000000E+03 0.  0.
         13    1    1    2    0    0  0.21683032241E+02 -0.26311183561E+02  0.26247235096E+02  0.43027442194E+02  0.10566000000E+00 0.  1.
        994    1    1    2    0    0 -0.46409894966E+02  0.43532724889E+02  0.21130528210E+03  0.25663183499E+03  0.13100000000E+03 0.  0.
        997    1    1    2    0    0  0.24726862726E+02 -0.17221541328E+02  0.26244747165E+03  0.33134072282E+03  0.20000000000E+03 0.  0.
</event>
<event>
 5    1  0.6487493E-012  0.2514433E+03  0.7957747E-01  0.4318097E+00
         13   -1    0    0    0    0  0.00000000000E+00  0.00000000000E+00  0.49999998884E+03  0.50000000000E+03  0.10566000000E+00 0.  1.
        994   -1    0    0    0    0 -0.00000000000E+00 -0.00000000000E+00  0.00000000000E+00  0.13100000000E+03  0.13100000000E+03 0.  0.
         13    1    1    2    0    0 -0.18923616728E+02 -0.55753113258E+00 -0.79969814284E+01  0.20551812257E+02  0.10566000000E+00 0. -1.
        994    1    1    2    0    0  0.20439628302E+02  0.40424585412E+01  0.14906101645E+03  0.19953522622E+03  0.13100000000E+03 0.  0.
        997    1    1    2    0    0 -0.15160115742E+01 -0.34849274086E+01  0.35893595381E+03  0.41091296152E+03  0.20000000000E+03 0.  0.
</event>
<event>
 5    1  0.6487493E-012  0.2419423E+03  0.7957747E-01  0.4423622E+00
         13   -1    0    0    0    0  0.00000000000E+00  0.00000000000E+00  0.49999998884E+03  0.50000000000E+03  0.10566000000E+00 0. -1.
        994   -1    0    0    0    0 -0.00000000000E+00 -0.00000000000E+00  0.00000000000E+00  0.13100000000E+03  0.13100000000E+03 0.  0.
         13    1    1    2    0    0 -0.15138535975E+02 -0.10987961184E+02  0.28310936754E+01  0.18919218215E+02  0.10566000000E+00 0.  1.
        994    1    1    2    0    0 -0.69258125032E+01  0.16175667729E+02  0.96365789369E+02  0.16357562308E+03  0.13100000000E+03 0.  0.
        997    1    1    2    0    0  0.22064348478E+02 -0.51877065449E+01  0.40080310579E+03  0.44850515870E+03  0.20000000000E+03 0.  0.
</event>
<event>
 5    1  0.6487493E-012  0.2488742E+03  0.7957747E-01  0.4345701E+00
         13   -1    0    0    0    0  0.00000000000E+00  0.00000000000E+00  0.49999998884E+03  0.50000000000E+03  0.10566000000E+00 0.  1.
        994   -1    0    0    0    0 -0.00000000000E+00 -0.00000000000E+00  0.00000000000E+00  0.13100000000E+03  0.13100000000E+03 0.  0.
         13    1    1    2    0    0 -0.34629435360E+02  0.24284225802E+01  0.17790776610E+02  0.39007921323E+02  0.10566000000E+00 0. -1.
        994    1    1    2    0    0 -0.47655184377E+01 -0.36292429487E+02  0.17245721971E+03  0.21964139691E+03  0.13100000000E+03 0.  0.
        997    1    1    2    0    0  0.39394953797E+02  0.33864006906E+02  0.30975199252E+03  0.37235068177E+03  0.20000000000E+03 0.  0.
</event>
<event>
 5    1  0.6487493E-012  0.2368655E+03  0.7957747E-01  0.4484125E+00
         13   -1    0    0    0    0  0.00000000000E+00  0.00000000000E+00  0.49999998884E+03  0.50000000000E+03  0.10566000000E+00 0. -1.
        994   -1    0    0    0    0 -0.00000000000E+00 -0.00000000000E+00  0.00000000000E+00  0.13100000000E+03  0.13100000000E+03 0.  0.
         13    1    1    2    0    0  0.23069237857E+01  0.17725546810E+02  0.12524905661E+02  0.21826619824E+02  0.10566000000E+00 0.  1.
        994    1    1    2    0    0  0.44196632368E+01  0.31853688355E+02  0.92277300607E+02  0.16343283358E+03  0.13100000000E+03 0.  0.
        997    1    1    2    0    0 -0.67265870225E+01 -0.49579235165E+02  0.39519778257E+03  0.44574054660E+03  0.20000000000E+03 0.  0.
</event>
<event>
 5    1  0.6487493E-012  0.2430876E+03  0.7957747E-01  0.4410386E+00
         13   -1    0    0    0    0  0.00000000000E+00  0.00000000000E+00  0.49999998884E+03  0.50000000000E+03  0.10566000000E+00 0.  1.
        994   -1    0    0    0    0 -0.00000000000E+00 -0.00000000000E+00  0.00000000000E+00  0.13100000000E+03  0.13100000000E+03 0.  0.
         13    1    1    2    0    0 -0.26205132774E+02  0.17827174563E+02  0.57342405444E+02  0.65518545182E+02  0.10566000000E+00 0. -1.
        994    1    1    2    0    0 -0.10400724490E+02  0.14107269371E+02  0.99886940475E+02  0.16566710898E+03  0.13100000000E+03 0.  0.
        997    1    1    2    0    0  0.36605857264E+02 -0.31934443934E+02  0.34277064292E+03  0.39981434584E+03  0.20000000000E+03 0.  0.
</event>
<event>
 5    1  0.6487493E-012  0.2484288E+03  0.7957747E-01  0.4350555E+00
         13   -1    0    0    0    0  0.00000000000E+00  0.00000000000E+00  0.49999998884E+03  0.50000000000E+03  0.10566000000E+00 0.  1.
        994   -1    0    0    0    0 -0.00000000000E+00 -0.00000000000E+00  0.00000000000E+00  0.13100000000E+03  0.13100000000E+03 0.  0.
         13    1    1    2    0    0  0.55325061956E+01 -0.33560704989E+02  0.23059091402E+02  0.41093337714E+02  0.10566000000E+00 0. -1.
        994    1    1    2    0    0 -0.13455173822E+02 -0.11128453298E+02  0.12138763452E+03  0.17944593054E+03  0.13100000000E+03 0.  0.
        997    1    1    2    0    0  0.79226676266E+01  0.44689158287E+02  0.35555326292E+03  0.41046073174E+03  0.20000000000E+03 0.  0.
</event>
<event>
 5    1  0.6487493E-012  0.2445113E+03  0.7957747E-01  0.4394138E+00
         13   -1    0    0    0    0  0.00000000000E+00  0.00000000000E+00  0.49999998884E+03  0.50000000000E+03  0.10566000000E+00 0.  1.
        994   -1    0    0    0    0 -0.00000000000E+00 -0.00000000000E+00  0.00000000000E+00  0.13100000000E+03  0.13100000000E+03 0.  0.
         13    1    1    2    0    0 -0.19894314364E+02  0.25484678841E+02  0.24843227530E+02  0.40773149471E+02  0.10566000000E+00 0. -1.
        994    1    1    2    0    0  0.37790467684E+02  0.25446965134E+02  0.14657879556E+03  0.20179695436E+03  0.13100000000E+03 0.  0.
        997    1    1    2    0    0 -0.17896153320E+02 -0.50931643975E+02  0.32857796575E+03  0.38842989617E+03  0.20000000000E+03 0.  0.
</event>
<event>
 5    1  0.6487493E-012  0.2473521E+03  0.7957747E-01  0.4362372E+00
         13   -1    0    0    0    0  0.00000000000E+00  0.00000000000E+00  0.49999998884E+03  0.50000000000E+03  0.10566000000E+00 0. -1.
        994   -1    0    0    0    0 -0.00000000000E+00 -0.00000000000E+00  0.00000000000E+00  0.13100000000E+03  0.13100000000E+03 0.  0.
         13    1    1    2    0    0  0.24527205214E+02 -0.20886866248E+02  0.21011867471E+02  0.38462380529E+02  0.10566000000E+00 0.  1.
        994    1    1    2    0    0  0.73378881447E+01 -0.21345427054E+01  0.11101081437E+03  0.17188019601E+03  0.13100000000E+03 0.  0.
        997    1    1    2    0    0 -0.31865093359E+02  0.23021408954E+02  0.36797730700E+03  0.42065742346E+03  0.20000000000E+03 0.  0.
</event>
<event>
 5    1  0.6487493E-012  0.2377106E+03  0.7957747E-01  0.4473840E+00
         13   -1    0    0    0    0  0.00000000000E+00  0.00000000000E+00  0.49999998884E+03  0.50000000000E+03  0.10566000000E+00 0. -1.
        994   -1    0    0    0    0 -0.00000000000E+00 -0.00000000000E+00  0.00000000000E+00  0.13100000000E+03  0.13100000000E+03 0.  0.
         13    1    1    2    0    0  0.76860221081E+01  0.29513526060E+02  0.50127209421E+02  0.58675986952E+02  0.10566000000E+00 0.  1.
        994    1    1    2    0    0  0.29706630159E+02 -0.47219032730E+02  0.12995575365E+03  0.19277349101E+03  0.13100000000E+03 0.  0.
        997    1    1    2    0    0 -0.37392652268E+02  0.17705506670E+02  0.31991702576E+03  0.37955052204E+03  0.20000000000E+03 0.  0.
</event>
<event>
 5    1  0.6487493E-012  0.2378787E+03  0.7957747E-01  0.4471805E+00
         13   -1    0    0    0    0  0.00000000000E+00  0.00000000000E+00  0.49999998884E+03  0.50000000000E+03  0.10566000000E+00 0. -1.
        994   -1    0    0    0    0 -0.00000000000E+00 -0.00000000000E+00  0.00000000000E+00  0.13100000000E+03  0.13100000000E+03 0.  0.
         13    1    1    2    0    0  0.25601169126E+02  0.50108016722E+01  0.42833926783E+02  0.50152611514E+02  0.10566000000E+00 0.  1.
        994    1    1    2    0    0 -0.11553150312E+01  0.19113717741E+02  0.86127778033E+02  0.15794196120E+03  0.13100000000E+03 0.  0.
        997    1    1    2    0    0 -0.24445854095E+02 -0.24124519413E+02  0.37103828402E+03  0.42290542729E+03  0.20000000000E+03 0.  0.
</event>
<event>
 5    1  0.6487493E-012  0.2345842E+03  0.7957747E-01  0.4512333E+00
         13   -1    0    0    0    0  0.00000000000E+00  0.00000000000E+00  0.49999998884E+03  0.50000000000E+03  0.10566000000E+00 0. -1.
        994   -1    0    0    0    0 -0.00000000000E+00 -0.00000000000E+00  0.00000000000E+00  0.13100000000E+03  0.13100000000E+03 0.  0.
         13    1    1    2    0    0  0.50203500872E+01 -0.13511243462E+02  0.53973151658E+01  0.15391549302E+02  0.10566000000E+00 0.  1.
        994    1    1    2    0    0 -0.43658986167E+02 -0.60155916189E+01  0.98342960174E+02  0.16963087051E+03  0.13100000000E+03 0.  0.
        997    1    1    2    0    0  0.38638636079E+02  0.19526835081E+02  0.39625971350E+03  0.44597758018E+03  0.20000000000E+03 0.  0.
</event>
<event>
 5    1  0.6487493E-012  0.2332335E+03  0.7957747E-01  0.4529346E+00
         13   -1    0    0    0    0  0.00000000000E+00  0.00000000000E+00  0.49999998884E+03  0.50000000000E+03  0.10566000000E+00 0.  1.
        994   -1    0    0    0    0 -0.00000000000E+00 -0.00000000000E+00  0.00000000000E+00  0.13100000000E+03  0.13100000000E+03 0.  0.
         13    1    1    2    0    0 -0.82346503721E+00 -0.17875096534E+02  0.28255297767E+02  0.33445032318E+02  0.10566000000E+00 0. -1.
        994    1    1    2    0    0  0.20066898645E+02 -0.15244731304E+02  0.78687601237E+02  0.15488002080E+03  0.13100000000E+03 0.  0.
        997    1    1    2    0    0 -0.19243433607E+02  0.33119827838E+02  0.39305708983E+03  0.44267494688E+03  0.20000000000E+03 0.  0.
</event>
<event>
 5    1  0.6487493E-012  0.2328465E+03  0.7957747E-01  0.4534264E+00
         13   -1    0    0    0    0  0.00000000000E+00  0.00000000000E+00  0.49999998884E+03  0.50000000000E+03  0.10566000000E+00 0.  1.
        994   -1    0    0    0    0 -0.00000000000E+00 -0.00000000000E+00  0.00000000000E+00  0.13100000000E+03  0.13100000000E+03 0.  0.
         13    1    1    2    0    0  0.20949174084E+01  0.19298427021E+02  0.26854620840E+02  0.33136079866E+02  0.10566000000E+00 0. -1.
        994    1    1    2    0    0 -0.96963948251E+01 -0.15827468205E+02  0.74644152453E+02  0.15191207430E+03  0.13100000000E+03 0.  0.
        997    1    1    2    0    0  0.76014774168E+01 -0.34709588163E+01  0.39850121554E+03  0.44595184583E+03  0.20000000000E+03 0.  0.
</event>
<event>
 5    1  0.6487493E-012  0.2367570E+03  0.7957747E-01  0.4485452E+00
         13   -1    0    0    0    0  0.00000000000E+00  0.00000000000E+00  0.49999998884E+03  0.50000000000E+03  0.10566000000E+00 0.  1.
        994   -1    0    0    0    0 -0.00000000000E+00 -0.00000000000E+00  0.00000000000E+00  0.13100000000E+03  0.13100000000E+03 0.  0.
         13    1    1    2    0    0 -0.18975249917E+02 -0.10409951483E+02  0.21205140383E+02  0.30300104653E+02  0.10566000000E+00 0. -1.
        994    1    1    2    0    0 -0.12375308053E+02  0.14199647048E+02  0.83278350811E+02  0.15636835338E+03  0.13100000000E+03 0.  0.
        997    1    1    2    0    0  0.31350557970E+02 -0.37896955656E+01  0.39551649764E+03  0.44433154196E+03  0.20000000000E+03 0.  0.
</event>
<event>
 5    1  0.6487493E-012  0.2367414E+03  0.7957747E-01  0.4485643E+00
         13   -1    0    0    0    0  0.00000000000E+00  0.00000000000E+00  0.49999998884E+03  0.50000000000E+03  0.10566000000E+00 0. -1.
        994   -1    0    0    0    0 -0.00000000000E+00 -0.00000000000E+00  0.00000000000E+00  0.13100000000E+03  0.13100000000E+03 0.  0.
         13    1    1    2    0    0  0.16659282015E+02  0.30464524363E+00  0.81261810805E+02  0.82952501742E+02  0.10566000000E+00 0.  1.
        994    1    1    2    0    0 -0.26806369654E+02  0.45321105436E+02  0.11875560392E+03  0.18448977618E+03  0.13100000000E+03 0.  0.
        997    1    1    2    0    0  0.10147087639E+02 -0.45625750680E+02  0.29998257412E+03  0.36355772208E+03  0.20000000000E+03 0.  0.
</event>
<event>
 5    1  0.6487493E-012  0.2366265E+03  0.7957747E-01  0.4487050E+00
         13   -1    0    0    0    0  0.00000000000E+00  0.00000000000E+00  0.49999998884E+03  0.50000000000E+03  0.10566000000E+00 0.  1.
        994   -1    0    0    0    0 -0.00000000000E+00 -0.00000000000E+00  0.00000000000E+00  0.13100000000E+03  0.13100000000E+03 0.  0.
         13    1    1    2    0    0  0.13918834447E+02  0.22924217484E+02  0.40873515344E+02  0.48886696761E+02  0.10566000000E+00 0. -1.
        994    1    1    2    0    0  0.20376595287E+02 -0.39967979725E+02  0.10562846152E+03  0.17415802285E+03  0.13100000000E+03 0.  0.
        997    1    1    2    0    0 -0.34295429734E+02  0.17043762242E+02  0.35349801197E+03  0.40795528039E+03  0.20000000000E+03 0.  0.
</event>
<event>
 5    1  0.6487493E-012  0.2453250E+03  0.7957747E-01  0.4384950E+00
         13   -1    0    0    0    0  0.00000000000E+00  0.00000000000E+00  0.49999998884E+03  0.50000000000E+03  0.10566000000E+00 0.  1.
        994   -1    0    0    0    0 -0.00000000000E+00 -0.00000000000E+00  0.00000000000E+00  0.13100000000E+03  0.13100000000E+03 0.  0.
         13    1    1    2    0    0  0.16718090846E+02  0.20588755857E+02  0.10008175862E+02  0.28347242854E+02  0.10566000000E+00 0. -1.
        994    1    1    2    0    0 -0.10750218517E+02 -0.28795098212E+01  0.10441860557E+03  0.16789313257E+03  0.13100000000E+03 0.  0.
        997    1    1    2    0    0 -0.59678723294E+01 -0.17709246036E+02  0.38557320740E+03  0.43475962457E+03  0.20000000000E+03 0.  0.
</event>
<event>
 5    1  0.7323472E-012  0.2378673E+03  0.7957747E-01  0.4471942E+00
         13   -1    0    0    0    0  0.00000000000E+00  0.00000000000E+00  0.49999998884E+03  0.50000000000E+03  0.10566000000E+00 0.  1.
        994   -1    0    0    0    0 -0.00000000000E+00 -0.00000000000E+00  0.00000000000E+00  0.13100000000E+03  0.13100000000E+03 0.  0.
         13    1    1    2    0    0 -0.16983871102E+02 -0.56900108987E+01  0.52264905546E+01  0.18658924652E+02  0.10566000000E+00 0. -1.
        994    1    1    2    0    0  0.32776966198E+02 -0.98097503899E+01  0.96957222112E+02  0.16653006826E+03  0.13100000000E+03 0.  0.
        997    1    1    2    0    0 -0.15793095097E+02  0.15499761289E+02  0.39781627617E+03  0.44581100709E+03  0.20000000000E+03 0.  0.
</event>
<event>
 5    1  0.6487493E-012  0.2405414E+03  0.7957747E-01  0.4440014E+00
         13   -1    0    0    0    0  0.00000000000E+00  0.00000000000E+00  0.49999998884E+03  0.50000000000E+03  0.10566000000E+00 0.  1.
        994   -1    0    0    0    0 -0.00000000000E+00 -0.00000000000E+00  0.00000000000E+00  0.13100000000E+03  0.13100000000E+03 0.  0.
         13    1    1    2    0    0  0.11679599261E+02  0.12116442501E+02  0.21017930841E+01  0.16960245162E+02  0.10566000000E+00 0. -1.
        994    1    1    2    0    0  0.66216661024E+00 -0.60019175752E+01  0.88544795237E+02  0.15823287346E+03  0.13100000000E+03 0.  0.
        997    1    1    2    0    0 -0.12341765871E+02 -0.61145249255E+01  0.40935340052E+03  0.45580688138E+03  0.20000000000E+03 0.  0.
</event>
<event>
 5    1  0.6487493E-012  0.2295775E+03  0.7957747E-01  0.4576611E+00
         13   -1    0    0    0    0  0.00000000000E+00  0.00000000000E+00  0.49999998884E+03  0.50000000000E+03  0.10566000000E+00 0. -1.
        994   -1    0    0    0    0 -0.00000000000E+00 -0.00000000000E+00  0.00000000000E+00  0.13100000000E+03  0.13100000000E+03 0.  0.
         13    1    1    2    0    0  0.82252352213E+01 -0.82870736300E+01  0.12778645751E+02  0.17309969239E+02  0.10566000000E+00 0.  1.
        994    1    1    2    0    0  0.32667206712E+02  0.25989139326E+02  0.83266663471E+02  0.16073866679E+03  0.13100000000E+03 0.  0.
        997    1    1    2    0    0 -0.40892441933E+02 -0.17702065696E+02  0.40395467961E+03  0.45295136397E+03  0.20000000000E+03 0.  0.
</event>
<event>
 5    1  0.6487493E-012  0.2383681E+03  0.7957747E-01  0.4465898E+00
         13   -1    0    0    0    0  0.00000000000E+00  0.00000000000E+00  0.49999998884E+03  0.50000000000E+03  0.10566000000E+00 0. -1.
        994   -1    0    0    0    0 -0.00000000000E+00 -0.00000000000E+00  0.00000000000E+00  0.13100000000E+03  0.13100000000E+03 0.  0.
         13    1    1    2    0    0  0.10208339985E+02  0.16238799599E+02  0.37611402152E+01  0.19546512666E+02  0.10566000000E+00 0.  1.
        994    1    1    2    0    0 -0.16630554306E+02 -0.49851706094E+02  0.12574583453E+03  0.18903645902E+03  0.13100000000E+03 0.  0.
        997    1    1    2    0    0  0.64222143211E+01  0.33612906495E+02  0.37049301409E+03  0.42241702831E+03  0.20000000000E+03 0.  0.
</event>
<event>
 5    1  0.6487493E-012  0.2321347E+03  0.7957747E-01  0.4543363E+00
         13   -1    0    0    0    0  0.00000000000E+00  0.00000000000E+00  0.49999998884E+03  0.50000000000E+03  0.10566000000E+00 0. -1.
        994   -1    0    0    0    0 -0.00000000000E+00 -0.00000000000E+00  0.00000000000E+00  0.13100000000E+03  0.13100000000E+03 0.  0.
         13    1    1    2    0    0  0.36688833271E+01 -0.13010270103E+02  0.52741258043E+01  0.14510527215E+02  0.10566000000E+00 0.  1.
        994    1    1    2    0    0 -0.38397489259E+02  0.39327873962E+02  0.10630378512E+03  0.17743320880E+03  0.13100000000E+03 0.  0.
        997    1    1    2    0    0  0.34728605932E+02 -0.26317603860E+02  0.38842207791E+03  0.43905626399E+03  0.20000000000E+03 0.  0.
</event>
<event>
 5    1  0.6487493E-012  0.2390474E+03  0.7957747E-01  0.4457748E+00
         13   -1    0    0    0    0  0.00000000000E+00  0.00000000000E+00  0.49999998884E+03  0.50000000000E+03  0.10566000000E+00 0. -1.
        994   -1    0    0    0    0 -0.00000000000E+00 -0.00000000000E+00  0.00000000000E+00  0.13100000000E+03  0.13100000000E+03 0.  0.
         13    1    1    2    0    0 -0.36072342480E+02 -0.54808409306E+01  0.39982947726E+02  0.54128557917E+02  0.10566000000E+00 0.  1.
        994    1    1    2    0    0  0.62967298607E+02  0.92091708770E+01  0.17604112703E+03  0.22847574910E+03  0.13100000000E+03 0.  0.
        997    1    1    2    0    0 -0.26894956127E+02 -0.37283299464E+01  0.28397591408E+03  0.34839569298E+03  0.20000000000E+03 0.  0.
</event>
<event>
 5    1  0.6487493E-012  0.2435839E+03  0.7957747E-01  0.4404696E+00
         13   -1    0    0    0    0  0.00000000000E+00  0.00000000000E+00  0.49999998884E+03  0.50000000000E+03  0.10566000000E+00 0. -1.
        994   -1    0    0    0    0 -0.00000000000E+00 -0.00000000000E+00  0.00000000000E+00  0.13100000000E+03  0.13100000000E+03 0.  0.
         13    1    1    2    0    0 -0.18806708817E+02 -0.18899464304E+02  0.16098237540E+02  0.31145568921E+02  0.10566000000E+00 0.  1.
        994    1    1    2    0    0 -0.12686768477E+02  0.24286100621E+01  0.99245416890E+02  0.16485601298E+03  0.13100000000E+03 0.  0.
        997    1    1    2    0    0  0.31493477294E+02  0.16470854242E+02  0.38465633441E+03  0.43499841810E+03  0.20000000000E+03 0.  0.
</event>
<event>
 5    1  0.6487493E-012  0.2302825E+03  0.7957747E-01  0.4567355E+00
         13   -1    0    0    0    0  0.00000000000E+00  0.00000000000E+00  0.49999998884E+03  0.50000000000E+03  0.10566000000E+00 0. -1.
        994   -1    0    0    0    0 -0.00000000000E+00 -0.00000000000E+00  0.00000000000E+00  0.13100000000E+03  0.13100000000E+03 0.  0.
         13    1    1    2    0    0 -0.83439664974E+01 -0.10211919914E+02  0.19028970421E+02  0.23152061777E+02  0.10566000000E+00 0.  1.
        994    1    1    2    0    0  0.27428443847E+02 -0.38755756688E+02  0.90941849633E+02  0.16639034895E+03  0.13100000000E+03 0.  0.
        997    1    1    2    0    0 -0.19084477349E+02  0.48967676602E+02  0.39002916878E+03  0.44145758927E+03  0.20000000000E+03 0.  0.
</event>
<event>
 5    1  0.6487493E-012  0.2482585E+03  0.7957747E-01  0.4352416E+00
         13   -1    0    0    0    0  0.00000000000E+00  0.00000000000E+00  0.49999998884E+03  0.50000000000E+03  0.10566000000E+00 0.  1.
        994   -1    0    0    0    0 -0.00000000000E+00 -0.00000000000E+00  0.00000000000E+00  0.13100000000E+03  0.13100000000E+03 0.  0.
         13    1    1    2    0    0 -0.29508581684E+01  0.28617315302E+02  0.54790490764E+01  0.29286335411E+02  0.10566000000E+00 0. -1.
        994    1    1    2    0    0 -0.74485239320E+01  0.25164259064E+02  0.22462545424E+03  0.26135476873E+03  0.13100000000E+03 0.  0.
        997    1    1    2    0    0  0.10399382100E+02 -0.53781574366E+02  0.26989548552E+03  0.34035889586E+03  0.20000000000E+03 0.  0.
</event>
<event>
 5    1  0.6487493E-012  0.2416419E+03  0.7957747E-01  0.4427119E+00
         13   -1    0    0    0    0  0.00000000000E+00  0.00000000000E+00  0.49999998884E+03  0.50000000000E+03  0.10566000000E+00 0. -1.
        994   -1    0    0    0    0 -0.00000000000E+00 -0.00000000000E+00  0.00000000000E+00  0.13100000000E+03  0.13100000000E+03 0.  0.
         13    1    1    2    0    0  0.10908033814E+02  0.10371988109E+02 -0.39667167450E+00  0.15057617723E+02  0.10566000000E+00 0.  1.
        994    1    1    2    0    0  0.12702522546E+02  0.28519853492E+02  0.10593593005E+03  0.17134222305E+03  0.13100000000E+03 0.  0.
        997    1    1    2    0    0 -0.23610556360E+02 -0.38891841602E+02  0.39446073046E+03  0.44460015923E+03  0.20000000000E+03 0.  0.
</event>
<event>
 5    1  0.6487493E-012  0.2326993E+03  0.7957747E-01  0.4536140E+00
         13   -1    0    0    0    0  0.00000000000E+00  0.00000000000E+00  0.49999998884E+03  0.50000000000E+03  0.10566000000E+00 0.  1.
        994   -1    0    0    0    0 -0.00000000000E+00 -0.00000000000E+00  0.00000000000E+00  0.13100000000E+03  0.13100000000E+03 0.  0.
         13    1    1    2    0    0  0.82396573405E+01 -0.15177870496E+02  0.13799788205E+02  0.22106673753E+02  0.10566000000E+00 0. -1.
        994    1    1    2    0    0 -0.49343925100E+02  0.95446626887E+01  0.10097682042E+03  0.17286770026E+03  0.13100000000E+03 0.  0.
        997    1    1    2    0    0  0.41104267760E+02  0.56332078074E+01  0.38522338021E+03  0.43602562599E+03  0.20000000000E+03 0.  0.
</event>
<event>
 5    1  0.6487493E-012  0.2420919E+03  0.7957747E-01  0.4421884E+00
         13   -1    0    0    0    0  0.00000000000E+00  0.00000000000E+00  0.49999998884E+03  0.50000000000E+03  0.10566000000E+00 0. -1.
        994   -1    0    0    0    0 -0.00000000000E+00 -0.00000000000E+00  0.00000000000E+00  0.13100000000E+03  0.13100000000E+03 0.  0.
         13    1    1    2    0    0  0.13095326681E+02  0.88383142495E+01 -0.58571197630E+01  0.16849937555E+02  0.10566000000E+00 0.  1.
        994    1    1    2    0    0 -0.56377595965E+02  0.58767652986E+01  0.19372306810E+03  0.24062958424E+03  0.13100000000E+03 0.  0.
        997    1    1    2    0    0  0.43282269284E+02 -0.14715079548E+02  0.31213404050E+03  0.37352047821E+03  0.20000000000E+03 0.  0.
</event>
<event>
 5    1  0.6487493E-012  0.2385460E+03  0.7957747E-01  0.4463758E+00
         13   -1    0    0    0    0  0.00000000000E+00  0.00000000000E+00  0.49999998884E+03  0.50000000000E+03  0.10566000000E+00 0.  1.
        994   -1    0    0    0    0 -0.00000000000E+00 -0.00000000000E+00  0.00000000000E+00  0.13100000000E+03  0.13100000000E+03 0.  0.
         13    1    1    2    0    0  0.12687044614E+02 -0.98636009102E+01  0.21970078909E+01  0.16220041050E+02  0.10566000000E+00 0. -1.
        994    1    1    2    0    0  0.60127366600E+02 -0.19136498012E+02  0.21765792738E+03  0.26175843658E+03  0.13100000000E+03 0.  0.
        997    1    1    2    0    0 -0.72814411214E+02  0.29000098922E+02  0.28014505356E+03  0.35302152237E+03  0.20000000000E+03 0.  0.
</event>
<event>
 5    1  0.6487493E-012  0.2475107E+03  0.7957747E-01  0.4360624E+00
         13   -1    0    0    0    0  0.00000000000E+00  0.00000000000E+00  0.49999998884E+03  0.50000000000E+03  0.10566000000E+00 0. -1.
        994   -1    0    0    0    0 -0.00000000000E+00 -0.00000000000E+00  0.00000000000E+00  0.13100000000E+03  0.13100000000E+03 0.  0.
         13    1    1    2    0    0  0.27678360019E+02  0.13985784524E+02  0.16635470026E+02  0.35191530361E+02  0.10566000000E+00 0.  1.
        994    1    1    2    0    0  0.10053917595E+02  0.40229169483E+02  0.17851163070E+03  0.22527065861E+03  0.13100000000E+03 0.  0.
        997    1    1    2    0    0 -0.37732277614E+02 -0.54214954007E+02  0.30485288811E+03  0.37053781103E+03  0.20000000000E+03 0.  0.
</event>
<event>
 5    1  0.6487493E-012  0.2315124E+03  0.7957747E-01  0.4551372E+00
         13   -1    0    0    0    0  0.00000000000E+00  0.00000000000E+00  0.49999998884E+03  0.50000000000E+03  0.10566000000E+00 0.  1.
        994   -1    0    0    0    0 -0.00000000000E+00 -0.00000000000E+00  0.00000000000E+00  0.13100000000E+03  0.13100000000E+03 0.  0.
         13    1    1    2    0    0  0.12025522187E+02 -0.10062267609E+02  0.51854422658E+02  0.54173376547E+02  0.10566000000E+00 0. -1.
        994    1    1    2    0    0 -0.37228917840E+02 -0.11409803027E+02  0.85036778466E+02  0.16096095682E+03  0.13100000000E+03 0.  0.
        997    1    1    2    0    0  0.25203395653E+02  0.21472070636E+02  0.36310878771E+03  0.41586566663E+03  0.20000000000E+03 0.  0.
</event>
<event>
 5    1  0.6487493E-012  0.2465889E+03  0.7957747E-01  0.4370822E+00
         13   -1    0    0    0    0  0.00000000000E+00  0.00000000000E+00  0.49999998884E+03  0.50000000000E+03  0.10566000000E+00 0. -1.
        994   -1    0    0    0    0 -0.00000000000E+00 -0.00000000000E+00  0.00000000000E+00  0.13100000000E+03  0.13100000000E+03 0.  0.
         13    1    1    2    0    0 -0.20990785027E+02  0.20556535769E+02  0.11300582868E+02  0.31478541200E+02  0.10566000000E+00 0.  1.
        994    1    1    2    0    0  0.22826077004E+02 -0.29001573663E+01  0.11738720497E+03  0.17739841204E+03  0.13100000000E+03 0.  0.
        997    1    1    2    0    0 -0.18352919775E+01 -0.17656378403E+02  0.37131220100E+03  0.42212304676E+03  0.20000000000E+03 0.  0.
</event>
<event>
 5    1  0.6487493E-012  0.2385175E+03  0.7957747E-01  0.4464101E+00
         13   -1    0    0    0    0  0.00000000000E+00  0.00000000000E+00  0.49999998884E+03  0.50000000000E+03  0.10566000000E+00 0.  1.
        994   -1    0    0    0    0 -0.00000000000E+00 -0.00000000000E+00  0.00000000000E+00  0.13100000000E+03  0.13100000000E+03 0.  0.
         13    1    1    2    0    0  0.91664229028E+01  0.13538719797E+02 -0.13073393507E+01  0.16402455389E+02  0.10566000000E+00 0. -1.
        994    1    1    2    0    0 -0.62515531972E+02 -0.15205612334E+02  0.17130821841E+03  0.22504867935E+03  0.13100000000E+03 0.  0.
        997    1    1    2    0    0  0.53349109069E+02  0.16668925370E+01  0.32999910978E+03  0.38954886526E+03  0.20000000000E+03 0.  0.
</event>
<event>
 5    1  0.6487493E-012  0.2455782E+03  0.7957747E-01  0.4382106E+00
         13   -1    0    0    0    0  0.00000000000E+00  0.00000000000E+00  0.49999998884E+03  0.50000000000E+03  0.10566000000E+00 0. -1.
        994   -1    0    0    0    0 -0.00000000000E+00 -0.00000000000E+00  0.00000000000E+00  0.13100000000E+03  0.13100000000E+03 0.  0.
         13    1    1    2    0    0 -0.40879673841E+01 -0.12659189758E+02 -0.68568001898E+01  0.14966410242E+02  0.10566000000E+00 0.  1.
        994    1    1    2    0    0 -0.42066504563E+02  0.22954740507E+01  0.14510496475E+03  0.19997827583E+03  0.13100000000E+03 0.  0.
        997    1    1    2    0    0  0.46154471947E+02  0.10363715707E+02  0.36175182427E+03  0.41605531393E+03  0.20000000000E+03 0.  0.
</event>
<event>
 5    1  0.6487493E-012  0.2321702E+03  0.7957747E-01  0.4542907E+00
         13   -1    0    0    0    0  0.00000000000E+00  0.00000000000E+00  0.49999998884E+03  0.50000000000E+03  0.10566000000E+00 0.  1.
        994   -1    0    0    0    0 -0.00000000000E+00 -0.00000000000E+00  0.00000000000E+00  0.13100000000E+03  0.13100000000E+03 0.  0.
         13    1    1    2    0    0  0.13610714786E+02 -0.97831720691E+00  0.87619475040E+01  0.16217014203E+02  0.10566000000E+00 0. -1.
        994    1    1    2    0    0 -0.13484423092E+02 -0.15085409477E+01  0.71577810479E+02  0.14989492425E+03  0.13100000000E+03 0.  0.
        997    1    1    2    0    0 -0.12629169412E+00  0.24868581546E+01  0.41966023085E+03  0.46488806155E+03  0.20000000000E+03 0.  0.
</event>
<event>
 5    1  0.6487493E-012  0.2358483E+03  0.7957747E-01  0.4496621E+00
         13   -1    0    0    0    0  0.00000000000E+00  0.00000000000E+00  0.49999998884E+03  0.50000000000E+03  0.10566000000E+00 0.  1.
        994   -1    0    0    0    0 -0.00000000000E+00 -0.00000000000E+00  0.00000000000E+00  0.13100000000E+03  0.13100000000E+03 0.  0.
         13    1    1    2    0    0  0.74360908890E+01 -0.11341757060E+02  0.47402680026E+01  0.14367052783E+02  0.10566000000E+00 0. -1.
        994    1    1    2    0    0  0.20338502285E+02 -0.33832637641E+02  0.96624627034E+02  0.16749812117E+03  0.13100000000E+03 0.  0.
        997    1    1    2    0    0 -0.27774593174E+02  0.45174394700E+02  0.39863509380E+03  0.44913482605E+03  0.20000000000E+03 0.  0.
</event>
<event>
 5    1  0.6487493E-012  0.2388041E+03  0.7957747E-01  0.4460661E+00
         13   -1    0    0    0    0  0.00000000000E+00  0.00000000000E+00  0.49999998884E+03  0.50000000000E+03  0.10566000000E+00 0.  1.
        994   -1    0    0    0    0 -0.00000000000E+00 -0.00000000000E+00  0.00000000000E+00  0.13100000000E+03  0.13100000000E+03 0.  0.
         13    1    1    2    0    0 -0.22337137154E+02 -0.17487427557E+02  0.85895937922E+02  0.90459278873E+02  0.10566000000E+00 0. -1.
        994    1    1    2    0    0  0.33643907807E+02  0.26959319342E+02  0.11068092747E+03  0.17683321277E+03  0.13100000000E+03 0.  0.
        997    1    1    2    0    0 -0.11306770653E+02 -0.94718917853E+01  0.30342312344E+03  0.36370750836E+03  0.20000000000E+03 0.  0.
</event>
<event>
 5    1  0.6487493E-012  0.2336727E+03  0.7957747E-01  0.4523788E+00
         13   -1    0    0    0    0  0.00000000000E+00  0.00000000000E+00  0.49999998884E+03  0.50000000000E+03  0.10566000000E+00 0.  1.
        994   -1    0    0    0    0 -0.00000000000E+00 -0.00000000000E+00  0.00000000000E+00  0.13100000000E+03  0.13100000000E+03 0.  0.
         13    1    1    2    0    0 -0.10629594013E+02  0.71772316661E+01  0.42303698761E+01  0.13505854901E+02  0.10566000000E+00 0. -1.
        994    1    1    2    0    0  0.22744684226E+02  0.46909307505E+01  0.78541184966E+02  0.15449609454E+03  0.13100000000E+03 0.  0.
        997    1    1    2    0    0 -0.12115090213E+02 -0.11868162417E+02  0.41722843399E+03  0.46299805056E+03  0.20000000000E+03 0.  0.
</event>
<event>
 5    1  0.6487493E-012  0.2289468E+03  0.7957747E-01  0.4584949E+00
         13   -1    0    0    0    0  0.00000000000E+00  0.00000000000E+00  0.49999998884E+03  0.50000000000E+03  0.10566000000E+00 0.  1.
        994   -1    0    0    0    0 -0.00000000000E+00 -0.00000000000E+00  0.00000000000E+00  0.13100000000E+03  0.13100000000E+03 0.  0.
         13    1    1    2    0    0 -0.31985591774E+01 -0.10652292608E+02  0.17944148868E+02  0.21111744629E+02  0.10566000000E+00 0. -1.
        994    1    1    2    0    0 -0.44385565027E+02 -0.37475626106E+01  0.84599618207E+02  0.16217958567E+03  0.13100000000E+03 0.  0.
        997    1    1    2    0    0  0.47584124205E+02  0.14399855219E+02  0.39745622176E+03  0.44770866970E+03  0.20000000000E+03 0.  0.
</event>
<event>
 5    1  0.7873162E-012  0.2414083E+03  0.7957747E-01  0.4429843E+00
         13   -1    0    0    0    0  0.00000000000E+00  0.00000000000E+00  0.49999998884E+03  0.50000000000E+03  0.10566000000E+00 0.  1.
        994   -1    0    0    0    0 -0.00000000000E+00 -0.00000000000E+00  0.00000000000E+00  0.13100000000E+03  0.13100000000E+03 0.  0.
         13    1    1    2    0    0 -0.14826658568E+02  0.82052977017E+01  0.18183766240E+01  0.17043308723E+02  0.10566000000E+00 0. -1.
        994    1    1    2    0    0 -0.43169358087E+01  0.96874764038E+01  0.91941228069E+02  0.16039536325E+03  0.13100000000E+03 0.  0.
        997    1    1    2    0    0  0.19143594377E+02 -0.17892774106E+02  0.40624038414E+03  0.45356132802E+03  0.20000000000E+03 0.  0.
</event>
<event>
 5    1  0.6487493E-012  0.2369564E+03  0.7957747E-01  0.4483014E+00
         13   -1    0    0    0    0  0.00000000000E+00  0.00000000000E+00  0.49999998884E+03  0.50000000000E+03  0.10566000000E+00 0. -1.
        994   -1    0    0    0    0 -0.00000000000E+00 -0.00000000000E+00  0.00000000000E+00  0.13100000000E+03  0.13100000000E+03 0.  0.
         13    1    1    2    0    0  0.39087407752E+01 -0.93055796945E+01 -0.17779056670E+01  0.10249106327E+02  0.10566000000E+00 0.  1.
        994    1    1    2    0    0 -0.65107554547E+01 -0.11972168476E+02  0.81673873855E+02  0.15497530263E+03  0.13100000000E+03 0.  0.
        997    1    1    2    0    0  0.26020146795E+01  0.21277748170E+02  0.42010402065E+03  0.46577559104E+03  0.20000000000E+03 0.  0.
</event>
<event>
 5    1  0.6487493E-012  0.2393372E+03  0.7957747E-01  0.4454287E+00
         13   -1    0    0    0    0  0.00000000000E+00  0.00000000000E+00  0.49999998884E+03  0.50000000000E+03  0.10566000000E+00 0. -1.
        994   -1    0    0    0    0 -0.00000000000E+00 -0.00000000000E+00  0.00000000000E+00  0.13100000000E+03  0.13100000000E+03 0.  0.
         13    1    1    2    0    0 -0.80883162079E+01 -0.82040217686E+01 -0.38502414257E+01  0.12147524659E+02  0.10566000000E+00 0.  1.
        994    1    1    2    0    0 -0.57718699629E+02  0.20695922892E+02  0.16203561966E+03  0.21720108552E+03  0.13100000000E+03 0.  0.
        997    1    1    2    0    0  0.65807015837E+02 -0.12491901123E+02  0.34181461060E+03  0.40165138982E+03  0.20000000000E+03 0.  0.
</event>
<event>
 5    1  0.6487493E-012  0.2528107E+03  0.7957747E-01  0.4303672E+00
         13   -1    0    0    0    0  0.00000000000E+00  0.00000000000E+00  0.49999998884E+03  0.50000000000E+03  0.10566000000E+00 0. -1.
        994   -1    0    0    0    0 -0.00000000000E+00 -0.00000000000E+00  0.00000000000E+00  0.13100000000E+03  0.13100000000E+03 0.  0.
         13    1    1    2    0    0  0.10406222327E+02 -0.81101556175E-01 -0.13576343113E+02  0.17106264844E+02  0.10566000000E+00 0.  1.
        994    1    1    2    0    0 -0.13822981611E+02 -0.40403130897E+01  0.15661134317E+03  0.20468393137E+03  0.13100000000E+03 0.  0.
        997    1    1    2    0    0  0.34167592843E+01  0.41214146459E+01  0.35696498878E+03  0.40920980379E+03  0.20000000000E+03 0.  0.
</event>
<event>
 5    1  0.6487493E-012  0.2353244E+03  0.7957747E-01  0.4503108E+00
         13   -1    0    0    0    0  0.00000000000E+00  0.00000000000E+00  0.49999998884E+03  0.50000000000E+03  0.10566000000E+00 0.  1.
        994   -1    0    0    0    0 -0.00000000000E+00 -0.00000000000E+00  0.00000000000E+00  0.13100000000E+03  0.13100000000E+03 0.  0.
         13    1    1    2    0    0 -0.10831764176E+02  0.21645300470E+02  0.37761147525E+02  0.44852665183E+02  0.10566000000E+00 0. -1.
        994    1    1    2    0    0 -0.13546838570E+01 -0.20427548372E+02  0.80769058721E+02  0.15525385904E+03  0.13100000000E+03 0.  0.
        997    1    1    2    0    0  0.12186448033E+02 -0.12177520971E+01  0.38146978259E+03  0.43089347577E+03  0.20000000000E+03 0.  0.
</event>
<event>
 5    1  0.6487493E-012  0.2379546E+03  0.7957747E-01  0.4470886E+00
         13   -1    0    0    0    0  0.00000000000E+00  0.00000000000E+00  0.49999998884E+03  0.50000000000E+03  0.10566000000E+00 0.  1.
        994   -1    0    0    0    0 -0.00000000000E+00 -0.00000000000E+00  0.00000000000E+00  0.13100000000E+03  0.13100000000E+03 0.  0.
         13    1    1    2    0    0  0.25697701498E+02  0.30107740004E+01  0.26502829012E+02  0.37038462873E+02  0.10566000000E+00 0. -1.
        994    1    1    2    0    0 -0.20010040566E+02  0.39791261985E+02  0.10970701350E+03  0.17657965643E+03  0.13100000000E+03 0.  0.
        997    1    1    2    0    0 -0.56876609313E+01 -0.42802035985E+02  0.36379014633E+03  0.41738188070E+03  0.20000000000E+03 0.  0.
</event>
<event>
 5    1  0.6487493E-012  0.2451471E+03  0.7957747E-01  0.4386953E+00
         13   -1    0    0    0    0  0.00000000000E+00  0.00000000000E+00  0.49999998884E+03  0.50000000000E+03  0.10566000000E+00 0. -1.
        994   -1    0    0    0    0 -0.00000000000E+00 -0.00000000000E+00  0.00000000000E+00  0.13100000000E+03  0.13100000000E+03 0.  0.
         13    1    1    2    0    0  0.21843072757E+02 -0.34858978474E+01  0.11590334790E+03  0.11799520554E+03  0.10566000000E+00 0.  1.
        994    1    1    2    0    0 -0.11903323708E+01  0.24967348934E+02  0.11298476942E+03  0.17478942624E+03  0.13100000000E+03 0.  0.
        997    1    1    2    0    0 -0.20652740386E+02 -0.21481451086E+02  0.27111187151E+03  0.33821536822E+03  0.20000000000E+03 0.  0.
</event>
<event>
 5    1  0.6487493E-012  0.2469325E+03  0.7957747E-01  0.4367009E+00
         13   -1    0    0    0    0  0.00000000000E+00  0.00000000000E+00  0.49999998884E+03  0.50000000000E+03  0.10566000000E+00 0. -1.
        994   -1    0    0    0    0 -0.00000000000E+00 -0.00000000000E+00  0.00000000000E+00  0.13100000000E+03  0.13100000000E+03 0.  0.
         13    1    1    2    0    0 -0.44968169077E+02 -0.37259256916E+01  0.57198030378E+02  0.72853583272E+02  0.10566000000E+00 0.  1.
        994    1    1    2    0    0  0.36857367777E+02 -0.12023137961E+02  0.14746606953E+03  0.20102304114E+03  0.13100000000E+03 0.  0.
        997    1    1    2    0    0  0.81108013004E+01  0.15749063652E+02  0.29533588893E+03  0.35712337559E+03  0.20000000000E+03 0.  0.
</event>
<event>
 5    1  0.6487493E-012  0.2412455E+03  0.7957747E-01  0.4431747E+00
         13   -1    0    0    0    0  0.00000000000E+00  0.00000000000E+00  0.49999998884E+03  0.50000000000E+03  0.10566000000E+00 0.  1.
        994   -1    0    0    0    0 -0.00000000000E+00 -0.00000000000E+00  0.00000000000E+00  0.13100000000E+03  0.13100000000E+03 0.  0.
         13    1    1    2    0    0  0.57244125202E+00 -0.30387838500E+02  0.37054041136E+02  0.47924540125E+02  0.10566000000E+00 0. -1.
        994    1    1    2    0    0  0.97329060736E+01  0.24746788615E+01  0.91325789516E+02  0.16000704149E+03  0.13100000000E+03 0.  0.
        997    1    1    2    0    0 -0.10305347326E+02  0.27913159638E+02  0.37162015818E+03  0.42306841838E+03  0.20000000000E+03 0.  0.
</event>
<event>
 5    1  0.6487493E-012  0.2337862E+03  0.7957747E-01  0.4522355E+00
         13   -1    0    0    0    0  0.00000000000E+00  0.00000000000E+00  0.49999998884E+03  0.50000000000E+03  0.10566000000E+00 0. -1.
        994   -1    0    0    0    0 -0.00000000000E+00 -0.00000000000E+00  0.00000000000E+00  0.13100000000E+03  0.13100000000E+03 0.  0.
         13    1    1    2    0    0 -0.11745511239E+02  0.82695963389E+01  0.39925997760E+01  0.14909569909E+02  0.10566000000E+00 0.  1.
        994    1    1    2    0    0  0.24877463872E+02 -0.47868925032E+02  0.11005074134E+03  0.17939478215E+03  0.13100000000E+03 0.  0.
        997    1    1    2    0    0 -0.13131952633E+02  0.39599328693E+02  0.38595664772E+03  0.43669564794E+03  0.20000000000E+03 0.  0.
</event>
<event>
 5    1  0.6487493E-012  0.2458799E+03  0.7957747E-01  0.4378727E+00
         13   -1    0    0    0    0  0.00000000000E+00  0.00000000000E+00  0.49999998884E+03  0.50000000000E+03  0.10566000000E+00 0. -1.
        994   -1    0    0    0    0 -0.00000000000E+00 -0.00000000000E+00  0.00000000000E+00  0.13100000000E+03  0.13100000000E+03 0.  0.
         13    1    1    2    0    0 -0.14435003535E+02 -0.25893144112E+02  0.89024939340E+01  0.30953025722E+02  0.10566000000E+00 0.  1.
        994    1    1    2    0    0  0.40142967146E+02 -0.18286965817E+02  0.20516467035E+03  0.24738515091E+03  0.13100000000E+03 0.  0.
        997    1    1    2    0    0 -0.25707963611E+02  0.44180109929E+02  0.28593282455E+03  0.35266182337E+03  0.20000000000E+03 0.  0.
</event>
<event>
 5    1  0.6487493E-012  0.2313343E+03  0.7957747E-01  0.4553674E+00
         13   -1    0    0    0    0  0.00000000000E+00  0.00000000000E+00  0.49999998884E+03  0.50000000000E+03  0.10566000000E+00 0. -1.
        994   -1    0    0    0    0 -0.00000000000E+00 -0.00000000000E+00  0.00000000000E+00  0.13100000000E+03  0.13100000000E+03 0.  0.
         13    1    1    2    0    0  0.10462652876E+02  0.70651143138E+00  0.59625748140E+01  0.12063570204E+02  0.10566000000E+00 0.  1.
        994    1    1    2    0    0  0.43803487629E+02  0.49389219349E+02  0.12494221790E+03  0.19269042096E+03  0.13100000000E+03 0.  0.
        997    1    1    2    0    0 -0.54266140505E+02 -0.50095730780E+02  0.36909519612E+03  0.42624600884E+03  0.20000000000E+03 0.  0.
</event>
<event>
 5    1  0.6487493E-012  0.2387775E+03  0.7957747E-01  0.4460979E+00
         13   -1    0    0    0    0  0.00000000000E+00  0.00000000000E+00  0.49999998884E+03  0.50000000000E+03  0.10566000000E+00 0. -1.
        994   -1    0    0    0    0 -0.00000000000E+00 -0.00000000000E+00  0.00000000000E+00  0.13100000000E+03  0.13100000000E+03 0.  0.
         13    1    1    2    0    0  0.20629225866E+02 -0.59541818365E+01  0.11195015857E+02  0.24214805084E+02  0.10566000000E+00 0.  1.
        994    1    1    2    0    0 -0.22732671235E+02 -0.27098834577E+02  0.10087633884E+03  0.16908032681E+03  0.13100000000E+03 0.  0.
        997    1    1    2    0    0  0.21034453691E+01  0.33053016414E+02  0.38792863414E+03  0.43770486811E+03  0.20000000000E+03 0.  0.
</event>
<event>
 5    1  0.6487493E-012  0.2421401E+03  0.7957747E-01  0.4421326E+00
         13   -1    0    0    0    0  0.00000000000E+00  0.00000000000E+00  0.49999998884E+03  0.50000000000E+03  0.10566000000E+00 0. -1.
        994   -1    0    0    0    0 -0.00000000000E+00 -0.00000000000E+00  0.00000000000E+00  0.13100000000E+03  0.13100000000E+03 0.  0.
         13    1    1    2    0    0  0.21579428768E+01  0.33212126243E+02  0.41630014705E+02  0.53298886812E+02  0.10566000000E+00 0.  1.
        994    1    1    2    0    0 -0.97902484369E+01 -0.11794386417E+02  0.95836348371E+02  0.16303546297E+03  0.13100000000E+03 0.  0.
        997    1    1    2    0    0  0.76323055601E+01 -0.21417739825E+02  0.36253362576E+03  0.41466565022E+03  0.20000000000E+03 0.  0.
</event>
<event>
 5    1  0.6487493E-012  0.2382538E+03  0.7957747E-01  0.4467275E+00
         13   -1    0    0    0    0  0.00000000000E+00  0.00000000000E+00  0.49999998884E+03  0.50000000000E+03  0.10566000000E+00 0. -1.
        994   -1    0    0    0    0 -0.00000000000E+00 -0.00000000000E+00  0.00000000000E+00  0.13100000000E+03  0.13100000000E+03 0.  0.
         13    1    1    2    0    0 -0.15889984206E+02 -0.10424779800E+02  0.96277333567E+02  0.98135130074E+02  0.10566000000E+00 0.  1.
        994    1    1    2    0    0  0.21533210588E+02  0.28003056892E+02  0.99221626949E+02  0.16808861237E+03  0.13100000000E+03 0.  0.
        997    1    1    2    0    0 -0.56432263827E+01 -0.17578277091E+02  0.30450102832E+03  0.36477625756E+03  0.20000000000E+03 0.  0.
</event>
<event>
 5    1  0.6487493E-012  0.2492751E+03  0.7957747E-01  0.4341350E+00
         13   -1    0    0    0    0  0.00000000000E+00  0.00000000000E+00  0.49999998884E+03  0.50000000000E+03  0.10566000000E+00 0.  1.
        994   -1    0    0    0    0 -0.00000000000E+00 -0.00000000000E+00  0.00000000000E+00  0.13100000000E+03  0.13100000000E+03 0.  0.
         13    1    1    2    0    0 -0.37388190583E+02 -0.11069795724E+02  0.58620622347E+02  0.70404585794E+02  0.10566000000E+00 0. -1.
        994    1    1    2    0    0 -0.66056307495E+01 -0.31472600852E+02  0.19958385618E+03  0.24089183176E+03  0.13100000000E+03 0.  0.
        997    1    1    2    0    0  0.43993821333E+02  0.42542396576E+02  0.24179551031E+03  0.31970358244E+03  0.20000000000E+03 0.  0.
</event>
<event>
 5    1  0.6487493E-012  0.2288413E+03  0.7957747E-01  0.4586349E+00
         13   -1    0    0    0    0  0.00000000000E+00  0.00000000000E+00  0.49999998884E+03  0.50000000000E+03  0.10566000000E+00 0. -1.
        994   -1    0    0    0    0 -0.00000000000E+00 -0.00000000000E+00  0.00000000000E+00  0.13100000000E+03  0.13100000000E+03 0.  0.
         13    1    1    2    0    0 -0.15629453677E+02  0.48906392324E+01  0.22224948392E+02  0.27607203216E+02  0.10566000000E+00 0.  1.
        994    1    1    2    0    0  0.53953945760E+02 -0.64493253453E+02  0.18417940613E+03  0.24115028851E+03  0.13100000000E+03 0.  0.
        997    1    1    2    0    0 -0.38324492083E+02  0.59602614221E+02  0.29359563431E+03  0.36224250828E+03  0.20000000000E+03 0.  0.
</event>
<event>
 5    1  0.6487493E-012  0.2336720E+03  0.7957747E-01  0.4523796E+00
         13   -1    0    0    0    0  0.00000000000E+00  0.00000000000E+00  0.49999998884E+03  0.50000000000E+03  0.10566000000E+00 0. -1.
        994   -1    0    0    0    0 -0.00000000000E+00 -0.00000000000E+00  0.00000000000E+00  0.13100000000E+03  0.13100000000E+03 0.  0.
         13    1    1    2    0    0 -0.78759658629E+01  0.13742794188E+02  0.21169581600E+02  0.26439697039E+02  0.10566000000E+00 0.  1.
        994    1    1    2    0    0 -0.57690764571E+02  0.22066829976E+02  0.12503007537E+03  0.19133397254E+03  0.13100000000E+03 0.  0.
        997    1    1    2    0    0  0.65566730434E+02 -0.35809624163E+02  0.35380033187E+03  0.41322633042E+03  0.20000000000E+03 0.  0.
</event>
<event>
 5    1  0.6487493E-012  0.2306994E+03  0.7957747E-01  0.4561914E+00
         13   -1    0    0    0    0  0.00000000000E+00  0.00000000000E+00  0.49999998884E+03  0.50000000000E+03  0.10566000000E+00 0.  1.
        994   -1    0    0    0    0 -0.00000000000E+00 -0.00000000000E+00  0.00000000000E+00  0.13100000000E+03  0.13100000000E+03 0.  0.
         13    1    1    2    0    0  0.12689918063E+02  0.10581514810E+02  0.28202416189E+02  0.32686234397E+02  0.10566000000E+00 0. -1.
        994    1    1    2    0    0 -0.17047093696E+02 -0.90019801806E+01  0.70722386014E+02  0.15011427292E+03  0.13100000000E+03 0.  0.
        997    1    1    2    0    0  0.43571756324E+01 -0.15795346294E+01  0.40107518663E+03  0.44819949268E+03  0.20000000000E+03 0.  0.
</event>
<event>
 5    1  0.6487493E-012  0.2413355E+03  0.7957747E-01  0.4430695E+00
         13   -1    0    0    0    0  0.00000000000E+00  0.00000000000E+00  0.49999998884E+03  0.50000000000E+03  0.10566000000E+00 0.  1.
        994   -1    0    0    0    0 -0.00000000000E+00 -0.00000000000E+00  0.00000000000E+00  0.13100000000E+03  0.13100000000E+03 0.  0.
         13    1    1    2    0    0 -0.28083661145E+02 -0.94481751637E+01  0.24844291670E+02  0.38667945768E+02  0.10566000000E+00 0. -1.
        994    1    1    2    0    0  0.27007687715E+02 -0.19267799867E+02  0.10697403903E+03  0.17235169954E+03  0.13100000000E+03 0.  0.
        997    1    1    2    0    0  0.10759734305E+01  0.28715975031E+02  0.36818165814E+03  0.41998035470E+03  0.20000000000E+03 0.  0.
</event>
<event>
 5    1  0.6487493E-012  0.2469704E+03  0.7957747E-01  0.4366591E+00
         13   -1    0    0    0    0  0.00000000000E+00  0.00000000000E+00  0.49999998884E+03  0.50000000000E+03  0.10566000000E+00 0.  1.
        994   -1    0    0    0    0 -0.00000000000E+00 -0.00000000000E+00  0.00000000000E+00  0.13100000000E+03  0.13100000000E+03 0.  0.
         13    1    1    2    0    0  0.28340548263E+02  0.24877539620E+01  0.95523009526E+01  0.30010551697E+02  0.10566000000E+00 0. -1.
        994    1    1    2    0    0 -0.12857245260E+02  0.24063955584E+02  0.12423351476E+03  0.18259065941E+03  0.13100000000E+03 0.  0.
        997    1    1    2    0    0 -0.15483303003E+02 -0.26551709546E+02  0.36621417312E+03  0.41839878889E+03  0.20000000000E+03 0.  0.
</event>
<event>
 5    1  0.6487493E-012  0.2310523E+03  0.7957747E-01  0.4557327E+00
         13   -1    0    0    0    0  0.00000000000E+00  0.00000000000E+00  0.49999998884E+03  0.50000000000E+03  0.10566000000E+00 0. -1.
        994   -1    0    0    0    0 -0.00000000000E+00 -0.00000000000E+00  0.00000000000E+00  0.13100000000E+03  0.13100000000E+03 0.  0.
         13    1    1    2    0    0  0.18629651995E+02 -0.63115710069E+01  0.18981966367E+02  0.27335436218E+02  0.10566000000E+00 0.  1.
        994    1    1    2    0    0 -0.65243277815E+02  0.27688231300E+02  0.13658918437E+03  0.20209138710E+03  0.13100000000E+03 0.  0.
        997    1    1    2    0    0  0.46613625820E+02 -0.21376660293E+02  0.34442883810E+03  0.40157317669E+03  0.20000000000E+03 0.  0.
</event>
<event>
 5    1  0.6487493E-012  0.2520984E+03  0.7957747E-01  0.4311164E+00
         13   -1    0    0    0    0  0.00000000000E+00  0.00000000000E+00  0.49999998884E+03  0.50000000000E+03  0.10566000000E+00 0.  1.
        994   -1    0    0    0    0 -0.00000000000E+00 -0.00000000000E+00  0.00000000000E+00  0.13100000000E+03  0.13100000000E+03 0.  0.
         13    1    1    2    0    0 -0.21215607615E+02  0.17993151219E+02  0.56237760496E+00  0.27824142932E+02  0.10566000000E+00 0. -1.
        994    1    1    2    0    0  0.15969599332E+02  0.21375666551E+01  0.14820543592E+03  0.19845767441E+03  0.13100000000E+03 0.  0.
        997    1    1    2    0    0  0.52460082834E+01 -0.20130717874E+02  0.35123217531E+03  0.40471818266E+03  0.20000000000E+03 0.  0.
</event>
<event>
 5    1  0.6487493E-012  0.2293474E+03  0.7957747E-01  0.4579645E+00
         13   -1    0    0    0    0  0.00000000000E+00  0.00000000000E+00  0.49999998884E+03  0.50000000000E+03  0.10566000000E+00 0.  1.
        994   -1    0    0    0    0 -0.00000000000E+00 -0.00000000000E+00  0.00000000000E+00  0.13100000000E+03  0.13100000000E+03 0.  0.
         13    1    1    2    0    0  0.70784391606E+01  0.94868802649E+01  0.54892477138E+01  0.13047919474E+02  0.10566000000E+00 0. -1.
        994    1    1    2    0    0 -0.34754886230E+02 -0.62530980052E+02  0.13019784334E+03  0.19806691797E+03  0.13100000000E+03 0.  0.
        997    1    1    2    0    0  0.27676447070E+02  0.53044099787E+02  0.36431289779E+03  0.41988516256E+03  0.20000000000E+03 0.  0.
</event>
<event>
 5    1  0.6487493E-012  0.2299363E+03  0.7957747E-01  0.4571891E+00
         13   -1    0    0    0    0  0.00000000000E+00  0.00000000000E+00  0.49999998884E+03  0.50000000000E+03  0.10566000000E+00 0. -1.
        994   -1    0    0    0    0 -0.00000000000E+00 -0.00000000000E+00  0.00000000000E+00  0.13100000000E+03  0.13100000000E+03 0.  0.
         13    1    1    2    0    0 -0.58010414498E+01 -0.12392657249E+02  0.36305448623E+02  0.38798541201E+02  0.10566000000E+00 0.  1.
        994    1    1    2    0    0  0.14983843873E+02 -0.43566063704E+01  0.67992320751E+02  0.14841647913E+03  0.13100000000E+03 0.  0.
        997    1    1    2    0    0 -0.91828024233E+01  0.16749263619E+02  0.39570221946E+03  0.44378497967E+03  0.20000000000E+03 0.  0.
</event>
<event>
 5    1  0.6487493E-012  0.2418588E+03  0.7957747E-01  0.4424593E+00
         13   -1    0    0    0    0  0.00000000000E+00  0.00000000000E+00  0.49999998884E+03  0.50000000000E+03  0.10566000000E+00 0. -1.
        994   -1    0    0    0    0 -0.00000000000E+00 -0.00000000000E+00  0.00000000000E+00  0.13100000000E+03  0.13100000000E+03 0.  0.
         13    1    1    2    0    0  0.17714287900E+02 -0.13146387294E+02  0.12186555774E+02  0.25202118966E+02  0.10566000000E+00 0.  1.
        994    1    1    2    0    0  0.32730977833E+02 -0.27567494788E+02  0.12290628843E+03  0.18465708601E+03  0.13100000000E+03 0.  0.
        997    1    1    2    0    0 -0.50445265733E+02  0.40713882082E+02  0.36490714463E+03  0.42114079502E+03  0.20000000000E+03 0.  0.
</event>
<event>
 5    1  0.6487493E-012  0.2294906E+03  0.7957747E-01  0.4577756E+00
         13   -1    0    0    0    0  0.00000000000E+00  0.00000000000E+00  0.49999998884E+03  0.50000000000E+03  0.10566000000E+00 0.  1.
        994   -1    0    0    0    0 -0.00000000000E+00 -0.00000000000E+00  0.00000000000E+00  0.13100000000E+03  0.13100000000E+03 0.  0.
         13    1    1    2    0    0  0.18121789049E+01  0.14361022751E+02  0.20683149779E+02  0.25245332552E+02  0.10566000000E+00 0. -1.
        994    1    1    2    0    0 -0.30305944625E+02 -0.25057938811E+02  0.80875140327E+02  0.15889662961E+03  0.13100000000E+03 0.  0.
        997    1    1    2    0    0  0.28493765720E+02  0.10696916060E+02  0.39844169873E+03  0.44685803784E+03  0.20000000000E+03 0.  0.
</event>
<event>
 5    1  0.6487493E-012  0.2419457E+03  0.7957747E-01  0.4423582E+00
         13   -1    0    0    0    0  0.00000000000E+00  0.00000000000E+00  0.49999998884E+03  0.50000000000E+03  0.10566000000E+00 0.  1.
        994   -1    0    0    0    0 -0.00000000000E+00 -0.00000000000E+00  0.00000000000E+00  0.13100000000E+03  0.13100000000E+03 0.  0.
         13    1    1    2    0    0 -0.15931200844E+02  0.91393812088E+01  0.25116727347E+01  0.18537829246E+02  0.10566000000E+00 0. -1.
        994    1    1    2    0    0 -0.13253932330E+02 -0.20038048661E+02  0.10049525991E+03  0.16684569932E+03  0.13100000000E+03 0.  0.
        997    1    1    2    0    0  0.29185133174E+02  0.10898667452E+02  0.39699305619E+03  0.44561647144E+03  0.20000000000E+03 0.  0.
</event>
<event>
 5    1  0.6487493E-012  0.2394641E+03  0.7957747E-01  0.4452775E+00
         13   -1    0    0    0    0  0.00000000000E+00  0.00000000000E+00  0.49999998884E+03  0.50000000000E+03  0.10566000000E+00 0. -1.
        994   -1    0    0    0    0 -0.00000000000E+00 -0.00000000000E+00  0.00000000000E+00  0.13100000000E+03  0.13100000000E+03 0.  0.
         13    1    1    2    0    0 -0.27393417674E+02  0.44832735906E+01  0.50957361908E+02  0.58027260582E+02  0.10566000000E+00 0.  1.
        994    1    1    2    0    0  0.78908066027E+01  0.52864640301E+02  0.13362562693E+03  0.19461177558E+03  0.13100000000E+03 0.  0.
        997    1    1    2    0    0  0.19502611071E+02 -0.57347913892E+02  0.31541700000E+03  0.37836096384E+03  0.20000000000E+03 0.  0.
</event>
<event>
 5    1  0.6487493E-012  0.2392980E+03  0.7957747E-01  0.4454755E+00
         13   -1    0    0    0    0  0.00000000000E+00  0.00000000000E+00  0.49999998884E+03  0.50000000000E+03  0.10566000000E+00 0. -1.
        994   -1    0    0    0    0 -0.00000000000E+00 -0.00000000000E+00  0.00000000000E+00  0.13100000000E+03  0.13100000000E+03 0.  0.
         13    1    1    2    0    0 -0.10182402522E+02  0.32105161779E+02  0.65596042862E+02  0.73737878578E+02  0.10566000000E+00 0.  1.
        994    1    1    2    0    0  0.47509761876E+02 -0.38765900135E+02  0.16153496988E+03  0.21682831683E+03  0.13100000000E+03 0.  0.
        997    1    1    2    0    0 -0.37327359354E+02  0.66607383550E+01  0.27286897610E+03  0.34043380459E+03  0.20000000000E+03 0.  0.
</event>
<event>
 5    1  0.6487493E-012  0.2337102E+03  0.7957747E-01  0.4523314E+00
         13   -1    0    0    0    0  0.00000000000E+00  0.00000000000E+00  0.49999998884E+03  0.50000000000E+03  0.10566000000E+00 0.  1.
        994   -1    0    0    0    0 -0.00000000000E+00 -0.00000000000E+00  0.00000000000E+00  0.13100000000E+03  0.13100000000E+03 0.  0.
         13    1    1    2    0    0  0.15919445544E+02 -0.89937381756E+01  0.68382155998E+02  0.70784507456E+02  0.10566000000E+00 0. -1.
        994    1    1    2    0    0 -0.48306494940E+02 -0.39493724883E+01  0.10148516845E+03  0.17265385722E+03  0.13100000000E+03 0.  0.
        997    1    1    2    0    0  0.32387049396E+02  0.12943110664E+02  0.33013266439E+03  0.38756163533E+03  0.20000000000E+03 0.  0.
</event>
<event>
 5    1  0.6487493E-012  0.2290656E+03  0.7957747E-01  0.4583374E+00
         13   -1    0    0    0    0  0.00000000000E+00  0.00000000000E+00  0.49999998884E+03  0.50000000000E+03  0.10566000000E+00 0.  1.
        994   -1    0    0    0    0 -0.00000000000E+00 -0.00000000000E+00  0.00000000000E+00  0.13100000000E+03  0.13100000000E+03 0.  0.
         13    1    1    2    0    0  0.50676859473E+01  0.11691231328E+02  0.15558792163E+02  0.20111029522E+02  0.10566000000E+00 0. -1.
        994    1    1    2    0    0 -0.22316858801E+02 -0.16027386076E+02  0.71572512962E+02  0.15178453117E+03  0.13100000000E+03 0.  0.
        997    1    1    2    0    0  0.17249172854E+02  0.43361547476E+01  0.41286868371E+03  0.45910443931E+03  0.20000000000E+03 0.  0.
</event>
<event>
 5    1  0.6487493E-012  0.2441875E+03  0.7957747E-01  0.4397814E+00
         13   -1    0    0    0    0  0.00000000000E+00  0.00000000000E+00  0.49999998884E+03  0.50000000000E+03  0.10566000000E+00 0.  1.
        994   -1    0    0    0    0 -0.00000000000E+00 -0.00000000000E+00  0.00000000000E+00  0.13100000000E+03  0.13100000000E+03 0.  0.
         13    1    1    2    0    0  0.58665263795E+01  0.17593439082E+02 -0.32114958710E+01  0.18822064187E+02  0.10566000000E+00 0. -1.
        994    1    1    2    0    0  0.48296157881E+02 -0.17603035432E+02  0.18472987147E+03  0.23222513028E+03  0.13100000000E+03 0.  0.
        997    1    1    2    0    0 -0.54162684261E+02  0.95963496879E-02  0.31848161324E+03  0.37995280553E+03  0.20000000000E+03 0.  0.
</event>
<event>
 5    1  0.6487493E-012  0.2423217E+03  0.7957747E-01  0.4419221E+00
         13   -1    0    0    0    0  0.00000000000E+00  0.00000000000E+00  0.49999998884E+03  0.50000000000E+03  0.10566000000E+00 0. -1.
        994   -1    0    0    0    0 -0.00000000000E+00 -0.00000000000E+00  0.00000000000E+00  0.13100000000E+03  0.13100000000E+03 0.  0.
         13    1    1    2    0    0 -0.60700553732E+01  0.22647199811E+02  0.68254594778E+01  0.24420059226E+02  0.10566000000E+00 0.  1.
        994    1    1    2    0    0 -0.36315740466E+02 -0.28890974060E+02  0.13290220567E+03  0.19229539168E+03  0.13100000000E+03 0.  0.
        997    1    1    2    0    0  0.42385795839E+02  0.62437742491E+01  0.36027232369E+03  0.41428454910E+03  0.20000000000E+03 0.  0.
</event>
<event>
 5    1  0.6487493E-012  0.2473263E+03  0.7957747E-01  0.4362656E+00
         13   -1    0    0    0    0  0.00000000000E+00  0.00000000000E+00  0.49999998884E+03  0.50000000000E+03  0.10566000000E+00 0.  1.
        994   -1    0    0    0    0 -0.00000000000E+00 -0.00000000000E+00  0.00000000000E+00  0.13100000000E+03  0.13100000000E+03 0.  0.
         13    1    1    2    0    0  0.20569982744E+02  0.15348867358E+02  0.58449523231E+01  0.26322738287E+02  0.10566000000E+00 0. -1.
        994    1    1    2    0    0  0.15088908707E+02 -0.17559205667E+02  0.12113751116E+03  0.17992025311E+03  0.13100000000E+03 0.  0.
        997    1    1    2    0    0 -0.35658891451E+02  0.22103383095E+01  0.37301752536E+03  0.42475700860E+03  0.20000000000E+03 0.  0.
</event>
<event>
 5    1  0.6487493E-012  0.2445340E+03  0.7957747E-01  0.4393881E+00
         13   -1    0    0    0    0  0.00000000000E+00  0.00000000000E+00  0.49999998884E+03  0.50000000000E+03  0.10566000000E+00 0.  1.
        994   -1    0    0    0    0 -0.00000000000E+00 -0.00000000000E+00  0.00000000000E+00  0.13100000000E+03  0.13100000000E+03 0.  0.
         13    1    1    2    0    0  0.23482938491E+01 -0.33832930200E+02  0.39796348071E+02  0.52287112501E+02  0.10566000000E+00 0. -1.
        994    1    1    2    0    0 -0.31228915920E+01 -0.52956366661E+01  0.10024870718E+03  0.16507149818E+03  0.13100000000E+03 0.  0.
        997    1    1    2    0    0  0.77459774285E+00  0.39128566866E+02  0.35995493359E+03  0.41364138932E+03  0.20000000000E+03 0.  0.
</event>
<event>
 5    1  0.6487493E-012  0.2473050E+03  0.7957747E-01  0.4362892E+00
         13   -1    0    0    0    0  0.00000000000E+00  0.00000000000E+00  0.49999998884E+03  0.50000000000E+03  0.10566000000E+00 0. -1.
        994   -1    0    0    0    0 -0.00000000000E+00 -0.00000000000E+00  0.00000000000E+00  0.13100000000E+03  0.13100000000E+03 0.  0.
         13    1    1    2    0    0  0.27660024327E+02  0.37315609058E+02  0.59000858243E+02  0.75090905326E+02  0.10566000000E+00 0.  1.
        994    1    1    2    0    0 -0.11273673370E+02 -0.39961182393E+02  0.16692906108E+03  0.21621818435E+03  0.13100000000E+03 0.  0.
        997    1    1    2    0    0 -0.16386350957E+02  0.26455733353E+01  0.27407006952E+03  0.33969091033E+03  0.20000000000E+03 0.  0.
</event>
<event>
 5    1  0.6487493E-012  0.2411817E+03  0.7957747E-01  0.4432494E+00
         13   -1    0    0    0    0  0.00000000000E+00  0.00000000000E+00  0.49999998884E+03  0.50000000000E+03  0.10566000000E+00 0.  1.
        994   -1    0    0    0    0 -0.00000000000E+00 -0.00000000000E+00  0.00000000000E+00  0.13100000000E+03  0.13100000000E+03 0.  0.
         13    1    1    2    0    0 -0.24474999902E+02  0.19358136148E+02  0.79623687701E+02  0.85520207334E+02  0.10566000000E+00 0. -1.
        994    1    1    2    0    0  0.97476438676E+01 -0.89246583029E+01  0.92194021957E+02  0.16073395339E+03  0.13100000000E+03 0.  0.
        997    1    1    2    0    0  0.14727356035E+02 -0.10433477846E+02  0.32818227918E+03  0.38474583928E+03  0.20000000000E+03 0.  0.
</event>
<event>
 5    1  0.6487493E-012  0.2509353E+03  0.7957747E-01  0.4323504E+00
         13   -1    0    0    0    0  0.00000000000E+00  0.00000000000E+00  0.49999998884E+03  0.50000000000E+03  0.10566000000E+00 0. -1.
        994   -1    0    0    0    0 -0.00000000000E+00 -0.00000000000E+00  0.00000000000E+00  0.13100000000E+03  0.13100000000E+03 0.  0.
         13    1    1    2    0    0  0.52757079838E+01  0.28897784192E+02  0.50053219689E+01  0.29798983841E+02  0.10566000000E+00 0.  1.
        994    1    1    2    0    0  0.25558929538E+02 -0.96200138697E+00  0.15493061443E+03  0.20449616039E+03  0.13100000000E+03 0.  0.
        997    1    1    2    0    0 -0.30834637521E+02 -0.27935782805E+02  0.34006405244E+03  0.39670485577E+03  0.20000000000E+03 0.  0.
</event>
<event>
 5    1  0.6487493E-012  0.2437074E+03  0.7957747E-01  0.4403285E+00
         13   -1    0    0    0    0  0.00000000000E+00  0.00000000000E+00  0.49999998884E+03  0.50000000000E+03  0.10566000000E+00 0.  1.
        994   -1    0    0    0    0 -0.00000000000E+00 -0.00000000000E+00  0.00000000000E+00  0.13100000000E+03  0.13100000000E+03 0.  0.
         13    1    1    2    0    0 -0.33049760503E+02 -0.22637567371E+01  0.83056117160E+02  0.89418907540E+02  0.10566000000E+00 0. -1.
        994    1    1    2    0    0  0.29156685882E+01 -0.70469483798E+01  0.97917182108E+02  0.16372823567E+03  0.13100000000E+03 0.  0.
        997    1    1    2    0    0  0.30134091914E+02  0.93107051169E+01  0.31902668957E+03  0.37785285679E+03  0.20000000000E+03 0.  0.
</event>
<event>
 5    1  0.6487493E-012  0.2293583E+03  0.7957747E-01  0.4579503E+00
         13   -1    0    0    0    0  0.00000000000E+00  0.00000000000E+00  0.49999998884E+03  0.50000000000E+03  0.10566000000E+00 0.  1.
        994   -1    0    0    0    0 -0.00000000000E+00 -0.00000000000E+00  0.00000000000E+00  0.13100000000E+03  0.13100000000E+03 0.  0.
         13    1    1    2    0    0 -0.12649850502E+02 -0.52339275641E+01  0.10753014967E+02  0.17408366103E+02  0.10566000000E+00 0. -1.
        994    1    1    2    0    0  0.57413117495E+02  0.22134452491E+02  0.10859399506E+03  0.18094158121E+03  0.13100000000E+03 0.  0.
        997    1    1    2    0    0 -0.44763266994E+02 -0.16900524927E+02  0.38065297881E+03  0.43265005269E+03  0.20000000000E+03 0.  0.
</event>
<event>
 5    1  0.6487493E-012  0.2327694E+03  0.7957747E-01  0.4535247E+00
         13   -1    0    0    0    0  0.00000000000E+00  0.00000000000E+00  0.49999998884E+03  0.50000000000E+03  0.10566000000E+00 0. -1.
        994   -1    0    0    0    0 -0.00000000000E+00 -0.00000000000E+00  0.00000000000E+00  0.13100000000E+03  0.13100000000E+03 0.  0.
         13    1    1    2    0    0 -0.18851417120E+02 -0.51978411075E+01  0.27574044707E+02  0.33804327906E+02  0.10566000000E+00 0.  1.
        994    1    1    2    0    0  0.11757987985E+02  0.29235503889E+02  0.81778969252E+02  0.15761270501E+03  0.13100000000E+03 0.  0.
        997    1    1    2    0    0  0.70934291355E+01 -0.24037662782E+02  0.39064697488E+03  0.43958296708E+03  0.20000000000E+03 0.  0.
</event>
<event>
 5    1  0.6487493E-012  0.2433039E+03  0.7957747E-01  0.4407904E+00
         13   -1    0    0    0    0  0.00000000000E+00  0.00000000000E+00  0.49999998884E+03  0.50000000000E+03  0.10566000000E+00 0. -1.
        994   -1    0    0    0    0 -0.00000000000E+00 -0.00000000000E+00  0.00000000000E+00  0.13100000000E+03  0.13100000000E+03 0.  0.
         13    1    1    2    0    0 -0.21817182247E+02  0.50121161848E+01  0.36439694100E+01  0.22680397416E+02  0.10566000000E+00 0.  1.
        994    1    1    2    0    0  0.63327042484E+01 -0.46257659607E+02  0.14016827172E+03  0.19745383919E+03  0.13100000000E+03 0.  0.
        997    1    1    2    0    0  0.15484477998E+02  0.41245543422E+02  0.35618774770E+03  0.41086576339E+03  0.20000000000E+03 0.  0.
</event>
<event>
 5    1  0.6487493E-012  0.2309298E+03  0.7957747E-01  0.4558917E+00
         13   -1    0    0    0    0  0.00000000000E+00  0.00000000000E+00  0.49999998884E+03  0.50000000000E+03  0.10566000000E+00 0. -1.
        994   -1    0    0    0    0 -0.00000000000E+00 -0.00000000000E+00  0.00000000000E+00  0.13100000000E+03  0.13100000000E+03 0.  0.
         13    1    1    2    0    0  0.62840713361E+01  0.11076659700E+02  0.83458391880E+01  0.15226494621E+02  0.10566000000E+00 0.  1.
        994    1    1    2    0    0 -0.22910004173E+02 -0.17120314351E+02  0.75902606388E+02  0.15407848361E+03  0.13100000000E+03 0.  0.
        997    1    1    2    0    0  0.16625932837E+02  0.60436546512E+01  0.41575154326E+03  0.46169502177E+03  0.20000000000E+03 0.  0.
</event>
<event>
 5    1  0.6487493E-012  0.2532212E+03  0.7957747E-01  0.4299377E+00
         13   -1    0    0    0    0  0.00000000000E+00  0.00000000000E+00  0.49999998884E+03  0.50000000000E+03  0.10566000000E+00 0. -1.
        994   -1    0    0    0    0 -0.00000000000E+00 -0.00000000000E+00  0.00000000000E+00  0.13100000000E+03  0.13100000000E+03 0.  0.
         13    1    1    2    0    0  0.38283331386E+02  0.25191741839E+02  0.53590863661E+02  0.70514035133E+02  0.10566000000E+00 0.  1.
        994    1    1    2    0    0  0.10606594052E+01  0.99699278713E+01  0.15620517718E+03  0.20411168961E+03  0.13100000000E+03 0.  0.
        997    1    1    2    0    0 -0.39343990791E+02 -0.35161669710E+02  0.29020394800E+03  0.35637427525E+03  0.20000000000E+03 0.  0.
</event>
<event>
 5    1  0.7415877E-012  0.2371639E+03  0.7957747E-01  0.4480484E+00
         13   -1    0    0    0    0  0.00000000000E+00  0.00000000000E+00  0.49999998884E+03  0.50000000000E+03  0.10566000000E+00 0. -1.
        994   -1    0    0    0    0 -0.00000000000E+00 -0.00000000000E+00  0.00000000000E+00  0.13100000000E+03  0.13100000000E+03 0.  0.
         13    1    1    2    0    0  0.11241445759E+02  0.80747586533E+01  0.92651993139E+00  0.13872326167E+02  0.10566000000E+00 0.  1.
        994    1    1    2    0    0 -0.35192900330E+02  0.25229629719E+02  0.10526353759E+03  0.17354102338E+03  0.13100000000E+03 0.  0.
        997    1    1    2    0    0  0.23951454571E+02 -0.33304388372E+02  0.39380993131E+03  0.44358665045E+03  0.20000000000E+03 0.  0.
</event>
<event>
 5    1  0.6487493E-012  0.2506727E+03  0.7957747E-01  0.4326309E+00
         13   -1    0    0    0    0  0.00000000000E+00  0.00000000000E+00  0.49999998884E+03  0.50000000000E+03  0.10566000000E+00 0.  1.
        994   -1    0    0    0    0 -0.00000000000E+00 -0.00000000000E+00  0.00000000000E+00  0.13100000000E+03  0.13100000000E+03 0.  0.
         13    1    1    2    0    0  0.31681404412E+02  0.27345294968E+02  0.50400925114E+02  0.65511380376E+02  0.10566000000E+00 0. -1.
        994    1    1    2    0    0  0.21635385852E+02 -0.91414365074E+01  0.14557088832E+03  0.19723980153E+03  0.13100000000E+03 0.  0.
        997    1    1    2    0    0 -0.53316790265E+02 -0.18203858460E+02  0.30402817541E+03  0.36824881809E+03  0.20000000000E+03 0.  0.
</event>
<event>
 5    1  0.6487493E-012  0.2317704E+03  0.7957747E-01  0.4548045E+00
         13   -1    0    0    0    0  0.00000000000E+00  0.00000000000E+00  0.49999998884E+03  0.50000000000E+03  0.10566000000E+00 0.  1.
        994   -1    0    0    0    0 -0.00000000000E+00 -0.00000000000E+00  0.00000000000E+00  0.13100000000E+03  0.13100000000E+03 0.  0.
         13    1    1    2    0    0  0.89210364501E+01 -0.16876406882E+02  0.29330167278E+02  0.34995255066E+02  0.10566000000E+00 0. -1.
        994    1    1    2    0    0 -0.69514274426E+01  0.29592532276E+02  0.78818263063E+02  0.15587610113E+03  0.13100000000E+03 0.  0.
        997    1    1    2    0    0 -0.19696090075E+01 -0.12716125395E+02  0.39185155850E+03  0.44012864381E+03  0.20000000000E+03 0.  0.
</event>
<event>
 5    1  0.6487493E-012  0.2305746E+03  0.7957747E-01  0.4563540E+00
         13   -1    0    0    0    0  0.00000000000E+00  0.00000000000E+00  0.49999998884E+03  0.50000000000E+03  0.10566000000E+00 0. -1.
        994   -1    0    0    0    0 -0.00000000000E+00 -0.00000000000E+00  0.00000000000E+00  0.13100000000E+03  0.13100000000E+03 0.  0.
         13    1    1    2    0    0  0.58090283839E+01  0.14137698618E+02  0.14274998261E+02  0.20914255243E+02  0.10566000000E+00 0.  1.
        994    1    1    2    0    0 -0.93343154855E+01 -0.41441385654E+02  0.86251820078E+02  0.16249582874E+03  0.13100000000E+03 0.  0.
        997    1    1    2    0    0  0.35252871016E+01  0.27303687036E+02  0.39947317050E+03  0.44758991602E+03  0.20000000000E+03 0.  0.
</event>
<event>
 5    1  0.6487493E-012  0.2287233E+03  0.7957747E-01  0.4587917E+00
         13   -1    0    0    0    0  0.00000000000E+00  0.00000000000E+00  0.49999998884E+03  0.50000000000E+03  0.10566000000E+00 0. -1.
        994   -1    0    0    0    0 -0.00000000000E+00 -0.00000000000E+00  0.00000000000E+00  0.13100000000E+03  0.13100000000E+03 0.  0.
         13    1    1    2    0    0  0.99022962875E+01 -0.90920275941E+01  0.19983252223E+02  0.24084475725E+02  0.10566000000E+00 0.  1.
        994    1    1    2    0    0 -0.21169494782E+02  0.25143203908E+02  0.74280942308E+02  0.15413950370E+03  0.13100000000E+03 0.  0.
        997    1    1    2    0    0  0.11267198494E+02 -0.16051176314E+02  0.40573579430E+03  0.45277602057E+03  0.20000000000E+03 0.  0.
</event>
<event>
 5    1  0.6487493E-012  0.2377998E+03  0.7957747E-01  0.4472760E+00
         13   -1    0    0    0    0  0.00000000000E+00  0.00000000000E+00  0.49999998884E+03  0.50000000000E+03  0.10566000000E+00 0. -1.
        994   -1    0    0    0    0 -0.00000000000E+00 -0.00000000000E+00  0.00000000000E+00  0.13100000000E+03  0.13100000000E+03 0.  0.
         13    1    1    2    0    0  0.92129318600E+01  0.22992477950E+02  0.23169697138E+02  0.33917225494E+02  0.10566000000E+00 0.  1.
        994    1    1    2    0    0 -0.48260362615E+01 -0.16539461558E+02  0.85045012743E+02  0.15713210559E+03  0.13100000000E+03 0.  0.
        997    1    1    2    0    0 -0.43868955984E+01 -0.64530163925E+01  0.39178527896E+03  0.43995066892E+03  0.20000000000E+03 0.  0.
</event>
<event>
 5    1  0.6487493E-012  0.2447786E+03  0.7957747E-01  0.4391112E+00
         13   -1    0    0    0    0  0.00000000000E+00  0.00000000000E+00  0.49999998884E+03  0.50000000000E+03  0.10566000000E+00 0. -1.
        994   -1    0    0    0    0 -0.00000000000E+00 -0.00000000000E+00  0.00000000000E+00  0.13100000000E+03  0.13100000000E+03 0.  0.
         13    1    1    2    0    0  0.22829723966E+02  0.76743699205E+01  0.13338673083E+01  0.24122243181E+02  0.10566000000E+00 0.  1.
        994    1    1    2    0    0 -0.46595321888E+02  0.42903472800E+01  0.15420638936E+03  0.20767797577E+03  0.13100000000E+03 0.  0.
        997    1    1    2    0    0  0.23765597922E+02 -0.11964717201E+02  0.34445973217E+03  0.39919978105E+03  0.20000000000E+03 0.  0.
</event>
<event>
 5    1  0.6487493E-012  0.2448619E+03  0.7957747E-01  0.4390170E+00
         13   -1    0    0    0    0  0.00000000000E+00  0.00000000000E+00  0.49999998884E+03  0.50000000000E+03  0.10566000000E+00 0. -1.
        994   -1    0    0    0    0 -0.00000000000E+00 -0.00000000000E+00  0.00000000000E+00  0.13100000000E+03  0.13100000000E+03 0.  0.
         13    1    1    2    0    0  0.15734047007E+02  0.39197846453E+02  0.48847011224E+02  0.64576102944E+02  0.10566000000E+00 0.  1.
        994    1    1    2    0    0 -0.37738895846E+02 -0.28028888134E+02  0.15629279295E+03  0.20928038599E+03  0.13100000000E+03 0.  0.
        997    1    1    2    0    0  0.22004848838E+02 -0.11168958319E+02  0.29486018466E+03  0.35714351107E+03  0.20000000000E+03 0.  0.
</event>
<event>
 5    1  0.6487493E-012  0.2335171E+03  0.7957747E-01  0.4525754E+00
         13   -1    0    0    0    0  0.00000000000E+00  0.00000000000E+00  0.49999998884E+03  0.50000000000E+03  0.10566000000E+00 0.  1.
        994   -1    0    0    0    0 -0.00000000000E+00 -0.00000000000E+00  0.00000000000E+00  0.13100000000E+03  0.13100000000E+03 0.  0.
         13    1    1    2    0    0  0.55905802312E+00 -0.20799713481E+02  0.26251976889E+02  0.33498031008E+02  0.10566000000E+00 0. -1.
        994    1    1    2    0    0  0.15456609073E+02  0.24885980919E+02  0.81882202806E+02  0.15723839845E+03  0.13100000000E+03 0.  0.
        997    1    1    2    0    0 -0.16015667097E+02 -0.40862674383E+01  0.39186580914E+03  0.44026357054E+03  0.20000000000E+03 0.  0.
</event>
<event>
 5    1  0.6487493E-012  0.2385547E+03  0.7957747E-01  0.4463654E+00
         13   -1    0    0    0    0  0.00000000000E+00  0.00000000000E+00  0.49999998884E+03  0.50000000000E+03  0.10566000000E+00 0.  1.
        994   -1    0    0    0    0 -0.00000000000E+00 -0.00000000000E+00  0.00000000000E+00  0.13100000000E+03  0.13100000000E+03 0.  0.
         13    1    1    2    0    0 -0.11417219647E+02 -0.19516871960E+02  0.23495398138E+02  0.32608374588E+02  0.10566000000E+00 0. -1.
        994    1    1    2    0    0 -0.24728692949E+02 -0.17850157907E+02  0.95512514053E+02  0.16496598659E+03  0.13100000000E+03 0.  0.
        997    1    1    2    0    0  0.36145912596E+02  0.37367029867E+02  0.38099207664E+03  0.43342563882E+03  0.20000000000E+03 0.  0.
</event>
<event>
 5    1  0.6487493E-012  0.2317790E+03  0.7957747E-01  0.4547934E+00
         13   -1    0    0    0    0  0.00000000000E+00  0.00000000000E+00  0.49999998884E+03  0.50000000000E+03  0.10566000000E+00 0. -1.
        994   -1    0    0    0    0 -0.00000000000E+00 -0.00000000000E+00  0.00000000000E+00  0.13100000000E+03  0.13100000000E+03 0.  0.
         13    1    1    2    0    0  0.62078538136E+01  0.99059508443E+01  0.47204095727E+02  0.48630269674E+02  0.10566000000E+00 0.  1.
        994    1    1    2    0    0 -0.46688079609E+02  0.42556209781E+02  0.12031468613E+03  0.18875230188E+03  0.13100000000E+03 0.  0.
        997    1    1    2    0    0  0.40480225796E+02 -0.52462160625E+02  0.33248120698E+03  0.39361742844E+03  0.20000000000E+03 0.  0.
</event>
<event>
 5    1  0.6487493E-012  0.2293474E+03  0.7957747E-01  0.4579646E+00
         13   -1    0    0    0    0  0.00000000000E+00  0.00000000000E+00  0.49999998884E+03  0.50000000000E+03  0.10566000000E+00 0. -1.
        994   -1    0    0    0    0 -0.00000000000E+00 -0.00000000000E+00  0.00000000000E+00  0.13100000000E+03  0.13100000000E+03 0.  0.
         13    1    1    2    0    0 -0.47407099530E+01  0.16370137746E+02  0.34420815710E+02  0.38409106457E+02  0.10566000000E+00 0.  1.
        994    1    1    2    0    0  0.39567688490E+02 -0.54470208652E+02  0.11998094770E+03  0.18997113837E+03  0.13100000000E+03 0.  0.
        997    1    1    2    0    0 -0.34826978537E+02  0.38100070906E+02  0.34559822542E+03  0.40261975517E+03  0.20000000000E+03 0.  0.
</event>
<event>
 5    1  0.6487493E-012  0.2312881E+03  0.7957747E-01  0.4554272E+00
         13   -1    0    0    0    0  0.00000000000E+00  0.00000000000E+00  0.49999998884E+03  0.50000000000E+03  0.10566000000E+00 0.  1.
        994   -1    0    0    0    0 -0.00000000000E+00 -0.00000000000E+00  0.00000000000E+00  0.13100000000E+03  0.13100000000E+03 0.  0.
         13    1    1    2    0    0 -0.14222654272E+02  0.88347983210E+01  0.30461027222E+02  0.34759500850E+02  0.10566000000E+00 0. -1.
        994    1    1    2    0    0 -0.27365363594E+01 -0.18891298586E+02  0.71773865363E+02  0.15058837121E+03  0.13100000000E+03 0.  0.
        997    1    1    2    0    0  0.16959190631E+02  0.10056500265E+02  0.39776509625E+03  0.44565212794E+03  0.20000000000E+03 0.  0.
</event>
<event>
 5    1  0.6487493E-012  0.2290763E+03  0.7957747E-01  0.4583233E+00
         13   -1    0    0    0    0  0.00000000000E+00  0.00000000000E+00  0.49999998884E+03  0.50000000000E+03  0.10566000000E+00 0.  1.
        994   -1    0    0    0    0 -0.00000000000E+00 -0.00000000000E+00  0.00000000000E+00  0.13100000000E+03  0.13100000000E+03 0.  0.
         13    1    1    2    0    0  0.20578845105E+01  0.12094138512E+02  0.11050312482E+02  0.16511318694E+02  0.10566000000E+00 0. -1.
        994    1    1    2    0    0  0.19418294649E+02 -0.42301877048E+02  0.86995857186E+02  0.16399938456E+03  0.13100000000E+03 0.  0.
        997    1    1    2    0    0 -0.21476179159E+02  0.30207738536E+02  0.40195381917E+03  0.45048929675E+03  0.20000000000E+03 0.  0.
</event>
<event>
 5    1  0.6487493E-012  0.2351935E+03  0.7957747E-01  0.4504735E+00
         13   -1    0    0    0    0  0.00000000000E+00  0.00000000000E+00  0.49999998884E+03  0.50000000000E+03  0.10566000000E+00 0.  1.
        994   -1    0    0    0    0 -0.00000000000E+00 -0.00000000000E+00  0.00000000000E+00  0.13100000000E+03  0.13100000000E+03 0.  0.
         13    1    1    2    0    0 -0.55096069994E+01 -0.23080535708E+02  0.66493808421E+02  0.70601024215E+02  0.10566000000E+00 0. -1.
        994    1    1    2    0    0 -0.20382818794E+02  0.49554808679E+02  0.11443026022E+03  0.18200665598E+03  0.13100000000E+03 0.  0.
        997    1    1    2    0    0  0.25892425793E+02 -0.26474272971E+02  0.31907592019E+03  0.37839231981E+03  0.20000000000E+03 0.  0.
</event>
<event>
 5    1  0.6487493E-012  0.2313423E+03  0.7957747E-01  0.4553570E+00
         13   -1    0    0    0    0  0.00000000000E+00  0.00000000000E+00  0.49999998884E+03  0.50000000000E+03  0.10566000000E+00 0.  1.
        994   -1    0    0    0    0 -0.00000000000E+00 -0.00000000000E+00  0.00000000000E+00  0.13100000000E+03  0.13100000000E+03 0.  0.
         13    1    1    2    0    0 -0.15497760288E+02  0.93908860163E+01  0.34653964456E+02  0.39105980753E+02  0.10566000000E+00 0. -1.
        994    1    1    2    0    0 -0.10831105613E+01 -0.61327519694E+02  0.11491225379E+03  0.18473782469E+03  0.13100000000E+03 0.  0.
        997    1    1    2    0    0  0.16580870849E+02  0.51936633678E+02  0.35043377059E+03  0.40715619456E+03  0.20000000000E+03 0.  0.
</event>
<event>
 5    1  0.6487493E-012  0.2359791E+03  0.7957747E-01  0.4495007E+00
         13   -1    0    0    0    0  0.00000000000E+00  0.00000000000E+00  0.49999998884E+03  0.50000000000E+03  0.10566000000E+00 0.  1.
        994   -1    0    0    0    0 -0.00000000000E+00 -0.00000000000E+00  0.00000000000E+00  0.13100000000E+03  0.13100000000E+03 0.  0.
         13    1    1    2    0    0  0.10084846313E+02 -0.23207884083E+02  0.57300791917E+02  0.62639459825E+02  0.10566000000E+00 0. -1.
        994    1    1    2    0    0  0.15669788724E+02  0.30834924931E+02  0.92079781753E+02  0.16381703538E+03  0.13100000000E+03 0.  0.
        997    1    1    2    0    0 -0.25754635037E+02 -0.76270408480E+01  0.35061941517E+03  0.40454350479E+03  0.20000000000E+03 0.  0.
</event>
<event>
 5    1  0.6487493E-012  0.2488531E+03  0.7957747E-01  0.4345930E+00
         13   -1    0    0    0    0  0.00000000000E+00  0.00000000000E+00  0.49999998884E+03  0.50000000000E+03  0.10566000000E+00 0. -1.
        994   -1    0    0    0    0 -0.00000000000E+00 -0.00000000000E+00  0.00000000000E+00  0.13100000000E+03  0.13100000000E+03 0.  0.
         13    1    1    2    0    0  0.26772257145E+02  0.19964394205E+02  0.20765655559E+02  0.39326255904E+02  0.10566000000E+00 0.  1.
        994    1    1    2    0    0  0.29972454960E+02  0.17780260494E+02  0.19599184192E+03  0.23830293288E+03  0.13100000000E+03 0.  0.
        997    1    1    2    0    0 -0.56744712105E+02 -0.37744654698E+02  0.28324249136E+03  0.35337081122E+03  0.20000000000E+03 0.  0.
</event>
<event>
 5    1  0.6487493E-012  0.2488413E+03  0.7957747E-01  0.4346059E+00
         13   -1    0    0    0    0  0.00000000000E+00  0.00000000000E+00  0.49999998884E+03  0.50000000000E+03  0.10566000000E+00 0.  1.
        994   -1    0    0    0    0 -0.00000000000E+00 -0.00000000000E+00  0.00000000000E+00  0.13100000000E+03  0.13100000000E+03 0.  0.
         13    1    1    2    0    0 -0.64320607481E+01 -0.21185360530E+02 -0.35432442776E+00  0.22143342478E+02  0.10566000000E+00 0. -1.
        994    1    1    2    0    0 -0.23115739813E+02 -0.88305964750E+01  0.13206775776E+03  0.18765715947E+03  0.13100000000E+03 0.  0.
        997    1    1    2    0    0  0.29547800561E+02  0.30015957005E+02  0.36828655550E+03  0.42119949805E+03  0.20000000000E+03 0.  0.
</event>
<event>
 5    1  0.6487493E-012  0.2322103E+03  0.7957747E-01  0.4542392E+00
         13   -1    0    0    0    0  0.00000000000E+00  0.00000000000E+00  0.49999998884E+03  0.50000000000E+03  0.10566000000E+00 0.  1.
        994   -1    0    0    0    0 -0.00000000000E+00 -0.00000000000E+00  0.00000000000E+00  0.13100000000E+03  0.13100000000E+03 0.  0.
         13    1    1    2    0    0 -0.44986837039E+01  0.10440202547E+02  0.50096939801E+01  0.12423533398E+02  0.10566000000E+00 0. -1.
        994    1    1    2    0    0 -0.33685617543E+02 -0.46449403546E+01  0.82422826324E+02  0.15846393470E+03  0.13100000000E+03 0.  0.
        997    1    1    2    0    0  0.38184301247E+02 -0.57952621923E+01  0.41256746853E+03  0.46011253191E+03  0.20000000000E+03 0.  0.
</event>
<event>
 5    1  0.6487493E-012  0.2448844E+03  0.7957747E-01  0.4389916E+00
         13   -1    0    0    0    0  0.00000000000E+00  0.00000000000E+00  0.49999998884E+03  0.50000000000E+03  0.10566000000E+00 0. -1.
        994   -1    0    0    0    0 -0.00000000000E+00 -0.00000000000E+00  0.00000000000E+00  0.13100000000E+03  0.13100000000E+03 0.  0.
         13    1    1    2    0    0 -0.12674529826E+01 -0.20823067453E+02  0.17577534610E+01  0.20935793190E+02  0.10566000000E+00 0.  1.
        994    1    1    2    0    0 -0.19219520928E+02  0.93444525130E+01  0.10874537346E+03  0.17159039899E+03  0.13100000000E+03 0.  0.
        997    1    1    2    0    0  0.20486973911E+02  0.11478614940E+02  0.38949686191E+03  0.43847380782E+03  0.20000000000E+03 0.  0.
</event>
<event>
 5    1  0.6487493E-012  0.2425246E+03  0.7957747E-01  0.4416875E+00
         13   -1    0    0    0    0  0.00000000000E+00  0.00000000000E+00  0.49999998884E+03  0.50000000000E+03  0.10566000000E+00 0. -1.
        994   -1    0    0    0    0 -0.00000000000E+00 -0.00000000000E+00  0.00000000000E+00  0.13100000000E+03  0.13100000000E+03 0.  0.
         13    1    1    2    0    0 -0.21212138234E+02  0.10296078112E+02  0.97003865954E+01  0.25496523235E+02  0.10566000000E+00 0.  1.
        994    1    1    2    0    0  0.65323446904E+01 -0.40895702498E+01  0.94354085871E+02  0.16162638904E+03  0.13100000000E+03 0.  0.
        997    1    1    2    0    0  0.14679793543E+02 -0.62065078624E+01  0.39594551637E+03  0.44387708773E+03  0.20000000000E+03 0.  0.
</event>
<event>
 5    1  0.6487493E-012  0.2395953E+03  0.7957747E-01  0.4451213E+00
         13   -1    0    0    0    0  0.00000000000E+00  0.00000000000E+00  0.49999998884E+03  0.50000000000E+03  0.10566000000E+00 0.  1.
        994   -1    0    0    0    0 -0.00000000000E+00 -0.00000000000E+00  0.00000000000E+00  0.13100000000E+03  0.13100000000E+03 0.  0.
         13    1    1    2    0    0 -0.30276748341E+02 -0.37702562937E+00  0.46301917510E+02  0.55323614918E+02  0.10566000000E+00 0. -1.
        994    1    1    2    0    0  0.11354750956E+02  0.68107704569E+01  0.87954977071E+02  0.15834265046E+03  0.13100000000E+03 0.  0.
        997    1    1    2    0    0  0.18921997385E+02 -0.64337448275E+01  0.36574309425E+03  0.41733373462E+03  0.20000000000E+03 0.  0.
</event>
<event>
 5    1  0.6487493E-012  0.2404074E+03  0.7957747E-01  0.4441595E+00
         13   -1    0    0    0    0  0.00000000000E+00  0.00000000000E+00  0.49999998884E+03  0.50000000000E+03  0.10566000000E+00 0.  1.
        994   -1    0    0    0    0 -0.00000000000E+00 -0.00000000000E+00  0.00000000000E+00  0.13100000000E+03  0.13100000000E+03 0.  0.
         13    1    1    2    0    0 -0.14401840850E+02 -0.28279080390E+02  0.40217545674E+02  0.51230670029E+02  0.10566000000E+00 0. -1.
        994    1    1    2    0    0 -0.19451273881E+01  0.23228597483E+02  0.95291408291E+02  0.16366063594E+03  0.13100000000E+03 0.  0.
        997    1    1    2    0    0  0.16346968238E+02  0.50504829070E+01  0.36449103487E+03  0.41610869403E+03  0.20000000000E+03 0.  0.
</event>
<event>
 5    1  0.6487493E-012  0.2468994E+03  0.7957747E-01  0.4367377E+00
         13   -1    0    0    0    0  0.00000000000E+00  0.00000000000E+00  0.49999998884E+03  0.50000000000E+03  0.10566000000E+00 0. -1.
        994   -1    0    0    0    0 -0.00000000000E+00 -0.00000000000E+00  0.00000000000E+00  0.13100000000E+03  0.13100000000E+03 0.  0.
         13    1    1    2    0    0  0.16779792246E+02  0.24044254579E+02  0.16409283294E+02  0.33600049827E+02  0.10566000000E+00 0.  1.
        994    1    1    2    0    0  0.25651433830E+02  0.82215421659E+01  0.12339510540E+03  0.18196961793E+03  0.13100000000E+03 0.  0.
        997    1    1    2    0    0 -0.42431226077E+02 -0.32265796745E+02  0.36019560014E+03  0.41543033224E+03  0.20000000000E+03 0.  0.
</event>
<event>
 5    1  0.6487493E-012  0.2316207E+03  0.7957747E-01  0.4549974E+00
         13   -1    0    0    0    0  0.00000000000E+00  0.00000000000E+00  0.49999998884E+03  0.50000000000E+03  0.10566000000E+00 0. -1.
        994   -1    0    0    0    0 -0.00000000000E+00 -0.00000000000E+00  0.00000000000E+00  0.13100000000E+03  0.13100000000E+03 0.  0.
         13    1    1    2    0    0  0.14807190353E+02 -0.53855874010E+01  0.11542059316E+02  0.19531711013E+02  0.10566000000E+00 0.  1.
        994    1    1    2    0    0 -0.34089950931E+02  0.35108428394E+02  0.96178043593E+02  0.16972313504E+03  0.13100000000E+03 0.  0.
        997    1    1    2    0    0  0.19282760578E+02 -0.29722840993E+02  0.39227988593E+03  0.44174515395E+03  0.20000000000E+03 0.  0.
</event>
<event>
 5    1  0.6487493E-012  0.2488771E+03  0.7957747E-01  0.4345670E+00
         13   -1    0    0    0    0  0.00000000000E+00  0.00000000000E+00  0.49999998884E+03  0.50000000000E+03  0.10566000000E+00 0. -1.
        994   -1    0    0    0    0 -0.00000000000E+00 -0.00000000000E+00  0.00000000000E+00  0.13100000000E+03  0.13100000000E+03 0.  0.
         13    1    1    2    0    0 -0.15457596030E+02  0.25514163752E+02  0.82323187274E+01  0.30946600179E+02  0.10566000000E+00 0.  1.
        994    1    1    2    0    0 -0.26609456192E+02 -0.19667513949E+02  0.15074377567E+03  0.20243408845E+03  0.13100000000E+03 0.  0.
        997    1    1    2    0    0  0.42067052222E+02 -0.58466498030E+01  0.34102389443E+03  0.39761931137E+03  0.20000000000E+03 0.  0.
</event>
<event>
 5    1  0.6487493E-012  0.2440630E+03  0.7957747E-01  0.4399230E+00
         13   -1    0    0    0    0  0.00000000000E+00  0.00000000000E+00  0.49999998884E+03  0.50000000000E+03  0.10566000000E+00 0. -1.
        994   -1    0    0    0    0 -0.00000000000E+00 -0.00000000000E+00  0.00000000000E+00  0.13100000000E+03  0.13100000000E+03 0.  0.
         13    1    1    2    0    0  0.28600827857E+02  0.19894692499E+02  0.48578518704E+02  0.59780346162E+02  0.10566000000E+00 0.  1.
        994    1    1    2    0    0  0.13969335215E+02 -0.19164716838E+02  0.10755103078E+03  0.17114512239E+03  0.13100000000E+03 0.  0.
        997    1    1    2    0    0 -0.42570163072E+02 -0.72997566122E+00  0.34387043936E+03  0.40007453144E+03  0.20000000000E+03 0.  0.
</event>
<event>
 5    1  0.6487493E-012  0.2279283E+03  0.7957747E-01  0.4598533E+00
         13   -1    0    0    0    0  0.00000000000E+00  0.00000000000E+00  0.49999998884E+03  0.50000000000E+03  0.10566000000E+00 0. -1.
        994   -1    0    0    0    0 -0.00000000000E+00 -0.00000000000E+00  0.00000000000E+00  0.13100000000E+03  0.13100000000E+03 0.  0.
         13    1    1    2    0    0 -0.10171713252E+02  0.82873922947E+01  0.21598021127E+02  0.25271135751E+02  0.10566000000E+00 0.  1.
        994    1    1    2    0    0  0.58075823589E+02 -0.71573187867E+01  0.99466143385E+02  0.17458104759E+03  0.13100000000E+03 0.  0.
        997    1    1    2    0    0 -0.47904110338E+02 -0.11300735081E+01  0.37893582432E+03  0.43114781666E+03  0.20000000000E+03 0.  0.
</event>
<event>
 5    1  0.6487493E-012  0.2367613E+03  0.7957747E-01  0.4485400E+00
         13   -1    0    0    0    0  0.00000000000E+00  0.00000000000E+00  0.49999998884E+03  0.50000000000E+03  0.10566000000E+00 0. -1.
        994   -1    0    0    0    0 -0.00000000000E+00 -0.00000000000E+00  0.00000000000E+00  0.13100000000E+03  0.13100000000E+03 0.  0.
         13    1    1    2    0    0  0.13969997421E+02 -0.10933119927E+02  0.81472138941E+01  0.19521326737E+02  0.10566000000E+00 0.  1.
        994    1    1    2    0    0 -0.91080530351E+01  0.11221184335E+02  0.81507073263E+02  0.15496217151E+03  0.13100000000E+03 0.  0.
        997    1    1    2    0    0 -0.48619443861E+01 -0.28806440738E+00  0.41034570168E+03  0.45651650175E+03  0.20000000000E+03 0.  0.
</event>
<event>
 5    1  0.6487493E-012  0.2522088E+03  0.7957747E-01  0.4310000E+00
         13   -1    0    0    0    0  0.00000000000E+00  0.00000000000E+00  0.49999998884E+03  0.50000000000E+03  0.10566000000E+00 0. -1.
        994   -1    0    0    0    0 -0.00000000000E+00 -0.00000000000E+00  0.00000000000E+00  0.13100000000E+03  0.13100000000E+03 0.  0.
         13    1    1    2    0    0  0.69171482042E+01 -0.11941144744E+02 -0.13097021366E+02  0.19025798532E+02  0.10566000000E+00 0.  1.
        994    1    1    2    0    0  0.58753079399E+01  0.18489921896E+02  0.18649167627E+03  0.22872809572E+03  0.13100000000E+03 0.  0.
        997    1    1    2    0    0 -0.12792456144E+02 -0.65487771521E+01  0.32660533393E+03  0.38324610574E+03  0.20000000000E+03 0.  0.
</event>
<event>
 5    1  0.6487493E-012  0.2358637E+03  0.7957747E-01  0.4496432E+00
         13   -1    0    0    0    0  0.00000000000E+00  0.00000000000E+00  0.49999998884E+03  0.50000000000E+03  0.10566000000E+00 0.  1.
        994   -1    0    0    0    0 -0.00000000000E+00 -0.00000000000E+00  0.00000000000E+00  0.13100000000E+03  0.13100000000E+03 0.  0.
         13    1    1    2    0    0 -0.81656724290E+01 -0.14003148027E+02  0.70472164490E+01  0.17675994586E+02  0.10566000000E+00 0. -1.
        994    1    1    2    0    0  0.11561331232E+02  0.64316899701E+01  0.79089999519E+02  0.15359446292E+03  0.13100000000E+03 0.  0.
        997    1    1    2    0    0 -0.33956588031E+01  0.75714580570E+01  0.41386277287E+03  0.45972954249E+03  0.20000000000E+03 0.  0.
</event>
<event>
 5    1  0.6487493E-012  0.2417937E+03  0.7957747E-01  0.4425351E+00
         13   -1    0    0    0    0  0.00000000000E+00  0.00000000000E+00  0.49999998884E+03  0.50000000000E+03  0.10566000000E+00 0.  1.
        994   -1    0    0    0    0 -0.00000000000E+00 -0.00000000000E+00  0.00000000000E+00  0.13100000000E+03  0.13100000000E+03 0.  0.
         13    1    1    2    0    0 -0.12177768683E+02  0.32967535505E+02  0.81713571265E+02  0.88950971553E+02  0.10566000000E+00 0. -1.
        994    1    1    2    0    0  0.17386249892E+02 -0.28778971707E+02  0.10915060019E+03  0.17379690567E+03  0.13100000000E+03 0.  0.
        997    1    1    2    0    0 -0.52084812092E+01 -0.41885637987E+01  0.30913581738E+03  0.36825212278E+03  0.20000000000E+03 0.  0.
</event>
<event>
 5    1  0.6487493E-012  0.2326736E+03  0.7957747E-01  0.4536468E+00
         13   -1    0    0    0    0  0.00000000000E+00  0.00000000000E+00  0.49999998884E+03  0.50000000000E+03  0.10566000000E+00 0.  1.
        994   -1    0    0    0    0 -0.00000000000E+00 -0.00000000000E+00  0.00000000000E+00  0.13100000000E+03  0.13100000000E+03 0.  0.
         13    1    1    2    0    0  0.12273696755E+02  0.13185727859E+02  0.24015019778E+02  0.30020649397E+02  0.10566000000E+00 0. -1.
        994    1    1    2    0    0 -0.68692050193E+01 -0.14655688084E+01  0.71122878624E+02  0.14922733574E+03  0.13100000000E+03 0.  0.
        997    1    1    2    0    0 -0.54044917359E+01 -0.11720159050E+02  0.40486209043E+03  0.45175201486E+03  0.20000000000E+03 0.  0.
</event>
<event>
 5    1  0.6487493E-012  0.2505702E+03  0.7957747E-01  0.4327405E+00
         13   -1    0    0    0    0  0.00000000000E+00  0.00000000000E+00  0.49999998884E+03  0.50000000000E+03  0.10566000000E+00 0. -1.
        994   -1    0    0    0    0 -0.00000000000E+00 -0.00000000000E+00  0.00000000000E+00  0.13100000000E+03  0.13100000000E+03 0.  0.
         13    1    1    2    0    0  0.24491988852E+02  0.22944937047E+02  0.15610056871E+02  0.37013682518E+02  0.10566000000E+00 0.  1.
        994    1    1    2    0    0 -0.14251450444E+01  0.10040966529E+02  0.12857848091E+03  0.18383763978E+03  0.13100000000E+03 0.  0.
        997    1    1    2    0    0 -0.23066843808E+02 -0.32985903576E+02  0.35581145105E+03  0.41014867770E+03  0.20000000000E+03 0.  0.
</event>
<event>
 5    1  0.6487493E-012  0.2330309E+03  0.7957747E-01  0.4531918E+00
         13   -1    0    0    0    0  0.00000000000E+00  0.00000000000E+00  0.49999998884E+03  0.50000000000E+03  0.10566000000E+00 0.  1.
        994   -1    0    0    0    0 -0.00000000000E+00 -0.00000000000E+00  0.00000000000E+00  0.13100000000E+03  0.13100000000E+03 0.  0.
         13    1    1    2    0    0 -0.15092329696E+01 -0.13644610658E+02  0.86625680703E+01  0.16232819650E+02  0.10566000000E+00 0. -1.
        994    1    1    2    0    0 -0.61621363277E+02 -0.16974717114E+02  0.12730360503E+03  0.19352659064E+03  0.13100000000E+03 0.  0.
        997    1    1    2    0    0  0.63130596246E+02  0.30619327772E+02  0.36403381574E+03  0.42124058971E+03  0.20000000000E+03 0.  0.
</event>
<event>
 5    1  0.6487493E-012  0.2344699E+03  0.7957747E-01  0.4513764E+00
         13   -1    0    0    0    0  0.00000000000E+00  0.00000000000E+00  0.49999998884E+03  0.50000000000E+03  0.10566000000E+00 0.  1.
        994   -1    0    0    0    0 -0.00000000000E+00 -0.00000000000E+00  0.00000000000E+00  0.13100000000E+03  0.13100000000E+03 0.  0.
         13    1    1    2    0    0 -0.30996541865E+01 -0.19165011161E+02  0.15100462035E+02  0.24595540786E+02  0.10566000000E+00 0. -1.
        994    1    1    2    0    0  0.61819496677E+02  0.10158930265E+02  0.13092022638E+03  0.19551460229E+03  0.13100000000E+03 0.  0.
        997    1    1    2    0    0 -0.58719842491E+02  0.90060808961E+01  0.35397930042E+03  0.41088985692E+03  0.20000000000E+03 0.  0.
</event>
<event>
 5    1  0.6487493E-012  0.2299741E+03  0.7957747E-01  0.4571395E+00
         13   -1    0    0    0    0  0.00000000000E+00  0.00000000000E+00  0.49999998884E+03  0.50000000000E+03  0.10566000000E+00 0. -1.
        994   -1    0    0    0    0 -0.00000000000E+00 -0.00000000000E+00  0.00000000000E+00  0.13100000000E+03  0.13100000000E+03 0.  0.
         13    1    1    2    0    0 -0.65706017158E+01  0.78249842597E+01  0.15230156289E+02  0.18340447382E+02  0.10566000000E+00 0.  1.
        994    1    1    2    0    0 -0.25012066076E+02  0.54547622081E+02  0.29465452800E+03  0.32799898993E+03  0.13100000000E+03 0.  0.
        997    1    1    2    0    0  0.31582667792E+02 -0.62372606340E+02  0.19011530455E+03  0.28466056269E+03  0.20000000000E+03 0.  0.
</event>
<event>
 5    1  0.6487493E-012  0.2304271E+03  0.7957747E-01  0.4565465E+00
         13   -1    0    0    0    0  0.00000000000E+00  0.00000000000E+00  0.49999998884E+03  0.50000000000E+03  0.10566000000E+00 0.  1.
        994   -1    0    0    0    0 -0.00000000000E+00 -0.00000000000E+00  0.00000000000E+00  0.13100000000E+03  0.13100000000E+03 0.  0.
         13    1    1    2    0    0  0.97627363545E+01 -0.91927215852E+01  0.25115480529E+02  0.28471313238E+02  0.10566000000E+00 0. -1.
        994    1    1    2    0    0  0.42213303834E+02  0.18561846052E+02  0.89742619204E+02  0.16535187586E+03  0.13100000000E+03 0.  0.
        997    1    1    2    0    0 -0.51976040188E+02 -0.93691244669E+01  0.38514188910E+03  0.43717681090E+03  0.20000000000E+03 0.  0.
</event>
<event>
 5    1  0.6487493E-012  0.2354487E+03  0.7957747E-01  0.4501567E+00
         13   -1    0    0    0    0  0.00000000000E+00  0.00000000000E+00  0.49999998884E+03  0.50000000000E+03  0.10566000000E+00 0.  1.
        994   -1    0    0    0    0 -0.00000000000E+00 -0.00000000000E+00  0.00000000000E+00  0.13100000000E+03  0.13100000000E+03 0.  0.
         13    1    1    2    0    0 -0.33283500672E+01 -0.13092479322E+02  0.22989011819E+01  0.13703541135E+02  0.10566000000E+00 0. -1.
        994    1    1    2    0    0 -0.21516447243E+02  0.30185222011E+02  0.93027266689E+02  0.16489141117E+03  0.13100000000E+03 0.  0.
        997    1    1    2    0    0  0.24844797311E+02 -0.17092742689E+02  0.40467382096E+03  0.45240504770E+03  0.20000000000E+03 0.  0.
</event>
<event>
 5    1  0.6487493E-012  0.2331585E+03  0.7957747E-01  0.4530298E+00
         13   -1    0    0    0    0  0.00000000000E+00  0.00000000000E+00  0.49999998884E+03  0.50000000000E+03  0.10566000000E+00 0. -1.
        994   -1    0    0    0    0 -0.00000000000E+00 -0.00000000000E+00  0.00000000000E+00  0.13100000000E+03  0.13100000000E+03 0.  0.
         13    1    1    2    0    0 -0.93737413092E+01  0.11699980393E+02  0.11594538200E+02  0.18952600018E+02  0.10566000000E+00 0.  1.
        994    1    1    2    0    0 -0.43564714993E+02 -0.19672189517E+02  0.98981343384E+02  0.17100639102E+03  0.13100000000E+03 0.  0.
        997    1    1    2    0    0  0.52938456302E+02  0.79722091232E+01  0.38942410725E+03  0.44104100896E+03  0.20000000000E+03 0.  0.
</event>
<event>
 5    1  0.6487493E-012  0.2443361E+03  0.7957747E-01  0.4396125E+00
         13   -1    0    0    0    0  0.00000000000E+00  0.00000000000E+00  0.49999998884E+03  0.50000000000E+03  0.10566000000E+00 0. -1.
        994   -1    0    0    0    0 -0.00000000000E+00 -0.00000000000E+00  0.00000000000E+00  0.13100000000E+03  0.13100000000E+03 0.  0.
         13    1    1    2    0    0 -0.54591633718E+01  0.27571657400E+02  0.10888305619E+02  0.30142413967E+02  0.10566000000E+00 0.  1.
        994    1    1    2    0    0 -0.47734525118E+02 -0.16829892005E+02  0.17222609474E+03  0.22222659126E+03  0.13100000000E+03 0.  0.
        997    1    1    2    0    0  0.53193688490E+02 -0.10741765395E+02  0.31688558848E+03  0.37863099477E+03  0.20000000000E+03 0.  0.
</event>
<event>
 5    1  0.6487493E-012  0.2363533E+03  0.7957747E-01  0.4490401E+00
         13   -1    0    0    0    0  0.00000000000E+00  0.00000000000E+00  0.49999998884E+03  0.50000000000E+03  0.10566000000E+00 0.  1.
        994   -1    0    0    0    0 -0.00000000000E+00 -0.00000000000E+00  0.00000000000E+00  0.13100000000E+03  0.13100000000E+03 0.  0.
         13    1    1    2    0    0 -0.27812502140E+02  0.27259351563E+00  0.64831909349E+02  0.70546418877E+02  0.10566000000E+00 0. -1.
        994    1    1    2    0    0  0.43379064571E+02 -0.21714233128E+02  0.11008837062E+03  0.17785865318E+03  0.13100000000E+03 0.  0.
        997    1    1    2    0    0 -0.15566562431E+02  0.21441639612E+02  0.32507970886E+03  0.38259492795E+03  0.20000000000E+03 0.  0.
</event>
<event>
 5    1  0.6487493E-012  0.2279197E+03  0.7957747E-01  0.4598649E+00
         13   -1    0    0    0    0  0.00000000000E+00  0.00000000000E+00  0.49999998884E+03  0.50000000000E+03  0.10566000000E+00 0. -1.
        994   -1    0    0    0    0 -0.00000000000E+00 -0.00000000000E+00  0.00000000000E+00  0.13100000000E+03  0.13100000000E+03 0.  0.
         13    1    1    2    0    0  0.96322653092E+01  0.33274662421E+01  0.29146371075E+02  0.30876765981E+02  0.10566000000E+00 0.  1.
        994    1    1    2    0    0  0.17665174513E+01 -0.10731144218E+02  0.63214428305E+02  0.14586069377E+03  0.13100000000E+03 0.  0.
        997    1    1    2    0    0 -0.11398782761E+02  0.74036779759E+01  0.40763918946E+03  0.45426254025E+03  0.20000000000E+03 0.  0.
</event>
<event>
 5    1  0.6487493E-012  0.2368982E+03  0.7957747E-01  0.4483726E+00
         13   -1    0    0    0    0  0.00000000000E+00  0.00000000000E+00  0.49999998884E+03  0.50000000000E+03  0.10566000000E+00 0.  1.
        994   -1    0    0    0    0 -0.00000000000E+00 -0.00000000000E+00  0.00000000000E+00  0.13100000000E+03  0.13100000000E+03 0.  0.
         13    1    1    2    0    0 -0.23144751739E+02 -0.73957294828E+01  0.18962425941E+02  0.30821439117E+02  0.10566000000E+00 0. -1.
        994    1    1    2    0    0  0.41853741666E+02 -0.43331031292E+01  0.10281407806E+03  0.17176217896E+03  0.13100000000E+03 0.  0.
        997    1    1    2    0    0 -0.18708989927E+02  0.11728832612E+02  0.37822348483E+03  0.42841638192E+03  0.20000000000E+03 0.  0.
</event>
<event>
 5    1  0.6487493E-012  0.2398712E+03  0.7957747E-01  0.4447937E+00
         13   -1    0    0    0    0  0.00000000000E+00  0.00000000000E+00  0.49999998884E+03  0.50000000000E+03  0.10566000000E+00 0.  1.
        994   -1    0    0    0    0 -0.00000000000E+00 -0.00000000000E+00  0.00000000000E+00  0.13100000000E+03  0.13100000000E+03 0.  0.
         13    1    1    2    0    0 -0.84387313870E+01  0.17373853381E+02  0.51032515926E+01  0.19977920552E+02  0.10566000000E+00 0. -1.
        994    1    1    2    0    0 -0.19721521221E+02 -0.29095438356E+02  0.10415382508E+03  0.17101024008E+03  0.13100000000E+03 0.  0.
        997    1    1    2    0    0  0.28160252608E+02  0.11721584975E+02  0.39074291216E+03  0.44001183937E+03  0.20000000000E+03 0.  0.
</event>
<event>
 5    1  0.1124729E-011  0.2404516E+03  0.7957747E-01  0.4441073E+00
         13   -1    0    0    0    0  0.00000000000E+00  0.00000000000E+00  0.49999998884E+03  0.50000000000E+03  0.10566000000E+00 0.  1.
        994   -1    0    0    0    0 -0.00000000000E+00 -0.00000000000E+00  0.00000000000E+00  0.13100000000E+03  0.13100000000E+03 0.  0.
         13    1    1    2    0    0  0.13173949007E+02  0.34210720766E+01 -0.29917477462E+01  0.13936225644E+02  0.10566000000E+00 0. -1.
        994    1    1    2    0    0 -0.36008287703E+02  0.20017798416E+02  0.11412721719E+03  0.17855903993E+03  0.13100000000E+03 0.  0.
        997    1    1    2    0    0  0.22834338695E+02 -0.23438870492E+02  0.38886451939E+03  0.43850473442E+03  0.20000000000E+03 0.  0.
</event>
<event>
 5    1  0.6487493E-012  0.2353568E+03  0.7957747E-01  0.4502706E+00
         13   -1    0    0    0    0  0.00000000000E+00  0.00000000000E+00  0.49999998884E+03  0.50000000000E+03  0.10566000000E+00 0.  1.
        994   -1    0    0    0    0 -0.00000000000E+00 -0.00000000000E+00  0.00000000000E+00  0.13100000000E+03  0.13100000000E+03 0.  0.
         13    1    1    2    0    0  0.20628685458E+02 -0.10970564502E+02  0.42146562492E+02  0.48189623813E+02  0.10566000000E+00 0. -1.
        994    1    1    2    0    0 -0.21474892024E+01  0.96808066027E+01  0.77103339872E+02  0.15232942836E+03  0.13100000000E+03 0.  0.
        997    1    1    2    0    0 -0.18481196256E+02  0.12897578996E+01  0.38075008647E+03  0.43048094782E+03  0.20000000000E+03 0.  0.
</event>
<event>
 5    1  0.6487493E-012  0.2338228E+03  0.7957747E-01  0.4521894E+00
         13   -1    0    0    0    0  0.00000000000E+00  0.00000000000E+00  0.49999998884E+03  0.50000000000E+03  0.10566000000E+00 0.  1.
        994   -1    0    0    0    0 -0.00000000000E+00 -0.00000000000E+00  0.00000000000E+00  0.13100000000E+03  0.13100000000E+03 0.  0.
         13    1    1    2    0    0 -0.29437614662E+01  0.13514085548E+02  0.73787728423E+02  0.75072873061E+02  0.10566000000E+00 0. -1.
        994    1    1    2    0    0 -0.16820164702E+02 -0.18070333722E+02  0.79669908131E+02  0.15529890265E+03  0.13100000000E+03 0.  0.
        997    1    1    2    0    0  0.19763926169E+02  0.45562481735E+01  0.34654235228E+03  0.40062822429E+03  0.20000000000E+03 0.  0.
</event>
<event>
 5    1  0.6487493E-012  0.2469567E+03  0.7957747E-01  0.4366742E+00
         13   -1    0    0    0    0  0.00000000000E+00  0.00000000000E+00  0.49999998884E+03  0.50000000000E+03  0.10566000000E+00 0.  1.
        994   -1    0    0    0    0 -0.00000000000E+00 -0.00000000000E+00  0.00000000000E+00  0.13100000000E+03  0.13100000000E+03 0.  0.
         13    1    1    2    0    0 -0.38974402085E+01 -0.36521125751E+02  0.10594715865E+03  0.11213293118E+03  0.10566000000E+00 0. -1.
        994    1    1    2    0    0  0.82106986983E+01  0.21860177476E+02  0.11949679092E+03  0.17884564846E+03  0.13100000000E+03 0.  0.
        997    1    1    2    0    0 -0.43132584898E+01  0.14660948274E+02  0.27455603927E+03  0.34002142036E+03  0.20000000000E+03 0.  0.
</event>
<event>
 5    1  0.6487493E-012  0.2351168E+03  0.7957747E-01  0.4505688E+00
         13   -1    0    0    0    0  0.00000000000E+00  0.00000000000E+00  0.49999998884E+03  0.50000000000E+03  0.10566000000E+00 0.  1.
        994   -1    0    0    0    0 -0.00000000000E+00 -0.00000000000E+00  0.00000000000E+00  0.13100000000E+03  0.13100000000E+03 0.  0.
         13    1    1    2    0    0  0.37719034389E+01 -0.10066283067E+02 -0.26829576815E+00  0.10753625295E+02  0.10566000000E+00 0. -1.
        994    1    1    2    0    0  0.30271636199E+02  0.23069547031E+02  0.93128846899E+02  0.16517432634E+03  0.13100000000E+03 0.  0.
        997    1    1    2    0    0 -0.34043539638E+02 -0.13003263964E+02  0.40713943771E+03  0.45507204836E+03  0.20000000000E+03 0.  0.
</event>
<event>
 5    1  0.6487493E-012  0.2468928E+03  0.7957747E-01  0.4367450E+00
         13   -1    0    0    0    0  0.00000000000E+00  0.00000000000E+00  0.49999998884E+03  0.50000000000E+03  0.10566000000E+00 0.  1.
        994   -1    0    0    0    0 -0.00000000000E+00 -0.00000000000E+00  0.00000000000E+00  0.13100000000E+03  0.13100000000E+03 0.  0.
         13    1    1    2    0    0  0.30114521644E+02 -0.32238882710E+02  0.40327469142E+02  0.59770778008E+02  0.10566000000E+00 0. -1.
        994    1    1    2    0    0 -0.17219246272E+02  0.26850304542E+02  0.22770530682E+03  0.26462832057E+03  0.13100000000E+03 0.  0.
        997    1    1    2    0    0 -0.12895275372E+02  0.53885781678E+01  0.23196721287E+03  0.30660090142E+03  0.20000000000E+03 0.  0.
</event>
<event>
 5    1  0.6487493E-012  0.2383859E+03  0.7957747E-01  0.4465684E+00
         13   -1    0    0    0    0  0.00000000000E+00  0.00000000000E+00  0.49999998884E+03  0.50000000000E+03  0.10566000000E+00 0.  1.
        994   -1    0    0    0    0 -0.00000000000E+00 -0.00000000000E+00  0.00000000000E+00  0.13100000000E+03  0.13100000000E+03 0.  0.
         13    1    1    2    0    0  0.20478841897E+02 -0.78637574052E+00  0.14830638660E+02  0.25297437802E+02  0.10566000000E+00 0. -1.
        994    1    1    2    0    0  0.31698594599E+02  0.40602546830E+02  0.12361124910E+03  0.18733421634E+03  0.13100000000E+03 0.  0.
        997    1    1    2    0    0 -0.52177436496E+02 -0.39816171089E+02  0.36155810108E+03  0.41836834586E+03  0.20000000000E+03 0.  0.
</event>
<event>
 5    1  0.6487493E-012  0.2395567E+03  0.7957747E-01  0.4451672E+00
         13   -1    0    0    0    0  0.00000000000E+00  0.00000000000E+00  0.49999998884E+03  0.50000000000E+03  0.10566000000E+00 0.  1.
        994   -1    0    0    0    0 -0.00000000000E+00 -0.00000000000E+00  0.00000000000E+00  0.13100000000E+03  0.13100000000E+03 0.  0.
         13    1    1    2    0    0  0.33401659428E+02  0.78257518791E+01  0.50769715842E+02  0.61273880698E+02  0.10566000000E+00 0. -1.
        994    1    1    2    0    0 -0.33106016847E+02 -0.41811747737E+02  0.13385197564E+03  0.19473464505E+03  0.13100000000E+03 0.  0.
        997    1    1    2    0    0 -0.29564258151E+00  0.33985995858E+02  0.31537829736E+03  0.37499147425E+03  0.20000000000E+03 0.  0.
</event>
<event>
 5    1  0.6487493E-012  0.2514219E+03  0.7957747E-01  0.4318326E+00
         13   -1    0    0    0    0  0.00000000000E+00  0.00000000000E+00  0.49999998884E+03  0.50000000000E+03  0.10566000000E+00 0. -1.
        994   -1    0    0    0    0 -0.00000000000E+00 -0.00000000000E+00  0.00000000000E+00  0.13100000000E+03  0.13100000000E+03 0.  0.
         13    1    1    2    0    0 -0.27897792550E+02  0.36271880449E+02  0.67647708307E+02  0.81671045933E+02  0.10566000000E+00 0.  1.
        994    1    1    2    0    0  0.17154132539E+02  0.74820583936E+01  0.14455945489E+03  0.19598132936E+03  0.13100000000E+03 0.  0.
        997    1    1    2    0    0  0.10743660010E+02 -0.43753938843E+02  0.28779282564E+03  0.35334762471E+03  0.20000000000E+03 0.  0.
</event>
<event>
 5    1  0.6487493E-012  0.2468830E+03  0.7957747E-01  0.4367559E+00
         13   -1    0    0    0    0  0.00000000000E+00  0.00000000000E+00  0.49999998884E+03  0.50000000000E+03  0.10566000000E+00 0.  1.
        994   -1    0    0    0    0 -0.00000000000E+00 -0.00000000000E+00  0.00000000000E+00  0.13100000000E+03  0.13100000000E+03 0.  0.
         13    1    1    2    0    0 -0.12551869331E+02 -0.30187206980E+02  0.10249335327E+02  0.34261887391E+02  0.10566000000E+00 0. -1.
        994    1    1    2    0    0  0.11747949235E+02  0.40317738204E+02  0.16069660154E+03  0.21153707020E+03  0.13100000000E+03 0.  0.
        997    1    1    2    0    0  0.80392009535E+00 -0.10130531224E+02  0.32905405197E+03  0.38520104240E+03  0.20000000000E+03 0.  0.
</event>
<event>
 5    1  0.6487493E-012  0.2353832E+03  0.7957747E-01  0.4502379E+00
         13   -1    0    0    0    0  0.00000000000E+00  0.00000000000E+00  0.49999998884E+03  0.50000000000E+03  0.10566000000E+00 0.  1.
        994   -1    0    0    0    0 -0.00000000000E+00 -0.00000000000E+00  0.00000000000E+00  0.13100000000E+03  0.13100000000E+03 0.  0.
         13    1    1    2    0    0 -0.19500087049E+02  0.30902610397E+01  0.16372008692E+02  0.25648722012E+02  0.10566000000E+00 0. -1.
        994    1    1    2    0    0  0.11099456184E+02 -0.94524743549E+01  0.78477729724E+02  0.15340241609E+03  0.13100000000E+03 0.  0.
        997    1    1    2    0    0  0.84006308655E+01  0.63622133151E+01  0.40515025042E+03  0.45194886190E+03  0.20000000000E+03 0.  0.
</event>
<event>
 5    1  0.6487493E-012  0.2403851E+03  0.7957747E-01  0.4441857E+00
         13   -1    0    0    0    0  0.00000000000E+00  0.00000000000E+00  0.49999998884E+03  0.50000000000E+03  0.10566000000E+00 0.  1.
        994   -1    0    0    0    0 -0.00000000000E+00 -0.00000000000E+00  0.00000000000E+00  0.13100000000E+03  0.13100000000E+03 0.  0.
         13    1    1    2    0    0 -0.21411853976E+02 -0.14378194531E+02  0.19345370304E+02  0.32240572031E+02  0.10566000000E+00 0. -1.
        994    1    1    2    0    0 -0.10954673554E+02  0.28415792674E+02  0.10098474064E+03  0.16818555226E+03  0.13100000000E+03 0.  0.
        997    1    1    2    0    0  0.32366527530E+02 -0.14037598143E+02  0.37966987790E+03  0.43057387571E+03  0.20000000000E+03 0.  0.
</event>
<event>
 5    1  0.6487493E-012  0.2465104E+03  0.7957747E-01  0.4371694E+00
         13   -1    0    0    0    0  0.00000000000E+00  0.00000000000E+00  0.49999998884E+03  0.50000000000E+03  0.10566000000E+00 0. -1.
        994   -1    0    0    0    0 -0.00000000000E+00 -0.00000000000E+00  0.00000000000E+00  0.13100000000E+03  0.13100000000E+03 0.  0.
         13    1    1    2    0    0 -0.38869654006E+02  0.19277188329E+01  0.54348713171E+02  0.66845791863E+02  0.10566000000E+00 0.  1.
        994    1    1    2    0    0  0.72187114401E+01  0.42634052474E+02  0.16141742791E+03  0.21233548516E+03  0.13100000000E+03 0.  0.
        997    1    1    2    0    0  0.31650942566E+02 -0.44561771307E+02  0.28423384775E+03  0.35181872297E+03  0.20000000000E+03 0.  0.
</event>
<event>
 5    1  0.6487493E-012  0.2335809E+03  0.7957747E-01  0.4524947E+00
         13   -1    0    0    0    0  0.00000000000E+00  0.00000000000E+00  0.49999998884E+03  0.50000000000E+03  0.10566000000E+00 0. -1.
        994   -1    0    0    0    0 -0.00000000000E+00 -0.00000000000E+00  0.00000000000E+00  0.13100000000E+03  0.13100000000E+03 0.  0.
         13    1    1    2    0    0 -0.44971035574E+01  0.11022974417E+02  0.48116319881E+01  0.12841061943E+02  0.10566000000E+00 0.  1.
        994    1    1    2    0    0 -0.51601987433E+01  0.28388369680E+02  0.81724746536E+02  0.15707470000E+03  0.13100000000E+03 0.  0.
        997    1    1    2    0    0  0.96573023007E+01 -0.39411344097E+02  0.41346361031E+03  0.46108423806E+03  0.20000000000E+03 0.  0.
</event>
<event>
 5    1  0.6487493E-012  0.2313051E+03  0.7957747E-01  0.4554051E+00
         13   -1    0    0    0    0  0.00000000000E+00  0.00000000000E+00  0.49999998884E+03  0.50000000000E+03  0.10566000000E+00 0. -1.
        994   -1    0    0    0    0 -0.00000000000E+00 -0.00000000000E+00  0.00000000000E+00  0.13100000000E+03  0.13100000000E+03 0.  0.
         13    1    1    2    0    0 -0.13997001863E+02 -0.66265435390E+01  0.38801609970E+02  0.41778023418E+02  0.10566000000E+00 0.  1.
        994    1    1    2    0    0  0.58439962287E+01 -0.22490427495E+02  0.73667608807E+02  0.15207855933E+03  0.13100000000E+03 0.  0.
        997    1    1    2    0    0  0.81530056345E+01  0.29116971034E+02  0.38753077006E+03  0.43714341725E+03  0.20000000000E+03 0.  0.
</event>
<event>
 5    1  0.6487493E-012  0.2443700E+03  0.7957747E-01  0.4395741E+00
         13   -1    0    0    0    0  0.00000000000E+00  0.00000000000E+00  0.49999998884E+03  0.50000000000E+03  0.10566000000E+00 0.  1.
        994   -1    0    0    0    0 -0.00000000000E+00 -0.00000000000E+00  0.00000000000E+00  0.13100000000E+03  0.13100000000E+03 0.  0.
         13    1    1    2    0    0  0.14363988672E+02  0.25941516030E+02  0.51562193925E+01  0.30097910010E+02  0.10566000000E+00 0. -1.
        994    1    1    2    0    0 -0.38781428019E+02 -0.25646533940E+02  0.21658875058E+03  0.25735856453E+03  0.13100000000E+03 0.  0.
        997    1    1    2    0    0  0.24417439347E+02 -0.29498208979E+00  0.27825501887E+03  0.34354352546E+03  0.20000000000E+03 0.  0.
</event>
<event>
 5    1  0.6487493E-012  0.2463122E+03  0.7957747E-01  0.4373900E+00
         13   -1    0    0    0    0  0.00000000000E+00  0.00000000000E+00  0.49999998884E+03  0.50000000000E+03  0.10566000000E+00 0.  1.
        994   -1    0    0    0    0 -0.00000000000E+00 -0.00000000000E+00  0.00000000000E+00  0.13100000000E+03  0.13100000000E+03 0.  0.
         13    1    1    2    0    0 -0.21367774959E+02 -0.34973992597E+02  0.36749105091E+02  0.55047886916E+02  0.10566000000E+00 0. -1.
        994    1    1    2    0    0  0.34806643666E+02  0.26026009852E+01  0.22732962870E+03  0.26468478623E+03  0.13100000000E+03 0.  0.
        997    1    1    2    0    0 -0.13438868707E+02  0.32371391612E+02  0.23592125505E+03  0.31126732686E+03  0.20000000000E+03 0.  0.
</event>
<event>
 5    1  0.6487493E-012  0.2523644E+03  0.7957747E-01  0.4308361E+00
         13   -1    0    0    0    0  0.00000000000E+00  0.00000000000E+00  0.49999998884E+03  0.50000000000E+03  0.10566000000E+00 0.  1.
        994   -1    0    0    0    0 -0.00000000000E+00 -0.00000000000E+00  0.00000000000E+00  0.13100000000E+03  0.13100000000E+03 0.  0.
         13    1    1    2    0    0  0.43487661219E+02 -0.13672002583E+01  0.41786642926E+02  0.60325621471E+02  0.10566000000E+00 0. -1.
        994    1    1    2    0    0  0.91236271113E+01  0.18032396872E+02  0.17075807196E+03  0.21616597107E+03  0.13100000000E+03 0.  0.
        997    1    1    2    0    0 -0.52611288331E+02 -0.16665196613E+02  0.28745527395E+03  0.35450840746E+03  0.20000000000E+03 0.  0.
</event>
<event>
 5    1  0.6487493E-012  0.2389054E+03  0.7957747E-01  0.4459447E+00
         13   -1    0    0    0    0  0.00000000000E+00  0.00000000000E+00  0.49999998884E+03  0.50000000000E+03  0.10566000000E+00 0. -1.
        994   -1    0    0    0    0 -0.00000000000E+00 -0.00000000000E+00  0.00000000000E+00  0.13100000000E+03  0.13100000000E+03 0.  0.
         13    1    1    2    0    0  0.15892476243E+02 -0.55847355877E+01  0.22977859904E+01  0.17001501617E+02  0.10566000000E+00 0.  1.
        994    1    1    2    0    0 -0.32706774110E+02 -0.29567045227E+01  0.98689627068E+02  0.16726959576E+03  0.13100000000E+03 0.  0.
        997    1    1    2    0    0  0.16814297867E+02  0.85414401105E+01  0.39901257578E+03  0.44672890262E+03  0.20000000000E+03 0.  0.
</event>
<event>
 5    1  0.6487493E-012  0.2400799E+03  0.7957747E-01  0.4445465E+00
         13   -1    0    0    0    0  0.00000000000E+00  0.00000000000E+00  0.49999998884E+03  0.50000000000E+03  0.10566000000E+00 0.  1.
        994   -1    0    0    0    0 -0.00000000000E+00 -0.00000000000E+00  0.00000000000E+00  0.13100000000E+03  0.13100000000E+03 0.  0.
         13    1    1    2    0    0  0.17530951005E+02 -0.29048106385E+01  0.40419111707E+01  0.18224170157E+02  0.10566000000E+00 0. -1.
        994    1    1    2    0    0 -0.31367022304E+00  0.10996954280E+02  0.88482545599E+02  0.15846511373E+03  0.13100000000E+03 0.  0.
        997    1    1    2    0    0 -0.17217280782E+02 -0.80921436414E+01  0.40747553207E+03  0.45431071612E+03  0.20000000000E+03 0.  0.
</event>
<event>
 5    1  0.6487493E-012  0.2493397E+03  0.7957747E-01  0.4340651E+00
         13   -1    0    0    0    0  0.00000000000E+00  0.00000000000E+00  0.49999998884E+03  0.50000000000E+03  0.10566000000E+00 0.  1.
        994   -1    0    0    0    0 -0.00000000000E+00 -0.00000000000E+00  0.00000000000E+00  0.13100000000E+03  0.13100000000E+03 0.  0.
         13    1    1    2    0    0 -0.35613532067E+02  0.79229858987E+01  0.19241523950E+02  0.41247360883E+02  0.10566000000E+00 0. -1.
        994    1    1    2    0    0  0.15471957191E+02 -0.18985470235E+02  0.13528198871E+03  0.18990009481E+03  0.13100000000E+03 0.  0.
        997    1    1    2    0    0  0.20141574876E+02  0.11062484337E+02  0.34547647618E+03  0.39985254431E+03  0.20000000000E+03 0.  0.
</event>
<event>
 5    1  0.6487493E-012  0.2341748E+03  0.7957747E-01  0.4517464E+00
         13   -1    0    0    0    0  0.00000000000E+00  0.00000000000E+00  0.49999998884E+03  0.50000000000E+03  0.10566000000E+00 0.  1.
        994   -1    0    0    0    0 -0.00000000000E+00 -0.00000000000E+00  0.00000000000E+00  0.13100000000E+03  0.13100000000E+03 0.  0.
         13    1    1    2    0    0  0.10276857718E+02  0.44382871760E+01  0.18620093502E+01  0.11348587598E+02  0.10566000000E+00 0. -1.
        994    1    1    2    0    0 -0.14044097160E+01 -0.20672256757E+01  0.73619815309E+02  0.15029012940E+03  0.13100000000E+03 0.  0.
        997    1    1    2    0    0 -0.88724480021E+01 -0.23710615003E+01  0.42451816418E+03  0.46936128300E+03  0.20000000000E+03 0.  0.
</event>
<event>
 5    1  0.6487493E-012  0.2416219E+03  0.7957747E-01  0.4427351E+00
         13   -1    0    0    0    0  0.00000000000E+00  0.00000000000E+00  0.49999998884E+03  0.50000000000E+03  0.10566000000E+00 0. -1.
        994   -1    0    0    0    0 -0.00000000000E+00 -0.00000000000E+00  0.00000000000E+00  0.13100000000E+03  0.13100000000E+03 0.  0.
         13    1    1    2    0    0  0.72748520668E+01  0.39545698911E+02  0.46719374903E+02  0.61640059461E+02  0.10566000000E+00 0.  1.
        994    1    1    2    0    0  0.31350920851E+01 -0.56125476720E+02  0.21003744760E+03  0.25384370651E+03  0.13100000000E+03 0.  0.
        997    1    1    2    0    0 -0.10409944152E+02  0.16579777809E+02  0.24324316633E+03  0.31551623403E+03  0.20000000000E+03 0.  0.
</event>
<event>
 5    1  0.6487493E-012  0.2317555E+03  0.7957747E-01  0.4548236E+00
         13   -1    0    0    0    0  0.00000000000E+00  0.00000000000E+00  0.49999998884E+03  0.50000000000E+03  0.10566000000E+00 0. -1.
        994   -1    0    0    0    0 -0.00000000000E+00 -0.00000000000E+00  0.00000000000E+00  0.13100000000E+03  0.13100000000E+03 0.  0.
         13    1    1    2    0    0 -0.76785478115E+01 -0.13706035295E+02  0.16111162523E+02  0.22503249141E+02  0.10566000000E+00 0.  1.
        994    1    1    2    0    0 -0.48581623816E+01  0.18050945837E+02  0.72524881115E+02  0.15089829942E+03  0.13100000000E+03 0.  0.
        997    1    1    2    0    0  0.12536710193E+02 -0.43449105416E+01  0.41136394520E+03  0.45759845144E+03  0.20000000000E+03 0.  0.
</event>
<event>
 5    1  0.6487493E-012  0.2395722E+03  0.7957747E-01  0.4451488E+00
         13   -1    0    0    0    0  0.00000000000E+00  0.00000000000E+00  0.49999998884E+03  0.50000000000E+03  0.10566000000E+00 0. -1.
        994   -1    0    0    0    0 -0.00000000000E+00 -0.00000000000E+00  0.00000000000E+00  0.13100000000E+03  0.13100000000E+03 0.  0.
         13    1    1    2    0    0 -0.18984201120E+02  0.13513512423E+02  0.12311540543E+02  0.26355267116E+02  0.10566000000E+00 0.  1.
        994    1    1    2    0    0 -0.34385860204E+02 -0.50296863431E+02  0.16278168363E+03  0.21764888784E+03  0.13100000000E+03 0.  0.
        997    1    1    2    0    0  0.53370061324E+02  0.36783351008E+02  0.32490676466E+03  0.38699584504E+03  0.20000000000E+03 0.  0.
</event>
<event>
 5    1  0.6487493E-012  0.2477348E+03  0.7957747E-01  0.4358158E+00
         13   -1    0    0    0    0  0.00000000000E+00  0.00000000000E+00  0.49999998884E+03  0.50000000000E+03  0.10566000000E+00 0.  1.
        994   -1    0    0    0    0 -0.00000000000E+00 -0.00000000000E+00  0.00000000000E+00  0.13100000000E+03  0.13100000000E+03 0.  0.
         13    1    1    2    0    0 -0.30140090830E+02  0.22038511689E+02  0.31598732410E+02  0.48914334572E+02  0.10566000000E+00 0. -1.
        994    1    1    2    0    0  0.44778816334E+01 -0.77300294553E+01  0.11307415400E+03  0.17328176212E+03  0.13100000000E+03 0.  0.
        997    1    1    2    0    0  0.25662209196E+02 -0.14308482233E+02  0.35532710243E+03  0.40880390331E+03  0.20000000000E+03 0.  0.
</event>
<event>
 5    1  0.6487493E-012  0.2356482E+03  0.7957747E-01  0.4499096E+00
         13   -1    0    0    0    0  0.00000000000E+00  0.00000000000E+00  0.49999998884E+03  0.50000000000E+03  0.10566000000E+00 0. -1.
        994   -1    0    0    0    0 -0.00000000000E+00 -0.00000000000E+00  0.00000000000E+00  0.13100000000E+03  0.13100000000E+03 0.  0.
         13    1    1    2    0    0 -0.92714786121E+01 -0.13862159753E+02  0.16539542231E+02  0.23488026948E+02  0.10566000000E+00 0.  1.
        994    1    1    2    0    0 -0.49348348318E+02 -0.51203965721E+02  0.18088141800E+03  0.23438471146E+03  0.13100000000E+03 0.  0.
        997    1    1    2    0    0  0.58619826930E+02  0.65066125474E+02  0.30257902860E+03  0.37312726159E+03  0.20000000000E+03 0.  0.
</event>
<event>
 5    1  0.6487493E-012  0.2381303E+03  0.7957747E-01  0.4468765E+00
         13   -1    0    0    0    0  0.00000000000E+00  0.00000000000E+00  0.49999998884E+03  0.50000000000E+03  0.10566000000E+00 0. -1.
        994   -1    0    0    0    0 -0.00000000000E+00 -0.00000000000E+00  0.00000000000E+00  0.13100000000E+03  0.13100000000E+03 0.  0.
         13    1    1    2    0    0  0.16153163631E+02 -0.11440326079E+02  0.92972701847E+01  0.21869068407E+02  0.10566000000E+00 0.  1.
        994    1    1    2    0    0  0.42518640576E+02 -0.30398826807E+02  0.25733085472E+03  0.29344861946E+03  0.13100000000E+03 0.  0.
        997    1    1    2    0    0 -0.58671804207E+02  0.41839152886E+02  0.23337186393E+03  0.31568231214E+03  0.20000000000E+03 0.  0.
</event>
<event>
 5    1  0.6487493E-012  0.2337603E+03  0.7957747E-01  0.4522682E+00
         13   -1    0    0    0    0  0.00000000000E+00  0.00000000000E+00  0.49999998884E+03  0.50000000000E+03  0.10566000000E+00 0.  1.
        994   -1    0    0    0    0 -0.00000000000E+00 -0.00000000000E+00  0.00000000000E+00  0.13100000000E+03  0.13100000000E+03 0.  0.
         13    1    1    2    0    0 -0.19025926679E+02  0.13277308741E+02  0.33119781947E+02  0.40437654898E+02  0.10566000000E+00 0. -1.
        994    1    1    2    0    0  0.36512397601E+02 -0.11402773469E+02  0.89805097593E+02  0.16336809350E+03  0.13100000000E+03 0.  0.
        997    1    1    2    0    0 -0.17486470922E+02 -0.18745352720E+01  0.37707510930E+03  0.42719425160E+03  0.20000000000E+03 0.  0.
</event>
<event>
 5    1  0.6487493E-012  0.2367197E+03  0.7957747E-01  0.4485909E+00
         13   -1    0    0    0    0  0.00000000000E+00  0.00000000000E+00  0.49999998884E+03  0.50000000000E+03  0.10566000000E+00 0.  1.
        994   -1    0    0    0    0 -0.00000000000E+00 -0.00000000000E+00  0.00000000000E+00  0.13100000000E+03  0.13100000000E+03 0.  0.
         13    1    1    2    0    0  0.75517320306E-01  0.24884612446E+02  0.20905772592E+02  0.32500955851E+02  0.10566000000E+00 0. -1.
        994    1    1    2    0    0 -0.10949739481E+02 -0.40371213163E+02  0.10194643309E+03  0.17118354730E+03  0.13100000000E+03 0.  0.
        997    1    1    2    0    0  0.10874222160E+02  0.15486600716E+02  0.37714778315E+03  0.42731549685E+03  0.20000000000E+03 0.  0.
</event>
<event>
 5    1  0.6487493E-012  0.2438445E+03  0.7957747E-01  0.4401720E+00
         13   -1    0    0    0    0  0.00000000000E+00  0.00000000000E+00  0.49999998884E+03  0.50000000000E+03  0.10566000000E+00 0. -1.
        994   -1    0    0    0    0 -0.00000000000E+00 -0.00000000000E+00  0.00000000000E+00  0.13100000000E+03  0.13100000000E+03 0.  0.
         13    1    1    2    0    0  0.13394399399E+02  0.21970831343E+02  0.97358198484E+01  0.27512264853E+02  0.10566000000E+00 0.  1.
        994    1    1    2    0    0 -0.40336350006E+02  0.24460177909E+02  0.14604524830E+03  0.20178091086E+03  0.13100000000E+03 0.  0.
        997    1    1    2    0    0  0.26941950607E+02 -0.46431009252E+02  0.34421892068E+03  0.40170682429E+03  0.20000000000E+03 0.  0.
</event>
<event>
 5    1  0.6487493E-012  0.2433784E+03  0.7957747E-01  0.4407049E+00
         13   -1    0    0    0    0  0.00000000000E+00  0.00000000000E+00  0.49999998884E+03  0.50000000000E+03  0.10566000000E+00 0. -1.
        994   -1    0    0    0    0 -0.00000000000E+00 -0.00000000000E+00  0.00000000000E+00  0.13100000000E+03  0.13100000000E+03 0.  0.
         13    1    1    2    0    0 -0.51142113721E+01  0.27183481208E+02  0.13378391533E+02  0.30726036722E+02  0.10566000000E+00 0.  1.
        994    1    1    2    0    0  0.48810837293E+02  0.10378266731E+00  0.14758169563E+03  0.20328272305E+03  0.13100000000E+03 0.  0.
        997    1    1    2    0    0 -0.43696625921E+02 -0.27287263876E+02  0.33903990168E+03  0.39699124023E+03  0.20000000000E+03 0.  0.
</event>
<event>
 5    1  0.6487493E-012  0.2495137E+03  0.7957747E-01  0.4338769E+00
         13   -1    0    0    0    0  0.00000000000E+00  0.00000000000E+00  0.49999998884E+03  0.50000000000E+03  0.10566000000E+00 0. -1.
        994   -1    0    0    0    0 -0.00000000000E+00 -0.00000000000E+00  0.00000000000E+00  0.13100000000E+03  0.13100000000E+03 0.  0.
         13    1    1    2    0    0  0.29880636182E+02 -0.15689966918E+02  0.22361164726E+02  0.40485310083E+02  0.10566000000E+00 0.  1.
        994    1    1    2    0    0  0.26727718565E+02 -0.68893229369E+01  0.14264422774E+03  0.19562773172E+03  0.13100000000E+03 0.  0.
        997    1    1    2    0    0 -0.56608354747E+02  0.22579289855E+02  0.33499459637E+03  0.39488695820E+03  0.20000000000E+03 0.  0.
</event>
<event>
 5    1  0.6487493E-012  0.2413958E+03  0.7957747E-01  0.4429990E+00
         13   -1    0    0    0    0  0.00000000000E+00  0.00000000000E+00  0.49999998884E+03  0.50000000000E+03  0.10566000000E+00 0. -1.
        994   -1    0    0    0    0 -0.00000000000E+00 -0.00000000000E+00  0.00000000000E+00  0.13100000000E+03  0.13100000000E+03 0.  0.
         13    1    1    2    0    0  0.31135852164E+02  0.43111790599E+00  0.31709175082E+02  0.44442210803E+02  0.10566000000E+00 0.  1.
        994    1    1    2    0    0 -0.14785093681E+02 -0.36520435352E+02  0.11525841538E+03  0.17887941053E+03  0.13100000000E+03 0.  0.
        997    1    1    2    0    0 -0.16350758483E+02  0.36089317446E+02  0.35303239837E+03  0.40767837867E+03  0.20000000000E+03 0.  0.
</event>
<event>
 5    1  0.6487493E-012  0.2301644E+03  0.7957747E-01  0.4568901E+00
         13   -1    0    0    0    0  0.00000000000E+00  0.00000000000E+00  0.49999998884E+03  0.50000000000E+03  0.10566000000E+00 0. -1.
        994   -1    0    0    0    0 -0.00000000000E+00 -0.00000000000E+00  0.00000000000E+00  0.13100000000E+03  0.13100000000E+03 0.  0.
         13    1    1    2    0    0  0.16062012595E+02 -0.41341651202E+01  0.20765315104E+02  0.26576099135E+02  0.10566000000E+00 0.  1.
        994    1    1    2    0    0 -0.43631079858E+02  0.13802627819E+02  0.88716812946E+02  0.16469929133E+03  0.13100000000E+03 0.  0.
        997    1    1    2    0    0  0.27569067263E+02 -0.96684626984E+01  0.39051786079E+03  0.43972460954E+03  0.20000000000E+03 0.  0.
</event>
<event>
 5    1  0.6487493E-012  0.2388434E+03  0.7957747E-01  0.4460189E+00
         13   -1    0    0    0    0  0.00000000000E+00  0.00000000000E+00  0.49999998884E+03  0.50000000000E+03  0.10566000000E+00 0.  1.
        994   -1    0    0    0    0 -0.00000000000E+00 -0.00000000000E+00  0.00000000000E+00  0.13100000000E+03  0.13100000000E+03 0.  0.
         13    1    1    2    0    0 -0.17501122574E+02  0.94071561203E+01  0.40777008992E+00  0.19873633741E+02  0.10566000000E+00 0. -1.
        994    1    1    2    0    0  0.33602591653E+02 -0.55015027041E+02  0.19719835841E+03  0.24536499328E+03  0.13100000000E+03 0.  0.
        997    1    1    2    0    0 -0.16101469080E+02  0.45607870921E+02  0.30239386034E+03  0.36576137298E+03  0.20000000000E+03 0.  0.
</event>
<event>
 5    1  0.6487493E-012  0.2518404E+03  0.7957747E-01  0.4313890E+00
         13   -1    0    0    0    0  0.00000000000E+00  0.00000000000E+00  0.49999998884E+03  0.50000000000E+03  0.10566000000E+00 0. -1.
        994   -1    0    0    0    0 -0.00000000000E+00 -0.00000000000E+00  0.00000000000E+00  0.13100000000E+03  0.13100000000E+03 0.  0.
         13    1    1    2    0    0 -0.31855439435E+02  0.15362533469E+02  0.16413398302E+02  0.38989578916E+02  0.10566000000E+00 0.  1.
        994    1    1    2    0    0 -0.76530445988E+01  0.21346791794E+02  0.16329149181E+03  0.21056914757E+03  0.13100000000E+03 0.  0.
        997    1    1    2    0    0  0.39508484034E+02 -0.36709325264E+02  0.32029509873E+03  0.38144127351E+03  0.20000000000E+03 0.  0.
</event>
<event>
 5    1  0.6487493E-012  0.2322279E+03  0.7957747E-01  0.4542167E+00
         13   -1    0    0    0    0  0.00000000000E+00  0.00000000000E+00  0.49999998884E+03  0.50000000000E+03  0.10566000000E+00 0.  1.
        994   -1    0    0    0    0 -0.00000000000E+00 -0.00000000000E+00  0.00000000000E+00  0.13100000000E+03  0.13100000000E+03 0.  0.
         13    1    1    2    0    0  0.14986025678E+02  0.82015912298E+01  0.40122730961E+02  0.43608391029E+02  0.10566000000E+00 0. -1.
        994    1    1    2    0    0  0.11354495556E+02 -0.93277290806E+01  0.72027905084E+02  0.15021634468E+03  0.13100000000E+03 0.  0.
        997    1    1    2    0    0 -0.26340521233E+02  0.11261378508E+01  0.38784935279E+03  0.43717526429E+03  0.20000000000E+03 0.  0.
</event>
<event>
 5    1  0.6487493E-012  0.2422875E+03  0.7957747E-01  0.4419617E+00
         13   -1    0    0    0    0  0.00000000000E+00  0.00000000000E+00  0.49999998884E+03  0.50000000000E+03  0.10566000000E+00 0.  1.
        994   -1    0    0    0    0 -0.00000000000E+00 -0.00000000000E+00  0.00000000000E+00  0.13100000000E+03  0.13100000000E+03 0.  0.
         13    1    1    2    0    0 -0.27076389841E+02 -0.74070235171E+01  0.84559176861E+02  0.89096915994E+02  0.10566000000E+00 0. -1.
        994    1    1    2    0    0  0.60881928122E+00  0.49135147652E+02  0.13985722175E+03  0.19782738908E+03  0.13100000000E+03 0.  0.
        997    1    1    2    0    0  0.26467570560E+02 -0.41728124135E+02  0.27558359023E+03  0.34407569492E+03  0.20000000000E+03 0.  0.
</event>
<event>
 5    1  0.6487493E-012  0.2473952E+03  0.7957747E-01  0.4361897E+00
         13   -1    0    0    0    0  0.00000000000E+00  0.00000000000E+00  0.49999998884E+03  0.50000000000E+03  0.10566000000E+00 0.  1.
        994   -1    0    0    0    0 -0.00000000000E+00 -0.00000000000E+00  0.00000000000E+00  0.13100000000E+03  0.13100000000E+03 0.  0.
         13    1    1    2    0    0  0.33755564346E+02 -0.19077849285E+02  0.20825930333E+02  0.44012873070E+02  0.10566000000E+00 0. -1.
        994    1    1    2    0    0 -0.33433622263E+02  0.24194809830E+02  0.16727821382E+03  0.21643982244E+03  0.13100000000E+03 0.  0.
        997    1    1    2    0    0 -0.32194208254E+00 -0.51169605450E+01  0.31189584468E+03  0.37054730449E+03  0.20000000000E+03 0.  0.
</event>
<event>
 5    1  0.6487493E-012  0.2466767E+03  0.7957747E-01  0.4369846E+00
         13   -1    0    0    0    0  0.00000000000E+00  0.00000000000E+00  0.49999998884E+03  0.50000000000E+03  0.10566000000E+00 0. -1.
        994   -1    0    0    0    0 -0.00000000000E+00 -0.00000000000E+00  0.00000000000E+00  0.13100000000E+03  0.13100000000E+03 0.  0.
         13    1    1    2    0    0  0.34771025518E+02  0.37469127840E+01  0.43447522429E+02  0.55774204972E+02  0.10566000000E+00 0.  1.
        994    1    1    2    0    0  0.19036085238E+02  0.39066036777E+02  0.16678694279E+03  0.21648882663E+03  0.13100000000E+03 0.  0.
        997    1    1    2    0    0 -0.53807110756E+02 -0.42812949561E+02  0.28976552362E+03  0.35873696840E+03  0.20000000000E+03 0.  0.
</event>
<event>
 5    1  0.6487493E-012  0.2283937E+03  0.7957747E-01  0.4592307E+00
         13   -1    0    0    0    0  0.00000000000E+00  0.00000000000E+00  0.49999998884E+03  0.50000000000E+03  0.10566000000E+00 0. -1.
        994   -1    0    0    0    0 -0.00000000000E+00 -0.00000000000E+00  0.00000000000E+00  0.13100000000E+03  0.13100000000E+03 0.  0.
         13    1    1    2    0    0  0.21695323124E+01 -0.10428376321E+02  0.81593981620E+01  0.13418079056E+02  0.10566000000E+00 0.  1.
        994    1    1    2    0    0 -0.34035081975E+02  0.37952272324E+02  0.90460885404E+02  0.16716139975E+03  0.13100000000E+03 0.  0.
        997    1    1    2    0    0  0.31865549663E+02 -0.27523896002E+02  0.40137970527E+03  0.45042052119E+03  0.20000000000E+03 0.  0.
</event>
<event>
 5    1  0.6487493E-012  0.2358722E+03  0.7957747E-01  0.4496326E+00
         13   -1    0    0    0    0  0.00000000000E+00  0.00000000000E+00  0.49999998884E+03  0.50000000000E+03  0.10566000000E+00 0. -1.
        994   -1    0    0    0    0 -0.00000000000E+00 -0.00000000000E+00  0.00000000000E+00  0.13100000000E+03  0.13100000000E+03 0.  0.
         13    1    1    2    0    0 -0.21689003591E+02 -0.10994683253E+02  0.67525986379E+02  0.71770926823E+02  0.10566000000E+00 0.  1.
        994    1    1    2    0    0  0.25899512148E+02  0.51134127637E+01  0.85406780767E+02  0.15859460874E+03  0.13100000000E+03 0.  0.
        997    1    1    2    0    0 -0.42105085570E+01  0.58812704889E+01  0.34706722169E+03  0.40063446444E+03  0.20000000000E+03 0.  0.
</event>
<event>
 5    1  0.6487493E-012  0.2350078E+03  0.7957747E-01  0.4507046E+00
         13   -1    0    0    0    0  0.00000000000E+00  0.00000000000E+00  0.49999998884E+03  0.50000000000E+03  0.10566000000E+00 0.  1.
        994   -1    0    0    0    0 -0.00000000000E+00 -0.00000000000E+00  0.00000000000E+00  0.13100000000E+03  0.13100000000E+03 0.  0.
         13    1    1    2    0    0 -0.21064664022E+02 -0.58280784962E+01  0.45371599439E+02  0.50361490933E+02  0.10566000000E+00 0. -1.
        994    1    1    2    0    0 -0.18150525959E+01 -0.36033412882E+01  0.75436378680E+02  0.15122144594E+03  0.13100000000E+03 0.  0.
        997    1    1    2    0    0  0.22879716618E+02  0.94314197844E+01  0.37919201072E+03  0.42941706313E+03  0.20000000000E+03 0.  0.
</event>
<event>
 5    1  0.6487493E-012  0.2318265E+03  0.7957747E-01  0.4547323E+00
         13   -1    0    0    0    0  0.00000000000E+00  0.00000000000E+00  0.49999998884E+03  0.50000000000E+03  0.10566000000E+00 0.  1.
        994   -1    0    0    0    0 -0.00000000000E+00 -0.00000000000E+00  0.00000000000E+00  0.13100000000E+03  0.13100000000E+03 0.  0.
         13    1    1    2    0    0 -0.17214197183E+02  0.59010428654E+01  0.24228096727E+02  0.30301200085E+02  0.10566000000E+00 0. -1.
        994    1    1    2    0    0  0.13490731019E+02 -0.38848244434E+02  0.87865486330E+02  0.16301082666E+03  0.13100000000E+03 0.  0.
        997    1    1    2    0    0  0.37234661638E+01  0.32947201568E+02  0.38790640578E+03  0.43768797326E+03  0.20000000000E+03 0.  0.
</event>
<event>
 5    1  0.6487493E-012  0.2350054E+03  0.7957747E-01  0.4507075E+00
         13   -1    0    0    0    0  0.00000000000E+00  0.00000000000E+00  0.49999998884E+03  0.50000000000E+03  0.10566000000E+00 0. -1.
        994   -1    0    0    0    0 -0.00000000000E+00 -0.00000000000E+00  0.00000000000E+00  0.13100000000E+03  0.13100000000E+03 0.  0.
         13    1    1    2    0    0  0.12983776728E+02 -0.17231546567E+02  0.24659044766E+02  0.32765596408E+02  0.10566000000E+00 0.  1.
        994    1    1    2    0    0  0.19628361553E+02  0.30618121070E+02  0.91186409170E+02  0.16370309445E+03  0.13100000000E+03 0.  0.
        997    1    1    2    0    0 -0.32612138281E+02 -0.13386574503E+02  0.38415453490E+03  0.43453130914E+03  0.20000000000E+03 0.  0.
</event>
<event>
 5    1  0.6487493E-012  0.2385706E+03  0.7957747E-01  0.4463462E+00
         13   -1    0    0    0    0  0.00000000000E+00  0.00000000000E+00  0.49999998884E+03  0.50000000000E+03  0.10566000000E+00 0.  1.
        994   -1    0    0    0    0 -0.00000000000E+00 -0.00000000000E+00  0.00000000000E+00  0.13100000000E+03  0.13100000000E+03 0.  0.
         13    1    1    2    0    0 -0.26650224938E+02 -0.50850999840E+01  0.44358277752E+02  0.51997698990E+02  0.10566000000E+00 0. -1.
        994    1    1    2    0    0 -0.55121027392E+01  0.15750929069E+02  0.86710437749E+02  0.15798156556E+03  0.13100000000E+03 0.  0.
        997    1    1    2    0    0  0.32162327677E+02 -0.10665829085E+02  0.36893127334E+03  0.42102073545E+03  0.20000000000E+03 0.  0.
</event>
<event>
 5    1  0.6487493E-012  0.2309676E+03  0.7957747E-01  0.4558426E+00
         13   -1    0    0    0    0  0.00000000000E+00  0.00000000000E+00  0.49999998884E+03  0.50000000000E+03  0.10566000000E+00 0. -1.
        994   -1    0    0    0    0 -0.00000000000E+00 -0.00000000000E+00  0.00000000000E+00  0.13100000000E+03  0.13100000000E+03 0.  0.
         13    1    1    2    0    0 -0.61811544861E+01 -0.18459630554E+02  0.42467544177E+02  0.46716893127E+02  0.10566000000E+00 0.  1.
        994    1    1    2    0    0 -0.53890737873E+01  0.58587028628E+02  0.10903005966E+03  0.18030539634E+03  0.13100000000E+03 0.  0.
        997    1    1    2    0    0  0.11570228273E+02 -0.40127398074E+02  0.34850238500E+03  0.40397771053E+03  0.20000000000E+03 0.  0.
</event>
<event>
 5    1  0.6487493E-012  0.2409883E+03  0.7957747E-01  0.4434760E+00
         13   -1    0    0    0    0  0.00000000000E+00  0.00000000000E+00  0.49999998884E+03  0.50000000000E+03  0.10566000000E+00 0. -1.
        994   -1    0    0    0    0 -0.00000000000E+00 -0.00000000000E+00  0.00000000000E+00  0.13100000000E+03  0.13100000000E+03 0.  0.
         13    1    1    2    0    0  0.28406004202E+02 -0.95400206051E+01  0.39888487803E+02  0.49890035990E+02  0.10566000000E+00 0.  1.
        994    1    1    2    0    0 -0.65968274107E+00 -0.95252559760E+01  0.90487607358E+02  0.15949975789E+03  0.13100000000E+03 0.  0.
        997    1    1    2    0    0 -0.27746321461E+02  0.19065276581E+02  0.36962389368E+03  0.42161020612E+03  0.20000000000E+03 0.  0.
</event>
<event>
 5    1  0.6487493E-012  0.2294700E+03  0.7957747E-01  0.4578027E+00
         13   -1    0    0    0    0  0.00000000000E+00  0.00000000000E+00  0.49999998884E+03  0.50000000000E+03  0.10566000000E+00 0.  1.
        994   -1    0    0    0    0 -0.00000000000E+00 -0.00000000000E+00  0.00000000000E+00  0.13100000000E+03  0.13100000000E+03 0.  0.
         13    1    1    2    0    0 -0.13386811259E+02 -0.70026103964E+01  0.35514167227E+02  0.38594177098E+02  0.10566000000E+00 0. -1.
        994    1    1    2    0    0  0.23561757148E+02  0.24494183374E+02  0.76564795629E+02  0.15549369553E+03  0.13100000000E+03 0.  0.
        997    1    1    2    0    0 -0.10174945889E+02 -0.17491572978E+02  0.38792102598E+03  0.43691212737E+03  0.20000000000E+03 0.  0.
</event>
<event>
 5    1  0.6487493E-012  0.2387868E+03  0.7957747E-01  0.4460868E+00
         13   -1    0    0    0    0  0.00000000000E+00  0.00000000000E+00  0.49999998884E+03  0.50000000000E+03  0.10566000000E+00 0. -1.
        994   -1    0    0    0    0 -0.00000000000E+00 -0.00000000000E+00  0.00000000000E+00  0.13100000000E+03  0.13100000000E+03 0.  0.
         13    1    1    2    0    0  0.44404971091E+01 -0.29043747103E+02  0.82377310296E+02  0.87460217677E+02  0.10566000000E+00 0.  1.
        994    1    1    2    0    0  0.43131950147E+00  0.59618849360E+02  0.14839989646E+03  0.20673200648E+03  0.13100000000E+03 0.  0.
        997    1    1    2    0    0 -0.48718166105E+01 -0.30575102257E+02  0.26922278208E+03  0.33680777584E+03  0.20000000000E+03 0.  0.
</event>
<event>
 5    1  0.6487493E-012  0.2269339E+03  0.7957747E-01  0.4611939E+00
         13   -1    0    0    0    0  0.00000000000E+00  0.00000000000E+00  0.49999998884E+03  0.50000000000E+03  0.10566000000E+00 0. -1.
        994   -1    0    0    0    0 -0.00000000000E+00 -0.00000000000E+00  0.00000000000E+00  0.13100000000E+03  0.13100000000E+03 0.  0.
         13    1    1    2    0    0 -0.10611984627E+02 -0.34589736130E+01  0.20544047267E+02  0.23380499531E+02  0.10566000000E+00 0.  1.
        994    1    1    2    0    0  0.53142329491E+02 -0.17122266187E+01  0.89641400026E+02  0.16740256719E+03  0.13100000000E+03 0.  0.
        997    1    1    2    0    0 -0.42530344864E+02  0.51712002316E+01  0.38981454154E+03  0.44021693328E+03  0.20000000000E+03 0.  0.
</event>
<event>
 5    1  0.6487493E-012  0.2367313E+03  0.7957747E-01  0.4485767E+00
         13   -1    0    0    0    0  0.00000000000E+00  0.00000000000E+00  0.49999998884E+03  0.50000000000E+03  0.10566000000E+00 0. -1.
        994   -1    0    0    0    0 -0.00000000000E+00 -0.00000000000E+00  0.00000000000E+00  0.13100000000E+03  0.13100000000E+03 0.  0.
         13    1    1    2    0    0 -0.23319518412E+02 -0.16418153495E+02  0.56141804566E+02  0.62970382619E+02  0.10566000000E+00 0.  1.
        994    1    1    2    0    0  0.22359367306E+02  0.24925736441E+02  0.93088617187E+02  0.16415762027E+03  0.13100000000E+03 0.  0.
        997    1    1    2    0    0  0.96015110599E+00 -0.85075829460E+01  0.35076956708E+03  0.40387199711E+03  0.20000000000E+03 0.  0.
</event>
<event>
 5    1  0.6487493E-012  0.2354643E+03  0.7957747E-01  0.4501373E+00
         13   -1    0    0    0    0  0.00000000000E+00  0.00000000000E+00  0.49999998884E+03  0.50000000000E+03  0.10566000000E+00 0. -1.
        994   -1    0    0    0    0 -0.00000000000E+00 -0.00000000000E+00  0.00000000000E+00  0.13100000000E+03  0.13100000000E+03 0.  0.
         13    1    1    2    0    0 -0.52344116136E+01  0.13143074562E+02  0.38179042759E+01  0.14653567176E+02  0.10566000000E+00 0.  1.
        994    1    1    2    0    0  0.18583671546E+02 -0.10284799497E+02  0.81464416314E+02  0.15571955906E+03  0.13100000000E+03 0.  0.
        997    1    1    2    0    0 -0.13349259932E+02 -0.28582750653E+01  0.41471766825E+03  0.46062687376E+03  0.20000000000E+03 0.  0.
</event>
<event>
 5    1  0.6487493E-012  0.2400932E+03  0.7957747E-01  0.4445307E+00
         13   -1    0    0    0    0  0.00000000000E+00  0.00000000000E+00  0.49999998884E+03  0.50000000000E+03  0.10566000000E+00 0.  1.
        994   -1    0    0    0    0 -0.00000000000E+00 -0.00000000000E+00  0.00000000000E+00  0.13100000000E+03  0.13100000000E+03 0.  0.
         13    1    1    2    0    0  0.69739938950E+01 -0.16240307884E+02  0.29092544249E+01  0.17912540756E+02  0.10566000000E+00 0. -1.
        994    1    1    2    0    0  0.37944374837E+01  0.20308746379E+02  0.92731843805E+02  0.16182409521E+03  0.13100000000E+03 0.  0.
        997    1    1    2    0    0 -0.10768431379E+02 -0.40684384949E+01  0.40435889061E+03  0.45126336403E+03  0.20000000000E+03 0.  0.
</event>
<event>
 5    1  0.6487493E-012  0.2482313E+03  0.7957747E-01  0.4352714E+00
         13   -1    0    0    0    0  0.00000000000E+00  0.00000000000E+00  0.49999998884E+03  0.50000000000E+03  0.10566000000E+00 0. -1.
        994   -1    0    0    0    0 -0.00000000000E+00 -0.00000000000E+00  0.00000000000E+00  0.13100000000E+03  0.13100000000E+03 0.  0.
         13    1    1    2    0    0 -0.10687415037E+02 -0.47057523510E+01 -0.94442509829E+01  0.15018987516E+02  0.10566000000E+00 0.  1.
        994    1    1    2    0    0  0.45898505554E+01  0.24328098199E+02  0.12812643224E+03  0.18490620792E+03  0.13100000000E+03 0.  0.
        997    1    1    2    0    0  0.60975644813E+01 -0.19622345848E+02  0.38131780758E+03  0.43107480456E+03  0.20000000000E+03 0.  0.
</event>
<event>
 5    1  0.6487493E-012  0.2341499E+03  0.7957747E-01  0.4517778E+00
         13   -1    0    0    0    0  0.00000000000E+00  0.00000000000E+00  0.49999998884E+03  0.50000000000E+03  0.10566000000E+00 0. -1.
        994   -1    0    0    0    0 -0.00000000000E+00 -0.00000000000E+00  0.00000000000E+00  0.13100000000E+03  0.13100000000E+03 0.  0.
         13    1    1    2    0    0  0.95142066950E+01 -0.35196831516E+01  0.64221729669E+00  0.10165230229E+02  0.10566000000E+00 0.  1.
        994    1    1    2    0    0  0.17059879282E+00 -0.36317897077E+02  0.88964893383E+02  0.16246467618E+03  0.13100000000E+03 0.  0.
        997    1    1    2    0    0 -0.96848054878E+01  0.39837580228E+02  0.41039287816E+03  0.45837009359E+03  0.20000000000E+03 0.  0.
</event>
<event>
 5    1  0.6487493E-012  0.2344612E+03  0.7957747E-01  0.4513873E+00
         13   -1    0    0    0    0  0.00000000000E+00  0.00000000000E+00  0.49999998884E+03  0.50000000000E+03  0.10566000000E+00 0. -1.
        994   -1    0    0    0    0 -0.00000000000E+00 -0.00000000000E+00  0.00000000000E+00  0.13100000000E+03  0.13100000000E+03 0.  0.
         13    1    1    2    0    0  0.17368533045E+02  0.32070581978E+01  0.13512655349E+02  0.22238574168E+02  0.10566000000E+00 0.  1.
        994    1    1    2    0    0 -0.10911394533E+02  0.41332526699E+01  0.75648243743E+02  0.15172277051E+03  0.13100000000E+03 0.  0.
        997    1    1    2    0    0 -0.64571385123E+01 -0.73403108677E+01  0.41083908974E+03  0.45703865533E+03  0.20000000000E+03 0.  0.
</event>
<event>
 5    1  0.6487493E-012  0.2353158E+03  0.7957747E-01  0.4503215E+00
         13   -1    0    0    0    0  0.00000000000E+00  0.00000000000E+00  0.49999998884E+03  0.50000000000E+03  0.10566000000E+00 0.  1.
        994   -1    0    0    0    0 -0.00000000000E+00 -0.00000000000E+00  0.00000000000E+00  0.13100000000E+03  0.13100000000E+03 0.  0.
         13    1    1    2    0    0 -0.79581368698E+01  0.22935408897E+02  0.32956996853E+02  0.40933357171E+02  0.10566000000E+00 0. -1.
        994    1    1    2    0    0  0.37747786951E+02 -0.12527066107E+02  0.95457004919E+02  0.16689776090E+03  0.13100000000E+03 0.  0.
        997    1    1    2    0    0 -0.29789650081E+02 -0.10408342790E+02  0.37158598706E+03  0.42316888193E+03  0.20000000000E+03 0.  0.
</event>
<event>
 5    1  0.6487493E-012  0.2292938E+03  0.7957747E-01  0.4580355E+00
         13   -1    0    0    0    0  0.00000000000E+00  0.00000000000E+00  0.49999998884E+03  0.50000000000E+03  0.10566000000E+00 0.  1.
        994   -1    0    0    0    0 -0.00000000000E+00 -0.00000000000E+00  0.00000000000E+00  0.13100000000E+03  0.13100000000E+03 0.  0.
         13    1    1    2    0    0 -0.62933283950E+01  0.89161108565E+01  0.95161431504E+01  0.14480026229E+02  0.10566000000E+00 0. -1.
        994    1    1    2    0    0 -0.94745176860E+01 -0.19050970565E+02  0.68924075657E+02  0.14954676249E+03  0.13100000000E+03 0.  0.
        997    1    1    2    0    0  0.15767846081E+02  0.10134859708E+02  0.42155977003E+03  0.46697321129E+03  0.20000000000E+03 0.  0.
</event>
<event>
 5    1  0.6487493E-012  0.2282994E+03  0.7957747E-01  0.4593566E+00
         13   -1    0    0    0    0  0.00000000000E+00  0.00000000000E+00  0.49999998884E+03  0.50000000000E+03  0.10566000000E+00 0. -1.
        994   -1    0    0    0    0 -0.00000000000E+00 -0.00000000000E+00  0.00000000000E+00  0.13100000000E+03  0.13100000000E+03 0.  0.
         13    1    1    2    0    0 -0.32579553740E+01 -0.13867082590E+02  0.16717564789E+02  0.21963569593E+02  0.10566000000E+00 0.  1.
        994    1    1    2    0    0 -0.13165693525E+02  0.70774926743E+02  0.12680450016E+03  0.19601736403E+03  0.13100000000E+03 0.  0.
        997    1    1    2    0    0  0.16423648899E+02 -0.56907844153E+02  0.35647792389E+03  0.41301906638E+03  0.20000000000E+03 0.  0.
</event>
<event>
 5    1  0.6487493E-012  0.2314845E+03  0.7957747E-01  0.4551732E+00
         13   -1    0    0    0    0  0.00000000000E+00  0.00000000000E+00  0.49999998884E+03  0.50000000000E+03  0.10566000000E+00 0. -1.
        994   -1    0    0    0    0 -0.00000000000E+00 -0.00000000000E+00  0.00000000000E+00  0.13100000000E+03  0.13100000000E+03 0.  0.
         13    1    1    2    0    0 -0.49561529739E+01  0.15572547339E+02  0.15109272686E+02  0.22256885858E+02  0.10566000000E+00 0.  1.
        994    1    1    2    0    0 -0.10378754587E+02 -0.40670528328E+02  0.87896561590E+02  0.16324403806E+03  0.13100000000E+03 0.  0.
        997    1    1    2    0    0  0.15334907561E+02  0.25097980989E+02  0.39699415456E+03  0.44549907609E+03  0.20000000000E+03 0.  0.
</event>
<event>
 5    1  0.6487493E-012  0.2374697E+03  0.7957747E-01  0.4476763E+00
         13   -1    0    0    0    0  0.00000000000E+00  0.00000000000E+00  0.49999998884E+03  0.50000000000E+03  0.10566000000E+00 0.  1.
        994   -1    0    0    0    0 -0.00000000000E+00 -0.00000000000E+00  0.00000000000E+00  0.13100000000E+03  0.13100000000E+03 0.  0.
         13    1    1    2    0    0  0.20352343746E+02  0.21245062824E+02  0.66834211318E+02  0.73023239841E+02  0.10566000000E+00 0. -1.
        994    1    1    2    0    0 -0.63296804813E+02 -0.20757781329E+02  0.17197615742E+03  0.22621708536E+03  0.13100000000E+03 0.  0.
        997    1    1    2    0    0  0.42944461067E+02 -0.48728149572E+00  0.26118962009E+03  0.33175967480E+03  0.20000000000E+03 0.  0.
</event>
<event>
 5    1  0.6487493E-012  0.2354783E+03  0.7957747E-01  0.4501200E+00
         13   -1    0    0    0    0  0.00000000000E+00  0.00000000000E+00  0.49999998884E+03  0.50000000000E+03  0.10566000000E+00 0. -1.
        994   -1    0    0    0    0 -0.00000000000E+00 -0.00000000000E+00  0.00000000000E+00  0.13100000000E+03  0.13100000000E+03 0.  0.
         13    1    1    2    0    0 -0.11828249222E+02 -0.11674508692E+02  0.93079777461E+01  0.19048654719E+02  0.10566000000E+00 0.  1.
        994    1    1    2    0    0 -0.75668071231E+01  0.10832928463E+02  0.78243948015E+02  0.15315914700E+03  0.13100000000E+03 0.  0.
        997    1    1    2    0    0  0.19395056345E+02  0.84158022894E+00  0.41244806308E+03  0.45879219828E+03  0.20000000000E+03 0.  0.
</event>
<event>
 5    1  0.6487493E-012  0.2354507E+03  0.7957747E-01  0.4501542E+00
         13   -1    0    0    0    0  0.00000000000E+00  0.00000000000E+00  0.49999998884E+03  0.50000000000E+03  0.10566000000E+00 0. -1.
        994   -1    0    0    0    0 -0.00000000000E+00 -0.00000000000E+00  0.00000000000E+00  0.13100000000E+03  0.13100000000E+03 0.  0.
         13    1    1    2    0    0 -0.24310465894E+02 -0.14954388861E+02  0.54999702410E+02  0.61964594144E+02  0.10566000000E+00 0.  1.
        994    1    1    2    0    0  0.41102274714E+02  0.33000983997E+02  0.11383268141E+03  0.18137624235E+03  0.13100000000E+03 0.  0.
        997    1    1    2    0    0 -0.16791808820E+02 -0.18046595135E+02  0.33116760502E+03  0.38765916351E+03  0.20000000000E+03 0.  0.
</event>
<event>
 5    1  0.6487493E-012  0.2456789E+03  0.7957747E-01  0.4380977E+00
         13   -1    0    0    0    0  0.00000000000E+00  0.00000000000E+00  0.49999998884E+03  0.50000000000E+03  0.10566000000E+00 0.  1.
        994   -1    0    0    0    0 -0.00000000000E+00 -0.00000000000E+00  0.00000000000E+00  0.13100000000E+03  0.13100000000E+03 0.  0.
         13    1    1    2    0    0  0.12446032649E+02 -0.36067391766E+02  0.99625160952E+02  0.10668150888E+03  0.10566000000E+00 0. -1.
        994    1    1    2    0    0 -0.13233695066E+02  0.31502188116E+02  0.12752812982E+03  0.18598909225E+03  0.13100000000E+03 0.  0.
        997    1    1    2    0    0  0.78766241765E+00  0.45652036504E+01  0.27284669806E+03  0.33832939887E+03  0.20000000000E+03 0.  0.
</event>
<event>
 5    1  0.6487493E-012  0.2283230E+03  0.7957747E-01  0.4593252E+00
         13   -1    0    0    0    0  0.00000000000E+00  0.00000000000E+00  0.49999998884E+03  0.50000000000E+03  0.10566000000E+00 0.  1.
        994   -1    0    0    0    0 -0.00000000000E+00 -0.00000000000E+00  0.00000000000E+00  0.13100000000E+03  0.13100000000E+03 0.  0.
         13    1    1    2    0    0 -0.40863266553E+01  0.11635371008E+02  0.21872719266E+02  0.25109897175E+02  0.10566000000E+00 0. -1.
        994    1    1    2    0    0  0.36820137965E+02 -0.10913408046E+02  0.77645723282E+02  0.15704993912E+03  0.13100000000E+03 0.  0.
        997    1    1    2    0    0 -0.32733811310E+02 -0.72196296184E+00  0.40048154629E+03  0.44884016370E+03  0.20000000000E+03 0.  0.
</event>
<event>
 5    1  0.7072075E-012  0.2414634E+03  0.7957747E-01  0.4429200E+00
         13   -1    0    0    0    0  0.00000000000E+00  0.00000000000E+00  0.49999998884E+03  0.50000000000E+03  0.10566000000E+00 0. -1.
        994   -1    0    0    0    0 -0.00000000000E+00 -0.00000000000E+00  0.00000000000E+00  0.13100000000E+03  0.13100000000E+03 0.  0.
         13    1    1    2    0    0  0.27749665315E+00  0.24245503476E+02  0.74102041003E+01  0.25354363175E+02  0.10566000000E+00 0.  1.
        994    1    1    2    0    0 -0.24051621387E+01 -0.43993874481E+02  0.12334909596E+03  0.18524914378E+03  0.13100000000E+03 0.  0.
        997    1    1    2    0    0  0.21276654855E+01  0.19748371005E+02  0.36924068877E+03  0.42039649305E+03  0.20000000000E+03 0.  0.
</event>
<event>
 5    1  0.6487493E-012  0.2345311E+03  0.7957747E-01  0.4512997E+00
         13   -1    0    0    0    0  0.00000000000E+00  0.00000000000E+00  0.49999998884E+03  0.50000000000E+03  0.10566000000E+00 0.  1.
        994   -1    0    0    0    0 -0.00000000000E+00 -0.00000000000E+00  0.00000000000E+00  0.13100000000E+03  0.13100000000E+03 0.  0.
         13    1    1    2    0    0 -0.29082792884E+01  0.20243936235E+02  0.17559039189E+02  0.26955631397E+02  0.10566000000E+00 0. -1.
        994    1    1    2    0    0  0.79720915871E+01 -0.31138696663E+02  0.86340500360E+02  0.16015259809E+03  0.13100000000E+03 0.  0.
        997    1    1    2    0    0 -0.50638122988E+01  0.10894760428E+02  0.39610044929E+03  0.44389177051E+03  0.20000000000E+03 0.  0.
</event>
<event>
 5    1  0.6487493E-012  0.2444617E+03  0.7957747E-01  0.4394700E+00
         13   -1    0    0    0    0  0.00000000000E+00  0.00000000000E+00  0.49999998884E+03  0.50000000000E+03  0.10566000000E+00 0. -1.
        994   -1    0    0    0    0 -0.00000000000E+00 -0.00000000000E+00  0.00000000000E+00  0.13100000000E+03  0.13100000000E+03 0.  0.
         13    1    1    2    0    0 -0.42029607017E+01  0.23388119423E+02  0.65479974853E+01  0.24648660084E+02  0.10566000000E+00 0.  1.
        994    1    1    2    0    0  0.22108394752E+02 -0.32487634238E+01  0.10791272320E+03  0.17118846752E+03  0.13100000000E+03 0.  0.
        997    1    1    2    0    0 -0.17905434050E+02 -0.20139355999E+02  0.38553926815E+03  0.43516287240E+03  0.20000000000E+03 0.  0.
</event>
<event>
 5    1  0.6487493E-012  0.2343409E+03  0.7957747E-01  0.4515379E+00
         13   -1    0    0    0    0  0.00000000000E+00  0.00000000000E+00  0.49999998884E+03  0.50000000000E+03  0.10566000000E+00 0.  1.
        994   -1    0    0    0    0 -0.00000000000E+00 -0.00000000000E+00  0.00000000000E+00  0.13100000000E+03  0.13100000000E+03 0.  0.
         13    1    1    2    0    0  0.18945554064E+02  0.10765044025E+02  0.23155487995E+02  0.31796351677E+02  0.10566000000E+00 0. -1.
        994    1    1    2    0    0 -0.28252083205E+02 -0.14279606392E+02  0.85504354491E+02  0.15960602119E+03  0.13100000000E+03 0.  0.
        997    1    1    2    0    0  0.93065291410E+01  0.35145623672E+01  0.39134014635E+03  0.43959762713E+03  0.20000000000E+03 0.  0.
</event>
<event>
 5    1  0.8013619E-012  0.2403310E+03  0.7957747E-01  0.4442496E+00
         13   -1    0    0    0    0  0.00000000000E+00  0.00000000000E+00  0.49999998884E+03  0.50000000000E+03  0.10566000000E+00 0.  1.
        994   -1    0    0    0    0 -0.00000000000E+00 -0.00000000000E+00  0.00000000000E+00  0.13100000000E+03  0.13100000000E+03 0.  0.
         13    1    1    2    0    0 -0.20952713773E+02  0.34624614926E+01  0.55615158047E+01  0.21953279393E+02  0.10566000000E+00 0. -1.
        994    1    1    2    0    0  0.38292718215E+02 -0.61397397574E+01  0.11022709858E+03  0.17554213720E+03  0.13100000000E+03 0.  0.
        997    1    1    2    0    0 -0.17340004443E+02  0.26772782648E+01  0.38421137445E+03  0.43350458341E+03  0.20000000000E+03 0.  0.
</event>
<event>
 5    1  0.6487493E-012  0.2373350E+03  0.7957747E-01  0.4478400E+00
         13   -1    0    0    0    0  0.00000000000E+00  0.00000000000E+00  0.49999998884E+03  0.50000000000E+03  0.10566000000E+00 0.  1.
        994   -1    0    0    0    0 -0.00000000000E+00 -0.00000000000E+00  0.00000000000E+00  0.13100000000E+03  0.13100000000E+03 0.  0.
         13    1    1    2    0    0 -0.19593487144E+02 -0.16478963708E+02  0.22733971202E+02  0.34238948495E+02  0.10566000000E+00 0. -1.
        994    1    1    2    0    0  0.43654459362E+02 -0.13209810632E+01  0.10633662941E+03  0.17428693458E+03  0.13100000000E+03 0.  0.
        997    1    1    2    0    0 -0.24060972218E+02  0.17799944771E+02  0.37092938823E+03  0.42247411692E+03  0.20000000000E+03 0.  0.
</event>
<event>
 5    1  0.6487493E-012  0.2324489E+03  0.7957747E-01  0.4539339E+00
         13   -1    0    0    0    0  0.00000000000E+00  0.00000000000E+00  0.49999998884E+03  0.50000000000E+03  0.10566000000E+00 0. -1.
        994   -1    0    0    0    0 -0.00000000000E+00 -0.00000000000E+00  0.00000000000E+00  0.13100000000E+03  0.13100000000E+03 0.  0.
         13    1    1    2    0    0 -0.15563895945E+02 -0.48596567815E+01  0.97717645124E+01  0.19009199530E+02  0.10566000000E+00 0.  1.
        994    1    1    2    0    0  0.52156067280E+02  0.21799558100E+01  0.10302251527E+03  0.17464147908E+03  0.13100000000E+03 0.  0.
        997    1    1    2    0    0 -0.36592171334E+02  0.26797009715E+01  0.38720570905E+03  0.43734932139E+03  0.20000000000E+03 0.  0.
</event>
<event>
 5    1  0.6487493E-012  0.2332599E+03  0.7957747E-01  0.4529011E+00
         13   -1    0    0    0    0  0.00000000000E+00  0.00000000000E+00  0.49999998884E+03  0.50000000000E+03  0.10566000000E+00 0.  1.
        994   -1    0    0    0    0 -0.00000000000E+00 -0.00000000000E+00  0.00000000000E+00  0.13100000000E+03  0.13100000000E+03 0.  0.
         13    1    1    2    0    0 -0.36199949118E+01 -0.10112908531E+02  0.21419400375E+01  0.10953280480E+02  0.10566000000E+00 0. -1.
        994    1    1    2    0    0  0.35582808404E+02 -0.17244185249E+02  0.89811288637E+02  0.16367823846E+03  0.13100000000E+03 0.  0.
        997    1    1    2    0    0 -0.31962813492E+02  0.27357093780E+02  0.40804676016E+03  0.45636848106E+03  0.20000000000E+03 0.  0.
</event>
<event>
 5    1  0.6487493E-012  0.2360631E+03  0.7957747E-01  0.4493972E+00
         13   -1    0    0    0    0  0.00000000000E+00  0.00000000000E+00  0.49999998884E+03  0.50000000000E+03  0.10566000000E+00 0.  1.
        994   -1    0    0    0    0 -0.00000000000E+00 -0.00000000000E+00  0.00000000000E+00  0.13100000000E+03  0.13100000000E+03 0.  0.
         13    1    1    2    0    0 -0.97777851708E+01 -0.19449975074E+02  0.20616754388E+02  0.29982800715E+02  0.10566000000E+00 0. -1.
        994    1    1    2    0    0 -0.32104804014E+02  0.26904862655E+02  0.10002008763E+03  0.17005766082E+03  0.13100000000E+03 0.  0.
        997    1    1    2    0    0  0.41882589184E+02 -0.74548875807E+01  0.37936314682E+03  0.43095953846E+03  0.20000000000E+03 0.  0.
</event>
<event>
 5    1  0.6487493E-012  0.2434455E+03  0.7957747E-01  0.4406280E+00
         13   -1    0    0    0    0  0.00000000000E+00  0.00000000000E+00  0.49999998884E+03  0.50000000000E+03  0.10566000000E+00 0. -1.
        994   -1    0    0    0    0 -0.00000000000E+00 -0.00000000000E+00  0.00000000000E+00  0.13100000000E+03  0.13100000000E+03 0.  0.
         13    1    1    2    0    0 -0.20092889925E+02 -0.15235155376E+02  0.13347295587E+02  0.28530608973E+02  0.10566000000E+00 0.  1.
        994    1    1    2    0    0  0.90385822021E+00 -0.20302402111E+02  0.10279019336E+03  0.16774930206E+03  0.13100000000E+03 0.  0.
        997    1    1    2    0    0  0.19189031704E+02  0.35537557487E+02  0.38386249988E+03  0.43472008896E+03  0.20000000000E+03 0.  0.
</event>
<event>
 5    1  0.6487493E-012  0.2350221E+03  0.7957747E-01  0.4506867E+00
         13   -1    0    0    0    0  0.00000000000E+00  0.00000000000E+00  0.49999998884E+03  0.50000000000E+03  0.10566000000E+00 0.  1.
        994   -1    0    0    0    0 -0.00000000000E+00 -0.00000000000E+00  0.00000000000E+00  0.13100000000E+03  0.13100000000E+03 0.  0.
         13    1    1    2    0    0 -0.14001782427E+02 -0.11641740598E+02  0.12616432308E+02  0.22153229189E+02  0.10566000000E+00 0. -1.
        994    1    1    2    0    0  0.41435953906E+01  0.19614220518E+02  0.79893536119E+02  0.15474451248E+03  0.13100000000E+03 0.  0.
        997    1    1    2    0    0  0.98581870365E+01 -0.79724799204E+01  0.40749002041E+03  0.45410225833E+03  0.20000000000E+03 0.  0.
</event>
<event>
 5    1  0.6487493E-012  0.2460355E+03  0.7957747E-01  0.4376987E+00
         13   -1    0    0    0    0  0.00000000000E+00  0.00000000000E+00  0.49999998884E+03  0.50000000000E+03  0.10566000000E+00 0. -1.
        994   -1    0    0    0    0 -0.00000000000E+00 -0.00000000000E+00  0.00000000000E+00  0.13100000000E+03  0.13100000000E+03 0.  0.
         13    1    1    2    0    0  0.34615771185E+02  0.55123174216E+01  0.23338365605E+02  0.42110898011E+02  0.10566000000E+00 0.  1.
        994    1    1    2    0    0 -0.17225079353E+02 -0.32684571689E+02  0.13515028623E+03  0.19181132514E+03  0.13100000000E+03 0.  0.
        997    1    1    2    0    0 -0.17390691832E+02  0.27172254267E+02  0.34151133700E+03  0.39707777685E+03  0.20000000000E+03 0.  0.
</event>
<event>
 5    1  0.6487493E-012  0.2403394E+03  0.7957747E-01  0.4442396E+00
         13   -1    0    0    0    0  0.00000000000E+00  0.00000000000E+00  0.49999998884E+03  0.50000000000E+03  0.10566000000E+00 0. -1.
        994   -1    0    0    0    0 -0.00000000000E+00 -0.00000000000E+00  0.00000000000E+00  0.13100000000E+03  0.13100000000E+03 0.  0.
         13    1    1    2    0    0  0.22024225258E+01 -0.29780177815E+02  0.51217046772E+02  0.59286648579E+02  0.10566000000E+00 0.  1.
        994    1    1    2    0    0  0.41584147336E+02  0.46863162361E+01  0.11466648454E+03  0.17905475572E+03  0.13100000000E+03 0.  0.
        997    1    1    2    0    0 -0.43786569862E+02  0.25093861579E+02  0.33411645752E+03  0.39265859570E+03  0.20000000000E+03 0.  0.
</event>
<event>
 5    1  0.6487493E-012  0.2315537E+03  0.7957747E-01  0.4550839E+00
         13   -1    0    0    0    0  0.00000000000E+00  0.00000000000E+00  0.49999998884E+03  0.50000000000E+03  0.10566000000E+00 0.  1.
        994   -1    0    0    0    0 -0.00000000000E+00 -0.00000000000E+00  0.00000000000E+00  0.13100000000E+03  0.13100000000E+03 0.  0.
         13    1    1    2    0    0 -0.19825728654E+02  0.42053454753E+01  0.14132659428E+02  0.24708048765E+02  0.10566000000E+00 0. -1.
        994    1    1    2    0    0  0.79384371033E+02  0.33650922512E+01  0.18808948195E+03  0.24259401359E+03  0.13100000000E+03 0.  0.
        997    1    1    2    0    0 -0.59558642379E+02 -0.75704377265E+01  0.29777784745E+03  0.36369793764E+03  0.20000000000E+03 0.  0.
</event>
<event>
 5    1  0.6487493E-012  0.2351454E+03  0.7957747E-01  0.4505332E+00
         13   -1    0    0    0    0  0.00000000000E+00  0.00000000000E+00  0.49999998884E+03  0.50000000000E+03  0.10566000000E+00 0. -1.
        994   -1    0    0    0    0 -0.00000000000E+00 -0.00000000000E+00  0.00000000000E+00  0.13100000000E+03  0.13100000000E+03 0.  0.
         13    1    1    2    0    0  0.11265786799E+02  0.86442225018E+01  0.28639318692E+01  0.14486331649E+02  0.10566000000E+00 0.  1.
        994    1    1    2    0    0 -0.80938603755E+01 -0.45704631703E+02  0.10304100012E+03  0.17301118935E+03  0.13100000000E+03 0.  0.
        997    1    1    2    0    0 -0.31719264237E+01  0.37060409201E+02  0.39409505685E+03  0.44350247900E+03  0.20000000000E+03 0.  0.
</event>
<event>
 5    1  0.6487493E-012  0.2305627E+03  0.7957747E-01  0.4563695E+00
         13   -1    0    0    0    0  0.00000000000E+00  0.00000000000E+00  0.49999998884E+03  0.50000000000E+03  0.10566000000E+00 0. -1.
        994   -1    0    0    0    0 -0.00000000000E+00 -0.00000000000E+00  0.00000000000E+00  0.13100000000E+03  0.13100000000E+03 0.  0.
         13    1    1    2    0    0  0.37364216189E+01 -0.11822412519E+02  0.10993027835E+02  0.16570700326E+02  0.10566000000E+00 0.  1.
        994    1    1    2    0    0 -0.13011289651E+02 -0.36565071238E+01  0.68525173788E+02  0.14845660358E+03  0.13100000000E+03 0.  0.
        997    1    1    2    0    0  0.92748680322E+01  0.15478919643E+02  0.42048178721E+03  0.46597269610E+03  0.20000000000E+03 0.  0.
</event>
<event>
 5    1  0.6487493E-012  0.2328898E+03  0.7957747E-01  0.4533713E+00
         13   -1    0    0    0    0  0.00000000000E+00  0.00000000000E+00  0.49999998884E+03  0.50000000000E+03  0.10566000000E+00 0. -1.
        994   -1    0    0    0    0 -0.00000000000E+00 -0.00000000000E+00  0.00000000000E+00  0.13100000000E+03  0.13100000000E+03 0.  0.
         13    1    1    2    0    0  0.90394419958E+01 -0.70414175341E+01  0.32447675573E+01  0.11909355693E+02  0.10566000000E+00 0.  1.
        994    1    1    2    0    0 -0.25084250238E+02 -0.10153813286E+02  0.79052877756E+02  0.15537913958E+03  0.13100000000E+03 0.  0.
        997    1    1    2    0    0  0.16044808243E+02  0.17195230820E+02  0.41770234352E+03  0.46371150473E+03  0.20000000000E+03 0.  0.
</event>
<event>
 5    1  0.6487493E-012  0.2427438E+03  0.7957747E-01  0.4414344E+00
         13   -1    0    0    0    0  0.00000000000E+00  0.00000000000E+00  0.49999998884E+03  0.50000000000E+03  0.10566000000E+00 0. -1.
        994   -1    0    0    0    0 -0.00000000000E+00 -0.00000000000E+00  0.00000000000E+00  0.13100000000E+03  0.13100000000E+03 0.  0.
         13    1    1    2    0    0 -0.31503508416E+02 -0.19589545487E+02  0.45100638673E+02  0.58397774853E+02  0.10566000000E+00 0.  1.
        994    1    1    2    0    0  0.45084315103E+02 -0.14522048326E+02  0.13806169699E+03  0.19612627955E+03  0.13100000000E+03 0.  0.
        997    1    1    2    0    0 -0.13580806687E+02  0.34111593814E+02  0.31683765317E+03  0.37647594559E+03  0.20000000000E+03 0.  0.
</event>
<event>
 5    1  0.6487493E-012  0.2386207E+03  0.7957747E-01  0.4462861E+00
         13   -1    0    0    0    0  0.00000000000E+00  0.00000000000E+00  0.49999998884E+03  0.50000000000E+03  0.10566000000E+00 0. -1.
        994   -1    0    0    0    0 -0.00000000000E+00 -0.00000000000E+00  0.00000000000E+00  0.13100000000E+03  0.13100000000E+03 0.  0.
         13    1    1    2    0    0 -0.23729301267E+02 -0.62051692692E+01  0.59188190217E+02  0.64069001003E+02  0.10566000000E+00 0.  1.
        994    1    1    2    0    0  0.49305681248E+01 -0.50517062782E+02  0.12313875713E+03  0.18681658824E+03  0.13100000000E+03 0.  0.
        997    1    1    2    0    0  0.18798733143E+02  0.56722232051E+02  0.31767304149E+03  0.38011441076E+03  0.20000000000E+03 0.  0.
</event>
<event>
 5    1  0.6487493E-012  0.2488554E+03  0.7957747E-01  0.4345906E+00
         13   -1    0    0    0    0  0.00000000000E+00  0.00000000000E+00  0.49999998884E+03  0.50000000000E+03  0.10566000000E+00 0. -1.
        994   -1    0    0    0    0 -0.00000000000E+00 -0.00000000000E+00  0.00000000000E+00  0.13100000000E+03  0.13100000000E+03 0.  0.
         13    1    1    2    0    0  0.18684601414E+02  0.25327990846E+02  0.11034644069E+02  0.33352600859E+02  0.10566000000E+00 0.  1.
        994    1    1    2    0    0  0.27303227975E+02  0.11432950376E+02  0.21249008638E+03  0.25137465151E+03  0.13100000000E+03 0.  0.
        997    1    1    2    0    0 -0.45987829388E+02 -0.36760941222E+02  0.27647525838E+03  0.34627274763E+03  0.20000000000E+03 0.  0.
</event>
<event>
 5    1  0.8753450E-012  0.2429885E+03  0.7957747E-01  0.4411526E+00
         13   -1    0    0    0    0  0.00000000000E+00  0.00000000000E+00  0.49999998884E+03  0.50000000000E+03  0.10566000000E+00 0.  1.
        994   -1    0    0    0    0 -0.00000000000E+00 -0.00000000000E+00  0.00000000000E+00  0.13100000000E+03  0.13100000000E+03 0.  0.
         13    1    1    2    0    0 -0.18627400457E+02 -0.21123633516E+01  0.25587402651E+01  0.18920899621E+02  0.10566000000E+00 0. -1.
        994    1    1    2    0    0 -0.11078536801E+02 -0.79032197130E+01  0.97657099569E+02  0.16396067808E+03  0.13100000000E+03 0.  0.
        997    1    1    2    0    0  0.29705937258E+02  0.10015583065E+02  0.39978414900E+03  0.44811842230E+03  0.20000000000E+03 0.  0.
</event>
<event>
 5    1  0.6487493E-012  0.2497135E+03  0.7957747E-01  0.4336611E+00
         13   -1    0    0    0    0  0.00000000000E+00  0.00000000000E+00  0.49999998884E+03  0.50000000000E+03  0.10566000000E+00 0.  1.
        994   -1    0    0    0    0 -0.00000000000E+00 -0.00000000000E+00  0.00000000000E+00  0.13100000000E+03  0.13100000000E+03 0.  0.
         13    1    1    2    0    0  0.29660306758E+02 -0.71377224071E+01  0.12750084985E+02  0.33064432693E+02  0.10566000000E+00 0. -1.
        994    1    1    2    0    0  0.26379011579E+02 -0.13618299487E+02  0.15035556645E+03  0.20161623619E+03  0.13100000000E+03 0.  0.
        997    1    1    2    0    0 -0.56039318337E+02  0.20756021894E+02  0.33689433740E+03  0.39631933112E+03  0.20000000000E+03 0.  0.
</event>
<event>
 5    1  0.6487493E-012  0.2393311E+03  0.7957747E-01  0.4454360E+00
         13   -1    0    0    0    0  0.00000000000E+00  0.00000000000E+00  0.49999998884E+03  0.50000000000E+03  0.10566000000E+00 0.  1.
        994   -1    0    0    0    0 -0.00000000000E+00 -0.00000000000E+00  0.00000000000E+00  0.13100000000E+03  0.13100000000E+03 0.  0.
         13    1    1    2    0    0  0.20654569765E+02 -0.34564767429E-01  0.11060549730E+02  0.23429882015E+02  0.10566000000E+00 0. -1.
        994    1    1    2    0    0  0.54533303288E+02 -0.24875793264E+02  0.22356008247E+03  0.26595638126E+03  0.13100000000E+03 0.  0.
        997    1    1    2    0    0 -0.75187873053E+02  0.24910358032E+02  0.26537935664E+03  0.34161373673E+03  0.20000000000E+03 0.  0.
</event>
<event>
 5    1  0.6487493E-012  0.2404885E+03  0.7957747E-01  0.4440638E+00
         13   -1    0    0    0    0  0.00000000000E+00  0.00000000000E+00  0.49999998884E+03  0.50000000000E+03  0.10566000000E+00 0.  1.
        994   -1    0    0    0    0 -0.00000000000E+00 -0.00000000000E+00  0.00000000000E+00  0.13100000000E+03  0.13100000000E+03 0.  0.
         13    1    1    2    0    0 -0.20562987079E+02  0.23718540847E+02  0.54200605494E+02  0.62634833898E+02  0.10566000000E+00 0. -1.
        994    1    1    2    0    0  0.56852149166E+01 -0.52442811812E+01  0.88723074380E+02  0.15840646477E+03  0.13100000000E+03 0.  0.
        997    1    1    2    0    0  0.14877772163E+02 -0.18474259666E+02  0.35707630896E+03  0.40995870133E+03  0.20000000000E+03 0.  0.
</event>
<event>
 5    1  0.6487493E-012  0.2386955E+03  0.7957747E-01  0.4461963E+00
         13   -1    0    0    0    0  0.00000000000E+00  0.00000000000E+00  0.49999998884E+03  0.50000000000E+03  0.10566000000E+00 0.  1.
        994   -1    0    0    0    0 -0.00000000000E+00 -0.00000000000E+00  0.00000000000E+00  0.13100000000E+03  0.13100000000E+03 0.  0.
         13    1    1    2    0    0  0.14684300933E+02 -0.27497588367E+02  0.32873485151E+02  0.45303678105E+02  0.10566000000E+00 0. -1.
        994    1    1    2    0    0 -0.38394777060E+02  0.29378197864E+02  0.11881338592E+03  0.18334355208E+03  0.13100000000E+03 0.  0.
        997    1    1    2    0    0  0.23710476127E+02 -0.18806094974E+01  0.34831311777E+03  0.40235276982E+03  0.20000000000E+03 0.  0.
</event>
<event>
 5    1  0.6487493E-012  0.2437484E+03  0.7957747E-01  0.4402817E+00
         13   -1    0    0    0    0  0.00000000000E+00  0.00000000000E+00  0.49999998884E+03  0.50000000000E+03  0.10566000000E+00 0. -1.
        994   -1    0    0    0    0 -0.00000000000E+00 -0.00000000000E+00  0.00000000000E+00  0.13100000000E+03  0.13100000000E+03 0.  0.
         13    1    1    2    0    0 -0.35592546130E+02 -0.73476410596E+01  0.40552418368E+02  0.54454815844E+02  0.10566000000E+00 0.  1.
        994    1    1    2    0    0  0.22047536549E+02  0.20091066612E+01  0.10514347196E+03  0.16942927750E+03  0.13100000000E+03 0.  0.
        997    1    1    2    0    0  0.13545009581E+02  0.53385343984E+01  0.35430409851E+03  0.40711590666E+03  0.20000000000E+03 0.  0.
</event>
<event>
 5    1  0.6487493E-012  0.2411689E+03  0.7957747E-01  0.4432643E+00
         13   -1    0    0    0    0  0.00000000000E+00  0.00000000000E+00  0.49999998884E+03  0.50000000000E+03  0.10566000000E+00 0. -1.
        994   -1    0    0    0    0 -0.00000000000E+00 -0.00000000000E+00  0.00000000000E+00  0.13100000000E+03  0.13100000000E+03 0.  0.
         13    1    1    2    0    0  0.35405272396E+00  0.15622477091E+02  0.31064947287E+00  0.15629933170E+02  0.10566000000E+00 0.  1.
        994    1    1    2    0    0  0.16261688716E+01  0.56115803024E+02  0.15602026507E+03  0.21131718077E+03  0.13100000000E+03 0.  0.
        997    1    1    2    0    0 -0.19802215956E+01 -0.71738280115E+02  0.34366907429E+03  0.40405288606E+03  0.20000000000E+03 0.  0.
</event>
<event>
 5    1  0.6487493E-012  0.2349556E+03  0.7957747E-01  0.4507695E+00
         13   -1    0    0    0    0  0.00000000000E+00  0.00000000000E+00  0.49999998884E+03  0.50000000000E+03  0.10566000000E+00 0.  1.
        994   -1    0    0    0    0 -0.00000000000E+00 -0.00000000000E+00  0.00000000000E+00  0.13100000000E+03  0.13100000000E+03 0.  0.
         13    1    1    2    0    0 -0.73607406842E+01 -0.76960682347E+01  0.11359963612E+01  0.10710351136E+02  0.10566000000E+00 0. -1.
        994    1    1    2    0    0 -0.23194118773E+02 -0.35564425458E+02  0.97473766598E+02  0.16871553182E+03  0.13100000000E+03 0.  0.
        997    1    1    2    0    0  0.30554859457E+02  0.43260493693E+02  0.40139022588E+03  0.45157411704E+03  0.20000000000E+03 0.  0.
</event>
<event>
 5    1  0.6487493E-012  0.2414695E+03  0.7957747E-01  0.4429129E+00
         13   -1    0    0    0    0  0.00000000000E+00  0.00000000000E+00  0.49999998884E+03  0.50000000000E+03  0.10566000000E+00 0.  1.
        994   -1    0    0    0    0 -0.00000000000E+00 -0.00000000000E+00  0.00000000000E+00  0.13100000000E+03  0.13100000000E+03 0.  0.
         13    1    1    2    0    0 -0.21594336111E+02 -0.21960934984E+02  0.39512379360E+02  0.50098276459E+02  0.10566000000E+00 0. -1.
        994    1    1    2    0    0  0.12755469731E+02 -0.12144844029E+02  0.94974674011E+02  0.16276175210E+03  0.13100000000E+03 0.  0.
        997    1    1    2    0    0  0.88388663800E+01  0.34105779013E+02  0.36551293547E+03  0.41813997144E+03  0.20000000000E+03 0.  0.
</event>
<event>
 5    1  0.6487493E-012  0.2412825E+03  0.7957747E-01  0.4431314E+00
         13   -1    0    0    0    0  0.00000000000E+00  0.00000000000E+00  0.49999998884E+03  0.50000000000E+03  0.10566000000E+00 0. -1.
        994   -1    0    0    0    0 -0.00000000000E+00 -0.00000000000E+00  0.00000000000E+00  0.13100000000E+03  0.13100000000E+03 0.  0.
         13    1    1    2    0    0 -0.28578789700E+02 -0.44843417609E+01  0.41338483973E+02  0.50455306589E+02  0.10566000000E+00 0.  1.
        994    1    1    2    0    0 -0.18186143279E+02  0.49979834815E+01  0.95097587719E+02  0.16297320895E+03  0.13100000000E+03 0.  0.
        997    1    1    2    0    0  0.46764932979E+02 -0.51364172061E+00  0.36356391714E+03  0.41757148446E+03  0.20000000000E+03 0.  0.
</event>
<event>
 5    1  0.6487493E-012  0.2468679E+03  0.7957747E-01  0.4367725E+00
         13   -1    0    0    0    0  0.00000000000E+00  0.00000000000E+00  0.49999998884E+03  0.50000000000E+03  0.10566000000E+00 0. -1.
        994   -1    0    0    0    0 -0.00000000000E+00 -0.00000000000E+00  0.00000000000E+00  0.13100000000E+03  0.13100000000E+03 0.  0.
         13    1    1    2    0    0  0.20115160870E+02 -0.22517893727E+02  0.13082824973E+02  0.32906636231E+02  0.10566000000E+00 0.  1.
        994    1    1    2    0    0 -0.17097553406E+02  0.45213860385E+01  0.11408430604E+03  0.17461099091E+03  0.13100000000E+03 0.  0.
        997    1    1    2    0    0 -0.30176074633E+01  0.17996507688E+02  0.37283285783E+03  0.42348237286E+03  0.20000000000E+03 0.  0.
</event>
<event>
 5    1  0.6487493E-012  0.2315709E+03  0.7957747E-01  0.4550616E+00
         13   -1    0    0    0    0  0.00000000000E+00  0.00000000000E+00  0.49999998884E+03  0.50000000000E+03  0.10566000000E+00 0. -1.
        994   -1    0    0    0    0 -0.00000000000E+00 -0.00000000000E+00  0.00000000000E+00  0.13100000000E+03  0.13100000000E+03 0.  0.
         13    1    1    2    0    0 -0.18374713012E+02  0.50957825556E+01  0.33169563698E+02  0.38260007816E+02  0.10566000000E+00 0.  1.
        994    1    1    2    0    0  0.35819546571E+02  0.14386900361E+02  0.84864326767E+02  0.16078860898E+03  0.13100000000E+03 0.  0.
        997    1    1    2    0    0 -0.17444833559E+02 -0.19482682916E+02  0.38196609837E+03  0.43195138321E+03  0.20000000000E+03 0.  0.
</event>
<event>
 5    1  0.6487493E-012  0.2300718E+03  0.7957747E-01  0.4570114E+00
         13   -1    0    0    0    0  0.00000000000E+00  0.00000000000E+00  0.49999998884E+03  0.50000000000E+03  0.10566000000E+00 0. -1.
        994   -1    0    0    0    0 -0.00000000000E+00 -0.00000000000E+00  0.00000000000E+00  0.13100000000E+03  0.13100000000E+03 0.  0.
         13    1    1    2    0    0 -0.11139305652E+02  0.18561942236E+01  0.12668813078E+02  0.16971728735E+02  0.10566000000E+00 0.  1.
        994    1    1    2    0    0 -0.24627499917E+02  0.48406111686E+02  0.99208442721E+02  0.17306929395E+03  0.13100000000E+03 0.  0.
        997    1    1    2    0    0  0.35766805569E+02 -0.50262305910E+02  0.38812273304E+03  0.44095897732E+03  0.20000000000E+03 0.  0.
</event>
<event>
 5    1  0.6487493E-012  0.2303391E+03  0.7957747E-01  0.4566615E+00
         13   -1    0    0    0    0  0.00000000000E+00  0.00000000000E+00  0.49999998884E+03  0.50000000000E+03  0.10566000000E+00 0.  1.
        994   -1    0    0    0    0 -0.00000000000E+00 -0.00000000000E+00  0.00000000000E+00  0.13100000000E+03  0.13100000000E+03 0.  0.
         13    1    1    2    0    0 -0.10655049939E+02 -0.11643356155E+02  0.41581318924E+02  0.44476005657E+02  0.10566000000E+00 0. -1.
        994    1    1    2    0    0  0.22797995648E+02  0.11908128365E+02  0.73055991385E+02  0.15218321196E+03  0.13100000000E+03 0.  0.
        997    1    1    2    0    0 -0.12142945709E+02 -0.26477221014E+00  0.38536267853E+03  0.43434078238E+03  0.20000000000E+03 0.  0.
</event>
<event>
 5    1  0.6487493E-012  0.2486821E+03  0.7957747E-01  0.4347792E+00
         13   -1    0    0    0    0  0.00000000000E+00  0.00000000000E+00  0.49999998884E+03  0.50000000000E+03  0.10566000000E+00 0.  1.
        994   -1    0    0    0    0 -0.00000000000E+00 -0.00000000000E+00  0.00000000000E+00  0.13100000000E+03  0.13100000000E+03 0.  0.
         13    1    1    2    0    0 -0.41303890476E+02 -0.14272601747E+02  0.32485998064E+02  0.54452454153E+02  0.10566000000E+00 0. -1.
        994    1    1    2    0    0  0.32106056208E+02  0.18241409433E+02  0.16721810981E+03  0.21560715227E+03  0.13100000000E+03 0.  0.
        997    1    1    2    0    0  0.91978342678E+01 -0.39688076866E+01  0.30029588096E+03  0.36094039357E+03  0.20000000000E+03 0.  0.
</event>
<event>
 5    1  0.6487493E-012  0.2309022E+03  0.7957747E-01  0.4559276E+00
         13   -1    0    0    0    0  0.00000000000E+00  0.00000000000E+00  0.49999998884E+03  0.50000000000E+03  0.10566000000E+00 0. -1.
        994   -1    0    0    0    0 -0.00000000000E+00 -0.00000000000E+00  0.00000000000E+00  0.13100000000E+03  0.13100000000E+03 0.  0.
         13    1    1    2    0    0  0.11700698365E+02 -0.75862880968E+01  0.14051590578E+02  0.19796880338E+02  0.10566000000E+00 0.  1.
        994    1    1    2    0    0 -0.32418554575E+02 -0.41283261100E+02  0.98951553189E+02  0.17235916049E+03  0.13100000000E+03 0.  0.
        997    1    1    2    0    0  0.20717856210E+02  0.48869549196E+02  0.38699684507E+03  0.43884395917E+03  0.20000000000E+03 0.  0.
</event>
<event>
 5    1  0.6487493E-012  0.2387708E+03  0.7957747E-01  0.4461060E+00
         13   -1    0    0    0    0  0.00000000000E+00  0.00000000000E+00  0.49999998884E+03  0.50000000000E+03  0.10566000000E+00 0.  1.
        994   -1    0    0    0    0 -0.00000000000E+00 -0.00000000000E+00  0.00000000000E+00  0.13100000000E+03  0.13100000000E+03 0.  0.
         13    1    1    2    0    0  0.13576780190E+02  0.19562382233E+02  0.75592679545E+01  0.24983383578E+02  0.10566000000E+00 0. -1.
        994    1    1    2    0    0 -0.59645113660E+02 -0.22664133098E+02  0.17140432682E+03  0.22497032196E+03  0.13100000000E+03 0.  0.
        997    1    1    2    0    0  0.46068333470E+02  0.31017508653E+01  0.32103639407E+03  0.38104629446E+03  0.20000000000E+03 0.  0.
</event>
<event>
 5    1  0.6487493E-012  0.2491491E+03  0.7957747E-01  0.4342716E+00
         13   -1    0    0    0    0  0.00000000000E+00  0.00000000000E+00  0.49999998884E+03  0.50000000000E+03  0.10566000000E+00 0. -1.
        994   -1    0    0    0    0 -0.00000000000E+00 -0.00000000000E+00  0.00000000000E+00  0.13100000000E+03  0.13100000000E+03 0.  0.
         13    1    1    2    0    0  0.35065425510E+02  0.53781142080E+01  0.24564496963E+02  0.43150131560E+02  0.10566000000E+00 0.  1.
        994    1    1    2    0    0  0.47769642881E+01  0.21203625449E+02  0.13000825426E+03  0.18583745397E+03  0.13100000000E+03 0.  0.
        997    1    1    2    0    0 -0.39842389798E+02 -0.26581739657E+02  0.34542723761E+03  0.40201241447E+03  0.20000000000E+03 0.  0.
</event>
<event>
 5    1  0.6487493E-012  0.2420451E+03  0.7957747E-01  0.4422427E+00
         13   -1    0    0    0    0  0.00000000000E+00  0.00000000000E+00  0.49999998884E+03  0.50000000000E+03  0.10566000000E+00 0.  1.
        994   -1    0    0    0    0 -0.00000000000E+00 -0.00000000000E+00  0.00000000000E+00  0.13100000000E+03  0.13100000000E+03 0.  0.
         13    1    1    2    0    0  0.36880600722E+02 -0.64184131825E+01  0.49484558350E+02  0.62049233811E+02  0.10566000000E+00 0. -1.
        994    1    1    2    0    0 -0.30166741597E+02  0.41992824055E+02  0.14617912112E+03  0.20298464233E+03  0.13100000000E+03 0.  0.
        997    1    1    2    0    0 -0.67138591242E+01 -0.35574410873E+02  0.30433630937E+03  0.36596612386E+03  0.20000000000E+03 0.  0.
</event>
<event>
 5    1  0.6487493E-012  0.2340507E+03  0.7957747E-01  0.4519024E+00
         13   -1    0    0    0    0  0.00000000000E+00  0.00000000000E+00  0.49999998884E+03  0.50000000000E+03  0.10566000000E+00 0. -1.
        994   -1    0    0    0    0 -0.00000000000E+00 -0.00000000000E+00  0.00000000000E+00  0.13100000000E+03  0.13100000000E+03 0.  0.
         13    1    1    2    0    0 -0.64185702177E+01 -0.14866795174E+02  0.50108786812E+01  0.16951097651E+02  0.10566000000E+00 0.  1.
        994    1    1    2    0    0  0.27818607797E+02  0.54381062819E+02  0.12511264948E+03  0.19116838126E+03  0.13100000000E+03 0.  0.
        997    1    1    2    0    0 -0.21400037579E+02 -0.39514267645E+02  0.36987646068E+03  0.42288052109E+03  0.20000000000E+03 0.  0.
</event>
<event>
 5    1  0.6487493E-012  0.2402474E+03  0.7957747E-01  0.4443483E+00
         13   -1    0    0    0    0  0.00000000000E+00  0.00000000000E+00  0.49999998884E+03  0.50000000000E+03  0.10566000000E+00 0. -1.
        994   -1    0    0    0    0 -0.00000000000E+00 -0.00000000000E+00  0.00000000000E+00  0.13100000000E+03  0.13100000000E+03 0.  0.
         13    1    1    2    0    0  0.16075220466E+02 -0.15000172405E+02  0.12881259982E+02  0.25482462753E+02  0.10566000000E+00 0.  1.
        994    1    1    2    0    0 -0.12044420507E+02 -0.44246263953E+02  0.12102249557E+03  0.18414734419E+03  0.13100000000E+03 0.  0.
        997    1    1    2    0    0 -0.40307999592E+01  0.59246436358E+02  0.36609623329E+03  0.42137019306E+03  0.20000000000E+03 0.  0.
</event>
<event>
 5    1  0.6487493E-012  0.2388506E+03  0.7957747E-01  0.4460104E+00
         13   -1    0    0    0    0  0.00000000000E+00  0.00000000000E+00  0.49999998884E+03  0.50000000000E+03  0.10566000000E+00 0.  1.
        994   -1    0    0    0    0 -0.00000000000E+00 -0.00000000000E+00  0.00000000000E+00  0.13100000000E+03  0.13100000000E+03 0.  0.
         13    1    1    2    0    0 -0.38314072644E+00 -0.16427956991E+02  0.45497251502E+01  0.17050974479E+02  0.10566000000E+00 0. -1.
        994    1    1    2    0    0  0.26433641167E+02 -0.23767427155E+02  0.10129429159E+03  0.16936694331E+03  0.13100000000E+03 0.  0.
        997    1    1    2    0    0 -0.26050500440E+02  0.40195384146E+02  0.39415597210E+03  0.44458208221E+03  0.20000000000E+03 0.  0.
</event>
<event>
 5    1  0.6487493E-012  0.2290019E+03  0.7957747E-01  0.4584218E+00
         13   -1    0    0    0    0  0.00000000000E+00  0.00000000000E+00  0.49999998884E+03  0.50000000000E+03  0.10566000000E+00 0. -1.
        994   -1    0    0    0    0 -0.00000000000E+00 -0.00000000000E+00  0.00000000000E+00  0.13100000000E+03  0.13100000000E+03 0.  0.
         13    1    1    2    0    0  0.10364890951E+02 -0.98561113783E+01  0.21588227719E+02  0.25896652988E+02  0.10566000000E+00 0.  1.
        994    1    1    2    0    0 -0.30106883808E+02  0.21091764883E+02  0.77714400228E+02  0.15669018795E+03  0.13100000000E+03 0.  0.
        997    1    1    2    0    0  0.19741992856E+02 -0.11235653505E+02  0.40069736089E+03  0.44841315906E+03  0.20000000000E+03 0.  0.
</event>
<event>
 5    1  0.6487493E-012  0.2398651E+03  0.7957747E-01  0.4448010E+00
         13   -1    0    0    0    0  0.00000000000E+00  0.00000000000E+00  0.49999998884E+03  0.50000000000E+03  0.10566000000E+00 0.  1.
        994   -1    0    0    0    0 -0.00000000000E+00 -0.00000000000E+00  0.00000000000E+00  0.13100000000E+03  0.13100000000E+03 0.  0.
         13    1    1    2    0    0 -0.22640291384E+02  0.13639132977E+02  0.57209314398E+02  0.63020040941E+02  0.10566000000E+00 0. -1.
        994    1    1    2    0    0 -0.29539508116E+02 -0.11476741318E+02  0.10052524754E+03  0.16813870323E+03  0.13100000000E+03 0.  0.
        997    1    1    2    0    0  0.52179799499E+02 -0.21623916594E+01  0.34226542690E+03  0.39984125583E+03  0.20000000000E+03 0.  0.
</event>
<event>
 5    1  0.6487493E-012  0.2446853E+03  0.7957747E-01  0.4392167E+00
         13   -1    0    0    0    0  0.00000000000E+00  0.00000000000E+00  0.49999998884E+03  0.50000000000E+03  0.10566000000E+00 0. -1.
        994   -1    0    0    0    0 -0.00000000000E+00 -0.00000000000E+00  0.00000000000E+00  0.13100000000E+03  0.13100000000E+03 0.  0.
         13    1    1    2    0    0  0.30829485436E+02 -0.61966946881E+01  0.21992702242E+02  0.38373771163E+02  0.10566000000E+00 0.  1.
        994    1    1    2    0    0 -0.13118835031E+02 -0.34573225178E+01  0.10320106037E+03  0.16731860558E+03  0.13100000000E+03 0.  0.
        997    1    1    2    0    0 -0.17710650404E+02  0.96540172060E+01  0.37480622622E+03  0.42530762326E+03  0.20000000000E+03 0.  0.
</event>
<event>
 5    1  0.6487493E-012  0.2445105E+03  0.7957747E-01  0.4394147E+00
         13   -1    0    0    0    0  0.00000000000E+00  0.00000000000E+00  0.49999998884E+03  0.50000000000E+03  0.10566000000E+00 0. -1.
        994   -1    0    0    0    0 -0.00000000000E+00 -0.00000000000E+00  0.00000000000E+00  0.13100000000E+03  0.13100000000E+03 0.  0.
         13    1    1    2    0    0  0.34192337214E+02 -0.15982142852E+02  0.90583818067E+02  0.98132482257E+02  0.10566000000E+00 0.  1.
        994    1    1    2    0    0 -0.46214456961E+02 -0.34914960523E+01  0.14939479433E+03  0.20402884882E+03  0.13100000000E+03 0.  0.
        997    1    1    2    0    0  0.12022119746E+02  0.19473638904E+02  0.26002137644E+03  0.32883866893E+03  0.20000000000E+03 0.  0.
</event>
<event>
 5    1  0.6487493E-012  0.2368907E+03  0.7957747E-01  0.4483818E+00
         13   -1    0    0    0    0  0.00000000000E+00  0.00000000000E+00  0.49999998884E+03  0.50000000000E+03  0.10566000000E+00 0. -1.
        994   -1    0    0    0    0 -0.00000000000E+00 -0.00000000000E+00  0.00000000000E+00  0.13100000000E+03  0.13100000000E+03 0.  0.
         13    1    1    2    0    0 -0.17685294496E+02 -0.17587526362E+02  0.21800570593E+02  0.33126526639E+02  0.10566000000E+00 0.  1.
        994    1    1    2    0    0  0.18465152304E+02  0.32354642421E+02  0.97217545044E+02  0.16733211228E+03  0.13100000000E+03 0.  0.
        997    1    1    2    0    0 -0.77985780808E+00 -0.14767116059E+02  0.38098187320E+03  0.43054136108E+03  0.20000000000E+03 0.  0.
</event>
<event>
 5    1  0.6487493E-012  0.2304970E+03  0.7957747E-01  0.4564552E+00
         13   -1    0    0    0    0  0.00000000000E+00  0.00000000000E+00  0.49999998884E+03  0.50000000000E+03  0.10566000000E+00 0. -1.
        994   -1    0    0    0    0 -0.00000000000E+00 -0.00000000000E+00  0.00000000000E+00  0.13100000000E+03  0.13100000000E+03 0.  0.
         13    1    1    2    0    0  0.12774471707E+02 -0.52674485585E+01  0.42330650022E+02  0.44528959532E+02  0.10566000000E+00 0.  1.
        994    1    1    2    0    0 -0.23958984567E+00 -0.33317512673E+01  0.66672114885E+02  0.14702832677E+03  0.13100000000E+03 0.  0.
        997    1    1    2    0    0 -0.12534881861E+02  0.85991998258E+01  0.39099722393E+03  0.43944271370E+03  0.20000000000E+03 0.  0.
</event>
<event>
 5    1  0.6487493E-012  0.2413225E+03  0.7957747E-01  0.4430846E+00
         13   -1    0    0    0    0  0.00000000000E+00  0.00000000000E+00  0.49999998884E+03  0.50000000000E+03  0.10566000000E+00 0. -1.
        994   -1    0    0    0    0 -0.00000000000E+00 -0.00000000000E+00  0.00000000000E+00  0.13100000000E+03  0.13100000000E+03 0.  0.
         13    1    1    2    0    0 -0.21372733148E+02 -0.37758357209E+01  0.10437295270E+03  0.10660569908E+03  0.10566000000E+00 0.  1.
        994    1    1    2    0    0  0.23812087137E+02  0.30626112585E+02  0.11407373928E+03  0.17798537091E+03  0.13100000000E+03 0.  0.
        997    1    1    2    0    0 -0.24393539890E+01 -0.26850276864E+02  0.28155329686E+03  0.34640893001E+03  0.20000000000E+03 0.  0.
</event>
<event>
 5    1  0.6487493E-012  0.2308777E+03  0.7957747E-01  0.4559595E+00
         13   -1    0    0    0    0  0.00000000000E+00  0.00000000000E+00  0.49999998884E+03  0.50000000000E+03  0.10566000000E+00 0. -1.
        994   -1    0    0    0    0 -0.00000000000E+00 -0.00000000000E+00  0.00000000000E+00  0.13100000000E+03  0.13100000000E+03 0.  0.
         13    1    1    2    0    0 -0.40664888642E+01  0.11302785497E+02  0.59745016350E+01  0.13416226202E+02  0.10566000000E+00 0.  1.
        994    1    1    2    0    0  0.11527812975E+02 -0.36703317280E+02  0.83172253920E+02  0.15987072213E+03  0.13100000000E+03 0.  0.
        997    1    1    2    0    0 -0.74613241104E+01  0.25400531782E+02  0.41085323328E+03  0.45771305167E+03  0.20000000000E+03 0.  0.
</event>
<event>
 5    1  0.6487493E-012  0.2484678E+03  0.7957747E-01  0.4350129E+00
         13   -1    0    0    0    0  0.00000000000E+00  0.00000000000E+00  0.49999998884E+03  0.50000000000E+03  0.10566000000E+00 0.  1.
        994   -1    0    0    0    0 -0.00000000000E+00 -0.00000000000E+00  0.00000000000E+00  0.13100000000E+03  0.13100000000E+03 0.  0.
         13    1    1    2    0    0 -0.23467894856E+02  0.31177568625E+02  0.26010439682E+02  0.46897089577E+02  0.10566000000E+00 0. -1.
        994    1    1    2    0    0  0.12582961451E+02 -0.24324181319E+02  0.13364561887E+03  0.18913526419E+03  0.13100000000E+03 0.  0.
        997    1    1    2    0    0  0.10884933405E+02 -0.68533873057E+01  0.34034393028E+03  0.39496764623E+03  0.20000000000E+03 0.  0.
</event>
<event>
 5    1  0.6487493E-012  0.2419923E+03  0.7957747E-01  0.4423041E+00
         13   -1    0    0    0    0  0.00000000000E+00  0.00000000000E+00  0.49999998884E+03  0.50000000000E+03  0.10566000000E+00 0.  1.
        994   -1    0    0    0    0 -0.00000000000E+00 -0.00000000000E+00  0.00000000000E+00  0.13100000000E+03  0.13100000000E+03 0.  0.
         13    1    1    2    0    0  0.14503474913E+02  0.20782169498E+01 -0.19958032047E+01  0.14787297410E+02  0.10566000000E+00 0. -1.
        994    1    1    2    0    0  0.41061295910E+01  0.34364976798E+02  0.11109691611E+03  0.17521796911E+03  0.13100000000E+03 0.  0.
        997    1    1    2    0    0 -0.18609604504E+02 -0.36443193748E+02  0.39089887593E+03  0.44099473348E+03  0.20000000000E+03 0.  0.
</event>
<event>
 5    1  0.6487493E-012  0.2282321E+03  0.7957747E-01  0.4594466E+00
         13   -1    0    0    0    0  0.00000000000E+00  0.00000000000E+00  0.49999998884E+03  0.50000000000E+03  0.10566000000E+00 0. -1.
        994   -1    0    0    0    0 -0.00000000000E+00 -0.00000000000E+00  0.00000000000E+00  0.13100000000E+03  0.13100000000E+03 0.  0.
         13    1    1    2    0    0  0.76039511974E+01 -0.11354325968E+02  0.21650389351E+02  0.25602564619E+02  0.10566000000E+00 0.  1.
        994    1    1    2    0    0 -0.47415129282E+02  0.26471026270E+02  0.94294943141E+02  0.17029810926E+03  0.13100000000E+03 0.  0.
        997    1    1    2    0    0  0.39811178085E+02 -0.15116700303E+02  0.38405465634E+03  0.43509932612E+03  0.20000000000E+03 0.  0.
</event>
<event>
 5    1  0.6487493E-012  0.2487102E+03  0.7957747E-01  0.4347486E+00
         13   -1    0    0    0    0  0.00000000000E+00  0.00000000000E+00  0.49999998884E+03  0.50000000000E+03  0.10566000000E+00 0.  1.
        994   -1    0    0    0    0 -0.00000000000E+00 -0.00000000000E+00  0.00000000000E+00  0.13100000000E+03  0.13100000000E+03 0.  0.
         13    1    1    2    0    0 -0.34481156937E+02  0.96068813217E+01  0.46575821348E+02  0.58741473005E+02  0.10566000000E+00 0. -1.
        994    1    1    2    0    0 -0.36443989708E+02  0.76746873897E+01  0.17357043608E+03  0.22062357420E+03  0.13100000000E+03 0.  0.
        997    1    1    2    0    0  0.70925146645E+02 -0.17281568711E+02  0.27985373141E+03  0.35163495280E+03  0.20000000000E+03 0.  0.
</event>
<event>
 5    1  0.6487493E-012  0.2368072E+03  0.7957747E-01  0.4484838E+00
         13   -1    0    0    0    0  0.00000000000E+00  0.00000000000E+00  0.49999998884E+03  0.50000000000E+03  0.10566000000E+00 0.  1.
        994   -1    0    0    0    0 -0.00000000000E+00 -0.00000000000E+00  0.00000000000E+00  0.13100000000E+03  0.13100000000E+03 0.  0.
         13    1    1    2    0    0  0.26453922801E+02 -0.27655693872E+01  0.38813165838E+02  0.47052432583E+02  0.10566000000E+00 0. -1.
        994    1    1    2    0    0 -0.22434921843E+02 -0.25062781488E+02  0.93433381280E+02  0.16438450496E+03  0.13100000000E+03 0.  0.
        997    1    1    2    0    0 -0.40190009585E+01  0.27828350876E+02  0.36775344172E+03  0.41956306246E+03  0.20000000000E+03 0.  0.
</event>
<event>
 5    1  0.6487493E-012  0.2277130E+03  0.7957747E-01  0.4601423E+00
         13   -1    0    0    0    0  0.00000000000E+00  0.00000000000E+00  0.49999998884E+03  0.50000000000E+03  0.10566000000E+00 0.  1.
        994   -1    0    0    0    0 -0.00000000000E+00 -0.00000000000E+00  0.00000000000E+00  0.13100000000E+03  0.13100000000E+03 0.  0.
         13    1    1    2    0    0 -0.30215729929E+01 -0.12311849865E+02  0.22887171408E+02  0.26163817182E+02  0.10566000000E+00 0. -1.
        994    1    1    2    0    0  0.20794974549E+02  0.42760073439E+02  0.84960126631E+02  0.16321788494E+03  0.13100000000E+03 0.  0.
        997    1    1    2    0    0 -0.17773401556E+02 -0.30448223575E+02  0.39215269080E+03  0.44161829788E+03  0.20000000000E+03 0.  0.
</event>
<event>
 5    1  0.6487493E-012  0.2324719E+03  0.7957747E-01  0.4539044E+00
         13   -1    0    0    0    0  0.00000000000E+00  0.00000000000E+00  0.49999998884E+03  0.50000000000E+03  0.10566000000E+00 0. -1.
        994   -1    0    0    0    0 -0.00000000000E+00 -0.00000000000E+00  0.00000000000E+00  0.13100000000E+03  0.13100000000E+03 0.  0.
         13    1    1    2    0    0 -0.14161086811E+02  0.42605531027E+01  0.82787387570E+01  0.16948078707E+02  0.10566000000E+00 0.  1.
        994    1    1    2    0    0  0.37493103281E+02 -0.49745222199E+01  0.86260985378E+02  0.16134570420E+03  0.13100000000E+03 0.  0.
        997    1    1    2    0    0 -0.23332016470E+02  0.71396911715E+00  0.40546026470E+03  0.45270621709E+03  0.20000000000E+03 0.  0.
</event>
<event>
 5    1  0.6487493E-012  0.2380976E+03  0.7957747E-01  0.4469160E+00
         13   -1    0    0    0    0  0.00000000000E+00  0.00000000000E+00  0.49999998884E+03  0.50000000000E+03  0.10566000000E+00 0.  1.
        994   -1    0    0    0    0 -0.00000000000E+00 -0.00000000000E+00  0.00000000000E+00  0.13100000000E+03  0.13100000000E+03 0.  0.
         13    1    1    2    0    0  0.64185397403E+00  0.12779675424E+02  0.39880103379E+00  0.12802432846E+02  0.10566000000E+00 0. -1.
        994    1    1    2    0    0  0.15310649584E+02  0.53036097254E+02  0.13053536517E+03  0.19299669728E+03  0.13100000000E+03 0.  0.
        997    1    1    2    0    0 -0.15952503558E+02 -0.65815772678E+02  0.36906582263E+03  0.42520086987E+03  0.20000000000E+03 0.  0.
</event>
<event>
 5    1  0.6487493E-012  0.2481764E+03  0.7957747E-01  0.4353314E+00
         13   -1    0    0    0    0  0.00000000000E+00  0.00000000000E+00  0.49999998884E+03  0.50000000000E+03  0.10566000000E+00 0. -1.
        994   -1    0    0    0    0 -0.00000000000E+00 -0.00000000000E+00  0.00000000000E+00  0.13100000000E+03  0.13100000000E+03 0.  0.
         13    1    1    2    0    0 -0.13420234492E+02  0.86501937781E+01 -0.60642131995E+01  0.17079648474E+02  0.10566000000E+00 0.  1.
        994    1    1    2    0    0  0.10195896556E+01  0.27396238900E+02  0.13168245904E+03  0.18775745920E+03  0.13100000000E+03 0.  0.
        997    1    1    2    0    0  0.12400644836E+02 -0.36046432679E+02  0.37438174300E+03  0.42616289232E+03  0.20000000000E+03 0.  0.
</event>
<event>
 5    1  0.6487493E-012  0.2336704E+03  0.7957747E-01  0.4523817E+00
         13   -1    0    0    0    0  0.00000000000E+00  0.00000000000E+00  0.49999998884E+03  0.50000000000E+03  0.10566000000E+00 0.  1.
        994   -1    0    0    0    0 -0.00000000000E+00 -0.00000000000E+00  0.00000000000E+00  0.13100000000E+03  0.13100000000E+03 0.  0.
         13    1    1    2    0    0 -0.17794505194E+02  0.13213205931E+02  0.35030240399E+02  0.41453131758E+02  0.10566000000E+00 0. -1.
        994    1    1    2    0    0  0.16996212513E+02 -0.18534754618E+02  0.79601679303E+02  0.15533781161E+03  0.13100000000E+03 0.  0.
        997    1    1    2    0    0  0.79829268145E+00  0.53215486868E+01  0.38536806913E+03  0.43420905663E+03  0.20000000000E+03 0.  0.
</event>
<event>
 5    1  0.6487493E-012  0.2270125E+03  0.7957747E-01  0.4610874E+00
         13   -1    0    0    0    0  0.00000000000E+00  0.00000000000E+00  0.49999998884E+03  0.50000000000E+03  0.10566000000E+00 0. -1.
        994   -1    0    0    0    0 -0.00000000000E+00 -0.00000000000E+00  0.00000000000E+00  0.13100000000E+03  0.13100000000E+03 0.  0.
         13    1    1    2    0    0  0.72787861628E+01  0.80583209797E+01  0.14196253297E+02  0.17873500964E+02  0.10566000000E+00 0.  1.
        994    1    1    2    0    0 -0.26411528985E+02 -0.48185342046E+02  0.92092573575E+02  0.16929689353E+03  0.13100000000E+03 0.  0.
        997    1    1    2    0    0  0.19132742823E+02  0.40127021067E+02  0.39371116196E+03  0.44382960551E+03  0.20000000000E+03 0.  0.
</event>
<event>
 5    1  0.6487493E-012  0.2422084E+03  0.7957747E-01  0.4420534E+00
         13   -1    0    0    0    0  0.00000000000E+00  0.00000000000E+00  0.49999998884E+03  0.50000000000E+03  0.10566000000E+00 0.  1.
        994   -1    0    0    0    0 -0.00000000000E+00 -0.00000000000E+00  0.00000000000E+00  0.13100000000E+03  0.13100000000E+03 0.  0.
         13    1    1    2    0    0  0.96637136903E+01  0.22856070775E+02  0.19780038428E+02  0.31734026183E+02  0.10566000000E+00 0. -1.
        994    1    1    2    0    0  0.13103881677E+01  0.45918654492E+02  0.13114231151E+03  0.19097001287E+03  0.13100000000E+03 0.  0.
        997    1    1    2    0    0 -0.10974101858E+02 -0.68774725267E+02  0.34907763889E+03  0.40829596094E+03  0.20000000000E+03 0.  0.
</event>
<event>
 5    1  0.6487493E-012  0.2407898E+03  0.7957747E-01  0.4437092E+00
         13   -1    0    0    0    0  0.00000000000E+00  0.00000000000E+00  0.49999998884E+03  0.50000000000E+03  0.10566000000E+00 0. -1.
        994   -1    0    0    0    0 -0.00000000000E+00 -0.00000000000E+00  0.00000000000E+00  0.13100000000E+03  0.13100000000E+03 0.  0.
         13    1    1    2    0    0 -0.26466400349E+02  0.72812852890E+01  0.72599672991E+02  0.77615791855E+02  0.10566000000E+00 0.  1.
        994    1    1    2    0    0 -0.14462070106E+02 -0.12699564170E+02  0.93889795592E+02  0.16231674010E+03  0.13100000000E+03 0.  0.
        997    1    1    2    0    0  0.40928470455E+02  0.54182788807E+01  0.33351052025E+03  0.39106746804E+03  0.20000000000E+03 0.  0.
</event>
<event>
 5    1  0.6487493E-012  0.2357625E+03  0.7957747E-01  0.4497682E+00
         13   -1    0    0    0    0  0.00000000000E+00  0.00000000000E+00  0.49999998884E+03  0.50000000000E+03  0.10566000000E+00 0.  1.
        994   -1    0    0    0    0 -0.00000000000E+00 -0.00000000000E+00  0.00000000000E+00  0.13100000000E+03  0.13100000000E+03 0.  0.
         13    1    1    2    0    0  0.17125040133E+02 -0.15859329888E+02  0.91270986792E+01  0.25061932056E+02  0.10566000000E+00 0. -1.
        994    1    1    2    0    0 -0.68514043427E+02  0.13651159986E+02  0.21724856107E+03  0.26313203074E+03  0.13100000000E+03 0.  0.
        997    1    1    2    0    0  0.51389003294E+02  0.22081699019E+01  0.27362432909E+03  0.34280603720E+03  0.20000000000E+03 0.  0.
</event>
<event>
 5    1  0.6487493E-012  0.2449052E+03  0.7957747E-01  0.4389681E+00
         13   -1    0    0    0    0  0.00000000000E+00  0.00000000000E+00  0.49999998884E+03  0.50000000000E+03  0.10566000000E+00 0. -1.
        994   -1    0    0    0    0 -0.00000000000E+00 -0.00000000000E+00  0.00000000000E+00  0.13100000000E+03  0.13100000000E+03 0.  0.
         13    1    1    2    0    0  0.29447888020E+02 -0.43400459656E+01  0.32098383956E+02  0.43775924027E+02  0.10566000000E+00 0.  1.
        994    1    1    2    0    0  0.42669754304E+02 -0.13766609337E+02  0.14779845420E+03  0.20252311110E+03  0.13100000000E+03 0.  0.
        997    1    1    2    0    0 -0.72117642324E+02  0.18106655303E+02  0.32010315068E+03  0.38470096487E+03  0.20000000000E+03 0.  0.
</event>
<event>
 5    1  0.6487493E-012  0.2521750E+03  0.7957747E-01  0.4310356E+00
         13   -1    0    0    0    0  0.00000000000E+00  0.00000000000E+00  0.49999998884E+03  0.50000000000E+03  0.10566000000E+00 0. -1.
        994   -1    0    0    0    0 -0.00000000000E+00 -0.00000000000E+00  0.00000000000E+00  0.13100000000E+03  0.13100000000E+03 0.  0.
         13    1    1    2    0    0 -0.33297764491E+02  0.14751903491E+02  0.16773654499E+02  0.40096464008E+02  0.10566000000E+00 0.  1.
        994    1    1    2    0    0 -0.15662309307E+02  0.11850906820E+02  0.18649802918E+03  0.22875372525E+03  0.13100000000E+03 0.  0.
        997    1    1    2    0    0  0.48960073798E+02 -0.26602810311E+02  0.29672830516E+03  0.36214981075E+03  0.20000000000E+03 0.  0.
</event>
<event>
 5    1  0.6487493E-012  0.2421278E+03  0.7957747E-01  0.4421468E+00
         13   -1    0    0    0    0  0.00000000000E+00  0.00000000000E+00  0.49999998884E+03  0.50000000000E+03  0.10566000000E+00 0. -1.
        994   -1    0    0    0    0 -0.00000000000E+00 -0.00000000000E+00  0.00000000000E+00  0.13100000000E+03  0.13100000000E+03 0.  0.
         13    1    1    2    0    0  0.50751111962E+01 -0.23357043900E+02  0.11608025886E+02  0.26571896478E+02  0.10566000000E+00 0.  1.
        994    1    1    2    0    0 -0.27937008079E+02 -0.80902905731E+01  0.10547587272E+03  0.17068124955E+03  0.13100000000E+03 0.  0.
        997    1    1    2    0    0  0.22861896882E+02  0.31447334473E+02  0.38291609023E+03  0.43374685397E+03  0.20000000000E+03 0.  0.
</event>
<event>
 5    1  0.6487493E-012  0.2325479E+03  0.7957747E-01  0.4538073E+00
         13   -1    0    0    0    0  0.00000000000E+00  0.00000000000E+00  0.49999998884E+03  0.50000000000E+03  0.10566000000E+00 0. -1.
        994   -1    0    0    0    0 -0.00000000000E+00 -0.00000000000E+00  0.00000000000E+00  0.13100000000E+03  0.13100000000E+03 0.  0.
         13    1    1    2    0    0  0.11706313429E+02  0.11132517906E+02  0.14449275121E+02  0.21674026959E+02  0.10566000000E+00 0.  1.
        994    1    1    2    0    0 -0.32041199953E+02  0.16216315405E+02  0.84756006230E+02  0.16010680177E+03  0.13100000000E+03 0.  0.
        997    1    1    2    0    0  0.20334886524E+02 -0.27348833311E+02  0.40079470748E+03  0.44921917128E+03  0.20000000000E+03 0.  0.
</event>
<event>
 5    1  0.7216867E-012  0.2479810E+03  0.7957747E-01  0.4355455E+00
         13   -1    0    0    0    0  0.00000000000E+00  0.00000000000E+00  0.49999998884E+03  0.50000000000E+03  0.10566000000E+00 0.  1.
        994   -1    0    0    0    0 -0.00000000000E+00 -0.00000000000E+00  0.00000000000E+00  0.13100000000E+03  0.13100000000E+03 0.  0.
         13    1    1    2    0    0  0.49869289629E+01 -0.11029186517E+02 -0.90742654812E+01  0.15128313646E+02  0.10566000000E+00 0. -1.
        994    1    1    2    0    0  0.28436914608E+02  0.12083814743E+02  0.13654318632E+03  0.19172824107E+03  0.13100000000E+03 0.  0.
        997    1    1    2    0    0 -0.33423843571E+02 -0.10546282260E+01  0.37253106799E+03  0.42414344529E+03  0.20000000000E+03 0.  0.
</event>
<event>
 5    1  0.6487493E-012  0.2400862E+03  0.7957747E-01  0.4445389E+00
         13   -1    0    0    0    0  0.00000000000E+00  0.00000000000E+00  0.49999998884E+03  0.50000000000E+03  0.10566000000E+00 0.  1.
        994   -1    0    0    0    0 -0.00000000000E+00 -0.00000000000E+00  0.00000000000E+00  0.13100000000E+03  0.13100000000E+03 0.  0.
         13    1    1    2    0    0  0.80978604200E+01 -0.29124814301E+02  0.46354718625E+02  0.55340773886E+02  0.10566000000E+00 0. -1.
        994    1    1    2    0    0 -0.58853006601E+02 -0.48016043003E+01  0.15843457231E+03  0.21389073260E+03  0.13100000000E+03 0.  0.
        997    1    1    2    0    0  0.50755146181E+02  0.33926418601E+02  0.29521069790E+03  0.36176849351E+03  0.20000000000E+03 0.  0.
</event>
<event>
 5    1  0.6487493E-012  0.2426492E+03  0.7957747E-01  0.4415435E+00
         13   -1    0    0    0    0  0.00000000000E+00  0.00000000000E+00  0.49999998884E+03  0.50000000000E+03  0.10566000000E+00 0.  1.
        994   -1    0    0    0    0 -0.00000000000E+00 -0.00000000000E+00  0.00000000000E+00  0.13100000000E+03  0.13100000000E+03 0.  0.
         13    1    1    2    0    0 -0.29198190538E+01  0.30805334156E+02  0.28445799974E+02  0.42031757707E+02  0.10566000000E+00 0. -1.
        994    1    1    2    0    0 -0.85196233780E+01 -0.99955577232E+01  0.96422920949E+02  0.16318968975E+03  0.13100000000E+03 0.  0.
        997    1    1    2    0    0  0.11439442432E+02 -0.20809776433E+02  0.37513126791E+03  0.42577855254E+03  0.20000000000E+03 0.  0.
</event>
<event>
 5    1  0.6487493E-012  0.2407183E+03  0.7957747E-01  0.4437932E+00
         13   -1    0    0    0    0  0.00000000000E+00  0.00000000000E+00  0.49999998884E+03  0.50000000000E+03  0.10566000000E+00 0. -1.
        994   -1    0    0    0    0 -0.00000000000E+00 -0.00000000000E+00  0.00000000000E+00  0.13100000000E+03  0.13100000000E+03 0.  0.
         13    1    1    2    0    0  0.25844414120E+02  0.13552401721E+02  0.83108622160E+02  0.88083230952E+02  0.10566000000E+00 0.  1.
        994    1    1    2    0    0 -0.89341176015E+01 -0.67909176221E+01  0.90240877090E+02  0.15946896537E+03  0.13100000000E+03 0.  0.
        997    1    1    2    0    0 -0.16910296518E+02 -0.67614840994E+01  0.32665048959E+03  0.38344780367E+03  0.20000000000E+03 0.  0.
</event>
<event>
 5    1  0.7241080E-012  0.2435780E+03  0.7957747E-01  0.4404764E+00
         13   -1    0    0    0    0  0.00000000000E+00  0.00000000000E+00  0.49999998884E+03  0.50000000000E+03  0.10566000000E+00 0.  1.
        994   -1    0    0    0    0 -0.00000000000E+00 -0.00000000000E+00  0.00000000000E+00  0.13100000000E+03  0.13100000000E+03 0.  0.
         13    1    1    2    0    0 -0.25091324121E+01 -0.18651719983E+02  0.65541161532E+00  0.18831439993E+02  0.10566000000E+00 0. -1.
        994    1    1    2    0    0  0.31861634851E+01  0.13209857532E+02  0.99510240086E+02  0.16506950008E+03  0.13100000000E+03 0.  0.
        997    1    1    2    0    0 -0.67703107305E+00  0.54418624508E+01  0.39983433713E+03  0.44709905993E+03  0.20000000000E+03 0.  0.
</event>
<event>
 5    1  0.6487493E-012  0.2314563E+03  0.7957747E-01  0.4552096E+00
         13   -1    0    0    0    0  0.00000000000E+00  0.00000000000E+00  0.49999998884E+03  0.50000000000E+03  0.10566000000E+00 0. -1.
        994   -1    0    0    0    0 -0.00000000000E+00 -0.00000000000E+00  0.00000000000E+00  0.13100000000E+03  0.13100000000E+03 0.  0.
         13    1    1    2    0    0  0.32817833001E+01  0.15630613205E+02  0.22043756300E+02  0.27221765678E+02  0.10566000000E+00 0.  1.
        994    1    1    2    0    0 -0.23382090912E+02  0.16861621633E+01  0.74070672708E+02  0.15230571189E+03  0.13100000000E+03 0.  0.
        997    1    1    2    0    0  0.20100307612E+02 -0.17316775368E+02  0.40388555983E+03  0.45147252243E+03  0.20000000000E+03 0.  0.
</event>
<event>
 5    1  0.6487493E-012  0.2392073E+03  0.7957747E-01  0.4455837E+00
         13   -1    0    0    0    0  0.00000000000E+00  0.00000000000E+00  0.49999998884E+03  0.50000000000E+03  0.10566000000E+00 0.  1.
        994   -1    0    0    0    0 -0.00000000000E+00 -0.00000000000E+00  0.00000000000E+00  0.13100000000E+03  0.13100000000E+03 0.  0.
         13    1    1    2    0    0 -0.10074159572E+02  0.19448862931E+02  0.83731690636E+01  0.23449266184E+02  0.10566000000E+00 0. -1.
        994    1    1    2    0    0  0.35319113644E+02 -0.23613317685E+02  0.11125134774E+03  0.17703923558E+03  0.13100000000E+03 0.  0.
        997    1    1    2    0    0 -0.25244954072E+02  0.41644547546E+01  0.38037547203E+03  0.43051149824E+03  0.20000000000E+03 0.  0.
</event>
<event>
 5    1  0.8037265E-012  0.2391905E+03  0.7957747E-01  0.4456037E+00
         13   -1    0    0    0    0  0.00000000000E+00  0.00000000000E+00  0.49999998884E+03  0.50000000000E+03  0.10566000000E+00 0. -1.
        994   -1    0    0    0    0 -0.00000000000E+00 -0.00000000000E+00  0.00000000000E+00  0.13100000000E+03  0.13100000000E+03 0.  0.
         13    1    1    2    0    0  0.54824652081E+01 -0.11521767605E+02 -0.10093643617E+01  0.12799942732E+02  0.10566000000E+00 0.  1.
        994    1    1    2    0    0  0.29500743993E+02 -0.35836422734E+01  0.96677741583E+02  0.16550142629E+03  0.13100000000E+03 0.  0.
        997    1    1    2    0    0 -0.34983209201E+02  0.15105409878E+02  0.40433161162E+03  0.45269863097E+03  0.20000000000E+03 0.  0.
</event>
<event>
 5    1  0.6487493E-012  0.2384143E+03  0.7957747E-01  0.4465342E+00
         13   -1    0    0    0    0  0.00000000000E+00  0.00000000000E+00  0.49999998884E+03  0.50000000000E+03  0.10566000000E+00 0.  1.
        994   -1    0    0    0    0 -0.00000000000E+00 -0.00000000000E+00  0.00000000000E+00  0.13100000000E+03  0.13100000000E+03 0.  0.
         13    1    1    2    0    0 -0.19699294922E+02  0.19163657329E+02  0.34145572752E+02  0.43831943663E+02  0.10566000000E+00 0. -1.
        994    1    1    2    0    0 -0.59947015657E+01 -0.24166459893E+02  0.90830627339E+02  0.16134174008E+03  0.13100000000E+03 0.  0.
        997    1    1    2    0    0  0.25693996488E+02  0.50028025645E+01  0.37502378874E+03  0.42582631625E+03  0.20000000000E+03 0.  0.
</event>
<event>
 5    1  0.6487493E-012  0.2412148E+03  0.7957747E-01  0.4432107E+00
         13   -1    0    0    0    0  0.00000000000E+00  0.00000000000E+00  0.49999998884E+03  0.50000000000E+03  0.10566000000E+00 0. -1.
        994   -1    0    0    0    0 -0.00000000000E+00 -0.00000000000E+00  0.00000000000E+00  0.13100000000E+03  0.13100000000E+03 0.  0.
         13    1    1    2    0    0 -0.11719413513E+02  0.28878718690E+02  0.17997484146E+02  0.35989521334E+02  0.10566000000E+00 0.  1.
        994    1    1    2    0    0 -0.18082619335E+02 -0.55571054406E+02  0.17254788843E+03  0.22438559894E+03  0.13100000000E+03 0.  0.
        997    1    1    2    0    0  0.29802032847E+02  0.26692335717E+02  0.30945461626E+03  0.37062487972E+03  0.20000000000E+03 0.  0.
</event>
<event>
 5    1  0.6737329E-012  0.2400369E+03  0.7957747E-01  0.4445973E+00
         13   -1    0    0    0    0  0.00000000000E+00  0.00000000000E+00  0.49999998884E+03  0.50000000000E+03  0.10566000000E+00 0. -1.
        994   -1    0    0    0    0 -0.00000000000E+00 -0.00000000000E+00  0.00000000000E+00  0.13100000000E+03  0.13100000000E+03 0.  0.
         13    1    1    2    0    0 -0.50212184497E+01  0.13855951197E+02 -0.19844101142E+01  0.14871081529E+02  0.10566000000E+00 0.  1.
        994    1    1    2    0    0  0.28063184635E+02 -0.32190621099E+02  0.11478459890E+03  0.17933288199E+03  0.13100000000E+03 0.  0.
        997    1    1    2    0    0 -0.23041966185E+02  0.18334669902E+02  0.38719980005E+03  0.43679603648E+03  0.20000000000E+03 0.  0.
</event>
<event>
 5    1  0.6487493E-012  0.2480304E+03  0.7957747E-01  0.4354914E+00
         13   -1    0    0    0    0  0.00000000000E+00  0.00000000000E+00  0.49999998884E+03  0.50000000000E+03  0.10566000000E+00 0. -1.
        994   -1    0    0    0    0 -0.00000000000E+00 -0.00000000000E+00  0.00000000000E+00  0.13100000000E+03  0.13100000000E+03 0.  0.
         13    1    1    2    0    0  0.28823873144E+02 -0.25557184503E+02  0.81174657644E+02  0.89851664149E+02  0.10566000000E+00 0.  1.
        994    1    1    2    0    0  0.97096647071E+01  0.23670519064E+01  0.11481043310E+03  0.17447726520E+03  0.13100000000E+03 0.  0.
        997    1    1    2    0    0 -0.38533537851E+02  0.23190132597E+02  0.30401489809E+03  0.36667107065E+03  0.20000000000E+03 0.  0.
</event>
<event>
 5    1  0.6487493E-012  0.2510366E+03  0.7957747E-01  0.4322424E+00
         13   -1    0    0    0    0  0.00000000000E+00  0.00000000000E+00  0.49999998884E+03  0.50000000000E+03  0.10566000000E+00 0.  1.
        994   -1    0    0    0    0 -0.00000000000E+00 -0.00000000000E+00  0.00000000000E+00  0.13100000000E+03  0.13100000000E+03 0.  0.
         13    1    1    2    0    0 -0.74557157307E+00 -0.25694914043E+02  0.10860825066E+01  0.25728879181E+02  0.10566000000E+00 0. -1.
        994    1    1    2    0    0  0.84111288718E+01 -0.28367983899E+01  0.13102989889E+03  0.18549563045E+03  0.13100000000E+03 0.  0.
        997    1    1    2    0    0 -0.76655572987E+01  0.28531712433E+02  0.36788400744E+03  0.41977549036E+03  0.20000000000E+03 0.  0.
</event>
<event>
 5    1  0.6817018E-012  0.2349777E+03  0.7957747E-01  0.4507420E+00
         13   -1    0    0    0    0  0.00000000000E+00  0.00000000000E+00  0.49999998884E+03  0.50000000000E+03  0.10566000000E+00 0.  1.
        994   -1    0    0    0    0 -0.00000000000E+00 -0.00000000000E+00  0.00000000000E+00  0.13100000000E+03  0.13100000000E+03 0.  0.
         13    1    1    2    0    0 -0.13834483306E+01 -0.13922780119E+02  0.31210798056E+01  0.14335621323E+02  0.10566000000E+00 0. -1.
        994    1    1    2    0    0  0.13774129733E+02  0.33128005852E+02  0.90654832121E+02  0.16329877528E+03  0.13100000000E+03 0.  0.
        997    1    1    2    0    0 -0.12390681402E+02 -0.19205225733E+02  0.40622407691E+03  0.45336560340E+03  0.20000000000E+03 0.  0.
</event>
<event>
 5    1  0.8016990E-012  0.2444567E+03  0.7957747E-01  0.4394757E+00
         13   -1    0    0    0    0  0.00000000000E+00  0.00000000000E+00  0.49999998884E+03  0.50000000000E+03  0.10566000000E+00 0.  1.
        994   -1    0    0    0    0 -0.00000000000E+00 -0.00000000000E+00  0.00000000000E+00  0.13100000000E+03  0.13100000000E+03 0.  0.
         13    1    1    2    0    0  0.39352589407E+01 -0.12184559871E+02 -0.53843287777E+01  0.13890713538E+02  0.10566000000E+00 0. -1.
        994    1    1    2    0    0 -0.57752635916E+01  0.88028717763E+00  0.99934972382E+02  0.16487003148E+03  0.13100000000E+03 0.  0.
        997    1    1    2    0    0  0.18400046509E+01  0.11304272693E+02  0.40544934523E+03  0.45223925498E+03  0.20000000000E+03 0.  0.
</event>
<event>
 5    1  0.6487493E-012  0.2521701E+03  0.7957747E-01  0.4310408E+00
         13   -1    0    0    0    0  0.00000000000E+00  0.00000000000E+00  0.49999998884E+03  0.50000000000E+03  0.10566000000E+00 0.  1.
        994   -1    0    0    0    0 -0.00000000000E+00 -0.00000000000E+00  0.00000000000E+00  0.13100000000E+03  0.13100000000E+03 0.  0.
         13    1    1    2    0    0  0.42357676947E+02 -0.13767156314E+02  0.80243560407E+02  0.91775528003E+02  0.10566000000E+00 0. -1.
        994    1    1    2    0    0  0.67521110609E+01  0.16236804762E+02  0.15225858735E+03  0.20162564880E+03  0.13100000000E+03 0.  0.
        997    1    1    2    0    0 -0.49109788008E+02 -0.24696484478E+01  0.26749784108E+03  0.33759882319E+03  0.20000000000E+03 0.  0.
</event>
<event>
 5    1  0.6487493E-012  0.2445295E+03  0.7957747E-01  0.4393932E+00
         13   -1    0    0    0    0  0.00000000000E+00  0.00000000000E+00  0.49999998884E+03  0.50000000000E+03  0.10566000000E+00 0.  1.
        994   -1    0    0    0    0 -0.00000000000E+00 -0.00000000000E+00  0.00000000000E+00  0.13100000000E+03  0.13100000000E+03 0.  0.
         13    1    1    2    0    0 -0.13520643583E+02  0.40079895871E+02  0.42299918301E+02  0.59820565930E+02  0.10566000000E+00 0. -1.
        994    1    1    2    0    0  0.27854312761E+01 -0.49223164562E+02  0.16463267315E+03  0.21609163711E+03  0.13100000000E+03 0.  0.
        997    1    1    2    0    0  0.10735212307E+02  0.91432686911E+01  0.29306739738E+03  0.35508779696E+03  0.20000000000E+03 0.  0.
</event>
<event>
 5    1  0.6487493E-012  0.2476120E+03  0.7957747E-01  0.4359508E+00
         13   -1    0    0    0    0  0.00000000000E+00  0.00000000000E+00  0.49999998884E+03  0.50000000000E+03  0.10566000000E+00 0. -1.
        994   -1    0    0    0    0 -0.00000000000E+00 -0.00000000000E+00  0.00000000000E+00  0.13100000000E+03  0.13100000000E+03 0.  0.
         13    1    1    2    0    0  0.18901051075E+02 -0.40982238869E+02  0.64103574009E+02  0.78396894066E+02  0.10566000000E+00 0.  1.
        994    1    1    2    0    0 -0.37126092046E+02  0.16351424254E+02  0.16724864735E+03  0.21628413216E+03  0.13100000000E+03 0.  0.
        997    1    1    2    0    0  0.18225040972E+02  0.24630814614E+02  0.26864776748E+03  0.33631897377E+03  0.20000000000E+03 0.  0.
</event>
<event>
 5    1  0.6487493E-012  0.2277316E+03  0.7957747E-01  0.4601174E+00
         13   -1    0    0    0    0  0.00000000000E+00  0.00000000000E+00  0.49999998884E+03  0.50000000000E+03  0.10566000000E+00 0. -1.
        994   -1    0    0    0    0 -0.00000000000E+00 -0.00000000000E+00  0.00000000000E+00  0.13100000000E+03  0.13100000000E+03 0.  0.
         13    1    1    2    0    0  0.81970449003E+01  0.62417964951E+01  0.10448898151E+02  0.14674542759E+02  0.10566000000E+00 0.  1.
        994    1    1    2    0    0 -0.30330591844E+02 -0.21288706693E+02  0.75381753219E+02  0.15561671682E+03  0.13100000000E+03 0.  0.
        997    1    1    2    0    0  0.22133546943E+02  0.15046910198E+02  0.41416933747E+03  0.46070874042E+03  0.20000000000E+03 0.  0.
</event>
<event>
 5    1  0.6487493E-012  0.2294650E+03  0.7957747E-01  0.4578093E+00
         13   -1    0    0    0    0  0.00000000000E+00  0.00000000000E+00  0.49999998884E+03  0.50000000000E+03  0.10566000000E+00 0. -1.
        994   -1    0    0    0    0 -0.00000000000E+00 -0.00000000000E+00  0.00000000000E+00  0.13100000000E+03  0.13100000000E+03 0.  0.
         13    1    1    2    0    0  0.48132253381E+01 -0.16593620170E+02  0.27786937232E+02  0.32720642005E+02  0.10566000000E+00 0.  1.
        994    1    1    2    0    0 -0.58535910641E+02  0.49125965585E+02  0.14598861235E+03  0.21050769170E+03  0.13100000000E+03 0.  0.
        997    1    1    2    0    0  0.53722685302E+02 -0.32532345415E+02  0.32622443925E+03  0.38777166629E+03  0.20000000000E+03 0.  0.
</event>
<event>
 5    1  0.6487493E-012  0.2325711E+03  0.7957747E-01  0.4537777E+00
         13   -1    0    0    0    0  0.00000000000E+00  0.00000000000E+00  0.49999998884E+03  0.50000000000E+03  0.10566000000E+00 0. -1.
        994   -1    0    0    0    0 -0.00000000000E+00 -0.00000000000E+00  0.00000000000E+00  0.13100000000E+03  0.13100000000E+03 0.  0.
         13    1    1    2    0    0  0.19091470587E+02  0.52305243559E+00  0.48917855960E+02  0.52514051727E+02  0.10566000000E+00 0.  1.
        994    1    1    2    0    0 -0.27784711637E+02 -0.46570311701E+02  0.10651151901E+03  0.17733157591E+03  0.13100000000E+03 0.  0.
        997    1    1    2    0    0  0.86932410502E+01  0.46047259265E+02  0.34457061387E+03  0.40115437237E+03  0.20000000000E+03 0.  0.
</event>
<event>
 5    1  0.6487493E-012  0.2310719E+03  0.7957747E-01  0.4557073E+00
         13   -1    0    0    0    0  0.00000000000E+00  0.00000000000E+00  0.49999998884E+03  0.50000000000E+03  0.10566000000E+00 0. -1.
        994   -1    0    0    0    0 -0.00000000000E+00 -0.00000000000E+00  0.00000000000E+00  0.13100000000E+03  0.13100000000E+03 0.  0.
         13    1    1    2    0    0 -0.15555522355E+02 -0.78758917751E+01  0.23538362682E+02  0.29292825551E+02  0.10566000000E+00 0.  1.
        994    1    1    2    0    0  0.40558682232E+02 -0.10217645072E+02  0.86766212180E+02  0.16260006935E+03  0.13100000000E+03 0.  0.
        997    1    1    2    0    0 -0.25003159877E+02  0.18093536847E+02  0.38969541397E+03  0.43910710510E+03  0.20000000000E+03 0.  0.
</event>
<event>
 5    1  0.6487493E-012  0.2395209E+03  0.7957747E-01  0.4452099E+00
         13   -1    0    0    0    0  0.00000000000E+00  0.00000000000E+00  0.49999998884E+03  0.50000000000E+03  0.10566000000E+00 0. -1.
        994   -1    0    0    0    0 -0.00000000000E+00 -0.00000000000E+00  0.00000000000E+00  0.13100000000E+03  0.13100000000E+03 0.  0.
         13    1    1    2    0    0 -0.23790387370E+02  0.90435065476E+01  0.41121530295E+02  0.48360717114E+02  0.10566000000E+00 0.  1.
        994    1    1    2    0    0 -0.25555924215E+02  0.16268081372E+02  0.98165940396E+02  0.16647915061E+03  0.13100000000E+03 0.  0.
        997    1    1    2    0    0  0.49346311585E+02 -0.25311587920E+02  0.36071251814E+03  0.41616013228E+03  0.20000000000E+03 0.  0.
</event>
<event>
 5    1  0.6487493E-012  0.2445407E+03  0.7957747E-01  0.4393804E+00
         13   -1    0    0    0    0  0.00000000000E+00  0.00000000000E+00  0.49999998884E+03  0.50000000000E+03  0.10566000000E+00 0.  1.
        994   -1    0    0    0    0 -0.00000000000E+00 -0.00000000000E+00  0.00000000000E+00  0.13100000000E+03  0.13100000000E+03 0.  0.
         13    1    1    2    0    0 -0.31122022527E+02 -0.22217368070E+02  0.61255123676E+02  0.72210754536E+02  0.10566000000E+00 0. -1.
        994    1    1    2    0    0  0.13453713058E+02  0.55711903495E+01  0.10317505784E+03  0.16738617959E+03  0.13100000000E+03 0.  0.
        997    1    1    2    0    0  0.17668309469E+02  0.16646177720E+02  0.33556980732E+03  0.39140306587E+03  0.20000000000E+03 0.  0.
</event>
<event>
 5    1  0.6487493E-012  0.2323481E+03  0.7957747E-01  0.4540628E+00
         13   -1    0    0    0    0  0.00000000000E+00  0.00000000000E+00  0.49999998884E+03  0.50000000000E+03  0.10566000000E+00 0.  1.
        994   -1    0    0    0    0 -0.00000000000E+00 -0.00000000000E+00  0.00000000000E+00  0.13100000000E+03  0.13100000000E+03 0.  0.
         13    1    1    2    0    0  0.14141267113E+02 -0.71951389319E+01  0.13212235385E+02  0.20647512870E+02  0.10566000000E+00 0. -1.
        994    1    1    2    0    0  0.18658669676E+01  0.42634608664E+02  0.90748969609E+02  0.16497747362E+03  0.13100000000E+03 0.  0.
        997    1    1    2    0    0 -0.16007134080E+02 -0.35439469732E+02  0.39603878384E+03  0.44537501351E+03  0.20000000000E+03 0.  0.
</event>
<event>
 5    1  0.6487493E-012  0.2484474E+03  0.7957747E-01  0.4350352E+00
         13   -1    0    0    0    0  0.00000000000E+00  0.00000000000E+00  0.49999998884E+03  0.50000000000E+03  0.10566000000E+00 0. -1.
        994   -1    0    0    0    0 -0.00000000000E+00 -0.00000000000E+00  0.00000000000E+00  0.13100000000E+03  0.13100000000E+03 0.  0.
         13    1    1    2    0    0 -0.15215532269E+02 -0.20995861370E+02  0.28028363281E+01  0.26080752911E+02  0.10566000000E+00 0.  1.
        994    1    1    2    0    0  0.79128212363E+01  0.19282631082E+02  0.12469821972E+03  0.18205789904E+03  0.13100000000E+03 0.  0.
        997    1    1    2    0    0  0.73027110324E+01  0.17132302873E+01  0.37249893279E+03  0.42286134805E+03  0.20000000000E+03 0.  0.
</event>
<event>
 5    1  0.6487493E-012  0.2371606E+03  0.7957747E-01  0.4480524E+00
         13   -1    0    0    0    0  0.00000000000E+00  0.00000000000E+00  0.49999998884E+03  0.50000000000E+03  0.10566000000E+00 0.  1.
        994   -1    0    0    0    0 -0.00000000000E+00 -0.00000000000E+00  0.00000000000E+00  0.13100000000E+03  0.13100000000E+03 0.  0.
         13    1    1    2    0    0 -0.98679771915E+01 -0.23606822973E+02  0.72701946655E+02  0.77072973708E+02  0.10566000000E+00 0. -1.
        994    1    1    2    0    0 -0.20236842282E+02  0.51957964019E+02  0.12714828859E+03  0.19088438150E+03  0.13100000000E+03 0.  0.
        997    1    1    2    0    0  0.30104819473E+02 -0.28351141047E+02  0.30014975359E+03  0.36304264479E+03  0.20000000000E+03 0.  0.
</event>
<event>
 5    1  0.6487493E-012  0.2415258E+03  0.7957747E-01  0.4428473E+00
         13   -1    0    0    0    0  0.00000000000E+00  0.00000000000E+00  0.49999998884E+03  0.50000000000E+03  0.10566000000E+00 0.  1.
        994   -1    0    0    0    0 -0.00000000000E+00 -0.00000000000E+00  0.00000000000E+00  0.13100000000E+03  0.13100000000E+03 0.  0.
         13    1    1    2    0    0  0.15672286977E+01  0.20076063484E+02  0.62322421236E+01  0.21079766050E+02  0.10566000000E+00 0. -1.
        994    1    1    2    0    0 -0.20178656572E+02  0.90600940388E+01  0.97819119002E+02  0.16498134297E+03  0.13100000000E+03 0.  0.
        997    1    1    2    0    0  0.18611427874E+02 -0.29136157523E+02  0.39594862771E+03  0.44493889098E+03  0.20000000000E+03 0.  0.
</event>
<event>
 5    1  0.6487493E-012  0.2410216E+03  0.7957747E-01  0.4434370E+00
         13   -1    0    0    0    0  0.00000000000E+00  0.00000000000E+00  0.49999998884E+03  0.50000000000E+03  0.10566000000E+00 0.  1.
        994   -1    0    0    0    0 -0.00000000000E+00 -0.00000000000E+00  0.00000000000E+00  0.13100000000E+03  0.13100000000E+03 0.  0.
         13    1    1    2    0    0  0.18957930156E+02  0.23608140044E+02  0.36024441291E+02  0.47058675358E+02  0.10566000000E+00 0. -1.
        994    1    1    2    0    0  0.25927499056E+02 -0.26659368835E+02  0.11069536121E+03  0.17549193755E+03  0.13100000000E+03 0.  0.
        997    1    1    2    0    0 -0.44885429211E+02  0.30512287910E+01  0.35328018634E+03  0.40844938709E+03  0.20000000000E+03 0.  0.
</event>
<event>
 5    1  0.6966485E-012  0.2390096E+03  0.7957747E-01  0.4458199E+00
         13   -1    0    0    0    0  0.00000000000E+00  0.00000000000E+00  0.49999998884E+03  0.50000000000E+03  0.10566000000E+00 0. -1.
        994   -1    0    0    0    0 -0.00000000000E+00 -0.00000000000E+00  0.00000000000E+00  0.13100000000E+03  0.13100000000E+03 0.  0.
         13    1    1    2    0    0 -0.21875709455E+00 -0.16074779088E+02  0.14578850851E+01  0.16142582518E+02  0.10566000000E+00 0.  1.
        994    1    1    2    0    0  0.82450383924E+01  0.27396125705E+02  0.95225339224E+02  0.16446091813E+03  0.13100000000E+03 0.  0.
        997    1    1    2    0    0 -0.80262812978E+01 -0.11321346617E+02  0.40331676453E+03  0.45039649935E+03  0.20000000000E+03 0.  0.
</event>
<event>
 5    1  0.6487493E-012  0.2469056E+03  0.7957747E-01  0.4367307E+00
         13   -1    0    0    0    0  0.00000000000E+00  0.00000000000E+00  0.49999998884E+03  0.50000000000E+03  0.10566000000E+00 0.  1.
        994   -1    0    0    0    0 -0.00000000000E+00 -0.00000000000E+00  0.00000000000E+00  0.13100000000E+03  0.13100000000E+03 0.  0.
         13    1    1    2    0    0 -0.25537893150E+02 -0.23661362762E+02  0.35962669197E+02  0.50053659348E+02  0.10566000000E+00 0. -1.
        994    1    1    2    0    0 -0.15921743151E+02 -0.69647912086E+01  0.11402816752E+03  0.17454349948E+03  0.13100000000E+03 0.  0.
        997    1    1    2    0    0  0.41459636301E+02  0.30626153971E+02  0.35000915211E+03  0.40640284117E+03  0.20000000000E+03 0.  0.
</event>
<event>
 5    1  0.6487493E-012  0.2383541E+03  0.7957747E-01  0.4466066E+00
         13   -1    0    0    0    0  0.00000000000E+00  0.00000000000E+00  0.49999998884E+03  0.50000000000E+03  0.10566000000E+00 0.  1.
        994   -1    0    0    0    0 -0.00000000000E+00 -0.00000000000E+00  0.00000000000E+00  0.13100000000E+03  0.13100000000E+03 0.  0.
         13    1    1    2    0    0 -0.22492719487E+02 -0.25789298408E+02  0.49225190955E+02  0.59951154541E+02  0.10566000000E+00 0. -1.
        994    1    1    2    0    0  0.25381388404E+02  0.55631650367E+02  0.22988095637E+03  0.27156094988E+03  0.13100000000E+03 0.  0.
        997    1    1    2    0    0 -0.28886689174E+01 -0.29842351959E+02  0.22089384151E+03  0.29948789558E+03  0.20000000000E+03 0.  0.
</event>
<event>
 5    1  0.6487493E-012  0.2319856E+03  0.7957747E-01  0.4545277E+00
         13   -1    0    0    0    0  0.00000000000E+00  0.00000000000E+00  0.49999998884E+03  0.50000000000E+03  0.10566000000E+00 0.  1.
        994   -1    0    0    0    0 -0.00000000000E+00 -0.00000000000E+00  0.00000000000E+00  0.13100000000E+03  0.13100000000E+03 0.  0.
         13    1    1    2    0    0  0.18796813953E+02 -0.70101477921E+01  0.33446842944E+02  0.39002113453E+02  0.10566000000E+00 0. -1.
        994    1    1    2    0    0 -0.21905339261E+02  0.39483194696E+02  0.92564307933E+02  0.16663708367E+03  0.13100000000E+03 0.  0.
        997    1    1    2    0    0  0.31085253084E+01 -0.32473046904E+02  0.37398883796E+03  0.42536080288E+03  0.20000000000E+03 0.  0.
</event>
<event>
 5    1  0.6487493E-012  0.2322567E+03  0.7957747E-01  0.4541799E+00
         13   -1    0    0    0    0  0.00000000000E+00  0.00000000000E+00  0.49999998884E+03  0.50000000000E+03  0.10566000000E+00 0. -1.
        994   -1    0    0    0    0 -0.00000000000E+00 -0.00000000000E+00  0.00000000000E+00  0.13100000000E+03  0.13100000000E+03 0.  0.
         13    1    1    2    0    0 -0.52541589561E+01  0.16585110124E+02  0.12847814573E+02  0.21627518755E+02  0.10566000000E+00 0.  1.
        994    1    1    2    0    0 -0.24115457045E+02 -0.56129704611E+02  0.11779180394E+03  0.18646181401E+03  0.13100000000E+03 0.  0.
        997    1    1    2    0    0  0.29369616001E+02  0.39544594486E+02  0.36936037032E+03  0.42291066723E+03  0.20000000000E+03 0.  0.
</event>
<event>
 5    1  0.6487493E-012  0.2492871E+03  0.7957747E-01  0.4341220E+00
         13   -1    0    0    0    0  0.00000000000E+00  0.00000000000E+00  0.49999998884E+03  0.50000000000E+03  0.10566000000E+00 0. -1.
        994   -1    0    0    0    0 -0.00000000000E+00 -0.00000000000E+00  0.00000000000E+00  0.13100000000E+03  0.13100000000E+03 0.  0.
         13    1    1    2    0    0  0.30661185799E+02 -0.30100681197E+02  0.93067760628E+02  0.10250745610E+03  0.10566000000E+00 0.  1.
        994    1    1    2    0    0 -0.13957534157E+01  0.30395598225E+02  0.14738334268E+03  0.19952115231E+03  0.13100000000E+03 0.  0.
        997    1    1    2    0    0 -0.29265432383E+02 -0.29491702763E+00  0.25954888553E+03  0.32897139160E+03  0.20000000000E+03 0.  0.
</event>
<event>
 5    1  0.6487493E-012  0.2418298E+03  0.7957747E-01  0.4424930E+00
         13   -1    0    0    0    0  0.00000000000E+00  0.00000000000E+00  0.49999998884E+03  0.50000000000E+03  0.10566000000E+00 0.  1.
        994   -1    0    0    0    0 -0.00000000000E+00 -0.00000000000E+00  0.00000000000E+00  0.13100000000E+03  0.13100000000E+03 0.  0.
         13    1    1    2    0    0 -0.29747819723E+02  0.40931106670E+01  0.12435020241E+02  0.32501188065E+02  0.10566000000E+00 0. -1.
        994    1    1    2    0    0  0.54393487499E+02  0.17477467525E+02  0.17441440575E+03  0.22548946381E+03  0.13100000000E+03 0.  0.
        997    1    1    2    0    0 -0.24645667777E+02 -0.21570578192E+02  0.31315056284E+03  0.37300934813E+03  0.20000000000E+03 0.  0.
</event>
<event>
 5    1  0.6487493E-012  0.2305978E+03  0.7957747E-01  0.4563238E+00
         13   -1    0    0    0    0  0.00000000000E+00  0.00000000000E+00  0.49999998884E+03  0.50000000000E+03  0.10566000000E+00 0. -1.
        994   -1    0    0    0    0 -0.00000000000E+00 -0.00000000000E+00  0.00000000000E+00  0.13100000000E+03  0.13100000000E+03 0.  0.
         13    1    1    2    0    0  0.10566721489E+02  0.11117530031E+02  0.52109624550E+02  0.54320154748E+02  0.10566000000E+00 0.  1.
        994    1    1    2    0    0 -0.23472125388E+02 -0.32280318733E+02  0.83842258944E+02  0.16057236385E+03  0.13100000000E+03 0.  0.
        997    1    1    2    0    0  0.12905403899E+02  0.21162788702E+02  0.36404810534E+03  0.41610748140E+03  0.20000000000E+03 0.  0.
</event>
<event>
 5    1  0.6487493E-012  0.2312456E+03  0.7957747E-01  0.4554822E+00
         13   -1    0    0    0    0  0.00000000000E+00  0.00000000000E+00  0.49999998884E+03  0.50000000000E+03  0.10566000000E+00 0. -1.
        994   -1    0    0    0    0 -0.00000000000E+00 -0.00000000000E+00  0.00000000000E+00  0.13100000000E+03  0.13100000000E+03 0.  0.
         13    1    1    2    0    0 -0.67647282247E+01 -0.17817855752E+02  0.26731366196E+02  0.32830087333E+02  0.10566000000E+00 0.  1.
        994    1    1    2    0    0  0.27802557959E+01  0.45388587654E+02  0.91049232306E+02  0.16588796344E+03  0.13100000000E+03 0.  0.
        997    1    1    2    0    0  0.39844724287E+01 -0.27570731902E+02  0.38221939033E+03  0.43228194922E+03  0.20000000000E+03 0.  0.
</event>
<event>
 5    1  0.6487493E-012  0.2342312E+03  0.7957747E-01  0.4516757E+00
         13   -1    0    0    0    0  0.00000000000E+00  0.00000000000E+00  0.49999998884E+03  0.50000000000E+03  0.10566000000E+00 0.  1.
        994   -1    0    0    0    0 -0.00000000000E+00 -0.00000000000E+00  0.00000000000E+00  0.13100000000E+03  0.13100000000E+03 0.  0.
         13    1    1    2    0    0 -0.55355460489E+01  0.19760604039E+02  0.60661264844E+02  0.64038456872E+02  0.10566000000E+00 0. -1.
        994    1    1    2    0    0 -0.97311786514E+01 -0.18451725047E+02  0.78552469329E+02  0.15416436823E+03  0.13100000000E+03 0.  0.
        997    1    1    2    0    0  0.15266724700E+02 -0.13088789919E+01  0.36078625466E+03  0.41279717489E+03  0.20000000000E+03 0.  0.
</event>
<event>
 5    1  0.6487493E-012  0.2336450E+03  0.7957747E-01  0.4524138E+00
         13   -1    0    0    0    0  0.00000000000E+00  0.00000000000E+00  0.49999998884E+03  0.50000000000E+03  0.10566000000E+00 0. -1.
        994   -1    0    0    0    0 -0.00000000000E+00 -0.00000000000E+00  0.00000000000E+00  0.13100000000E+03  0.13100000000E+03 0.  0.
         13    1    1    2    0    0 -0.15646912713E+02 -0.84344414299E+01  0.12091319474E+02  0.21498298778E+02  0.10566000000E+00 0.  1.
        994    1    1    2    0    0  0.39077051935E+02  0.50395977689E+01  0.90642628352E+02  0.16410210117E+03  0.13100000000E+03 0.  0.
        997    1    1    2    0    0 -0.23430139221E+02  0.33948436610E+01  0.39726604101E+03  0.44539960005E+03  0.20000000000E+03 0.  0.
</event>
<event>
 5    1  0.6487493E-012  0.2375531E+03  0.7957747E-01  0.4475750E+00
         13   -1    0    0    0    0  0.00000000000E+00  0.00000000000E+00  0.49999998884E+03  0.50000000000E+03  0.10566000000E+00 0. -1.
        994   -1    0    0    0    0 -0.00000000000E+00 -0.00000000000E+00  0.00000000000E+00  0.13100000000E+03  0.13100000000E+03 0.  0.
         13    1    1    2    0    0 -0.30796303462E+02  0.36047044674E+01  0.69951455079E+02  0.76515511061E+02  0.10566000000E+00 0.  1.
        994    1    1    2    0    0  0.64992511652E+02  0.14640176141E+01  0.16169263923E+03  0.21801761282E+03  0.13100000000E+03 0.  0.
        997    1    1    2    0    0 -0.34196208190E+02 -0.50687220815E+01  0.26835589453E+03  0.33646687612E+03  0.20000000000E+03 0.  0.
</event>
<event>
 5    1  0.6487493E-012  0.2393716E+03  0.7957747E-01  0.4453877E+00
         13   -1    0    0    0    0  0.00000000000E+00  0.00000000000E+00  0.49999998884E+03  0.50000000000E+03  0.10566000000E+00 0.  1.
        994   -1    0    0    0    0 -0.00000000000E+00 -0.00000000000E+00  0.00000000000E+00  0.13100000000E+03  0.13100000000E+03 0.  0.
         13    1    1    2    0    0  0.25025285658E+02 -0.66812732463E+01  0.26928605325E+02  0.37363957007E+02  0.10566000000E+00 0. -1.
        994    1    1    2    0    0  0.12354275312E+02  0.29833767617E+02  0.99575245907E+02  0.16768694465E+03  0.13100000000E+03 0.  0.
        997    1    1    2    0    0 -0.37379560970E+02 -0.23152494371E+02  0.37349613760E+03  0.42594909834E+03  0.20000000000E+03 0.  0.
</event>
<event>
 5    1  0.6487493E-012  0.2377476E+03  0.7957747E-01  0.4473392E+00
         13   -1    0    0    0    0  0.00000000000E+00  0.00000000000E+00  0.49999998884E+03  0.50000000000E+03  0.10566000000E+00 0. -1.
        994   -1    0    0    0    0 -0.00000000000E+00 -0.00000000000E+00  0.00000000000E+00  0.13100000000E+03  0.13100000000E+03 0.  0.
         13    1    1    2    0    0  0.11316094333E+02 -0.23447404546E+02  0.31513795728E+02  0.40877441898E+02  0.10566000000E+00 0.  1.
        994    1    1    2    0    0  0.14354361769E+02  0.18721297461E+02  0.88254756318E+02  0.15970734702E+03  0.13100000000E+03 0.  0.
        997    1    1    2    0    0 -0.25670456102E+02  0.47261070852E+01  0.38023143679E+03  0.43041521108E+03  0.20000000000E+03 0.  0.
</event>
<event>
 5    1  0.6487493E-012  0.2490855E+03  0.7957747E-01  0.4343406E+00
         13   -1    0    0    0    0  0.00000000000E+00  0.00000000000E+00  0.49999998884E+03  0.50000000000E+03  0.10566000000E+00 0. -1.
        994   -1    0    0    0    0 -0.00000000000E+00 -0.00000000000E+00  0.00000000000E+00  0.13100000000E+03  0.13100000000E+03 0.  0.
         13    1    1    2    0    0 -0.79963861136E+01 -0.83343795277E+01 -0.11075431044E+02  0.16002512610E+02  0.10566000000E+00 0.  1.
        994    1    1    2    0    0 -0.27890408511E+02 -0.22283939497E+02  0.18272967685E+03  0.22765233064E+03  0.13100000000E+03 0.  0.
        997    1    1    2    0    0  0.35886794624E+02  0.30618319024E+02  0.32834574303E+03  0.38734515675E+03  0.20000000000E+03 0.  0.
</event>
<event>
 5    1  0.6487493E-012  0.2347133E+03  0.7957747E-01  0.4510719E+00
         13   -1    0    0    0    0  0.00000000000E+00  0.00000000000E+00  0.49999998884E+03  0.50000000000E+03  0.10566000000E+00 0. -1.
        994   -1    0    0    0    0 -0.00000000000E+00 -0.00000000000E+00  0.00000000000E+00  0.13100000000E+03  0.13100000000E+03 0.  0.
         13    1    1    2    0    0  0.22351912092E+02  0.19690454697E+01  0.18852331007E+02  0.29307109422E+02  0.10566000000E+00 0.  1.
        994    1    1    2    0    0 -0.48621413815E+02  0.23532510942E+02  0.11343676959E+03  0.18151231817E+03  0.13100000000E+03 0.  0.
        997    1    1    2    0    0  0.26269501723E+02 -0.25501556411E+02  0.36771088824E+03  0.42018057241E+03  0.20000000000E+03 0.  0.
</event>
<event>
 5    1  0.6487493E-012  0.2426267E+03  0.7957747E-01  0.4415695E+00
         13   -1    0    0    0    0  0.00000000000E+00  0.00000000000E+00  0.49999998884E+03  0.50000000000E+03  0.10566000000E+00 0. -1.
        994   -1    0    0    0    0 -0.00000000000E+00 -0.00000000000E+00  0.00000000000E+00  0.13100000000E+03  0.13100000000E+03 0.  0.
         13    1    1    2    0    0  0.25631077782E+02 -0.15027017477E+02  0.11949076496E+02  0.32024287590E+02  0.10566000000E+00 0.  1.
        994    1    1    2    0    0 -0.52048893278E+02  0.85929949226E+01  0.15631679547E+03  0.21066292365E+03  0.13100000000E+03 0.  0.
        997    1    1    2    0    0  0.26417815497E+02  0.64340225543E+01  0.33173411687E+03  0.38831278876E+03  0.20000000000E+03 0.  0.
</event>
<event>
 5    1  0.6487493E-012  0.2291958E+03  0.7957747E-01  0.4581650E+00
         13   -1    0    0    0    0  0.00000000000E+00  0.00000000000E+00  0.49999998884E+03  0.50000000000E+03  0.10566000000E+00 0. -1.
        994   -1    0    0    0    0 -0.00000000000E+00 -0.00000000000E+00  0.00000000000E+00  0.13100000000E+03  0.13100000000E+03 0.  0.
         13    1    1    2    0    0 -0.16691517854E+02  0.34062501200E+01  0.34897933798E+02  0.38834086258E+02  0.10566000000E+00 0.  1.
        994    1    1    2    0    0  0.68831971516E+02 -0.86725118115E+00  0.12281907993E+03  0.19231255503E+03  0.13100000000E+03 0.  0.
        997    1    1    2    0    0 -0.52140453662E+02 -0.25389989388E+01  0.34228297511E+03  0.39985335871E+03  0.20000000000E+03 0.  0.
</event>
<event>
 5    1  0.6487493E-012  0.2332385E+03  0.7957747E-01  0.4529283E+00
         13   -1    0    0    0    0  0.00000000000E+00  0.00000000000E+00  0.49999998884E+03  0.50000000000E+03  0.10566000000E+00 0. -1.
        994   -1    0    0    0    0 -0.00000000000E+00 -0.00000000000E+00  0.00000000000E+00  0.13100000000E+03  0.13100000000E+03 0.  0.
         13    1    1    2    0    0  0.49603837540E+01 -0.14204815324E+02  0.45948462526E+01  0.15732322190E+02  0.10566000000E+00 0.  1.
        994    1    1    2    0    0 -0.65616249815E+02  0.27156659142E+02  0.15059225402E+03  0.21185373102E+03  0.13100000000E+03 0.  0.
        997    1    1    2    0    0  0.60655866061E+02 -0.12951843818E+02  0.34481288857E+03  0.40341394679E+03  0.20000000000E+03 0.  0.
</event>
<event>
 5    1  0.6487493E-012  0.2279687E+03  0.7957747E-01  0.4597992E+00
         13   -1    0    0    0    0  0.00000000000E+00  0.00000000000E+00  0.49999998884E+03  0.50000000000E+03  0.10566000000E+00 0. -1.
        994   -1    0    0    0    0 -0.00000000000E+00 -0.00000000000E+00  0.00000000000E+00  0.13100000000E+03  0.13100000000E+03 0.  0.
         13    1    1    2    0    0 -0.24338083399E+01  0.11399436153E+02  0.34950668113E+02  0.36843329562E+02  0.10566000000E+00 0.  1.
        994    1    1    2    0    0 -0.14226017359E+02 -0.46532717518E+02  0.86755634989E+02  0.16448469100E+03  0.13100000000E+03 0.  0.
        997    1    1    2    0    0  0.16659825698E+02  0.35133281365E+02  0.37829368573E+03  0.42967197944E+03  0.20000000000E+03 0.  0.
</event>
<event>
 5    1  0.6487493E-012  0.2329926E+03  0.7957747E-01  0.4532405E+00
         13   -1    0    0    0    0  0.00000000000E+00  0.00000000000E+00  0.49999998884E+03  0.50000000000E+03  0.10566000000E+00 0. -1.
        994   -1    0    0    0    0 -0.00000000000E+00 -0.00000000000E+00  0.00000000000E+00  0.13100000000E+03  0.13100000000E+03 0.  0.
         13    1    1    2    0    0 -0.97867368240E+01  0.16741369235E+02  0.48241737346E+02  0.51993557752E+02  0.10566000000E+00 0.  1.
        994    1    1    2    0    0  0.16136136329E+02 -0.29738188421E+01  0.74116973773E+02  0.15140523206E+03  0.13100000000E+03 0.  0.
        997    1    1    2    0    0 -0.63493995053E+01 -0.13767550393E+02  0.37764127772E+03  0.42760121019E+03  0.20000000000E+03 0.  0.
</event>
<event>
 5    1  0.6487493E-012  0.2443485E+03  0.7957747E-01  0.4395984E+00
         13   -1    0    0    0    0  0.00000000000E+00  0.00000000000E+00  0.49999998884E+03  0.50000000000E+03  0.10566000000E+00 0. -1.
        994   -1    0    0    0    0 -0.00000000000E+00 -0.00000000000E+00  0.00000000000E+00  0.13100000000E+03  0.13100000000E+03 0.  0.
         13    1    1    2    0    0  0.26131449273E+02  0.36793805679E+01  0.15787478515E+02  0.30751359716E+02  0.10566000000E+00 0.  1.
        994    1    1    2    0    0  0.22316234940E+02  0.15364613986E+02  0.11181254775E+03  0.17434773167E+03  0.13100000000E+03 0.  0.
        997    1    1    2    0    0 -0.48447684213E+02 -0.19043994554E+02  0.37239996257E+03  0.42590090861E+03  0.20000000000E+03 0.  0.
</event>
<event>
 5    1  0.6487493E-012  0.2356628E+03  0.7957747E-01  0.4498915E+00
         13   -1    0    0    0    0  0.00000000000E+00  0.00000000000E+00  0.49999998884E+03  0.50000000000E+03  0.10566000000E+00 0.  1.
        994   -1    0    0    0    0 -0.00000000000E+00 -0.00000000000E+00  0.00000000000E+00  0.13100000000E+03  0.13100000000E+03 0.  0.
         13    1    1    2    0    0  0.21393413932E+01 -0.15758124760E+02  0.73821397380E+01  0.17532895617E+02  0.10566000000E+00 0. -1.
        994    1    1    2    0    0  0.34368749264E+02  0.28752995742E+01  0.91158386175E+02  0.16327991194E+03  0.13100000000E+03 0.  0.
        997    1    1    2    0    0 -0.36508090658E+02  0.12882825186E+02  0.40145946292E+03  0.45018719244E+03  0.20000000000E+03 0.  0.
</event>
<event>
 5    1  0.6487493E-012  0.2462103E+03  0.7957747E-01  0.4375036E+00
         13   -1    0    0    0    0  0.00000000000E+00  0.00000000000E+00  0.49999998884E+03  0.50000000000E+03  0.10566000000E+00 0. -1.
        994   -1    0    0    0    0 -0.00000000000E+00 -0.00000000000E+00  0.00000000000E+00  0.13100000000E+03  0.13100000000E+03 0.  0.
         13    1    1    2    0    0  0.20601381886E+02 -0.24936810464E+02  0.17357346345E+02  0.36708991921E+02  0.10566000000E+00 0.  1.
        994    1    1    2    0    0 -0.70965688764E+01  0.23531030099E+02  0.11722993173E+03  0.17750472546E+03  0.13100000000E+03 0.  0.
        997    1    1    2    0    0 -0.13504813010E+02  0.14057803644E+01  0.36541271076E+03  0.41678628262E+03  0.20000000000E+03 0.  0.
</event>
<event>
 5    1  0.6487493E-012  0.2350296E+03  0.7957747E-01  0.4506774E+00
         13   -1    0    0    0    0  0.00000000000E+00  0.00000000000E+00  0.49999998884E+03  0.50000000000E+03  0.10566000000E+00 0.  1.
        994   -1    0    0    0    0 -0.00000000000E+00 -0.00000000000E+00  0.00000000000E+00  0.13100000000E+03  0.13100000000E+03 0.  0.
         13    1    1    2    0    0 -0.43023889329E+01 -0.11734169266E+02  0.37577098597E+01  0.13051161876E+02  0.10566000000E+00 0. -1.
        994    1    1    2    0    0 -0.30163509075E+02 -0.24970363440E+02  0.94021831112E+02  0.16593511098E+03  0.13100000000E+03 0.  0.
        997    1    1    2    0    0  0.34465898008E+02  0.36704532706E+02  0.40222044786E+03  0.45201372714E+03  0.20000000000E+03 0.  0.
</event>
<event>
 5    1  0.6487493E-012  0.2318400E+03  0.7957747E-01  0.4547148E+00
         13   -1    0    0    0    0  0.00000000000E+00  0.00000000000E+00  0.49999998884E+03  0.50000000000E+03  0.10566000000E+00 0. -1.
        994   -1    0    0    0    0 -0.00000000000E+00 -0.00000000000E+00  0.00000000000E+00  0.13100000000E+03  0.13100000000E+03 0.  0.
         13    1    1    2    0    0 -0.11128722974E+02 -0.98535148906E+01  0.13424698661E+02  0.20029326721E+02  0.10566000000E+00 0.  1.
        994    1    1    2    0    0  0.39848853533E+01  0.10194590345E+02  0.70267860022E+02  0.14905831455E+03  0.13100000000E+03 0.  0.
        997    1    1    2    0    0  0.71438376203E+01 -0.34107545480E+00  0.41630743015E+03  0.46191235873E+03  0.20000000000E+03 0.  0.
</event>
<event>
 5    1  0.6487493E-012  0.2469695E+03  0.7957747E-01  0.4366600E+00
         13   -1    0    0    0    0  0.00000000000E+00  0.00000000000E+00  0.49999998884E+03  0.50000000000E+03  0.10566000000E+00 0. -1.
        994   -1    0    0    0    0 -0.00000000000E+00 -0.00000000000E+00  0.00000000000E+00  0.13100000000E+03  0.13100000000E+03 0.  0.
         13    1    1    2    0    0  0.96641316302E+01 -0.30140449128E+01 -0.89415256408E+01  0.13507107452E+02  0.10566000000E+00 0.  1.
        994    1    1    2    0    0  0.37060762660E+01  0.18864127260E+02  0.11572438948E+03  0.17584858435E+03  0.13100000000E+03 0.  0.
        997    1    1    2    0    0 -0.13370207896E+02 -0.15850082347E+02  0.39321712500E+03  0.44164430820E+03  0.20000000000E+03 0.  0.
</event>
<event>
 5    1  0.6487493E-012  0.2352950E+03  0.7957747E-01  0.4503474E+00
         13   -1    0    0    0    0  0.00000000000E+00  0.00000000000E+00  0.49999998884E+03  0.50000000000E+03  0.10566000000E+00 0.  1.
        994   -1    0    0    0    0 -0.00000000000E+00 -0.00000000000E+00  0.00000000000E+00  0.13100000000E+03  0.13100000000E+03 0.  0.
         13    1    1    2    0    0 -0.14749322135E+02 -0.54516379361E+00  0.73594494299E+01  0.16492797427E+02  0.10566000000E+00 0. -1.
        994    1    1    2    0    0 -0.20875618058E+02 -0.35042820714E+01  0.81045839914E+02  0.15549115598E+03  0.13100000000E+03 0.  0.
        997    1    1    2    0    0  0.35624940194E+02  0.40494458650E+01  0.41159469949E+03  0.45901604659E+03  0.20000000000E+03 0.  0.
</event>
<event>
 5    1  0.6692904E-012  0.2393869E+03  0.7957747E-01  0.4453695E+00
         13   -1    0    0    0    0  0.00000000000E+00  0.00000000000E+00  0.49999998884E+03  0.50000000000E+03  0.10566000000E+00 0. -1.
        994   -1    0    0    0    0 -0.00000000000E+00 -0.00000000000E+00  0.00000000000E+00  0.13100000000E+03  0.13100000000E+03 0.  0.
         13    1    1    2    0    0  0.94397367713E+01  0.17606205985E+02  0.55659542059E+01  0.20738325143E+02  0.10566000000E+00 0.  1.
        994    1    1    2    0    0 -0.38467780203E+02 -0.14701107045E+02  0.11004535050E+03  0.17597406578E+03  0.13100000000E+03 0.  0.
        997    1    1    2    0    0  0.29028043432E+02 -0.29050989397E+01  0.38438868413E+03  0.43428760908E+03  0.20000000000E+03 0.  0.
</event>
<event>
 5    1  0.6487493E-012  0.2360749E+03  0.7957747E-01  0.4493826E+00
         13   -1    0    0    0    0  0.00000000000E+00  0.00000000000E+00  0.49999998884E+03  0.50000000000E+03  0.10566000000E+00 0.  1.
        994   -1    0    0    0    0 -0.00000000000E+00 -0.00000000000E+00  0.00000000000E+00  0.13100000000E+03  0.13100000000E+03 0.  0.
         13    1    1    2    0    0  0.18382622409E+02 -0.74303287544E+00  0.23405458145E+02  0.29770783320E+02  0.10566000000E+00 0. -1.
        994    1    1    2    0    0  0.54883005439E+02 -0.40847857918E+01  0.12069156236E+03  0.18643037034E+03  0.13100000000E+03 0.  0.
        997    1    1    2    0    0 -0.73265627848E+02  0.48278186673E+01  0.35590296833E+03  0.41479884634E+03  0.20000000000E+03 0.  0.
</event>
<event>
 5    1  0.6487493E-012  0.2339187E+03  0.7957747E-01  0.4520685E+00
         13   -1    0    0    0    0  0.00000000000E+00  0.00000000000E+00  0.49999998884E+03  0.50000000000E+03  0.10566000000E+00 0.  1.
        994   -1    0    0    0    0 -0.00000000000E+00 -0.00000000000E+00  0.00000000000E+00  0.13100000000E+03  0.13100000000E+03 0.  0.
         13    1    1    2    0    0 -0.11473865444E+02  0.88697654744E+01  0.75931832574E+02  0.77304441592E+02  0.10566000000E+00 0. -1.
        994    1    1    2    0    0  0.11500481678E+02 -0.21836900984E+02  0.79875726183E+02  0.15540348438E+03  0.13100000000E+03 0.  0.
        997    1    1    2    0    0 -0.26616233956E-01  0.12967135510E+02  0.34419243008E+03  0.39829207403E+03  0.20000000000E+03 0.  0.
</event>
<event>
 5    1  0.6487493E-012  0.2284489E+03  0.7957747E-01  0.4591572E+00
         13   -1    0    0    0    0  0.00000000000E+00  0.00000000000E+00  0.49999998884E+03  0.50000000000E+03  0.10566000000E+00 0. -1.
        994   -1    0    0    0    0 -0.00000000000E+00 -0.00000000000E+00  0.00000000000E+00  0.13100000000E+03  0.13100000000E+03 0.  0.
         13    1    1    2    0    0  0.32400809400E+01  0.11907032536E+02  0.23620278983E+02  0.26649658376E+02  0.10566000000E+00 0.  1.
        994    1    1    2    0    0  0.17951195553E+02 -0.22195132016E+02  0.71018513557E+02  0.15172178016E+03  0.13100000000E+03 0.  0.
        997    1    1    2    0    0 -0.21191276493E+02  0.10288099480E+02  0.40536119630E+03  0.45262856146E+03  0.20000000000E+03 0.  0.
</event>
<event>
 5    1  0.6487493E-012  0.2277858E+03  0.7957747E-01  0.4600445E+00
         13   -1    0    0    0    0  0.00000000000E+00  0.00000000000E+00  0.49999998884E+03  0.50000000000E+03  0.10566000000E+00 0.  1.
        994   -1    0    0    0    0 -0.00000000000E+00 -0.00000000000E+00  0.00000000000E+00  0.13100000000E+03  0.13100000000E+03 0.  0.
         13    1    1    2    0    0 -0.10952405841E+02  0.34890935246E+01  0.16128721624E+02  0.19805953463E+02  0.10566000000E+00 0. -1.
        994    1    1    2    0    0  0.20870821068E+02 -0.47833581014E+02  0.90469852390E+02  0.16753935907E+03  0.13100000000E+03 0.  0.
        997    1    1    2    0    0 -0.99184152271E+01  0.44344487490E+02  0.39340141482E+03  0.44365468747E+03  0.20000000000E+03 0.  0.
</event>
<event>
 5    1  0.6487493E-012  0.2497383E+03  0.7957747E-01  0.4336343E+00
         13   -1    0    0    0    0  0.00000000000E+00  0.00000000000E+00  0.49999998884E+03  0.50000000000E+03  0.10566000000E+00 0. -1.
        994   -1    0    0    0    0 -0.00000000000E+00 -0.00000000000E+00  0.00000000000E+00  0.13100000000E+03  0.13100000000E+03 0.  0.
         13    1    1    2    0    0 -0.16645071800E+02  0.16423826542E+02 -0.17124040730E+01  0.23446619911E+02  0.10566000000E+00 0.  1.
        994    1    1    2    0    0  0.12315265794E+02 -0.14325541825E+02  0.13053998201E+03  0.18589936477E+03  0.13100000000E+03 0.  0.
        997    1    1    2    0    0  0.43298060065E+01 -0.20982847172E+01  0.37117241090E+03  0.42165401531E+03  0.20000000000E+03 0.  0.
</event>
<event>
 5    1  0.6487493E-012  0.2293300E+03  0.7957747E-01  0.4579876E+00
         13   -1    0    0    0    0  0.00000000000E+00  0.00000000000E+00  0.49999998884E+03  0.50000000000E+03  0.10566000000E+00 0. -1.
        994   -1    0    0    0    0 -0.00000000000E+00 -0.00000000000E+00  0.00000000000E+00  0.13100000000E+03  0.13100000000E+03 0.  0.
         13    1    1    2    0    0 -0.14164455856E+02  0.13012760610E+00  0.25623274572E+02  0.29278184826E+02  0.10566000000E+00 0.  1.
        994    1    1    2    0    0  0.21650379276E+02  0.30692091352E+02  0.79040819219E+02  0.15754108828E+03  0.13100000000E+03 0.  0.
        997    1    1    2    0    0 -0.74859234210E+01 -0.30822218958E+02  0.39533589505E+03  0.44418072689E+03  0.20000000000E+03 0.  0.
</event>
<event>
 5    1  0.6487493E-012  0.2489235E+03  0.7957747E-01  0.4345166E+00
         13   -1    0    0    0    0  0.00000000000E+00  0.00000000000E+00  0.49999998884E+03  0.50000000000E+03  0.10566000000E+00 0.  1.
        994   -1    0    0    0    0 -0.00000000000E+00 -0.00000000000E+00  0.00000000000E+00  0.13100000000E+03  0.13100000000E+03 0.  0.
         13    1    1    2    0    0 -0.76027538444E+01 -0.16068624328E+02 -0.50207089993E+01  0.18472174661E+02  0.10566000000E+00 0. -1.
        994    1    1    2    0    0  0.13210643068E+01 -0.29586695291E+02  0.14164331794E+03  0.19519463944E+03  0.13100000000E+03 0.  0.
        997    1    1    2    0    0  0.62816895376E+01  0.45655319619E+02  0.36337737990E+03  0.41733318590E+03  0.20000000000E+03 0.  0.
</event>
<event>
 5    1  0.6487493E-012  0.2489003E+03  0.7957747E-01  0.4345418E+00
         13   -1    0    0    0    0  0.00000000000E+00  0.00000000000E+00  0.49999998884E+03  0.50000000000E+03  0.10566000000E+00 0.  1.
        994   -1    0    0    0    0 -0.00000000000E+00 -0.00000000000E+00  0.00000000000E+00  0.13100000000E+03  0.13100000000E+03 0.  0.
         13    1    1    2    0    0 -0.41615072708E+02  0.12563146534E+02  0.57992685738E+02  0.72476269844E+02  0.10566000000E+00 0. -1.
        994    1    1    2    0    0  0.17261825071E+01 -0.34483230652E+02  0.15677746392E+03  0.20720097995E+03  0.13100000000E+03 0.  0.
        997    1    1    2    0    0  0.39888890201E+02  0.21920084119E+02  0.28522983918E+03  0.35132275020E+03  0.20000000000E+03 0.  0.
</event>
<event>
 5    1  0.6487493E-012  0.2367618E+03  0.7957747E-01  0.4485393E+00
         13   -1    0    0    0    0  0.00000000000E+00  0.00000000000E+00  0.49999998884E+03  0.50000000000E+03  0.10566000000E+00 0. -1.
        994   -1    0    0    0    0 -0.00000000000E+00 -0.00000000000E+00  0.00000000000E+00  0.13100000000E+03  0.13100000000E+03 0.  0.
         13    1    1    2    0    0  0.46666154107E+00  0.16903687868E+02  0.83361046218E+01  0.18853494128E+02  0.10566000000E+00 0.  1.
        994    1    1    2    0    0 -0.13241314958E+02  0.93313170608E+01  0.82158652428E+02  0.15547813373E+03  0.13100000000E+03 0.  0.
        997    1    1    2    0    0  0.12774653417E+02 -0.26235004928E+02  0.40950523179E+03  0.45666837214E+03  0.20000000000E+03 0.  0.
</event>
<event>
 5    1  0.6487493E-012  0.2430037E+03  0.7957747E-01  0.4411351E+00
         13   -1    0    0    0    0  0.00000000000E+00  0.00000000000E+00  0.49999998884E+03  0.50000000000E+03  0.10566000000E+00 0. -1.
        994   -1    0    0    0    0 -0.00000000000E+00 -0.00000000000E+00  0.00000000000E+00  0.13100000000E+03  0.13100000000E+03 0.  0.
         13    1    1    2    0    0  0.21259843118E+02 -0.32142413991E+02  0.57253632459E+02  0.69015254114E+02  0.10566000000E+00 0.  1.
        994    1    1    2    0    0 -0.13692147584E+02  0.28155196017E+02  0.11106387599E+03  0.17457483931E+03  0.13100000000E+03 0.  0.
        997    1    1    2    0    0 -0.75676955342E+01  0.39872179735E+01  0.33168248038E+03  0.38740990658E+03  0.20000000000E+03 0.  0.
</event>
<event>
 5    1  0.6487493E-012  0.2399087E+03  0.7957747E-01  0.4447492E+00
         13   -1    0    0    0    0  0.00000000000E+00  0.00000000000E+00  0.49999998884E+03  0.50000000000E+03  0.10566000000E+00 0.  1.
        994   -1    0    0    0    0 -0.00000000000E+00 -0.00000000000E+00  0.00000000000E+00  0.13100000000E+03  0.13100000000E+03 0.  0.
         13    1    1    2    0    0  0.18634965469E+01 -0.29534778655E+02  0.50629959602E+02  0.58644520144E+02  0.10566000000E+00 0. -1.
        994    1    1    2    0    0  0.39178417673E+01  0.84930812539E+00  0.86642122165E+02  0.15711119674E+03  0.13100000000E+03 0.  0.
        997    1    1    2    0    0 -0.57813383141E+01  0.28685470530E+02  0.36272790707E+03  0.41524428311E+03  0.20000000000E+03 0.  0.
</event>
<event>
 5    1  0.6487493E-012  0.2435673E+03  0.7957747E-01  0.4404886E+00
         13   -1    0    0    0    0  0.00000000000E+00  0.00000000000E+00  0.49999998884E+03  0.50000000000E+03  0.10566000000E+00 0.  1.
        994   -1    0    0    0    0 -0.00000000000E+00 -0.00000000000E+00  0.00000000000E+00  0.13100000000E+03  0.13100000000E+03 0.  0.
         13    1    1    2    0    0  0.18458111104E+02  0.75399769523E+01  0.43151145972E+01  0.20400600383E+02  0.10566000000E+00 0. -1.
        994    1    1    2    0    0  0.37328232026E+02  0.16633991113E+02  0.12805210216E+03  0.18769237447E+03  0.13100000000E+03 0.  0.
        997    1    1    2    0    0 -0.55786343130E+02 -0.24173968066E+02  0.36763277208E+03  0.42290702515E+03  0.20000000000E+03 0.  0.
</event>
<event>
 5    1  0.6487493E-012  0.2432520E+03  0.7957747E-01  0.4408498E+00
         13   -1    0    0    0    0  0.00000000000E+00  0.00000000000E+00  0.49999998884E+03  0.50000000000E+03  0.10566000000E+00 0.  1.
        994   -1    0    0    0    0 -0.00000000000E+00 -0.00000000000E+00  0.00000000000E+00  0.13100000000E+03  0.13100000000E+03 0.  0.
         13    1    1    2    0    0 -0.21103491764E+02 -0.52665102466E+00  0.65523678131E+01  0.22103832562E+02  0.10566000000E+00 0. -1.
        994    1    1    2    0    0 -0.27386439709E+02  0.99912852671E+01  0.10965068626E+03  0.17330353677E+03  0.13100000000E+03 0.  0.
        997    1    1    2    0    0  0.48489931472E+02 -0.94646342425E+01  0.38379693476E+03  0.43559263066E+03  0.20000000000E+03 0.  0.
</event>
<event>
 5    1  0.6487493E-012  0.2363271E+03  0.7957747E-01  0.4490723E+00
         13   -1    0    0    0    0  0.00000000000E+00  0.00000000000E+00  0.49999998884E+03  0.50000000000E+03  0.10566000000E+00 0. -1.
        994   -1    0    0    0    0 -0.00000000000E+00 -0.00000000000E+00  0.00000000000E+00  0.13100000000E+03  0.13100000000E+03 0.  0.
         13    1    1    2    0    0 -0.10013996524E+02  0.10056533939E+02  0.13904484077E+01  0.14260382606E+02  0.10566000000E+00 0.  1.
        994    1    1    2    0    0  0.33302991380E+02 -0.22822102604E+02  0.99015602514E+02  0.16910064205E+03  0.13100000000E+03 0.  0.
        997    1    1    2    0    0 -0.23288994856E+02  0.12765568665E+02  0.39959393791E+03  0.44763897534E+03  0.20000000000E+03 0.  0.
</event>
<event>
 5    1  0.6487493E-012  0.2510332E+03  0.7957747E-01  0.4322459E+00
         13   -1    0    0    0    0  0.00000000000E+00  0.00000000000E+00  0.49999998884E+03  0.50000000000E+03  0.10566000000E+00 0.  1.
        994   -1    0    0    0    0 -0.00000000000E+00 -0.00000000000E+00  0.00000000000E+00  0.13100000000E+03  0.13100000000E+03 0.  0.
         13    1    1    2    0    0  0.64231869988E+01  0.33934184632E+02  0.12918889660E+02  0.36874043607E+02  0.10566000000E+00 0. -1.
        994    1    1    2    0    0 -0.25271152538E+02  0.86523280970E+00  0.15562471197E+03  0.20498641602E+03  0.13100000000E+03 0.  0.
        997    1    1    2    0    0  0.18847965539E+02 -0.34799417442E+02  0.33145638721E+03  0.38913954037E+03  0.20000000000E+03 0.  0.
</event>
<event>
 5    1  0.6487493E-012  0.2387590E+03  0.7957747E-01  0.4461201E+00
         13   -1    0    0    0    0  0.00000000000E+00  0.00000000000E+00  0.49999998884E+03  0.50000000000E+03  0.10566000000E+00 0.  1.
        994   -1    0    0    0    0 -0.00000000000E+00 -0.00000000000E+00  0.00000000000E+00  0.13100000000E+03  0.13100000000E+03 0.  0.
         13    1    1    2    0    0  0.29580641934E+02  0.20570325767E+00  0.48036049493E+02  0.56413915890E+02  0.10566000000E+00 0. -1.
        994    1    1    2    0    0 -0.14890832223E+02  0.88557356109E+01  0.87468575817E+02  0.15846738684E+03  0.13100000000E+03 0.  0.
        997    1    1    2    0    0 -0.14689809711E+02 -0.90614388686E+01  0.36449536353E+03  0.41611869727E+03  0.20000000000E+03 0.  0.
</event>
<event>
 5    1  0.6487493E-012  0.2348053E+03  0.7957747E-01  0.4509571E+00
         13   -1    0    0    0    0  0.00000000000E+00  0.00000000000E+00  0.49999998884E+03  0.50000000000E+03  0.10566000000E+00 0. -1.
        994   -1    0    0    0    0 -0.00000000000E+00 -0.00000000000E+00  0.00000000000E+00  0.13100000000E+03  0.13100000000E+03 0.  0.
         13    1    1    2    0    0  0.87479519613E+01  0.87453153704E+01  0.37308983507E+01  0.12920447786E+02  0.10566000000E+00 0.  1.
        994    1    1    2    0    0  0.42599521275E+02  0.43307392528E+01  0.97469875141E+02  0.16880417967E+03  0.13100000000E+03 0.  0.
        997    1    1    2    0    0 -0.51347473236E+02 -0.13076054623E+02  0.39879921534E+03  0.44927537254E+03  0.20000000000E+03 0.  0.
</event>
<event>
 5    1  0.6487493E-012  0.2470446E+03  0.7957747E-01  0.4365769E+00
         13   -1    0    0    0    0  0.00000000000E+00  0.00000000000E+00  0.49999998884E+03  0.50000000000E+03  0.10566000000E+00 0.  1.
        994   -1    0    0    0    0 -0.00000000000E+00 -0.00000000000E+00  0.00000000000E+00  0.13100000000E+03  0.13100000000E+03 0.  0.
         13    1    1    2    0    0 -0.36273939540E+02 -0.47005891292E+01  0.17023952690E+02  0.40345016509E+02  0.10566000000E+00 0. -1.
        994    1    1    2    0    0  0.34128869340E+02 -0.25250786555E+02  0.19013741631E+03  0.23476715917E+03  0.13100000000E+03 0.  0.
        997    1    1    2    0    0  0.21450701996E+01  0.29951375684E+02  0.29283861984E+03  0.35588782432E+03  0.20000000000E+03 0.  0.
</event>
<event>
 5    1  0.6487493E-012  0.2420705E+03  0.7957747E-01  0.4422133E+00
         13   -1    0    0    0    0  0.00000000000E+00  0.00000000000E+00  0.49999998884E+03  0.50000000000E+03  0.10566000000E+00 0.  1.
        994   -1    0    0    0    0 -0.00000000000E+00 -0.00000000000E+00  0.00000000000E+00  0.13100000000E+03  0.13100000000E+03 0.  0.
         13    1    1    2    0    0 -0.24866910069E+02 -0.75008636230E+01  0.22259459803E+02  0.34207029778E+02  0.10566000000E+00 0. -1.
        994    1    1    2    0    0 -0.23022851269E+02 -0.19379524087E+02  0.10628116598E+03  0.17135432261E+03  0.13100000000E+03 0.  0.
        997    1    1    2    0    0  0.47889761338E+02  0.26880387710E+02  0.37145936305E+03  0.42543864761E+03  0.20000000000E+03 0.  0.
</event>
<event>
 5    1  0.6487493E-012  0.2313079E+03  0.7957747E-01  0.4554016E+00
         13   -1    0    0    0    0  0.00000000000E+00  0.00000000000E+00  0.49999998884E+03  0.50000000000E+03  0.10566000000E+00 0.  1.
        994   -1    0    0    0    0 -0.00000000000E+00 -0.00000000000E+00  0.00000000000E+00  0.13100000000E+03  0.13100000000E+03 0.  0.
         13    1    1    2    0    0 -0.16248679680E+02 -0.69908488016E+00  0.14091193423E+02  0.21519321716E+02  0.10566000000E+00 0. -1.
        994    1    1    2    0    0  0.44048199004E+02  0.16762675055E+01  0.89668423480E+02  0.16475581895E+03  0.13100000000E+03 0.  0.
        997    1    1    2    0    0 -0.27799519324E+02 -0.97718262532E+00  0.39624037193E+03  0.44472485933E+03  0.20000000000E+03 0.  0.
</event>
<event>
 5    1  0.6487493E-012  0.2416044E+03  0.7957747E-01  0.4427555E+00
         13   -1    0    0    0    0  0.00000000000E+00  0.00000000000E+00  0.49999998884E+03  0.50000000000E+03  0.10566000000E+00 0.  1.
        994   -1    0    0    0    0 -0.00000000000E+00 -0.00000000000E+00  0.00000000000E+00  0.13100000000E+03  0.13100000000E+03 0.  0.
         13    1    1    2    0    0  0.21608324451E+02  0.20262821354E+02  0.84748258859E+02  0.89776278373E+02  0.10566000000E+00 0. -1.
        994    1    1    2    0    0 -0.37604728650E+02 -0.43150889329E+02  0.20266378020E+03  0.24801153738E+03  0.13100000000E+03 0.  0.
        997    1    1    2    0    0  0.15996404199E+02  0.22888067975E+02  0.21258794978E+03  0.29321218425E+03  0.20000000000E+03 0.  0.
</event>
<event>
 5    1  0.6487493E-012  0.2432411E+03  0.7957747E-01  0.4408624E+00
         13   -1    0    0    0    0  0.00000000000E+00  0.00000000000E+00  0.49999998884E+03  0.50000000000E+03  0.10566000000E+00 0. -1.
        994   -1    0    0    0    0 -0.00000000000E+00 -0.00000000000E+00  0.00000000000E+00  0.13100000000E+03  0.13100000000E+03 0.  0.
         13    1    1    2    0    0  0.21744099012E+02 -0.30288411064E+02  0.77509115551E+02  0.86010858874E+02  0.10566000000E+00 0.  1.
        994    1    1    2    0    0 -0.89528264493E-02  0.34363548262E+02  0.11584634981E+03  0.17821961254E+03  0.13100000000E+03 0.  0.
        997    1    1    2    0    0 -0.21735146185E+02 -0.40751371983E+01  0.30664452347E+03  0.36676952859E+03  0.20000000000E+03 0.  0.
</event>
<event>
 5    1  0.6487493E-012  0.2491719E+03  0.7957747E-01  0.4342469E+00
         13   -1    0    0    0    0  0.00000000000E+00  0.00000000000E+00  0.49999998884E+03  0.50000000000E+03  0.10566000000E+00 0.  1.
        994   -1    0    0    0    0 -0.00000000000E+00 -0.00000000000E+00  0.00000000000E+00  0.13100000000E+03  0.13100000000E+03 0.  0.
         13    1    1    2    0    0 -0.11146684684E+02 -0.81832860626E+01 -0.95944798184E+01  0.16830922650E+02  0.10566000000E+00 0. -1.
        994    1    1    2    0    0 -0.23306073399E+02 -0.26847722959E+02  0.17848468751E+03  0.22423594038E+03  0.13100000000E+03 0.  0.
        997    1    1    2    0    0  0.34452758083E+02  0.35031009022E+02  0.33110978115E+03  0.38993313697E+03  0.20000000000E+03 0.  0.
</event>
<event>
 5    1  0.6718879E-012  0.2351114E+03  0.7957747E-01  0.4505756E+00
         13   -1    0    0    0    0  0.00000000000E+00  0.00000000000E+00  0.49999998884E+03  0.50000000000E+03  0.10566000000E+00 0.  1.
        994   -1    0    0    0    0 -0.00000000000E+00 -0.00000000000E+00  0.00000000000E+00  0.13100000000E+03  0.13100000000E+03 0.  0.
         13    1    1    2    0    0  0.50930355478E+01  0.12916477555E+02  0.17946711959E+01  0.14000229007E+02  0.10566000000E+00 0. -1.
        994    1    1    2    0    0 -0.39888417587E+00 -0.50201260780E+02  0.10846636260E+03  0.17733098293E+03  0.13100000000E+03 0.  0.
        997    1    1    2    0    0 -0.46941513719E+01  0.37284783225E+02  0.38973895504E+03  0.43966878806E+03  0.20000000000E+03 0.  0.
</event>
<event>
 5    1  0.6487493E-012  0.2378689E+03  0.7957747E-01  0.4471923E+00
         13   -1    0    0    0    0  0.00000000000E+00  0.00000000000E+00  0.49999998884E+03  0.50000000000E+03  0.10566000000E+00 0. -1.
        994   -1    0    0    0    0 -0.00000000000E+00 -0.00000000000E+00  0.00000000000E+00  0.13100000000E+03  0.13100000000E+03 0.  0.
         13    1    1    2    0    0  0.15732582884E+02  0.19007293858E+02  0.29281933851E+02  0.38291437660E+02  0.10566000000E+00 0.  1.
        994    1    1    2    0    0  0.25135678655E+02 -0.16982721130E+02  0.93450737154E+02  0.16375058911E+03  0.13100000000E+03 0.  0.
        997    1    1    2    0    0 -0.40868261539E+02 -0.20245727283E+01  0.37726731783E+03  0.42895797323E+03  0.20000000000E+03 0.  0.
</event>
<event>
 5    1  0.6487493E-012  0.2304899E+03  0.7957747E-01  0.4564645E+00
         13   -1    0    0    0    0  0.00000000000E+00  0.00000000000E+00  0.49999998884E+03  0.50000000000E+03  0.10566000000E+00 0. -1.
        994   -1    0    0    0    0 -0.00000000000E+00 -0.00000000000E+00  0.00000000000E+00  0.13100000000E+03  0.13100000000E+03 0.  0.
         13    1    1    2    0    0  0.18509824948E+01  0.11081515247E+02  0.54013137007E+01  0.12466413682E+02  0.10566000000E+00 0.  1.
        994    1    1    2    0    0 -0.10073319483E+02 -0.35313119185E+02  0.80824586853E+02  0.15824696519E+03  0.13100000000E+03 0.  0.
        997    1    1    2    0    0  0.82223369882E+01  0.24231603938E+02  0.41377408828E+03  0.46028662113E+03  0.20000000000E+03 0.  0.
</event>
<event>
 5    1  0.6487493E-012  0.2372000E+03  0.7957747E-01  0.4480043E+00
         13   -1    0    0    0    0  0.00000000000E+00  0.00000000000E+00  0.49999998884E+03  0.50000000000E+03  0.10566000000E+00 0.  1.
        994   -1    0    0    0    0 -0.00000000000E+00 -0.00000000000E+00  0.00000000000E+00  0.13100000000E+03  0.13100000000E+03 0.  0.
         13    1    1    2    0    0  0.18577203360E+02 -0.20568591095E+02  0.22917681845E+02  0.35964019929E+02  0.10566000000E+00 0. -1.
        994    1    1    2    0    0 -0.18420793496E+02  0.54313554685E+02  0.13120510130E+03  0.19407489910E+03  0.13100000000E+03 0.  0.
        997    1    1    2    0    0 -0.15640986368E+00 -0.33744963590E+02  0.34587720569E+03  0.40096108097E+03  0.20000000000E+03 0.  0.
</event>
<event>
 5    1  0.6487493E-012  0.2377405E+03  0.7957747E-01  0.4473478E+00
         13   -1    0    0    0    0  0.00000000000E+00  0.00000000000E+00  0.49999998884E+03  0.50000000000E+03  0.10566000000E+00 0.  1.
        994   -1    0    0    0    0 -0.00000000000E+00 -0.00000000000E+00  0.00000000000E+00  0.13100000000E+03  0.13100000000E+03 0.  0.
         13    1    1    2    0    0  0.20196052696E+02 -0.12392798152E+02  0.17155982025E+02  0.29254074482E+02  0.10566000000E+00 0. -1.
        994    1    1    2    0    0 -0.11495491197E+01  0.45144872712E+02  0.10986366780E+03  0.17683440417E+03  0.13100000000E+03 0.  0.
        997    1    1    2    0    0 -0.19046503576E+02 -0.32752074560E+02  0.37298033901E+03  0.42491152135E+03  0.20000000000E+03 0.  0.
</event>
<event>
 5    1  0.6487493E-012  0.2356672E+03  0.7957747E-01  0.4498860E+00
         13   -1    0    0    0    0  0.00000000000E+00  0.00000000000E+00  0.49999998884E+03  0.50000000000E+03  0.10566000000E+00 0. -1.
        994   -1    0    0    0    0 -0.00000000000E+00 -0.00000000000E+00  0.00000000000E+00  0.13100000000E+03  0.13100000000E+03 0.  0.
         13    1    1    2    0    0 -0.12962088038E+02  0.14829001129E+02  0.71540843023E+02  0.74202549722E+02  0.10566000000E+00 0.  1.
        994    1    1    2    0    0  0.53861840982E+02  0.76757954846E+01  0.11778201340E+03  0.18437358387E+03  0.13100000000E+03 0.  0.
        997    1    1    2    0    0 -0.40899752944E+02 -0.22504796613E+02  0.31067713242E+03  0.37242386641E+03  0.20000000000E+03 0.  0.
</event>
<event>
 5    1  0.6487493E-012  0.2440250E+03  0.7957747E-01  0.4399662E+00
         13   -1    0    0    0    0  0.00000000000E+00  0.00000000000E+00  0.49999998884E+03  0.50000000000E+03  0.10566000000E+00 0.  1.
        994   -1    0    0    0    0 -0.00000000000E+00 -0.00000000000E+00  0.00000000000E+00  0.13100000000E+03  0.13100000000E+03 0.  0.
         13    1    1    2    0    0  0.53418687689E+01  0.21514630212E+02  0.11435129852E+01  0.22197604850E+02  0.10566000000E+00 0. -1.
        994    1    1    2    0    0  0.76637789992E+01 -0.42314670152E+02  0.13549699644E+03  0.19331244363E+03  0.13100000000E+03 0.  0.
        997    1    1    2    0    0 -0.13005647768E+02  0.20800039939E+02  0.36335947941E+03  0.41548995151E+03  0.20000000000E+03 0.  0.
</event>
<event>
 5    1  0.6487493E-012  0.2340896E+03  0.7957747E-01  0.4518535E+00
         13   -1    0    0    0    0  0.00000000000E+00  0.00000000000E+00  0.49999998884E+03  0.50000000000E+03  0.10566000000E+00 0.  1.
        994   -1    0    0    0    0 -0.00000000000E+00 -0.00000000000E+00  0.00000000000E+00  0.13100000000E+03  0.13100000000E+03 0.  0.
         13    1    1    2    0    0  0.13995646386E+02  0.48895660128E+01  0.43212004138E+01  0.15442471000E+02  0.10566000000E+00 0. -1.
        994    1    1    2    0    0 -0.31175323629E+02 -0.45672554155E+02  0.11346599056E+03  0.18191595317E+03  0.13100000000E+03 0.  0.
        997    1    1    2    0    0  0.17179677243E+02  0.40782988142E+02  0.38221279787E+03  0.43364157583E+03  0.20000000000E+03 0.  0.
</event>
<event>
 5    1  0.6487493E-012  0.2353972E+03  0.7957747E-01  0.4502205E+00
         13   -1    0    0    0    0  0.00000000000E+00  0.00000000000E+00  0.49999998884E+03  0.50000000000E+03  0.10566000000E+00 0. -1.
        994   -1    0    0    0    0 -0.00000000000E+00 -0.00000000000E+00  0.00000000000E+00  0.13100000000E+03  0.13100000000E+03 0.  0.
         13    1    1    2    0    0 -0.25488943622E+02 -0.75441852546E+01  0.26539612813E+02  0.37562789971E+02  0.10566000000E+00 0.  1.
        994    1    1    2    0    0  0.59218092696E+02 -0.27994935439E+01  0.12702095912E+03  0.19185917680E+03  0.13100000000E+03 0.  0.
        997    1    1    2    0    0 -0.33729149074E+02  0.10343678798E+02  0.34643941690E+03  0.40157803323E+03  0.20000000000E+03 0.  0.
</event>
<event>
 5    1  0.6487493E-012  0.2366245E+03  0.7957747E-01  0.4487074E+00
         13   -1    0    0    0    0  0.00000000000E+00  0.00000000000E+00  0.49999998884E+03  0.50000000000E+03  0.10566000000E+00 0. -1.
        994   -1    0    0    0    0 -0.00000000000E+00 -0.00000000000E+00  0.00000000000E+00  0.13100000000E+03  0.13100000000E+03 0.  0.
         13    1    1    2    0    0 -0.22384041537E+02  0.63520258127E+01  0.36142998288E+02  0.42985125761E+02  0.10566000000E+00 0.  1.
        994    1    1    2    0    0 -0.84240817851E+01  0.95483136489E+01  0.80632603618E+02  0.15435268774E+03  0.13100000000E+03 0.  0.
        997    1    1    2    0    0  0.30808123322E+02 -0.15900339462E+02  0.38322438693E+03  0.43366218650E+03  0.20000000000E+03 0.  0.
</event>
<event>
 5    1  0.6487493E-012  0.2321983E+03  0.7957747E-01  0.4542547E+00
         13   -1    0    0    0    0  0.00000000000E+00  0.00000000000E+00  0.49999998884E+03  0.50000000000E+03  0.10566000000E+00 0.  1.
        994   -1    0    0    0    0 -0.00000000000E+00 -0.00000000000E+00  0.00000000000E+00  0.13100000000E+03  0.13100000000E+03 0.  0.
         13    1    1    2    0    0  0.12723849966E+02 -0.25563424004E+01  0.63166977617E+01  0.14434094328E+02  0.10566000000E+00 0. -1.
        994    1    1    2    0    0 -0.26911891515E+02 -0.50278751614E+01  0.77775424313E+02  0.15478871425E+03  0.13100000000E+03 0.  0.
        997    1    1    2    0    0  0.14188041549E+02  0.75842175618E+01  0.41590786676E+03  0.46177719142E+03  0.20000000000E+03 0.  0.
</event>
<event>
 5    1  0.6487493E-012  0.2365114E+03  0.7957747E-01  0.4488461E+00
         13   -1    0    0    0    0  0.00000000000E+00  0.00000000000E+00  0.49999998884E+03  0.50000000000E+03  0.10566000000E+00 0. -1.
        994   -1    0    0    0    0 -0.00000000000E+00 -0.00000000000E+00  0.00000000000E+00  0.13100000000E+03  0.13100000000E+03 0.  0.
         13    1    1    2    0    0  0.25300430031E+02  0.67284803897E+01  0.41481378346E+02  0.49052014451E+02  0.10566000000E+00 0.  1.
        994    1    1    2    0    0 -0.13328132597E+02 -0.17245648552E+02  0.84182768952E+02  0.15723482471E+03  0.13100000000E+03 0.  0.
        997    1    1    2    0    0 -0.11972297434E+02  0.10517168163E+02  0.37433584154E+03  0.42471316084E+03  0.20000000000E+03 0.  0.
</event>
<event>
 5    1  0.6487493E-012  0.2418013E+03  0.7957747E-01  0.4425261E+00
         13   -1    0    0    0    0  0.00000000000E+00  0.00000000000E+00  0.49999998884E+03  0.50000000000E+03  0.10566000000E+00 0. -1.
        994   -1    0    0    0    0 -0.00000000000E+00 -0.00000000000E+00  0.00000000000E+00  0.13100000000E+03  0.13100000000E+03 0.  0.
         13    1    1    2    0    0  0.18439837668E+02 -0.28056103741E+02  0.64957397927E+02  0.73120771876E+02  0.10566000000E+00 0.  1.
        994    1    1    2    0    0 -0.11077106676E+02  0.55729320908E+01  0.93645799871E+02  0.16150633331E+03  0.13100000000E+03 0.  0.
        997    1    1    2    0    0 -0.73627309922E+01  0.22483171650E+02  0.34139679104E+03  0.39637289482E+03  0.20000000000E+03 0.  0.
</event>
<event>
 5    1  0.6487493E-012  0.2360578E+03  0.7957747E-01  0.4494037E+00
         13   -1    0    0    0    0  0.00000000000E+00  0.00000000000E+00  0.49999998884E+03  0.50000000000E+03  0.10566000000E+00 0. -1.
        994   -1    0    0    0    0 -0.00000000000E+00 -0.00000000000E+00  0.00000000000E+00  0.13100000000E+03  0.13100000000E+03 0.  0.
         13    1    1    2    0    0 -0.29333744966E+01  0.95991395184E+01 -0.47057104289E+01  0.11086164355E+02  0.10566000000E+00 0.  1.
        994    1    1    2    0    0  0.57307232705E+01 -0.69061069485E+02  0.17042981627E+03  0.22585303802E+03  0.13100000000E+03 0.  0.
        997    1    1    2    0    0 -0.27973487739E+01  0.59461929966E+02  0.33427588299E+03  0.39406079763E+03  0.20000000000E+03 0.  0.
</event>
<event>
 5    1  0.6487493E-012  0.2348606E+03  0.7957747E-01  0.4508881E+00
         13   -1    0    0    0    0  0.00000000000E+00  0.00000000000E+00  0.49999998884E+03  0.50000000000E+03  0.10566000000E+00 0. -1.
        994   -1    0    0    0    0 -0.00000000000E+00 -0.00000000000E+00  0.00000000000E+00  0.13100000000E+03  0.13100000000E+03 0.  0.
         13    1    1    2    0    0 -0.16741873024E+02  0.15070221916E+02  0.61117780576E+02  0.65136749746E+02  0.10566000000E+00 0.  1.
        994    1    1    2    0    0  0.18353466086E+02 -0.70016792877E+02  0.17721110272E+03  0.23195684066E+03  0.13100000000E+03 0.  0.
        997    1    1    2    0    0 -0.16115930616E+01  0.54946570961E+02  0.26167110554E+03  0.33390640959E+03  0.20000000000E+03 0.  0.
</event>
<event>
 5    1  0.6487493E-012  0.2466136E+03  0.7957747E-01  0.4370547E+00
         13   -1    0    0    0    0  0.00000000000E+00  0.00000000000E+00  0.49999998884E+03  0.50000000000E+03  0.10566000000E+00 0.  1.
        994   -1    0    0    0    0 -0.00000000000E+00 -0.00000000000E+00  0.00000000000E+00  0.13100000000E+03  0.13100000000E+03 0.  0.
         13    1    1    2    0    0 -0.85634811918E+01 -0.34719553969E+02  0.97177647870E+02  0.10354847680E+03  0.10566000000E+00 0. -1.
        994    1    1    2    0    0 -0.77103316182E+01  0.89952654968E+01  0.10959438111E+03  0.17120833036E+03  0.13100000000E+03 0.  0.
        997    1    1    2    0    0  0.16273812810E+02  0.25724288472E+02  0.29322795986E+03  0.35624319284E+03  0.20000000000E+03 0.  0.
</event>
<event>
 5    1  0.6487493E-012  0.2390102E+03  0.7957747E-01  0.4458193E+00
         13   -1    0    0    0    0  0.00000000000E+00  0.00000000000E+00  0.49999998884E+03  0.50000000000E+03  0.10566000000E+00 0.  1.
        994   -1    0    0    0    0 -0.00000000000E+00 -0.00000000000E+00  0.00000000000E+00  0.13100000000E+03  0.13100000000E+03 0.  0.
         13    1    1    2    0    0 -0.30701800730E+02  0.13005500278E+02  0.34941970042E+02  0.48297992091E+02  0.10566000000E+00 0. -1.
        994    1    1    2    0    0  0.48178396879E+02 -0.22579540746E+02  0.13049713111E+03  0.19240970561E+03  0.13100000000E+03 0.  0.
        997    1    1    2    0    0 -0.17476596149E+02  0.95740404688E+01  0.33456088769E+03  0.39029230230E+03  0.20000000000E+03 0.  0.
</event>
<event>
 5    1  0.6487493E-012  0.2327666E+03  0.7957747E-01  0.4535283E+00
         13   -1    0    0    0    0  0.00000000000E+00  0.00000000000E+00  0.49999998884E+03  0.50000000000E+03  0.10566000000E+00 0. -1.
        994   -1    0    0    0    0 -0.00000000000E+00 -0.00000000000E+00  0.00000000000E+00  0.13100000000E+03  0.13100000000E+03 0.  0.
         13    1    1    2    0    0 -0.10382594451E+02  0.75614483841E+01  0.82482517355E+01  0.15264946443E+02  0.10566000000E+00 0.  1.
        994    1    1    2    0    0 -0.16006085588E+02  0.17802282633E+02  0.77002032654E+02  0.15382922049E+03  0.13100000000E+03 0.  0.
        997    1    1    2    0    0  0.26388680039E+02 -0.25363731017E+02  0.41474970445E+03  0.46190583307E+03  0.20000000000E+03 0.  0.
</event>
<event>
 5    1  0.6487493E-012  0.2286913E+03  0.7957747E-01  0.4588343E+00
         13   -1    0    0    0    0  0.00000000000E+00  0.00000000000E+00  0.49999998884E+03  0.50000000000E+03  0.10566000000E+00 0. -1.
        994   -1    0    0    0    0 -0.00000000000E+00 -0.00000000000E+00  0.00000000000E+00  0.13100000000E+03  0.13100000000E+03 0.  0.
         13    1    1    2    0    0  0.48444003982E+01 -0.10894679542E+02  0.10580249598E+02  0.15940988148E+02  0.10566000000E+00 0.  1.
        994    1    1    2    0    0 -0.32070473229E+02  0.35555155750E+02  0.87566011458E+02  0.16468603680E+03  0.13100000000E+03 0.  0.
        997    1    1    2    0    0  0.27226072831E+02 -0.24660476208E+02  0.40185372778E+03  0.45037297505E+03  0.20000000000E+03 0.  0.
</event>
<event>
 5    1  0.6487493E-012  0.2451647E+03  0.7957747E-01  0.4386755E+00
         13   -1    0    0    0    0  0.00000000000E+00  0.00000000000E+00  0.49999998884E+03  0.50000000000E+03  0.10566000000E+00 0. -1.
        994   -1    0    0    0    0 -0.00000000000E+00 -0.00000000000E+00  0.00000000000E+00  0.13100000000E+03  0.13100000000E+03 0.  0.
         13    1    1    2    0    0 -0.11752502894E+02  0.34557513472E+02  0.58434594345E+02  0.68898157029E+02  0.10566000000E+00 0.  1.
        994    1    1    2    0    0  0.15753063831E+02  0.74746174312E+01  0.10702962760E+03  0.17005990154E+03  0.13100000000E+03 0.  0.
        997    1    1    2    0    0 -0.40005609371E+01 -0.42032130904E+02  0.33453576689E+03  0.39204194144E+03  0.20000000000E+03 0.  0.
</event>
<event>
 5    1  0.6487493E-012  0.2486688E+03  0.7957747E-01  0.4347937E+00
         13   -1    0    0    0    0  0.00000000000E+00  0.00000000000E+00  0.49999998884E+03  0.50000000000E+03  0.10566000000E+00 0. -1.
        994   -1    0    0    0    0 -0.00000000000E+00 -0.00000000000E+00  0.00000000000E+00  0.13100000000E+03  0.13100000000E+03 0.  0.
         13    1    1    2    0    0 -0.90906217605E+01  0.24102944953E+02 -0.36224555708E+01  0.26013932955E+02  0.10566000000E+00 0.  1.
        994    1    1    2    0    0  0.52383144776E+01 -0.32126128652E+02  0.20734448242E+03  0.24741112035E+03  0.13100000000E+03 0.  0.
        997    1    1    2    0    0  0.38523072829E+01  0.80231836994E+01  0.29627796199E+03  0.35757494670E+03  0.20000000000E+03 0.  0.
</event>
<event>
 5    1  0.6487493E-012  0.2401379E+03  0.7957747E-01  0.4444778E+00
         13   -1    0    0    0    0  0.00000000000E+00  0.00000000000E+00  0.49999998884E+03  0.50000000000E+03  0.10566000000E+00 0.  1.
        994   -1    0    0    0    0 -0.00000000000E+00 -0.00000000000E+00  0.00000000000E+00  0.13100000000E+03  0.13100000000E+03 0.  0.
         13    1    1    2    0    0 -0.25831726278E+02  0.69485471656E+01  0.28252355495E+02  0.38907160591E+02  0.10566000000E+00 0. -1.
        994    1    1    2    0    0 -0.66048381960E+01  0.29249064241E-01  0.87593473325E+02  0.15772520823E+03  0.13100000000E+03 0.  0.
        997    1    1    2    0    0  0.32436564474E+02 -0.69777962298E+01  0.38415416002E+03  0.43436763118E+03  0.20000000000E+03 0.  0.
</event>
<event>
 5    1  0.6487493E-012  0.2391096E+03  0.7957747E-01  0.4457004E+00
         13   -1    0    0    0    0  0.00000000000E+00  0.00000000000E+00  0.49999998884E+03  0.50000000000E+03  0.10566000000E+00 0. -1.
        994   -1    0    0    0    0 -0.00000000000E+00 -0.00000000000E+00  0.00000000000E+00  0.13100000000E+03  0.13100000000E+03 0.  0.
         13    1    1    2    0    0  0.12870408091E+02 -0.15091777355E+02  0.74263124628E+01  0.21179481320E+02  0.10566000000E+00 0.  1.
        994    1    1    2    0    0 -0.24036387982E+02  0.37662169634E+01  0.92323174012E+02  0.16210028006E+03  0.13100000000E+03 0.  0.
        997    1    1    2    0    0  0.11165979891E+02  0.11325560391E+02  0.40025050236E+03  0.44772023861E+03  0.20000000000E+03 0.  0.
</event>
<event>
 5    1  0.6487493E-012  0.2368270E+03  0.7957747E-01  0.4484596E+00
         13   -1    0    0    0    0  0.00000000000E+00  0.00000000000E+00  0.49999998884E+03  0.50000000000E+03  0.10566000000E+00 0. -1.
        994   -1    0    0    0    0 -0.00000000000E+00 -0.00000000000E+00  0.00000000000E+00  0.13100000000E+03  0.13100000000E+03 0.  0.
         13    1    1    2    0    0 -0.20555616941E+02 -0.49033406791E+00  0.23551934597E+01  0.20696181184E+02  0.10566000000E+00 0.  1.
        994    1    1    2    0    0  0.68190744158E+02 -0.10992110807E+01  0.21020605618E+03  0.25690226139E+03  0.13100000000E+03 0.  0.
        997    1    1    2    0    0 -0.47635127217E+02  0.15895451486E+01  0.28743873920E+03  0.35340155743E+03  0.20000000000E+03 0.  0.
</event>
<event>
 5    1  0.6487493E-012  0.2453422E+03  0.7957747E-01  0.4384757E+00
         13   -1    0    0    0    0  0.00000000000E+00  0.00000000000E+00  0.49999998884E+03  0.50000000000E+03  0.10566000000E+00 0.  1.
        994   -1    0    0    0    0 -0.00000000000E+00 -0.00000000000E+00  0.00000000000E+00  0.13100000000E+03  0.13100000000E+03 0.  0.
         13    1    1    2    0    0  0.16586890522E+02  0.26396569327E+02  0.15829565378E+02  0.34964126094E+02  0.10566000000E+00 0. -1.
        994    1    1    2    0    0  0.17364125355E+02 -0.34876206879E+02  0.13487329374E+03  0.19201475990E+03  0.13100000000E+03 0.  0.
        997    1    1    2    0    0 -0.33951015877E+02  0.84796375519E+01  0.34929712972E+03  0.40402111400E+03  0.20000000000E+03 0.  0.
</event>
<event>
 5    1  0.6487493E-012  0.2360606E+03  0.7957747E-01  0.4494003E+00
         13   -1    0    0    0    0  0.00000000000E+00  0.00000000000E+00  0.49999998884E+03  0.50000000000E+03  0.10566000000E+00 0.  1.
        994   -1    0    0    0    0 -0.00000000000E+00 -0.00000000000E+00  0.00000000000E+00  0.13100000000E+03  0.13100000000E+03 0.  0.
         13    1    1    2    0    0  0.21401192477E+02 -0.21926702648E+01  0.23321857825E+02  0.31729151561E+02  0.10566000000E+00 0. -1.
        994    1    1    2    0    0  0.12836592449E+01  0.78517848255E+00  0.77503350389E+02  0.15221706083E+03  0.13100000000E+03 0.  0.
        997    1    1    2    0    0 -0.22684851722E+02  0.14074917823E+01  0.39917478062E+03  0.44705378761E+03  0.20000000000E+03 0.  0.
</event>
<event>
 5    1  0.6487493E-012  0.2415119E+03  0.7957747E-01  0.4428634E+00
         13   -1    0    0    0    0  0.00000000000E+00  0.00000000000E+00  0.49999998884E+03  0.50000000000E+03  0.10566000000E+00 0. -1.
        994   -1    0    0    0    0 -0.00000000000E+00 -0.00000000000E+00  0.00000000000E+00  0.13100000000E+03  0.13100000000E+03 0.  0.
         13    1    1    2    0    0 -0.21420610412E+02  0.33017550867E+02  0.36318080925E+02  0.53553854967E+02  0.10566000000E+00 0.  1.
        994    1    1    2    0    0  0.24006871058E+02 -0.51570622185E+02  0.20753604501E+03  0.25192869806E+03  0.13100000000E+03 0.  0.
        997    1    1    2    0    0 -0.25862606459E+01  0.18553071318E+02  0.25614586290E+03  0.32551744697E+03  0.20000000000E+03 0.  0.
</event>
<event>
 5    1  0.6487493E-012  0.2414004E+03  0.7957747E-01  0.4429936E+00
         13   -1    0    0    0    0  0.00000000000E+00  0.00000000000E+00  0.49999998884E+03  0.50000000000E+03  0.10566000000E+00 0. -1.
        994   -1    0    0    0    0 -0.00000000000E+00 -0.00000000000E+00  0.00000000000E+00  0.13100000000E+03  0.13100000000E+03 0.  0.
         13    1    1    2    0    0 -0.20965306294E+02  0.25274054655E+01 -0.77285375095E+00  0.21131500499E+02  0.10566000000E+00 0.  1.
        994    1    1    2    0    0  0.30195541883E+02 -0.47942745845E+02  0.21105288591E+03  0.25478343407E+03  0.13100000000E+03 0.  0.
        997    1    1    2    0    0 -0.92302355893E+01  0.45415340379E+02  0.28971995668E+03  0.35508506543E+03  0.20000000000E+03 0.  0.
</event>
<event>
 5    1  0.6487493E-012  0.2474457E+03  0.7957747E-01  0.4361340E+00
         13   -1    0    0    0    0  0.00000000000E+00  0.00000000000E+00  0.49999998884E+03  0.50000000000E+03  0.10566000000E+00 0.  1.
        994   -1    0    0    0    0 -0.00000000000E+00 -0.00000000000E+00  0.00000000000E+00  0.13100000000E+03  0.13100000000E+03 0.  0.
         13    1    1    2    0    0 -0.19720269604E+02  0.28812382750E+02  0.21139199416E+02  0.40815675285E+02  0.10566000000E+00 0. -1.
        994    1    1    2    0    0  0.11119371595E+02  0.26375475779E+02  0.22824176232E+03  0.26471608983E+03  0.13100000000E+03 0.  0.
        997    1    1    2    0    0  0.86008980086E+01 -0.55187858529E+02  0.25061902710E+03  0.32546823489E+03  0.20000000000E+03 0.  0.
</event>
<event>
 5    1  0.6487493E-012  0.2367711E+03  0.7957747E-01  0.4485280E+00
         13   -1    0    0    0    0  0.00000000000E+00  0.00000000000E+00  0.49999998884E+03  0.50000000000E+03  0.10566000000E+00 0.  1.
        994   -1    0    0    0    0 -0.00000000000E+00 -0.00000000000E+00  0.00000000000E+00  0.13100000000E+03  0.13100000000E+03 0.  0.
         13    1    1    2    0    0  0.11147548397E+01 -0.23639492380E+02  0.21582909245E+02  0.32029695813E+02  0.10566000000E+00 0. -1.
        994    1    1    2    0    0 -0.15910685502E+02  0.22585455319E+02  0.88462590206E+02  0.16046769946E+03  0.13100000000E+03 0.  0.
        997    1    1    2    0    0  0.14795930663E+02  0.10540370609E+01  0.38995448938E+03  0.43850260472E+03  0.20000000000E+03 0.  0.
</event>
<event>
 5    1  0.6487493E-012  0.2340100E+03  0.7957747E-01  0.4519536E+00
         13   -1    0    0    0    0  0.00000000000E+00  0.00000000000E+00  0.49999998884E+03  0.50000000000E+03  0.10566000000E+00 0. -1.
        994   -1    0    0    0    0 -0.00000000000E+00 -0.00000000000E+00  0.00000000000E+00  0.13100000000E+03  0.13100000000E+03 0.  0.
         13    1    1    2    0    0  0.13124666890E+02  0.20679914894E+01  0.77596633414E+02  0.78725994125E+02  0.10566000000E+00 0.  1.
        994    1    1    2    0    0 -0.24584020002E+02 -0.23097032437E+02  0.86374441753E+02  0.16049732439E+03  0.13100000000E+03 0.  0.
        997    1    1    2    0    0  0.11459353112E+02  0.21029040947E+02  0.33602891367E+03  0.39177668149E+03  0.20000000000E+03 0.  0.
</event>
<event>
 5    1  0.6487493E-012  0.2310221E+03  0.7957747E-01  0.4557719E+00
         13   -1    0    0    0    0  0.00000000000E+00  0.00000000000E+00  0.49999998884E+03  0.50000000000E+03  0.10566000000E+00 0.  1.
        994   -1    0    0    0    0 -0.00000000000E+00 -0.00000000000E+00  0.00000000000E+00  0.13100000000E+03  0.13100000000E+03 0.  0.
         13    1    1    2    0    0 -0.13276305027E+02 -0.95888062456E+01  0.32541465381E+02  0.36430256842E+02  0.10566000000E+00 0. -1.
        994    1    1    2    0    0  0.22509236613E+01  0.98533349013E+01  0.68551901482E+02  0.14819756429E+03  0.13100000000E+03 0.  0.
        997    1    1    2    0    0  0.11025381366E+02 -0.26452865567E+00  0.39890662197E+03  0.44637217886E+03  0.20000000000E+03 0.  0.
</event>
<event>
 5    1  0.6487493E-012  0.2351884E+03  0.7957747E-01  0.4504799E+00
         13   -1    0    0    0    0  0.00000000000E+00  0.00000000000E+00  0.49999998884E+03  0.50000000000E+03  0.10566000000E+00 0. -1.
        994   -1    0    0    0    0 -0.00000000000E+00 -0.00000000000E+00  0.00000000000E+00  0.13100000000E+03  0.13100000000E+03 0.  0.
         13    1    1    2    0    0 -0.19294080676E+02 -0.10963010206E+02  0.14755760892E+02  0.26649442498E+02  0.10566000000E+00 0.  1.
        994    1    1    2    0    0  0.20722772216E+02  0.61561191106E+02  0.14166858832E+03  0.20359322792E+03  0.13100000000E+03 0.  0.
        997    1    1    2    0    0 -0.14286915398E+01 -0.50598180899E+02  0.34357563962E+03  0.40075732958E+03  0.20000000000E+03 0.  0.
</event>
<event>
 5    1  0.6487493E-012  0.2402167E+03  0.7957747E-01  0.4443846E+00
         13   -1    0    0    0    0  0.00000000000E+00  0.00000000000E+00  0.49999998884E+03  0.50000000000E+03  0.10566000000E+00 0.  1.
        994   -1    0    0    0    0 -0.00000000000E+00 -0.00000000000E+00  0.00000000000E+00  0.13100000000E+03  0.13100000000E+03 0.  0.
         13    1    1    2    0    0  0.32834771206E+02 -0.63967314826E+01  0.72045982067E+02  0.79433463162E+02  0.10566000000E+00 0. -1.
        994    1    1    2    0    0 -0.58177629893E+02 -0.19522757022E+02  0.18243597015E+03  0.23282967565E+03  0.13100000000E+03 0.  0.
        997    1    1    2    0    0  0.25342858687E+02  0.25919488505E+02  0.24551803662E+03  0.31873686118E+03  0.20000000000E+03 0.  0.
</event>
<event>
 5    1  0.6487493E-012  0.2434759E+03  0.7957747E-01  0.4405933E+00
         13   -1    0    0    0    0  0.00000000000E+00  0.00000000000E+00  0.49999998884E+03  0.50000000000E+03  0.10566000000E+00 0. -1.
        994   -1    0    0    0    0 -0.00000000000E+00 -0.00000000000E+00  0.00000000000E+00  0.13100000000E+03  0.13100000000E+03 0.  0.
         13    1    1    2    0    0 -0.16628559322E+02  0.20809872492E+02  0.12021045418E+02  0.29224586828E+02  0.10566000000E+00 0.  1.
        994    1    1    2    0    0  0.37424772084E+02  0.17302231944E+02  0.12826857912E+03  0.18791968812E+03  0.13100000000E+03 0.  0.
        997    1    1    2    0    0 -0.20796212762E+02 -0.38112104437E+02  0.35971036430E+03  0.41385572505E+03  0.20000000000E+03 0.  0.
</event>
<event>
 5    1  0.6487493E-012  0.2288824E+03  0.7957747E-01  0.4585803E+00
         13   -1    0    0    0    0  0.00000000000E+00  0.00000000000E+00  0.49999998884E+03  0.50000000000E+03  0.10566000000E+00 0.  1.
        994   -1    0    0    0    0 -0.00000000000E+00 -0.00000000000E+00  0.00000000000E+00  0.13100000000E+03  0.13100000000E+03 0.  0.
         13    1    1    2    0    0  0.55868373705E+01 -0.10919115636E+02  0.15455473930E+02  0.19731261402E+02  0.10566000000E+00 0. -1.
        994    1    1    2    0    0 -0.15877745638E+02  0.13097555448E+02  0.67881744117E+02  0.14897174212E+03  0.13100000000E+03 0.  0.
        997    1    1    2    0    0  0.10290908267E+02 -0.21784398119E+01  0.41666277079E+03  0.46229699648E+03  0.20000000000E+03 0.  0.
</event>
<event>
 5    1  0.6487493E-012  0.2440179E+03  0.7957747E-01  0.4399744E+00
         13   -1    0    0    0    0  0.00000000000E+00  0.00000000000E+00  0.49999998884E+03  0.50000000000E+03  0.10566000000E+00 0. -1.
        994   -1    0    0    0    0 -0.00000000000E+00 -0.00000000000E+00  0.00000000000E+00  0.13100000000E+03  0.13100000000E+03 0.  0.
         13    1    1    2    0    0  0.34686178761E+02  0.24966617695E+02  0.43427225865E+02  0.60929451881E+02  0.10566000000E+00 0.  1.
        994    1    1    2    0    0 -0.33711074340E+02 -0.34368298668E+02  0.21472475708E+03  0.25609634474E+03  0.13100000000E+03 0.  0.
        997    1    1    2    0    0 -0.97510442100E+00  0.94016809726E+01  0.24184800590E+03  0.31397420338E+03  0.20000000000E+03 0.  0.
</event>
<event>
 5    1  0.6487493E-012  0.2387519E+03  0.7957747E-01  0.4461287E+00
         13   -1    0    0    0    0  0.00000000000E+00  0.00000000000E+00  0.49999998884E+03  0.50000000000E+03  0.10566000000E+00 0.  1.
        994   -1    0    0    0    0 -0.00000000000E+00 -0.00000000000E+00  0.00000000000E+00  0.13100000000E+03  0.13100000000E+03 0.  0.
         13    1    1    2    0    0 -0.17549027334E+02 -0.18173037559E+02  0.87201163401E+02  0.90787012932E+02  0.10566000000E+00 0. -1.
        994    1    1    2    0    0  0.20087445528E+02  0.12461635182E+02  0.90901913250E+02  0.16119229402E+03  0.13100000000E+03 0.  0.
        997    1    1    2    0    0 -0.25384181940E+01  0.57114023776E+01  0.32189691218E+03  0.37902069305E+03  0.20000000000E+03 0.  0.
</event>
<event>
 5    1  0.6487493E-012  0.2412940E+03  0.7957747E-01  0.4431180E+00
         13   -1    0    0    0    0  0.00000000000E+00  0.00000000000E+00  0.49999998884E+03  0.50000000000E+03  0.10566000000E+00 0. -1.
        994   -1    0    0    0    0 -0.00000000000E+00 -0.00000000000E+00  0.00000000000E+00  0.13100000000E+03  0.13100000000E+03 0.  0.
         13    1    1    2    0    0 -0.26005719322E+02  0.16670178312E+02  0.58497624478E+02  0.66152668246E+02  0.10566000000E+00 0.  1.
        994    1    1    2    0    0 -0.19723161306E+02 -0.30149955521E+02  0.11022491034E+03  0.17495300446E+03  0.13100000000E+03 0.  0.
        997    1    1    2    0    0  0.45728880628E+02  0.13479777209E+02  0.33127745401E+03  0.38989432729E+03  0.20000000000E+03 0.  0.
</event>
<event>
 5    1  0.6487493E-012  0.2316473E+03  0.7957747E-01  0.4549631E+00
         13   -1    0    0    0    0  0.00000000000E+00  0.00000000000E+00  0.49999998884E+03  0.50000000000E+03  0.10566000000E+00 0. -1.
        994   -1    0    0    0    0 -0.00000000000E+00 -0.00000000000E+00  0.00000000000E+00  0.13100000000E+03  0.13100000000E+03 0.  0.
         13    1    1    2    0    0  0.97695670907E+01  0.11602037874E+02  0.51030337945E+01  0.16003244731E+02  0.10566000000E+00 0.  1.
        994    1    1    2    0    0 -0.62992843305E+02 -0.44189398345E+02  0.16591009456E+03  0.22496213172E+03  0.13100000000E+03 0.  0.
        997    1    1    2    0    0  0.53223276214E+02  0.32587360471E+02  0.32898686048E+03  0.39003462354E+03  0.20000000000E+03 0.  0.
</event>
<event>
 5    1  0.6487493E-012  0.2350599E+03  0.7957747E-01  0.4506396E+00
         13   -1    0    0    0    0  0.00000000000E+00  0.00000000000E+00  0.49999998884E+03  0.50000000000E+03  0.10566000000E+00 0.  1.
        994   -1    0    0    0    0 -0.00000000000E+00 -0.00000000000E+00  0.00000000000E+00  0.13100000000E+03  0.13100000000E+03 0.  0.
         13    1    1    2    0    0  0.21294620497E+01 -0.23302045172E+02  0.32546696936E+02  0.40085141428E+02  0.10566000000E+00 0. -1.
        994    1    1    2    0    0  0.10965331427E+02  0.19936715305E+02  0.81342227301E+02  0.15586939742E+03  0.13100000000E+03 0.  0.
        997    1    1    2    0    0 -0.13094793477E+02  0.33653298672E+01  0.38611106460E+03  0.43504546115E+03  0.20000000000E+03 0.  0.
</event>
<event>
 5    1  0.6487493E-012  0.2323694E+03  0.7957747E-01  0.4540356E+00
         13   -1    0    0    0    0  0.00000000000E+00  0.00000000000E+00  0.49999998884E+03  0.50000000000E+03  0.10566000000E+00 0.  1.
        994   -1    0    0    0    0 -0.00000000000E+00 -0.00000000000E+00  0.00000000000E+00  0.13100000000E+03  0.13100000000E+03 0.  0.
         13    1    1    2    0    0  0.98191313909E+01 -0.23783367908E+01  0.18090842024E+01  0.10264296218E+02  0.10566000000E+00 0. -1.
        994    1    1    2    0    0 -0.20158008389E+02  0.23681910641E+01  0.74414830103E+02  0.15202144773E+03  0.13100000000E+03 0.  0.
        997    1    1    2    0    0  0.10338876998E+02  0.10145726704E-01  0.42377607453E+03  0.46871425605E+03  0.20000000000E+03 0.  0.
</event>
<event>
 5    1  0.6487493E-012  0.2296941E+03  0.7957747E-01  0.4575075E+00
         13   -1    0    0    0    0  0.00000000000E+00  0.00000000000E+00  0.49999998884E+03  0.50000000000E+03  0.10566000000E+00 0.  1.
        994   -1    0    0    0    0 -0.00000000000E+00 -0.00000000000E+00  0.00000000000E+00  0.13100000000E+03  0.13100000000E+03 0.  0.
         13    1    1    2    0    0 -0.11549145828E+02  0.67547648760E+01  0.41984796188E+02  0.44065223168E+02  0.10566000000E+00 0. -1.
        994    1    1    2    0    0  0.24982229744E+02  0.77221923665E+01  0.72038788241E+02  0.15177065286E+03  0.13100000000E+03 0.  0.
        997    1    1    2    0    0 -0.13433083916E+02 -0.14476957243E+02  0.38597640441E+03  0.43516412397E+03  0.20000000000E+03 0.  0.
</event>
<event>
 5    1  0.6487493E-012  0.2392725E+03  0.7957747E-01  0.4455059E+00
         13   -1    0    0    0    0  0.00000000000E+00  0.00000000000E+00  0.49999998884E+03  0.50000000000E+03  0.10566000000E+00 0. -1.
        994   -1    0    0    0    0 -0.00000000000E+00 -0.00000000000E+00  0.00000000000E+00  0.13100000000E+03  0.13100000000E+03 0.  0.
         13    1    1    2    0    0 -0.37373972136E+01 -0.28543165984E+02  0.29432497832E+02  0.41169935086E+02  0.10566000000E+00 0.  1.
        994    1    1    2    0    0  0.46422692108E+02  0.15420244236E+02  0.12243003098E+03  0.18585737209E+03  0.13100000000E+03 0.  0.
        997    1    1    2    0    0 -0.42685294894E+02  0.13122921748E+02  0.34813746002E+03  0.40397269282E+03  0.20000000000E+03 0.  0.
</event>
<event>
 5    1  0.6487493E-012  0.2326032E+03  0.7957747E-01  0.4537366E+00
         13   -1    0    0    0    0  0.00000000000E+00  0.00000000000E+00  0.49999998884E+03  0.50000000000E+03  0.10566000000E+00 0.  1.
        994   -1    0    0    0    0 -0.00000000000E+00 -0.00000000000E+00  0.00000000000E+00  0.13100000000E+03  0.13100000000E+03 0.  0.
         13    1    1    2    0    0  0.84321176436E+01 -0.13016618884E+02  0.11449082833E+02  0.19277594167E+02  0.10566000000E+00 0. -1.
        994    1    1    2    0    0 -0.32207798090E+01  0.22807792940E+02  0.76190721481E+02  0.15328599049E+03  0.13100000000E+03 0.  0.
        997    1    1    2    0    0 -0.52113378347E+01 -0.97911740565E+01  0.41236018452E+03  0.45843641534E+03  0.20000000000E+03 0.  0.
</event>
<event>
 5    1  0.6487493E-012  0.2370355E+03  0.7957747E-01  0.4482049E+00
         13   -1    0    0    0    0  0.00000000000E+00  0.00000000000E+00  0.49999998884E+03  0.50000000000E+03  0.10566000000E+00 0. -1.
        994   -1    0    0    0    0 -0.00000000000E+00 -0.00000000000E+00  0.00000000000E+00  0.13100000000E+03  0.13100000000E+03 0.  0.
         13    1    1    2    0    0 -0.11378861154E+02 -0.24722528752E+02  0.35697357444E+02  0.44888689016E+02  0.10566000000E+00 0.  1.
        994    1    1    2    0    0  0.18369641937E+02  0.19822074675E+02  0.88707293711E+02  0.16050028768E+03  0.13100000000E+03 0.  0.
        997    1    1    2    0    0 -0.69907807828E+01  0.49004540768E+01  0.37559533768E+03  0.42561102330E+03  0.20000000000E+03 0.  0.
</event>
<event>
 5    1  0.6487493E-012  0.2357435E+03  0.7957747E-01  0.4497916E+00
         13   -1    0    0    0    0  0.00000000000E+00  0.00000000000E+00  0.49999998884E+03  0.50000000000E+03  0.10566000000E+00 0.  1.
        994   -1    0    0    0    0 -0.00000000000E+00 -0.00000000000E+00  0.00000000000E+00  0.13100000000E+03  0.13100000000E+03 0.  0.
         13    1    1    2    0    0 -0.19491613936E+02 -0.68048994748E+01  0.18743461425E+02  0.27884730246E+02  0.10566000000E+00 0. -1.
        994    1    1    2    0    0  0.65508141539E+00  0.22626186416E+02  0.82839928277E+02  0.15663916228E+03  0.13100000000E+03 0.  0.
        997    1    1    2    0    0  0.18836532520E+02 -0.15821286941E+02  0.39841659913E+03  0.44647610747E+03  0.20000000000E+03 0.  0.
</event>
<event>
 5    1  0.6487493E-012  0.2396255E+03  0.7957747E-01  0.4450854E+00
         13   -1    0    0    0    0  0.00000000000E+00  0.00000000000E+00  0.49999998884E+03  0.50000000000E+03  0.10566000000E+00 0. -1.
        994   -1    0    0    0    0 -0.00000000000E+00 -0.00000000000E+00  0.00000000000E+00  0.13100000000E+03  0.13100000000E+03 0.  0.
         13    1    1    2    0    0  0.58281587635E+01  0.12049435985E+02 -0.92041985497E+00  0.13416954903E+02  0.10566000000E+00 0.  1.
        994    1    1    2    0    0  0.40886340835E+02  0.32462876927E+01  0.11068924680E+03  0.17633870990E+03  0.13100000000E+03 0.  0.
        997    1    1    2    0    0 -0.46714499599E+02 -0.15295723678E+02  0.39023116189E+03  0.44124433520E+03  0.20000000000E+03 0.  0.
</event>
<event>
 5    1  0.6487493E-012  0.2420303E+03  0.7957747E-01  0.4422600E+00
         13   -1    0    0    0    0  0.00000000000E+00  0.00000000000E+00  0.49999998884E+03  0.50000000000E+03  0.10566000000E+00 0. -1.
        994   -1    0    0    0    0 -0.00000000000E+00 -0.00000000000E+00  0.00000000000E+00  0.13100000000E+03  0.13100000000E+03 0.  0.
         13    1    1    2    0    0 -0.11320248353E+02 -0.17403760783E+02  0.81897547316E+01  0.22318650469E+02  0.10566000000E+00 0.  1.
        994    1    1    2    0    0 -0.13033787963E+02 -0.27936070511E+02  0.10689813913E+03  0.17186772767E+03  0.13100000000E+03 0.  0.
        997    1    1    2    0    0  0.24354036315E+02  0.45339831295E+02  0.38491209498E+03  0.43681362186E+03  0.20000000000E+03 0.  0.
</event>
<event>
 5    1  0.6487493E-012  0.2482357E+03  0.7957747E-01  0.4352666E+00
         13   -1    0    0    0    0  0.00000000000E+00  0.00000000000E+00  0.49999998884E+03  0.50000000000E+03  0.10566000000E+00 0.  1.
        994   -1    0    0    0    0 -0.00000000000E+00 -0.00000000000E+00  0.00000000000E+00  0.13100000000E+03  0.13100000000E+03 0.  0.
         13    1    1    2    0    0 -0.13429880255E+01 -0.14417526758E+02 -0.77837493086E+01  0.16439787468E+02  0.10566000000E+00 0. -1.
        994    1    1    2    0    0  0.39898118343E-01 -0.37973050281E+02  0.16299439509E+03  0.21253264919E+03  0.13100000000E+03 0.  0.
        997    1    1    2    0    0  0.13030899072E+01  0.52390577039E+02  0.34478934306E+03  0.40202756335E+03  0.20000000000E+03 0.  0.
</event>
<event>
 5    1  0.6487493E-012  0.2476743E+03  0.7957747E-01  0.4358823E+00
         13   -1    0    0    0    0  0.00000000000E+00  0.00000000000E+00  0.49999998884E+03  0.50000000000E+03  0.10566000000E+00 0.  1.
        994   -1    0    0    0    0 -0.00000000000E+00 -0.00000000000E+00  0.00000000000E+00  0.13100000000E+03  0.13100000000E+03 0.  0.
         13    1    1    2    0    0 -0.98399271561E+01  0.25376810147E+02  0.75608745838E+01  0.28248622058E+02  0.10566000000E+00 0. -1.
        994    1    1    2    0    0 -0.75668015345E+01 -0.90438607386E+01  0.11403875456E+03  0.17408298436E+03  0.13100000000E+03 0.  0.
        997    1    1    2    0    0  0.17406728691E+02 -0.16332949409E+02  0.37840035969E+03  0.42866839358E+03  0.20000000000E+03 0.  0.
</event>
<event>
 5    1  0.6487493E-012  0.2439502E+03  0.7957747E-01  0.4400515E+00
         13   -1    0    0    0    0  0.00000000000E+00  0.00000000000E+00  0.49999998884E+03  0.50000000000E+03  0.10566000000E+00 0. -1.
        994   -1    0    0    0    0 -0.00000000000E+00 -0.00000000000E+00  0.00000000000E+00  0.13100000000E+03  0.13100000000E+03 0.  0.
         13    1    1    2    0    0  0.30593393267E+02 -0.16558841197E+02  0.25800610798E+02  0.43310894876E+02  0.10566000000E+00 0.  1.
        994    1    1    2    0    0 -0.24661983473E+02  0.29191230426E+02  0.12514844316E+03  0.18515797090E+03  0.13100000000E+03 0.  0.
        997    1    1    2    0    0 -0.59314097941E+01 -0.12632389228E+02  0.34905093488E+03  0.40253113422E+03  0.20000000000E+03 0.  0.
</event>
<event>
 5    1  0.6487493E-012  0.2372196E+03  0.7957747E-01  0.4479806E+00
         13   -1    0    0    0    0  0.00000000000E+00  0.00000000000E+00  0.49999998884E+03  0.50000000000E+03  0.10566000000E+00 0.  1.
        994   -1    0    0    0    0 -0.00000000000E+00 -0.00000000000E+00  0.00000000000E+00  0.13100000000E+03  0.13100000000E+03 0.  0.
         13    1    1    2    0    0  0.15986724304E+02  0.20412763279E+02  0.52228830318E+02  0.58310531974E+02  0.10566000000E+00 0. -1.
        994    1    1    2    0    0 -0.13708136150E+02  0.51556279289E+01  0.82635321245E+02  0.15557663646E+03  0.13100000000E+03 0.  0.
        997    1    1    2    0    0 -0.22785881533E+01 -0.25568391208E+02  0.36513583727E+03  0.41711283156E+03  0.20000000000E+03 0.  0.
</event>
<event>
 5    1  0.7218992E-012  0.2442604E+03  0.7957747E-01  0.4396984E+00
         13   -1    0    0    0    0  0.00000000000E+00  0.00000000000E+00  0.49999998884E+03  0.50000000000E+03  0.10566000000E+00 0.  1.
        994   -1    0    0    0    0 -0.00000000000E+00 -0.00000000000E+00  0.00000000000E+00  0.13100000000E+03  0.13100000000E+03 0.  0.
         13    1    1    2    0    0  0.16134886207E+02 -0.10832235347E+02  0.19733072183E+01  0.19533995519E+02  0.10566000000E+00 0. -1.
        994    1    1    2    0    0  0.22231753007E+02  0.46794545820E+01  0.10746066135E+03  0.17095303997E+03  0.13100000000E+03 0.  0.
        997    1    1    2    0    0 -0.38366639214E+02  0.61527807649E+01  0.39056602027E+03  0.44051296451E+03  0.20000000000E+03 0.  0.
</event>
<event>
 5    1  0.7302404E-012  0.2391964E+03  0.7957747E-01  0.4455967E+00
         13   -1    0    0    0    0  0.00000000000E+00  0.00000000000E+00  0.49999998884E+03  0.50000000000E+03  0.10566000000E+00 0.  1.
        994   -1    0    0    0    0 -0.00000000000E+00 -0.00000000000E+00  0.00000000000E+00  0.13100000000E+03  0.13100000000E+03 0.  0.
         13    1    1    2    0    0  0.17098136309E+02 -0.35434628807E+01  0.26297891121E+01  0.17658690474E+02  0.10566000000E+00 0. -1.
        994    1    1    2    0    0 -0.32612394397E+02  0.21359909287E+00  0.99352153983E+02  0.16761701702E+03  0.13100000000E+03 0.  0.
        997    1    1    2    0    0  0.15514258088E+02  0.33298637879E+01  0.39801804574E+03  0.44572429251E+03  0.20000000000E+03 0.  0.
</event>
<event>
 5    1  0.6487493E-012  0.2313392E+03  0.7957747E-01  0.4553609E+00
         13   -1    0    0    0    0  0.00000000000E+00  0.00000000000E+00  0.49999998884E+03  0.50000000000E+03  0.10566000000E+00 0.  1.
        994   -1    0    0    0    0 -0.00000000000E+00 -0.00000000000E+00  0.00000000000E+00  0.13100000000E+03  0.13100000000E+03 0.  0.
         13    1    1    2    0    0  0.35002951230E+00  0.14369854349E+02  0.60328996290E+02  0.62017853817E+02  0.10566000000E+00 0. -1.
        994    1    1    2    0    0  0.12456488618E+01 -0.38988503448E+02  0.84702257047E+02  0.16080151551E+03  0.13100000000E+03 0.  0.
        997    1    1    2    0    0 -0.15956783741E+01  0.24618649099E+02  0.35496873550E+03  0.40818063067E+03  0.20000000000E+03 0.  0.
</event>
<event>
 5    1  0.6487493E-012  0.2352258E+03  0.7957747E-01  0.4504333E+00
         13   -1    0    0    0    0  0.00000000000E+00  0.00000000000E+00  0.49999998884E+03  0.50000000000E+03  0.10566000000E+00 0. -1.
        994   -1    0    0    0    0 -0.00000000000E+00 -0.00000000000E+00  0.00000000000E+00  0.13100000000E+03  0.13100000000E+03 0.  0.
         13    1    1    2    0    0 -0.76878730070E+01 -0.76963124958E+01  0.42190997583E+00  0.10886955014E+02  0.10566000000E+00 0.  1.
        994    1    1    2    0    0  0.72416408380E+01 -0.86432985633E+01  0.77154561439E+02  0.15244990759E+03  0.13100000000E+03 0.  0.
        997    1    1    2    0    0  0.44623216901E+00  0.16339611059E+02  0.42242351742E+03  0.46766313740E+03  0.20000000000E+03 0.  0.
</event>
<event>
 5    1  0.6487493E-012  0.2380543E+03  0.7957747E-01  0.4469682E+00
         13   -1    0    0    0    0  0.00000000000E+00  0.00000000000E+00  0.49999998884E+03  0.50000000000E+03  0.10566000000E+00 0.  1.
        994   -1    0    0    0    0 -0.00000000000E+00 -0.00000000000E+00  0.00000000000E+00  0.13100000000E+03  0.13100000000E+03 0.  0.
         13    1    1    2    0    0  0.17738696152E+02 -0.89717028059E+01  0.85250638882E+01  0.21629624840E+02  0.10566000000E+00 0. -1.
        994    1    1    2    0    0 -0.26754859237E+02  0.58973597563E+01  0.91637147243E+02  0.16220039488E+03  0.13100000000E+03 0.  0.
        997    1    1    2    0    0  0.90161630857E+01  0.30743430495E+01  0.39983777770E+03  0.44716998028E+03  0.20000000000E+03 0.  0.
</event>
<event>
 5    1  0.6487493E-012  0.2316744E+03  0.7957747E-01  0.4549281E+00
         13   -1    0    0    0    0  0.00000000000E+00  0.00000000000E+00  0.49999998884E+03  0.50000000000E+03  0.10566000000E+00 0.  1.
        994   -1    0    0    0    0 -0.00000000000E+00 -0.00000000000E+00  0.00000000000E+00  0.13100000000E+03  0.13100000000E+03 0.  0.
         13    1    1    2    0    0 -0.17443495869E+02  0.38235007642E+01  0.32037034886E+02  0.36678024409E+02  0.10566000000E+00 0. -1.
        994    1    1    2    0    0  0.11940192538E+02 -0.59677858963E+01  0.70562911429E+02  0.14939312948E+03  0.13100000000E+03 0.  0.
        997    1    1    2    0    0  0.55033033317E+01  0.21442851321E+01  0.39740004252E+03  0.44492884611E+03  0.20000000000E+03 0.  0.
</event>
<event>
 5    1  0.6938781E-012  0.2482704E+03  0.7957747E-01  0.4352285E+00
         13   -1    0    0    0    0  0.00000000000E+00  0.00000000000E+00  0.49999998884E+03  0.50000000000E+03  0.10566000000E+00 0. -1.
        994   -1    0    0    0    0 -0.00000000000E+00 -0.00000000000E+00  0.00000000000E+00  0.13100000000E+03  0.13100000000E+03 0.  0.
         13    1    1    2    0    0 -0.21263292242E+02  0.18658727890E+01 -0.46614009222E+00  0.21350351961E+02  0.10566000000E+00 0.  1.
        994    1    1    2    0    0 -0.10917268677E+02 -0.11362339627E+02  0.11924291997E+03  0.17784308668E+03  0.13100000000E+03 0.  0.
        997    1    1    2    0    0  0.32180560918E+02  0.94964668385E+01  0.38122320896E+03  0.43180656136E+03  0.20000000000E+03 0.  0.
</event>
<event>
 5    1  0.8799933E-012  0.2425457E+03  0.7957747E-01  0.4416630E+00
         13   -1    0    0    0    0  0.00000000000E+00  0.00000000000E+00  0.49999998884E+03  0.50000000000E+03  0.10566000000E+00 0. -1.
        994   -1    0    0    0    0 -0.00000000000E+00 -0.00000000000E+00  0.00000000000E+00  0.13100000000E+03  0.13100000000E+03 0.  0.
         13    1    1    2    0    0 -0.85654446909E+01 -0.12674705950E+02 -0.12049820690E+01  0.15345297635E+02  0.10566000000E+00 0.  1.
        994    1    1    2    0    0 -0.12400094035E+02 -0.73022149333E+01  0.96635468576E+02  0.16342123014E+03  0.13100000000E+03 0.  0.
        997    1    1    2    0    0  0.20965538726E+02  0.19976920884E+02  0.40456950233E+03  0.45223347222E+03  0.20000000000E+03 0.  0.
</event>
<event>
 5    1  0.6487493E-012  0.2281992E+03  0.7957747E-01  0.4594906E+00
         13   -1    0    0    0    0  0.00000000000E+00  0.00000000000E+00  0.49999998884E+03  0.50000000000E+03  0.10566000000E+00 0.  1.
        994   -1    0    0    0    0 -0.00000000000E+00 -0.00000000000E+00  0.00000000000E+00  0.13100000000E+03  0.13100000000E+03 0.  0.
         13    1    1    2    0    0  0.10996941782E+02  0.53403223820E+01  0.34070419944E+02  0.36197464703E+02  0.10566000000E+00 0. -1.
        994    1    1    2    0    0 -0.31264541650E+02 -0.11088563570E+02  0.73467084381E+02  0.15381430458E+03  0.13100000000E+03 0.  0.
        997    1    1    2    0    0  0.20267599868E+02  0.57482411877E+01  0.39246248451E+03  0.44098823072E+03  0.20000000000E+03 0.  0.
</event>
<event>
 5    1  0.6639400E-012  0.2393552E+03  0.7957747E-01  0.4454073E+00
         13   -1    0    0    0    0  0.00000000000E+00  0.00000000000E+00  0.49999998884E+03  0.50000000000E+03  0.10566000000E+00 0.  1.
        994   -1    0    0    0    0 -0.00000000000E+00 -0.00000000000E+00  0.00000000000E+00  0.13100000000E+03  0.13100000000E+03 0.  0.
         13    1    1    2    0    0 -0.18107024304E+02 -0.10020106047E+02  0.68138876996E+01  0.21787773727E+02  0.10566000000E+00 0. -1.
        994    1    1    2    0    0  0.29838524494E+02  0.17146619310E+02  0.10167601998E+03  0.16936161648E+03  0.13100000000E+03 0.  0.
        997    1    1    2    0    0 -0.11731500190E+02 -0.71265132633E+01  0.39151008116E+03  0.43985060979E+03  0.20000000000E+03 0.  0.
</event>
<event>
 5    1  0.6487493E-012  0.2344912E+03  0.7957747E-01  0.4513496E+00
         13   -1    0    0    0    0  0.00000000000E+00  0.00000000000E+00  0.49999998884E+03  0.50000000000E+03  0.10566000000E+00 0.  1.
        994   -1    0    0    0    0 -0.00000000000E+00 -0.00000000000E+00  0.00000000000E+00  0.13100000000E+03  0.13100000000E+03 0.  0.
         13    1    1    2    0    0  0.25203978003E+02  0.20556446560E+01  0.26150625388E+02  0.36377638108E+02  0.10566000000E+00 0. -1.
        994    1    1    2    0    0 -0.57117440800E+02 -0.98824563564E+01  0.12015549336E+03  0.18697167586E+03  0.13100000000E+03 0.  0.
        997    1    1    2    0    0  0.31913462797E+02  0.78268117004E+01  0.35369387009E+03  0.40765068604E+03  0.20000000000E+03 0.  0.
</event>
<event>
 5    1  0.6487493E-012  0.2357658E+03  0.7957747E-01  0.4497641E+00
         13   -1    0    0    0    0  0.00000000000E+00  0.00000000000E+00  0.49999998884E+03  0.50000000000E+03  0.10566000000E+00 0.  1.
        994   -1    0    0    0    0 -0.00000000000E+00 -0.00000000000E+00  0.00000000000E+00  0.13100000000E+03  0.13100000000E+03 0.  0.
         13    1    1    2    0    0  0.19771195056E+02  0.71609837473E+01  0.27582083378E+02  0.34683747342E+02  0.10566000000E+00 0. -1.
        994    1    1    2    0    0  0.15797943720E+02 -0.12200330357E+01  0.79768148472E+02  0.15419150760E+03  0.13100000000E+03 0.  0.
        997    1    1    2    0    0 -0.35569138775E+02 -0.59409507116E+01  0.39264975699E+03  0.44212474505E+03  0.20000000000E+03 0.  0.
</event>
<event>
 5    1  0.6487493E-012  0.2390731E+03  0.7957747E-01  0.4457441E+00
         13   -1    0    0    0    0  0.00000000000E+00  0.00000000000E+00  0.49999998884E+03  0.50000000000E+03  0.10566000000E+00 0.  1.
        994   -1    0    0    0    0 -0.00000000000E+00 -0.00000000000E+00  0.00000000000E+00  0.13100000000E+03  0.13100000000E+03 0.  0.
         13    1    1    2    0    0  0.17785156173E+01  0.25750964151E+02  0.17389682432E+02  0.31123744820E+02  0.10566000000E+00 0. -1.
        994    1    1    2    0    0 -0.73698667551E+01 -0.34823822876E+02  0.10204964271E+03  0.16982974755E+03  0.13100000000E+03 0.  0.
        997    1    1    2    0    0  0.55913511378E+01  0.90728587254E+01  0.38056066370E+03  0.43004650763E+03  0.20000000000E+03 0.  0.
</event>
<event>
 5    1  0.6487493E-012  0.2399497E+03  0.7957747E-01  0.4447006E+00
         13   -1    0    0    0    0  0.00000000000E+00  0.00000000000E+00  0.49999998884E+03  0.50000000000E+03  0.10566000000E+00 0.  1.
        994   -1    0    0    0    0 -0.00000000000E+00 -0.00000000000E+00  0.00000000000E+00  0.13100000000E+03  0.13100000000E+03 0.  0.
         13    1    1    2    0    0 -0.29984396930E+02 -0.10828766129E+02  0.61514155056E+02  0.69284404244E+02  0.10566000000E+00 0. -1.
        994    1    1    2    0    0  0.16523977086E+02  0.73708269894E+01  0.90951665217E+02  0.16050101655E+03  0.13100000000E+03 0.  0.
        997    1    1    2    0    0  0.13460419844E+02  0.34579391393E+01  0.34753416856E+03  0.40121457920E+03  0.20000000000E+03 0.  0.
</event>
<event>
 5    1  0.6487493E-012  0.2365254E+03  0.7957747E-01  0.4488289E+00
         13   -1    0    0    0    0  0.00000000000E+00  0.00000000000E+00  0.49999998884E+03  0.50000000000E+03  0.10566000000E+00 0. -1.
        994   -1    0    0    0    0 -0.00000000000E+00 -0.00000000000E+00  0.00000000000E+00  0.13100000000E+03  0.13100000000E+03 0.  0.
         13    1    1    2    0    0  0.35257673986E+01 -0.14498350222E+02  0.34939352433E+01  0.15324879851E+02  0.10566000000E+00 0.  1.
        994    1    1    2    0    0 -0.16659786910E+02  0.14183958184E+02  0.84261675334E+02  0.15728878886E+03  0.13100000000E+03 0.  0.
        997    1    1    2    0    0  0.13134019512E+02  0.31439203799E+00  0.41224437826E+03  0.45838633129E+03  0.20000000000E+03 0.  0.
</event>
<event>
 5    1  0.8674254E-012  0.2391638E+03  0.7957747E-01  0.4456357E+00
         13   -1    0    0    0    0  0.00000000000E+00  0.00000000000E+00  0.49999998884E+03  0.50000000000E+03  0.10566000000E+00 0.  1.
        994   -1    0    0    0    0 -0.00000000000E+00 -0.00000000000E+00  0.00000000000E+00  0.13100000000E+03  0.13100000000E+03 0.  0.
         13    1    1    2    0    0  0.15619059151E+01  0.10179128293E+02 -0.33646993003E+01  0.10834508217E+02  0.10566000000E+00 0. -1.
        994    1    1    2    0    0 -0.36994562727E+01  0.21496342594E+01  0.84816550815E+02  0.15611903855E+03  0.13100000000E+03 0.  0.
        997    1    1    2    0    0  0.21375503576E+01 -0.12328762552E+02  0.41854813732E+03  0.46404645324E+03  0.20000000000E+03 0.  0.
</event>
<event>
 5    1  0.1201816E-011  0.2437376E+03  0.7957747E-01  0.4402940E+00
         13   -1    0    0    0    0  0.00000000000E+00  0.00000000000E+00  0.49999998884E+03  0.50000000000E+03  0.10566000000E+00 0. -1.
        994   -1    0    0    0    0 -0.00000000000E+00 -0.00000000000E+00  0.00000000000E+00  0.13100000000E+03  0.13100000000E+03 0.  0.
         13    1    1    2    0    0 -0.84340771264E+01 -0.11703321766E+02 -0.38852265534E+01  0.14940132085E+02  0.10566000000E+00 0.  1.
        994    1    1    2    0    0  0.21108727006E+02 -0.52741220180E+01  0.10481861785E+03  0.16917841874E+03  0.13100000000E+03 0.  0.
        997    1    1    2    0    0 -0.12674649880E+02  0.16977443784E+02  0.39906659754E+03  0.44688144917E+03  0.20000000000E+03 0.  0.
</event>
<event>
 5    1  0.6487493E-012  0.2489737E+03  0.7957747E-01  0.4344620E+00
         13   -1    0    0    0    0  0.00000000000E+00  0.00000000000E+00  0.49999998884E+03  0.50000000000E+03  0.10566000000E+00 0.  1.
        994   -1    0    0    0    0 -0.00000000000E+00 -0.00000000000E+00  0.00000000000E+00  0.13100000000E+03  0.13100000000E+03 0.  0.
         13    1    1    2    0    0 -0.38339041100E+02 -0.52673493305E+01  0.28169983577E+02  0.47866336608E+02  0.10566000000E+00 0. -1.
        994    1    1    2    0    0  0.10554343481E+02  0.22096036083E+02  0.13260243189E+03  0.18800009021E+03  0.13100000000E+03 0.  0.
        997    1    1    2    0    0  0.27784697619E+02 -0.16828686752E+02  0.33922757337E+03  0.39513357318E+03  0.20000000000E+03 0.  0.
</event>
<event>
 5    1  0.6487493E-012  0.2384422E+03  0.7957747E-01  0.4465007E+00
         13   -1    0    0    0    0  0.00000000000E+00  0.00000000000E+00  0.49999998884E+03  0.50000000000E+03  0.10566000000E+00 0. -1.
        994   -1    0    0    0    0 -0.00000000000E+00 -0.00000000000E+00  0.00000000000E+00  0.13100000000E+03  0.13100000000E+03 0.  0.
         13    1    1    2    0    0 -0.10545347279E+02  0.26942290092E+01 -0.21125648727E+01  0.11087710024E+02  0.10566000000E+00 0.  1.
        994    1    1    2    0    0 -0.44051835660E+02  0.22630902897E+02  0.11992782461E+03  0.18438114087E+03  0.13100000000E+03 0.  0.
        997    1    1    2    0    0  0.54597182939E+02 -0.25325131906E+02  0.38218472910E+03  0.43553114911E+03  0.20000000000E+03 0.  0.
</event>
<event>
 5    1  0.6487493E-012  0.2417298E+03  0.7957747E-01  0.4426094E+00
         13   -1    0    0    0    0  0.00000000000E+00  0.00000000000E+00  0.49999998884E+03  0.50000000000E+03  0.10566000000E+00 0. -1.
        994   -1    0    0    0    0 -0.00000000000E+00 -0.00000000000E+00  0.00000000000E+00  0.13100000000E+03  0.13100000000E+03 0.  0.
         13    1    1    2    0    0  0.12571854396E+02 -0.97056359861E+01 -0.84663448463E+00  0.15905308762E+02  0.10566000000E+00 0.  1.
        994    1    1    2    0    0  0.23857725887E+02  0.29418517507E+02  0.11441175538E+03  0.17800474720E+03  0.13100000000E+03 0.  0.
        997    1    1    2    0    0 -0.36429580283E+02 -0.19712881521E+02  0.38643486794E+03  0.43708994404E+03  0.20000000000E+03 0.  0.
</event>
<event>
 5    1  0.6496189E-012  0.2381196E+03  0.7957747E-01  0.4468893E+00
         13   -1    0    0    0    0  0.00000000000E+00  0.00000000000E+00  0.49999998884E+03  0.50000000000E+03  0.10566000000E+00 0.  1.
        994   -1    0    0    0    0 -0.00000000000E+00 -0.00000000000E+00  0.00000000000E+00  0.13100000000E+03  0.13100000000E+03 0.  0.
         13    1    1    2    0    0 -0.12743690058E+02 -0.10257919468E+02  0.29458823179E+01  0.16622753525E+02  0.10566000000E+00 0. -1.
        994    1    1    2    0    0  0.32528216218E+02 -0.26169189141E+01  0.96180728111E+02  0.16576086865E+03  0.13100000000E+03 0.  0.
        997    1    1    2    0    0 -0.19784526160E+02  0.12874838382E+02  0.40087337841E+03  0.44861637783E+03  0.20000000000E+03 0.  0.
</event>
<event>
 5    1  0.6487493E-012  0.2315657E+03  0.7957747E-01  0.4550684E+00
         13   -1    0    0    0    0  0.00000000000E+00  0.00000000000E+00  0.49999998884E+03  0.50000000000E+03  0.10566000000E+00 0. -1.
        994   -1    0    0    0    0 -0.00000000000E+00 -0.00000000000E+00  0.00000000000E+00  0.13100000000E+03  0.13100000000E+03 0.  0.
         13    1    1    2    0    0  0.16331316600E+02  0.50762617985E+01  0.37552325379E+02  0.41263405593E+02  0.10566000000E+00 0.  1.
        994    1    1    2    0    0 -0.48760985102E+01 -0.44699138378E+01  0.68961655787E+02  0.14819064220E+03  0.13100000000E+03 0.  0.
        997    1    1    2    0    0 -0.11455218090E+02 -0.60634796069E+00  0.39348600767E+03  0.44154595221E+03  0.20000000000E+03 0.  0.
</event>
<event>
 5    1  0.6487493E-012  0.2428184E+03  0.7957747E-01  0.4413484E+00
         13   -1    0    0    0    0  0.00000000000E+00  0.00000000000E+00  0.49999998884E+03  0.50000000000E+03  0.10566000000E+00 0.  1.
        994   -1    0    0    0    0 -0.00000000000E+00 -0.00000000000E+00  0.00000000000E+00  0.13100000000E+03  0.13100000000E+03 0.  0.
         13    1    1    2    0    0  0.20358813893E+02 -0.12522944384E+02  0.10745194400E+02  0.26206407726E+02  0.10566000000E+00 0. -1.
        994    1    1    2    0    0  0.43974888984E+02  0.25521595829E+02  0.14996982132E+03  0.20551664171E+03  0.13100000000E+03 0.  0.
        997    1    1    2    0    0 -0.64333702877E+02 -0.12998651445E+02  0.33928497312E+03  0.39927695056E+03  0.20000000000E+03 0.  0.
</event>
<event>
 5    1  0.6487493E-012  0.2262513E+03  0.7957747E-01  0.4621225E+00
         13   -1    0    0    0    0  0.00000000000E+00  0.00000000000E+00  0.49999998884E+03  0.50000000000E+03  0.10566000000E+00 0.  1.
        994   -1    0    0    0    0 -0.00000000000E+00 -0.00000000000E+00  0.00000000000E+00  0.13100000000E+03  0.13100000000E+03 0.  0.
         13    1    1    2    0    0  0.10255838918E+02  0.21644586113E+01  0.17497220146E+02  0.20396837742E+02  0.10566000000E+00 0. -1.
        994    1    1    2    0    0 -0.72473188304E+02  0.98810466265E+01  0.12149564785E+03  0.19306006980E+03  0.13100000000E+03 0.  0.
        997    1    1    2    0    0  0.62217349386E+02 -0.12045505238E+02  0.36100712084E+03  0.41754309246E+03  0.20000000000E+03 0.  0.
</event>
<event>
 5    1  0.6487493E-012  0.2453723E+03  0.7957747E-01  0.4384418E+00
         13   -1    0    0    0    0  0.00000000000E+00  0.00000000000E+00  0.49999998884E+03  0.50000000000E+03  0.10566000000E+00 0. -1.
        994   -1    0    0    0    0 -0.00000000000E+00 -0.00000000000E+00  0.00000000000E+00  0.13100000000E+03  0.13100000000E+03 0.  0.
         13    1    1    2    0    0  0.23124615947E+02  0.10173453721E+01  0.11401352197E+03  0.11633949119E+03  0.10566000000E+00 0.  1.
        994    1    1    2    0    0 -0.18706897028E+02 -0.33366911676E+02  0.13351725732E+03  0.19092186044E+03  0.13100000000E+03 0.  0.
        997    1    1    2    0    0 -0.44177189190E+01  0.32349566304E+02  0.25246920955E+03  0.32373864838E+03  0.20000000000E+03 0.  0.
</event>
<event>
 5    1  0.6487493E-012  0.2500610E+03  0.7957747E-01  0.4332867E+00
         13   -1    0    0    0    0  0.00000000000E+00  0.00000000000E+00  0.49999998884E+03  0.50000000000E+03  0.10566000000E+00 0. -1.
        994   -1    0    0    0    0 -0.00000000000E+00 -0.00000000000E+00  0.00000000000E+00  0.13100000000E+03  0.13100000000E+03 0.  0.
         13    1    1    2    0    0  0.21204281216E+02  0.37805936555E+02  0.34609522899E+02  0.55468374954E+02  0.10566000000E+00 0.  1.
        994    1    1    2    0    0  0.61764191586E+01 -0.28489808256E+02  0.15347176109E+03  0.20387348720E+03  0.13100000000E+03 0.  0.
        997    1    1    2    0    0 -0.27380700375E+02 -0.93161282990E+01  0.31191870484E+03  0.37165813785E+03  0.20000000000E+03 0.  0.
</event>
<event>
 5    1  0.6487493E-012  0.2388037E+03  0.7957747E-01  0.4460666E+00
         13   -1    0    0    0    0  0.00000000000E+00  0.00000000000E+00  0.49999998884E+03  0.50000000000E+03  0.10566000000E+00 0. -1.
        994   -1    0    0    0    0 -0.00000000000E+00 -0.00000000000E+00  0.00000000000E+00  0.13100000000E+03  0.13100000000E+03 0.  0.
         13    1    1    2    0    0  0.33644183354E+01  0.21928004262E+02  0.13603436215E+02  0.26023476373E+02  0.10566000000E+00 0.  1.
        994    1    1    2    0    0 -0.61198604259E+01 -0.11692064210E+02  0.85938834895E+02  0.15722798860E+03  0.13100000000E+03 0.  0.
        997    1    1    2    0    0  0.27554420905E+01 -0.10235940052E+02  0.40045771773E+03  0.44774853502E+03  0.20000000000E+03 0.  0.
</event>
<event>
 5    1  0.6487493E-012  0.2512918E+03  0.7957747E-01  0.4319708E+00
         13   -1    0    0    0    0  0.00000000000E+00  0.00000000000E+00  0.49999998884E+03  0.50000000000E+03  0.10566000000E+00 0. -1.
        994   -1    0    0    0    0 -0.00000000000E+00 -0.00000000000E+00  0.00000000000E+00  0.13100000000E+03  0.13100000000E+03 0.  0.
         13    1    1    2    0    0 -0.41095449014E+02  0.84415428668E+01  0.28161721909E+02  0.50529093803E+02  0.10566000000E+00 0.  1.
        994    1    1    2    0    0  0.19028110459E+02  0.58939145211E+01  0.14528414015E+03  0.19663491194E+03  0.13100000000E+03 0.  0.
        997    1    1    2    0    0  0.22067338555E+02 -0.14335457388E+02  0.32655412678E+03  0.38383599425E+03  0.20000000000E+03 0.  0.
</event>
<event>
 5    1  0.6487493E-012  0.2444574E+03  0.7957747E-01  0.4394748E+00
         13   -1    0    0    0    0  0.00000000000E+00  0.00000000000E+00  0.49999998884E+03  0.50000000000E+03  0.10566000000E+00 0.  1.
        994   -1    0    0    0    0 -0.00000000000E+00 -0.00000000000E+00  0.00000000000E+00  0.13100000000E+03  0.13100000000E+03 0.  0.
         13    1    1    2    0    0  0.12436669925E+02 -0.34689316004E+02  0.25718396295E+02  0.44938474337E+02  0.10566000000E+00 0. -1.
        994    1    1    2    0    0 -0.25005573546E+02  0.37661153908E+02  0.14492093722E+03  0.20051613219E+03  0.13100000000E+03 0.  0.
        997    1    1    2    0    0  0.12568903621E+02 -0.29718379033E+01  0.32936065532E+03  0.38554539348E+03  0.20000000000E+03 0.  0.
</event>
<event>
 5    1  0.6487493E-012  0.2365064E+03  0.7957747E-01  0.4488523E+00
         13   -1    0    0    0    0  0.00000000000E+00  0.00000000000E+00  0.49999998884E+03  0.50000000000E+03  0.10566000000E+00 0. -1.
        994   -1    0    0    0    0 -0.00000000000E+00 -0.00000000000E+00  0.00000000000E+00  0.13100000000E+03  0.13100000000E+03 0.  0.
         13    1    1    2    0    0  0.17803541199E+02 -0.56606228982E+01  0.10006672402E+02  0.21193239192E+02  0.10566000000E+00 0.  1.
        994    1    1    2    0    0  0.78668804334E+01  0.49895406493E+02  0.11393768491E+03  0.18081547345E+03  0.13100000000E+03 0.  0.
        997    1    1    2    0    0 -0.25670421633E+02 -0.44234783595E+02  0.37605563153E+03  0.42899128736E+03  0.20000000000E+03 0.  0.
</event>
<event>
 5    1  0.6487493E-012  0.2501839E+03  0.7957747E-01  0.4331547E+00
         13   -1    0    0    0    0  0.00000000000E+00  0.00000000000E+00  0.49999998884E+03  0.50000000000E+03  0.10566000000E+00 0.  1.
        994   -1    0    0    0    0 -0.00000000000E+00 -0.00000000000E+00  0.00000000000E+00  0.13100000000E+03  0.13100000000E+03 0.  0.
         13    1    1    2    0    0 -0.11979540489E+02  0.14800896120E+02 -0.49809674777E+01  0.19682406289E+02  0.10566000000E+00 0. -1.
        994    1    1    2    0    0 -0.50581877284E+01  0.22890780279E+02  0.14053502885E+03  0.19354758438E+03  0.13100000000E+03 0.  0.
        997    1    1    2    0    0  0.17037728217E+02 -0.37691676399E+02  0.36444592746E+03  0.41777000933E+03  0.20000000000E+03 0.  0.
</event>
<event>
 5    1  0.6487493E-012  0.2424380E+03  0.7957747E-01  0.4417875E+00
         13   -1    0    0    0    0  0.00000000000E+00  0.00000000000E+00  0.49999998884E+03  0.50000000000E+03  0.10566000000E+00 0.  1.
        994   -1    0    0    0    0 -0.00000000000E+00 -0.00000000000E+00  0.00000000000E+00  0.13100000000E+03  0.13100000000E+03 0.  0.
         13    1    1    2    0    0 -0.13858659345E+02  0.26973533994E+02  0.44099718927E+02  0.53520373209E+02  0.10566000000E+00 0. -1.
        994    1    1    2    0    0  0.11166028694E+02  0.26814324387E+02  0.10653482003E+03  0.17133112989E+03  0.13100000000E+03 0.  0.
        997    1    1    2    0    0  0.26926306502E+01 -0.53787858381E+02  0.34936544988E+03  0.40614849691E+03  0.20000000000E+03 0.  0.
</event>
<event>
 5    1  0.6487493E-012  0.2485323E+03  0.7957747E-01  0.4349425E+00
         13   -1    0    0    0    0  0.00000000000E+00  0.00000000000E+00  0.49999998884E+03  0.50000000000E+03  0.10566000000E+00 0.  1.
        994   -1    0    0    0    0 -0.00000000000E+00 -0.00000000000E+00  0.00000000000E+00  0.13100000000E+03  0.13100000000E+03 0.  0.
         13    1    1    2    0    0  0.35190231755E+02 -0.32465666588E+02  0.68247292765E+02  0.83367116129E+02  0.10566000000E+00 0. -1.
        994    1    1    2    0    0 -0.21098878574E+02  0.30913754831E+02  0.16693328889E+03  0.21547284250E+03  0.13100000000E+03 0.  0.
        997    1    1    2    0    0 -0.14091353181E+02  0.15519117570E+01  0.26481940718E+03  0.33216004137E+03  0.20000000000E+03 0.  0.
</event>
<event>
 5    1  0.6487493E-012  0.2377599E+03  0.7957747E-01  0.4473242E+00
         13   -1    0    0    0    0  0.00000000000E+00  0.00000000000E+00  0.49999998884E+03  0.50000000000E+03  0.10566000000E+00 0. -1.
        994   -1    0    0    0    0 -0.00000000000E+00 -0.00000000000E+00  0.00000000000E+00  0.13100000000E+03  0.13100000000E+03 0.  0.
         13    1    1    2    0    0 -0.23209575143E+01 -0.23677877582E+02  0.13865632292E+02  0.27537168581E+02  0.10566000000E+00 0.  1.
        994    1    1    2    0    0  0.12590247977E+02  0.44016081009E+02  0.11087390065E+03  0.17762306037E+03  0.13100000000E+03 0.  0.
        997    1    1    2    0    0 -0.10269290463E+02 -0.20338203428E+02  0.37526045589E+03  0.42583977104E+03  0.20000000000E+03 0.  0.
</event>
<event>
 5    1  0.6487493E-012  0.2471918E+03  0.7957747E-01  0.4364142E+00
         13   -1    0    0    0    0  0.00000000000E+00  0.00000000000E+00  0.49999998884E+03  0.50000000000E+03  0.10566000000E+00 0.  1.
        994   -1    0    0    0    0 -0.00000000000E+00 -0.00000000000E+00  0.00000000000E+00  0.13100000000E+03  0.13100000000E+03 0.  0.
         13    1    1    2    0    0 -0.27648927880E+02  0.33444736388E+02  0.51603639341E+02  0.67423737380E+02  0.10566000000E+00 0. -1.
        994    1    1    2    0    0 -0.99597082821E+01 -0.40498624536E+02  0.19240802486E+03  0.23647660013E+03  0.13100000000E+03 0.  0.
        997    1    1    2    0    0  0.37608636162E+02  0.70538881484E+01  0.25598832463E+03  0.32709966249E+03  0.20000000000E+03 0.  0.
</event>
<event>
 5    1  0.6487493E-012  0.2457353E+03  0.7957747E-01  0.4380345E+00
         13   -1    0    0    0    0  0.00000000000E+00  0.00000000000E+00  0.49999998884E+03  0.50000000000E+03  0.10566000000E+00 0. -1.
        994   -1    0    0    0    0 -0.00000000000E+00 -0.00000000000E+00  0.00000000000E+00  0.13100000000E+03  0.13100000000E+03 0.  0.
         13    1    1    2    0    0 -0.35934111349E+02  0.23664088765E+01  0.43505924499E+02  0.56476870310E+02  0.10566000000E+00 0.  1.
        994    1    1    2    0    0 -0.24690275405E+01  0.44656970638E+02  0.15702896631E+03  0.20933092792E+03  0.13100000000E+03 0.  0.
        997    1    1    2    0    0  0.38403138890E+02 -0.47023379514E+02  0.29946509803E+03  0.36519220177E+03  0.20000000000E+03 0.  0.
</event>
<event>
 5    1  0.6676255E-012  0.2358099E+03  0.7957747E-01  0.4497096E+00
         13   -1    0    0    0    0  0.00000000000E+00  0.00000000000E+00  0.49999998884E+03  0.50000000000E+03  0.10566000000E+00 0.  1.
        994   -1    0    0    0    0 -0.00000000000E+00 -0.00000000000E+00  0.00000000000E+00  0.13100000000E+03  0.13100000000E+03 0.  0.
         13    1    1    2    0    0 -0.50288702882E+01 -0.87315859187E+01 -0.10555785737E+01  0.10131906987E+02  0.10566000000E+00 0. -1.
        994    1    1    2    0    0  0.21005925519E+01  0.24775921892E+01  0.77061375297E+02  0.15201975699E+03  0.13100000000E+03 0.  0.
        997    1    1    2    0    0  0.29282777362E+01  0.62539937295E+01  0.42399419211E+03  0.46884833602E+03  0.20000000000E+03 0.  0.
</event>
<event>
 5    1  0.6487493E-012  0.2373281E+03  0.7957747E-01  0.4478485E+00
         13   -1    0    0    0    0  0.00000000000E+00  0.00000000000E+00  0.49999998884E+03  0.50000000000E+03  0.10566000000E+00 0.  1.
        994   -1    0    0    0    0 -0.00000000000E+00 -0.00000000000E+00  0.00000000000E+00  0.13100000000E+03  0.13100000000E+03 0.  0.
         13    1    1    2    0    0 -0.13545146593E+02 -0.20245664084E+02  0.34840008696E+02  0.42511119492E+02  0.10566000000E+00 0. -1.
        994    1    1    2    0    0 -0.25089057569E+02  0.83101549790E+01  0.89039388033E+02  0.16058496850E+03  0.13100000000E+03 0.  0.
        997    1    1    2    0    0  0.38634204162E+02  0.11935509105E+02  0.37612059211E+03  0.42790391201E+03  0.20000000000E+03 0.  0.
</event>
<event>
 5    1  0.6487493E-012  0.2340125E+03  0.7957747E-01  0.4519505E+00
         13   -1    0    0    0    0  0.00000000000E+00  0.00000000000E+00  0.49999998884E+03  0.50000000000E+03  0.10566000000E+00 0. -1.
        994   -1    0    0    0    0 -0.00000000000E+00 -0.00000000000E+00  0.00000000000E+00  0.13100000000E+03  0.13100000000E+03 0.  0.
         13    1    1    2    0    0  0.30779659840E+01  0.18235239923E+02  0.72926998315E+02  0.75235338086E+02  0.10566000000E+00 0.  1.
        994    1    1    2    0    0 -0.84134536697E+01 -0.55820563568E+02  0.11530496766E+03  0.18342016543E+03  0.13100000000E+03 0.  0.
        997    1    1    2    0    0  0.53354876856E+01  0.37585323645E+02  0.31176802286E+03  0.37234449648E+03  0.20000000000E+03 0.  0.
</event>
<event>
 5    1  0.6487493E-012  0.2392383E+03  0.7957747E-01  0.4455467E+00
         13   -1    0    0    0    0  0.00000000000E+00  0.00000000000E+00  0.49999998884E+03  0.50000000000E+03  0.10566000000E+00 0. -1.
        994   -1    0    0    0    0 -0.00000000000E+00 -0.00000000000E+00  0.00000000000E+00  0.13100000000E+03  0.13100000000E+03 0.  0.
         13    1    1    2    0    0  0.11296039063E+02 -0.15933229773E+02  0.68812838650E+01  0.20708248144E+02  0.10566000000E+00 0.  1.
        994    1    1    2    0    0  0.12734590245E+02  0.26538819180E+02  0.96575920571E+02  0.16539161752E+03  0.13100000000E+03 0.  0.
        997    1    1    2    0    0 -0.24030629309E+02 -0.10605589408E+02  0.39654278440E+03  0.44490013434E+03  0.20000000000E+03 0.  0.
</event>
<event>
 5    1  0.6487493E-012  0.2273723E+03  0.7957747E-01  0.4606011E+00
         13   -1    0    0    0    0  0.00000000000E+00  0.00000000000E+00  0.49999998884E+03  0.50000000000E+03  0.10566000000E+00 0.  1.
        994   -1    0    0    0    0 -0.00000000000E+00 -0.00000000000E+00  0.00000000000E+00  0.13100000000E+03  0.13100000000E+03 0.  0.
         13    1    1    2    0    0 -0.36708677142E+01 -0.10473619752E+02  0.24402652367E+02  0.26808069439E+02  0.10566000000E+00 0. -1.
        994    1    1    2    0    0  0.17066519726E+02  0.26763935581E+02  0.70948171475E+02  0.15232274085E+03  0.13100000000E+03 0.  0.
        997    1    1    2    0    0 -0.13395652012E+02 -0.16290315829E+02  0.40464916499E+03  0.45186918971E+03  0.20000000000E+03 0.  0.
</event>
<event>
 5    1  0.6487493E-012  0.2294957E+03  0.7957747E-01  0.4577689E+00
         13   -1    0    0    0    0  0.00000000000E+00  0.00000000000E+00  0.49999998884E+03  0.50000000000E+03  0.10566000000E+00 0. -1.
        994   -1    0    0    0    0 -0.00000000000E+00 -0.00000000000E+00  0.00000000000E+00  0.13100000000E+03  0.13100000000E+03 0.  0.
         13    1    1    2    0    0 -0.11391859502E+02 -0.14064158282E+01  0.48370136710E+02  0.49713516852E+02  0.10566000000E+00 0.  1.
        994    1    1    2    0    0  0.27348135227E+02 -0.11381833498E+02  0.73673391543E+02  0.15318692913E+03  0.13100000000E+03 0.  0.
        997    1    1    2    0    0 -0.15956275725E+02  0.12788249327E+02  0.37795646058E+03  0.42809955402E+03  0.20000000000E+03 0.  0.
</event>
<event>
 5    1  0.6487493E-012  0.2396938E+03  0.7957747E-01  0.4450042E+00
         13   -1    0    0    0    0  0.00000000000E+00  0.00000000000E+00  0.49999998884E+03  0.50000000000E+03  0.10566000000E+00 0.  1.
        994   -1    0    0    0    0 -0.00000000000E+00 -0.00000000000E+00  0.00000000000E+00  0.13100000000E+03  0.13100000000E+03 0.  0.
         13    1    1    2    0    0 -0.29683207705E+02  0.11339545044E+02  0.32505982544E+02  0.45456882500E+02  0.10566000000E+00 0. -1.
        994    1    1    2    0    0  0.21538663333E+02 -0.47532590225E+02  0.13172512489E+03  0.19296572152E+03  0.13100000000E+03 0.  0.
        997    1    1    2    0    0  0.81445443716E+01  0.36193045181E+02  0.33576888140E+03  0.39257739598E+03  0.20000000000E+03 0.  0.
</event>
<event>
 5    1  0.6487493E-012  0.2416738E+03  0.7957747E-01  0.4426746E+00
         13   -1    0    0    0    0  0.00000000000E+00  0.00000000000E+00  0.49999998884E+03  0.50000000000E+03  0.10566000000E+00 0.  1.
        994   -1    0    0    0    0 -0.00000000000E+00 -0.00000000000E+00  0.00000000000E+00  0.13100000000E+03  0.13100000000E+03 0.  0.
         13    1    1    2    0    0 -0.80040421518E+01  0.21429586536E+02  0.73726773012E+01  0.24034546064E+02  0.10566000000E+00 0. -1.
        994    1    1    2    0    0  0.21987904923E+02 -0.21032505685E+02  0.10523115856E+03  0.17076425560E+03  0.13100000000E+03 0.  0.
        997    1    1    2    0    0 -0.13983862771E+02 -0.39708085125E+00  0.38739615298E+03  0.43620119834E+03  0.20000000000E+03 0.  0.
</event>
<event>
 5    1  0.6487493E-012  0.2402421E+03  0.7957747E-01  0.4443546E+00
         13   -1    0    0    0    0  0.00000000000E+00  0.00000000000E+00  0.49999998884E+03  0.50000000000E+03  0.10566000000E+00 0. -1.
        994   -1    0    0    0    0 -0.00000000000E+00 -0.00000000000E+00  0.00000000000E+00  0.13100000000E+03  0.13100000000E+03 0.  0.
         13    1    1    2    0    0 -0.22804380547E+02 -0.22631948635E+01  0.92366417443E+01  0.24708066251E+02  0.10566000000E+00 0.  1.
        994    1    1    2    0    0  0.31941184700E+02 -0.22604885608E+02  0.11036815341E+03  0.17570813704E+03  0.13100000000E+03 0.  0.
        997    1    1    2    0    0 -0.91368041527E+01  0.24868080472E+02  0.38039519368E+03  0.43058379671E+03  0.20000000000E+03 0.  0.
</event>
<event>
 5    1  0.6487493E-012  0.2434447E+03  0.7957747E-01  0.4406289E+00
         13   -1    0    0    0    0  0.00000000000E+00  0.00000000000E+00  0.49999998884E+03  0.50000000000E+03  0.10566000000E+00 0. -1.
        994   -1    0    0    0    0 -0.00000000000E+00 -0.00000000000E+00  0.00000000000E+00  0.13100000000E+03  0.13100000000E+03 0.  0.
         13    1    1    2    0    0  0.94653813528E+01  0.10711560539E+02 -0.36536492347E+01  0.14754365120E+02  0.10566000000E+00 0.  1.
        994    1    1    2    0    0  0.12468869845E+02 -0.17417998176E+02  0.10355191085E+03  0.16835337127E+03  0.13100000000E+03 0.  0.
        997    1    1    2    0    0 -0.21934251198E+02  0.67064376370E+01  0.40010172722E+03  0.44789226361E+03  0.20000000000E+03 0.  0.
</event>
<event>
 5    1  0.6487493E-012  0.2378068E+03  0.7957747E-01  0.4472674E+00
         13   -1    0    0    0    0  0.00000000000E+00  0.00000000000E+00  0.49999998884E+03  0.50000000000E+03  0.10566000000E+00 0.  1.
        994   -1    0    0    0    0 -0.00000000000E+00 -0.00000000000E+00  0.00000000000E+00  0.13100000000E+03  0.13100000000E+03 0.  0.
         13    1    1    2    0    0 -0.21291721782E+02  0.30485471925E+01  0.74643942178E+01  0.22767507582E+02  0.10566000000E+00 0. -1.
        994    1    1    2    0    0  0.55732066309E+02  0.65175483215E+01  0.13126778795E+03  0.19375441622E+03  0.13100000000E+03 0.  0.
        997    1    1    2    0    0 -0.34440344528E+02 -0.95660955140E+01  0.36126780667E+03  0.41447807620E+03  0.20000000000E+03 0.  0.
</event>
<event>
 5    1  0.6487493E-012  0.2406371E+03  0.7957747E-01  0.4438887E+00
         13   -1    0    0    0    0  0.00000000000E+00  0.00000000000E+00  0.49999998884E+03  0.50000000000E+03  0.10566000000E+00 0.  1.
        994   -1    0    0    0    0 -0.00000000000E+00 -0.00000000000E+00  0.00000000000E+00  0.13100000000E+03  0.13100000000E+03 0.  0.
         13    1    1    2    0    0  0.29525272560E+02 -0.26832395962E+01  0.39576222452E+02  0.49449267357E+02  0.10566000000E+00 0. -1.
        994    1    1    2    0    0  0.15381668541E+01  0.64425795245E+01  0.88897151064E+02  0.15845370382E+03  0.13100000000E+03 0.  0.
        997    1    1    2    0    0 -0.31063439414E+02 -0.37593399282E+01  0.37152661532E+03  0.42309702882E+03  0.20000000000E+03 0.  0.
</event>
<event>
 5    1  0.6487493E-012  0.2304311E+03  0.7957747E-01  0.4565412E+00
         13   -1    0    0    0    0  0.00000000000E+00  0.00000000000E+00  0.49999998884E+03  0.50000000000E+03  0.10566000000E+00 0.  1.
        994   -1    0    0    0    0 -0.00000000000E+00 -0.00000000000E+00  0.00000000000E+00  0.13100000000E+03  0.13100000000E+03 0.  0.
         13    1    1    2    0    0  0.13352939861E+01 -0.11416253006E+02  0.77355171302E+01  0.13855079647E+02  0.10566000000E+00 0. -1.
        994    1    1    2    0    0 -0.19453372091E+02  0.10069720472E+02  0.71334262312E+02  0.15076276044E+03  0.13100000000E+03 0.  0.
        997    1    1    2    0    0  0.18118078105E+02  0.13465325339E+01  0.42093020939E+03  0.46638215991E+03  0.20000000000E+03 0.  0.
</event>
<event>
 5    1  0.6487493E-012  0.2333910E+03  0.7957747E-01  0.4527350E+00
         13   -1    0    0    0    0  0.00000000000E+00  0.00000000000E+00  0.49999998884E+03  0.50000000000E+03  0.10566000000E+00 0. -1.
        994   -1    0    0    0    0 -0.00000000000E+00 -0.00000000000E+00  0.00000000000E+00  0.13100000000E+03  0.13100000000E+03 0.  0.
         13    1    1    2    0    0 -0.30807636975E+01 -0.10713594256E+02  0.34698462321E+01  0.11675752813E+02  0.10566000000E+00 0.  1.
        994    1    1    2    0    0 -0.51761595141E+01 -0.19506399794E+02  0.76456193885E+02  0.15301582220E+03  0.13100000000E+03 0.  0.
        997    1    1    2    0    0  0.82569232116E+01  0.30219994050E+02  0.42007394872E+03  0.46630842499E+03  0.20000000000E+03 0.  0.
</event>
<event>
 5    1  0.6487493E-012  0.2379613E+03  0.7957747E-01  0.4470806E+00
         13   -1    0    0    0    0  0.00000000000E+00  0.00000000000E+00  0.49999998884E+03  0.50000000000E+03  0.10566000000E+00 0.  1.
        994   -1    0    0    0    0 -0.00000000000E+00 -0.00000000000E+00  0.00000000000E+00  0.13100000000E+03  0.13100000000E+03 0.  0.
         13    1    1    2    0    0  0.14163172901E+02  0.26112354735E+01  0.18091288531E+01  0.14515444483E+02  0.10566000000E+00 0. -1.
        994    1    1    2    0    0 -0.38129318875E+00  0.34158972874E+02  0.97179243109E+02  0.16664869067E+03  0.13100000000E+03 0.  0.
        997    1    1    2    0    0 -0.13781879712E+02 -0.36770208348E+02  0.40101161687E+03  0.44983586484E+03  0.20000000000E+03 0.  0.
</event>
<event>
 5    1  0.6487493E-012  0.2344469E+03  0.7957747E-01  0.4514051E+00
         13   -1    0    0    0    0  0.00000000000E+00  0.00000000000E+00  0.49999998884E+03  0.50000000000E+03  0.10566000000E+00 0.  1.
        994   -1    0    0    0    0 -0.00000000000E+00 -0.00000000000E+00  0.00000000000E+00  0.13100000000E+03  0.13100000000E+03 0.  0.
         13    1    1    2    0    0  0.14325526791E+02 -0.35878994516E+01  0.61114632899E+01  0.15982956168E+02  0.10566000000E+00 0. -1.
        994    1    1    2    0    0 -0.23152092149E+02 -0.15726771613E+02  0.83109521439E+02  0.15764372258E+03  0.13100000000E+03 0.  0.
        997    1    1    2    0    0  0.88265653581E+01  0.19314671064E+02  0.41077900411E+03  0.45737332125E+03  0.20000000000E+03 0.  0.
</event>
<event>
 5    1  0.6487493E-012  0.2404688E+03  0.7957747E-01  0.4440870E+00
         13   -1    0    0    0    0  0.00000000000E+00  0.00000000000E+00  0.49999998884E+03  0.50000000000E+03  0.10566000000E+00 0.  1.
        994   -1    0    0    0    0 -0.00000000000E+00 -0.00000000000E+00  0.00000000000E+00  0.13100000000E+03  0.13100000000E+03 0.  0.
         13    1    1    2    0    0  0.30690580042E+02  0.13704515620E+02  0.55370484957E+02  0.64773661469E+02  0.10566000000E+00 0. -1.
        994    1    1    2    0    0 -0.12006832894E+02 -0.36050311863E+02  0.10969534478E+03  0.17503673240E+03  0.13100000000E+03 0.  0.
        997    1    1    2    0    0 -0.18683747148E+02  0.22345796243E+02  0.33493415909E+03  0.39118960613E+03  0.20000000000E+03 0.  0.
</event>
<event>
 5    1  0.6487493E-012  0.2336801E+03  0.7957747E-01  0.4523694E+00
         13   -1    0    0    0    0  0.00000000000E+00  0.00000000000E+00  0.49999998884E+03  0.50000000000E+03  0.10566000000E+00 0.  1.
        994   -1    0    0    0    0 -0.00000000000E+00 -0.00000000000E+00  0.00000000000E+00  0.13100000000E+03  0.13100000000E+03 0.  0.
         13    1    1    2    0    0 -0.16052565246E+02 -0.15023130595E+02  0.29404333771E+02  0.36715191847E+02  0.10566000000E+00 0. -1.
        994    1    1    2    0    0  0.20682008105E+02  0.21582778269E+02  0.82666007320E+02  0.15776004102E+03  0.13100000000E+03 0.  0.
        997    1    1    2    0    0 -0.46294428596E+01 -0.65596476736E+01  0.38792964775E+03  0.43652476713E+03  0.20000000000E+03 0.  0.
</event>
<event>
 5    1  0.6487493E-012  0.2344417E+03  0.7957747E-01  0.4514117E+00
         13   -1    0    0    0    0  0.00000000000E+00  0.00000000000E+00  0.49999998884E+03  0.50000000000E+03  0.10566000000E+00 0. -1.
        994   -1    0    0    0    0 -0.00000000000E+00 -0.00000000000E+00  0.00000000000E+00  0.13100000000E+03  0.13100000000E+03 0.  0.
         13    1    1    2    0    0 -0.20174279256E+02 -0.78410659728E+01  0.31995760710E+02  0.38629311753E+02  0.10566000000E+00 0.  1.
        994    1    1    2    0    0  0.14158848846E+02 -0.11105894775E+02  0.77730487216E+02  0.15338462290E+03  0.13100000000E+03 0.  0.
        997    1    1    2    0    0  0.60154304101E+01  0.18946960748E+02  0.39027374091E+03  0.43898606535E+03  0.20000000000E+03 0.  0.
</event>
<event>
 5    1  0.6487493E-012  0.2369066E+03  0.7957747E-01  0.4483623E+00
         13   -1    0    0    0    0  0.00000000000E+00  0.00000000000E+00  0.49999998884E+03  0.50000000000E+03  0.10566000000E+00 0.  1.
        994   -1    0    0    0    0 -0.00000000000E+00 -0.00000000000E+00  0.00000000000E+00  0.13100000000E+03  0.13100000000E+03 0.  0.
         13    1    1    2    0    0  0.21169264021E+02  0.74025628203E+01  0.11993098315E+02  0.25431894282E+02  0.10566000000E+00 0. -1.
        994    1    1    2    0    0 -0.13133890916E+02 -0.64759054085E+02  0.16031484981E+03  0.21732023662E+03  0.13100000000E+03 0.  0.
        997    1    1    2    0    0 -0.80353731050E+01  0.57356491265E+02  0.32769204071E+03  0.38824786910E+03  0.20000000000E+03 0.  0.
</event>
<event>
 5    1  0.6487493E-012  0.2457973E+03  0.7957747E-01  0.4379651E+00
         13   -1    0    0    0    0  0.00000000000E+00  0.00000000000E+00  0.49999998884E+03  0.50000000000E+03  0.10566000000E+00 0. -1.
        994   -1    0    0    0    0 -0.00000000000E+00 -0.00000000000E+00  0.00000000000E+00  0.13100000000E+03  0.13100000000E+03 0.  0.
         13    1    1    2    0    0 -0.13256632453E+02  0.11681517586E+02 -0.26167610998E+01  0.17862104013E+02  0.10566000000E+00 0.  1.
        994    1    1    2    0    0 -0.41744011371E+01 -0.15738645098E+02  0.10873061865E+03  0.17102186412E+03  0.13100000000E+03 0.  0.
        997    1    1    2    0    0  0.17431033590E+02  0.40571275122E+01  0.39388613129E+03  0.44211603187E+03  0.20000000000E+03 0.  0.
</event>
<event>
 5    1  0.6487493E-012  0.2479780E+03  0.7957747E-01  0.4355487E+00
         13   -1    0    0    0    0  0.00000000000E+00  0.00000000000E+00  0.49999998884E+03  0.50000000000E+03  0.10566000000E+00 0.  1.
        994   -1    0    0    0    0 -0.00000000000E+00 -0.00000000000E+00  0.00000000000E+00  0.13100000000E+03  0.13100000000E+03 0.  0.
         13    1    1    2    0    0 -0.38282717756E+02  0.16909026991E+02  0.88432968649E+02  0.97835999410E+02  0.10566000000E+00 0. -1.
        994    1    1    2    0    0  0.26965706158E+02  0.10956296128E+02  0.13316476104E+03  0.18905301721E+03  0.13100000000E+03 0.  0.
        997    1    1    2    0    0  0.11317011598E+02 -0.27865323119E+02  0.27840225915E+03  0.34411098338E+03  0.20000000000E+03 0.  0.
</event>
<event>
 5    1  0.6487493E-012  0.2521647E+03  0.7957747E-01  0.4310465E+00
         13   -1    0    0    0    0  0.00000000000E+00  0.00000000000E+00  0.49999998884E+03  0.50000000000E+03  0.10566000000E+00 0. -1.
        994   -1    0    0    0    0 -0.00000000000E+00 -0.00000000000E+00  0.00000000000E+00  0.13100000000E+03  0.13100000000E+03 0.  0.
         13    1    1    2    0    0  0.93648095061E+01  0.28199539574E+02  0.23827277366E+01  0.29809432145E+02  0.10566000000E+00 0.  1.
        994    1    1    2    0    0  0.13145729275E+02 -0.14540691087E+02  0.15797295464E+03  0.20615697003E+03  0.13100000000E+03 0.  0.
        997    1    1    2    0    0 -0.22510538781E+02 -0.13658848487E+02  0.33964430646E+03  0.39503359782E+03  0.20000000000E+03 0.  0.
</event>
<event>
 5    1  0.6487493E-012  0.2328647E+03  0.7957747E-01  0.4534033E+00
         13   -1    0    0    0    0  0.00000000000E+00  0.00000000000E+00  0.49999998884E+03  0.50000000000E+03  0.10566000000E+00 0.  1.
        994   -1    0    0    0    0 -0.00000000000E+00 -0.00000000000E+00  0.00000000000E+00  0.13100000000E+03  0.13100000000E+03 0.  0.
         13    1    1    2    0    0  0.22216136084E+02 -0.13910310545E+01  0.39038177873E+02  0.44938648907E+02  0.10566000000E+00 0. -1.
        994    1    1    2    0    0 -0.51210842022E+02 -0.51530040490E+02  0.15473433868E+03  0.21536390361E+03  0.13100000000E+03 0.  0.
        997    1    1    2    0    0  0.28994705939E+02  0.52921071544E+02  0.30622747229E+03  0.37069744748E+03  0.20000000000E+03 0.  0.
</event>
<event>
 5    1  0.6487493E-012  0.2406815E+03  0.7957747E-01  0.4438365E+00
         13   -1    0    0    0    0  0.00000000000E+00  0.00000000000E+00  0.49999998884E+03  0.50000000000E+03  0.10566000000E+00 0.  1.
        994   -1    0    0    0    0 -0.00000000000E+00 -0.00000000000E+00  0.00000000000E+00  0.13100000000E+03  0.13100000000E+03 0.  0.
         13    1    1    2    0    0 -0.10724094375E+02 -0.12222180040E+01 -0.59774368211E+01  0.12338595220E+02  0.10566000000E+00 0. -1.
        994    1    1    2    0    0  0.15235663302E+02  0.52999916711E+02  0.14714652235E+03  0.20458302873E+03  0.13100000000E+03 0.  0.
        997    1    1    2    0    0 -0.45115689267E+01 -0.51777698707E+02  0.35883090331E+03  0.41407837605E+03  0.20000000000E+03 0.  0.
</event>
<event>
 5    1  0.6487493E-012  0.2337120E+03  0.7957747E-01  0.4523291E+00
         13   -1    0    0    0    0  0.00000000000E+00  0.00000000000E+00  0.49999998884E+03  0.50000000000E+03  0.10566000000E+00 0.  1.
        994   -1    0    0    0    0 -0.00000000000E+00 -0.00000000000E+00  0.00000000000E+00  0.13100000000E+03  0.13100000000E+03 0.  0.
         13    1    1    2    0    0 -0.17443182708E+02  0.12825535634E+01  0.13577147889E+02  0.22141808315E+02  0.10566000000E+00 0. -1.
        994    1    1    2    0    0  0.21269078560E+02 -0.13796928479E+01  0.77659492911E+02  0.15377345055E+03  0.13100000000E+03 0.  0.
        997    1    1    2    0    0 -0.38258958521E+01  0.97139284497E-01  0.40876334804E+03  0.45508474113E+03  0.20000000000E+03 0.  0.
</event>
<event>
 5    1  0.6487493E-012  0.2288890E+03  0.7957747E-01  0.4585716E+00
         13   -1    0    0    0    0  0.00000000000E+00  0.00000000000E+00  0.49999998884E+03  0.50000000000E+03  0.10566000000E+00 0.  1.
        994   -1    0    0    0    0 -0.00000000000E+00 -0.00000000000E+00  0.00000000000E+00  0.13100000000E+03  0.13100000000E+03 0.  0.
         13    1    1    2    0    0  0.61668963022E+01  0.96354140959E+01  0.15788275230E+02  0.19497502752E+02  0.10566000000E+00 0. -1.
        994    1    1    2    0    0  0.42492915831E+02 -0.25139206881E+02  0.89742122791E+02  0.16628973577E+03  0.13100000000E+03 0.  0.
        997    1    1    2    0    0 -0.48659812133E+02  0.15503792785E+02  0.39446959082E+03  0.44521276148E+03  0.20000000000E+03 0.  0.
</event>
<event>
 5    1  0.6487493E-012  0.2436107E+03  0.7957747E-01  0.4404390E+00
         13   -1    0    0    0    0  0.00000000000E+00  0.00000000000E+00  0.49999998884E+03  0.50000000000E+03  0.10566000000E+00 0.  1.
        994   -1    0    0    0    0 -0.00000000000E+00 -0.00000000000E+00  0.00000000000E+00  0.13100000000E+03  0.13100000000E+03 0.  0.
         13    1    1    2    0    0 -0.24553335667E+02 -0.23511243995E+02  0.19445834851E+02  0.39163714630E+02  0.10566000000E+00 0. -1.
        994    1    1    2    0    0 -0.96028418961E+01  0.50024472426E+02  0.20741005629E+03  0.25054858584E+03  0.13100000000E+03 0.  0.
        997    1    1    2    0    0  0.34156177563E+02 -0.26513228432E+02  0.27314409769E+03  0.34128769953E+03  0.20000000000E+03 0.  0.
</event>
<event>
 5    1  0.6487493E-012  0.2292487E+03  0.7957747E-01  0.4580951E+00
         13   -1    0    0    0    0  0.00000000000E+00  0.00000000000E+00  0.49999998884E+03  0.50000000000E+03  0.10566000000E+00 0.  1.
        994   -1    0    0    0    0 -0.00000000000E+00 -0.00000000000E+00  0.00000000000E+00  0.13100000000E+03  0.13100000000E+03 0.  0.
         13    1    1    2    0    0  0.11371564769E+02 -0.81699521638E+01  0.17424263339E+02  0.22353449859E+02  0.10566000000E+00 0. -1.
        994    1    1    2    0    0 -0.45759083663E+02 -0.20562488886E+01  0.86601060552E+02  0.16358137298E+03  0.13100000000E+03 0.  0.
        997    1    1    2    0    0  0.34387518894E+02  0.10226201052E+02  0.39597466494E+03  0.44506517716E+03  0.20000000000E+03 0.  0.
</event>
<event>
 5    1  0.6487493E-012  0.2286084E+03  0.7957747E-01  0.4589445E+00
         13   -1    0    0    0    0  0.00000000000E+00  0.00000000000E+00  0.49999998884E+03  0.50000000000E+03  0.10566000000E+00 0. -1.
        994   -1    0    0    0    0 -0.00000000000E+00 -0.00000000000E+00  0.00000000000E+00  0.13100000000E+03  0.13100000000E+03 0.  0.
         13    1    1    2    0    0  0.58952437805E+01 -0.85665834950E+01  0.83063427468E+01  0.13309648601E+02  0.10566000000E+00 0.  1.
        994    1    1    2    0    0 -0.88587639058E+00  0.35637970699E+02  0.76055936381E+02  0.15561605056E+03  0.13100000000E+03 0.  0.
        997    1    1    2    0    0 -0.50093673899E+01 -0.27071387204E+02  0.41563770971E+03  0.46207430084E+03  0.20000000000E+03 0.  0.
</event>
<event>
 5    1  0.6487493E-012  0.2396590E+03  0.7957747E-01  0.4450457E+00
         13   -1    0    0    0    0  0.00000000000E+00  0.00000000000E+00  0.49999998884E+03  0.50000000000E+03  0.10566000000E+00 0. -1.
        994   -1    0    0    0    0 -0.00000000000E+00 -0.00000000000E+00  0.00000000000E+00  0.13100000000E+03  0.13100000000E+03 0.  0.
         13    1    1    2    0    0  0.33120212166E+02 -0.22997150346E+01  0.48035017413E+02  0.58391876191E+02  0.10566000000E+00 0.  1.
        994    1    1    2    0    0 -0.34667242142E+02 -0.21136163387E+02  0.11023443670E+03  0.17595791006E+03  0.13100000000E+03 0.  0.
        997    1    1    2    0    0  0.15470299756E+01  0.23435878422E+02  0.34173053473E+03  0.39665021375E+03  0.20000000000E+03 0.  0.
</event>
<event>
 5    1  0.6487493E-012  0.2403366E+03  0.7957747E-01  0.4442430E+00
         13   -1    0    0    0    0  0.00000000000E+00  0.00000000000E+00  0.49999998884E+03  0.50000000000E+03  0.10566000000E+00 0. -1.
        994   -1    0    0    0    0 -0.00000000000E+00 -0.00000000000E+00  0.00000000000E+00  0.13100000000E+03  0.13100000000E+03 0.  0.
         13    1    1    2    0    0 -0.26369253592E+02  0.40167432492E+01  0.22966691138E+02  0.35198747523E+02  0.10566000000E+00 0.  1.
        994    1    1    2    0    0  0.62310831702E+01 -0.35743771025E+01  0.88214722262E+02  0.15809629911E+03  0.13100000000E+03 0.  0.
        997    1    1    2    0    0  0.20138170422E+02 -0.44236614669E+00  0.38881857544E+03  0.43770495336E+03  0.20000000000E+03 0.  0.
</event>
<event>
 5    1  0.6487493E-012  0.2317854E+03  0.7957747E-01  0.4547852E+00
         13   -1    0    0    0    0  0.00000000000E+00  0.00000000000E+00  0.49999998884E+03  0.50000000000E+03  0.10566000000E+00 0. -1.
        994   -1    0    0    0    0 -0.00000000000E+00 -0.00000000000E+00  0.00000000000E+00  0.13100000000E+03  0.13100000000E+03 0.  0.
         13    1    1    2    0    0 -0.23650674214E+01  0.14144883776E+02  0.13836602456E+02  0.19928221509E+02  0.10566000000E+00 0.  1.
        994    1    1    2    0    0  0.13406173833E+02  0.66603025811E+01  0.71257003665E+02  0.14987543394E+03  0.13100000000E+03 0.  0.
        997    1    1    2    0    0 -0.11041106412E+02 -0.20805186357E+02  0.41490638271E+03  0.46119634455E+03  0.20000000000E+03 0.  0.
</event>
<event>
 5    1  0.6487493E-012  0.2356964E+03  0.7957747E-01  0.4498500E+00
         13   -1    0    0    0    0  0.00000000000E+00  0.00000000000E+00  0.49999998884E+03  0.50000000000E+03  0.10566000000E+00 0.  1.
        994   -1    0    0    0    0 -0.00000000000E+00 -0.00000000000E+00  0.00000000000E+00  0.13100000000E+03  0.13100000000E+03 0.  0.
         13    1    1    2    0    0 -0.20960630818E+02 -0.15026660976E+02  0.48334117825E+02  0.54784547952E+02  0.10566000000E+00 0. -1.
        994    1    1    2    0    0  0.13321275398E+02  0.21846262427E+02  0.84465888093E+02  0.15795632881E+03  0.13100000000E+03 0.  0.
        997    1    1    2    0    0  0.76393554197E+01 -0.68196014509E+01  0.36719998292E+03  0.41825912324E+03  0.20000000000E+03 0.  0.
</event>
<event>
 5    1  0.6487493E-012  0.2323431E+03  0.7957747E-01  0.4540692E+00
         13   -1    0    0    0    0  0.00000000000E+00  0.00000000000E+00  0.49999998884E+03  0.50000000000E+03  0.10566000000E+00 0. -1.
        994   -1    0    0    0    0 -0.00000000000E+00 -0.00000000000E+00  0.00000000000E+00  0.13100000000E+03  0.13100000000E+03 0.  0.
         13    1    1    2    0    0 -0.18854727138E+02 -0.67684584703E+01  0.48153794337E+02  0.52154691435E+02  0.10566000000E+00 0.  1.
        994    1    1    2    0    0  0.22302666650E+02  0.34421009979E+02  0.89012251507E+02  0.16360438804E+03  0.13100000000E+03 0.  0.
        997    1    1    2    0    0 -0.34479395116E+01 -0.27652551509E+02  0.36283394299E+03  0.41524092052E+03  0.20000000000E+03 0.  0.
</event>
<event>
 5    1  0.6487493E-012  0.2445571E+03  0.7957747E-01  0.4393619E+00
         13   -1    0    0    0    0  0.00000000000E+00  0.00000000000E+00  0.49999998884E+03  0.50000000000E+03  0.10566000000E+00 0.  1.
        994   -1    0    0    0    0 -0.00000000000E+00 -0.00000000000E+00  0.00000000000E+00  0.13100000000E+03  0.13100000000E+03 0.  0.
         13    1    1    2    0    0  0.21681472006E+02  0.13145784819E+02  0.13335426392E+02  0.28648606387E+02  0.10566000000E+00 0. -1.
        994    1    1    2    0    0  0.21720163921E+02  0.33023456395E+02  0.13106986695E+03  0.18947987813E+03  0.13100000000E+03 0.  0.
        997    1    1    2    0    0 -0.43401635927E+02 -0.46169241213E+02  0.35559469549E+03  0.41287151549E+03  0.20000000000E+03 0.  0.
</event>
<event>
 5    1  0.6487493E-012  0.2299741E+03  0.7957747E-01  0.4571395E+00
         13   -1    0    0    0    0  0.00000000000E+00  0.00000000000E+00  0.49999998884E+03  0.50000000000E+03  0.10566000000E+00 0. -1.
        994   -1    0    0    0    0 -0.00000000000E+00 -0.00000000000E+00  0.00000000000E+00  0.13100000000E+03  0.13100000000E+03 0.  0.
         13    1    1    2    0    0 -0.12109294841E+02 -0.43674456534E+01  0.42363400523E+02  0.44276161430E+02  0.10566000000E+00 0.  1.
        994    1    1    2    0    0 -0.28600095891E+01  0.30169681230E+02  0.75052528884E+02  0.15398789372E+03  0.13100000000E+03 0.  0.
        997    1    1    2    0    0  0.14969304430E+02 -0.25802235577E+02  0.38258405943E+03  0.43273594485E+03  0.20000000000E+03 0.  0.
</event>
<event>
 5    1  0.6487493E-012  0.2337361E+03  0.7957747E-01  0.4522988E+00
         13   -1    0    0    0    0  0.00000000000E+00  0.00000000000E+00  0.49999998884E+03  0.50000000000E+03  0.10566000000E+00 0. -1.
        994   -1    0    0    0    0 -0.00000000000E+00 -0.00000000000E+00  0.00000000000E+00  0.13100000000E+03  0.13100000000E+03 0.  0.
         13    1    1    2    0    0  0.98582015145E+01 -0.15357531234E+02  0.38575116933E+02  0.42674216022E+02  0.10566000000E+00 0.  1.
        994    1    1    2    0    0  0.60476247313E+02  0.36223594766E+02  0.15223775546E+03  0.21285408029E+03  0.13100000000E+03 0.  0.
        997    1    1    2    0    0 -0.70334448828E+02 -0.20866063532E+02  0.30918711644E+03  0.37547170369E+03  0.20000000000E+03 0.  0.
</event>
<event>
 5    1  0.6487493E-012  0.2385819E+03  0.7957747E-01  0.4463328E+00
         13   -1    0    0    0    0  0.00000000000E+00  0.00000000000E+00  0.49999998884E+03  0.50000000000E+03  0.10566000000E+00 0.  1.
        994   -1    0    0    0    0 -0.00000000000E+00 -0.00000000000E+00  0.00000000000E+00  0.13100000000E+03  0.13100000000E+03 0.  0.
         13    1    1    2    0    0 -0.25627188626E+02  0.17797540896E+02  0.60330417130E+02  0.67921098739E+02  0.10566000000E+00 0. -1.
        994    1    1    2    0    0  0.82110948155E+01 -0.48989002910E+02  0.12081507139E+03  0.18499898908E+03  0.13100000000E+03 0.  0.
        997    1    1    2    0    0  0.17416093811E+02  0.31191462014E+02  0.31885450031E+03  0.37807991218E+03  0.20000000000E+03 0.  0.
</event>
<event>
 5    1  0.6487493E-012  0.2390133E+03  0.7957747E-01  0.4458156E+00
         13   -1    0    0    0    0  0.00000000000E+00  0.00000000000E+00  0.49999998884E+03  0.50000000000E+03  0.10566000000E+00 0. -1.
        994   -1    0    0    0    0 -0.00000000000E+00 -0.00000000000E+00  0.00000000000E+00  0.13100000000E+03  0.13100000000E+03 0.  0.
         13    1    1    2    0    0  0.39601417028E+01 -0.11002190347E+02 -0.71443801095E+01  0.13703439201E+02  0.10566000000E+00 0.  1.
        994    1    1    2    0    0  0.24629991533E+02  0.56133666186E+02  0.22102677345E+03  0.26414287714E+03  0.13100000000E+03 0.  0.
        997    1    1    2    0    0 -0.28590133236E+02 -0.45131475838E+02  0.28611759550E+03  0.35315368366E+03  0.20000000000E+03 0.  0.
</event>
<event>
 5    1  0.6487493E-012  0.2328425E+03  0.7957747E-01  0.4534315E+00
         13   -1    0    0    0    0  0.00000000000E+00  0.00000000000E+00  0.49999998884E+03  0.50000000000E+03  0.10566000000E+00 0.  1.
        994   -1    0    0    0    0 -0.00000000000E+00 -0.00000000000E+00  0.00000000000E+00  0.13100000000E+03  0.13100000000E+03 0.  0.
         13    1    1    2    0    0 -0.10192591702E+02 -0.16441527385E+02  0.25687536028E+02  0.32157011982E+02  0.10566000000E+00 0. -1.
        994    1    1    2    0    0  0.13397626425E+02  0.13262688399E+02  0.74754868946E+02  0.15200225567E+03  0.13100000000E+03 0.  0.
        997    1    1    2    0    0 -0.32050347230E+01  0.31788389862E+01  0.39955758386E+03  0.44684073235E+03  0.20000000000E+03 0.  0.
</event>
<event>
 5    1  0.6487493E-012  0.2481422E+03  0.7957747E-01  0.4353688E+00
         13   -1    0    0    0    0  0.00000000000E+00  0.00000000000E+00  0.49999998884E+03  0.50000000000E+03  0.10566000000E+00 0.  1.
        994   -1    0    0    0    0 -0.00000000000E+00 -0.00000000000E+00  0.00000000000E+00  0.13100000000E+03  0.13100000000E+03 0.  0.
         13    1    1    2    0    0  0.33523909637E+02 -0.27514490932E+02  0.45168705109E+02  0.62618869471E+02  0.10566000000E+00 0. -1.
        994    1    1    2    0    0 -0.37317016335E+02 -0.11745908975E+02  0.17115499977E+03  0.21905606595E+03  0.13100000000E+03 0.  0.
        997    1    1    2    0    0  0.37931066979E+01  0.39260399907E+02  0.28367628396E+03  0.34932506458E+03  0.20000000000E+03 0.  0.
</event>
<event>
 5    1  0.6487493E-012  0.2302441E+03  0.7957747E-01  0.4567857E+00
         13   -1    0    0    0    0  0.00000000000E+00  0.00000000000E+00  0.49999998884E+03  0.50000000000E+03  0.10566000000E+00 0.  1.
        994   -1    0    0    0    0 -0.00000000000E+00 -0.00000000000E+00  0.00000000000E+00  0.13100000000E+03  0.13100000000E+03 0.  0.
         13    1    1    2    0    0  0.15236759450E+02 -0.33593924282E+01  0.18913752603E+02  0.24519085578E+02  0.10566000000E+00 0. -1.
        994    1    1    2    0    0 -0.34313872572E+02  0.38998415031E+01  0.78570829763E+02  0.15661106571E+03  0.13100000000E+03 0.  0.
        997    1    1    2    0    0  0.19077113121E+02 -0.54044907493E+00  0.40251540647E+03  0.44986984871E+03  0.20000000000E+03 0.  0.
</event>
<event>
 5    1  0.6487493E-012  0.2511423E+03  0.7957747E-01  0.4321298E+00
         13   -1    0    0    0    0  0.00000000000E+00  0.00000000000E+00  0.49999998884E+03  0.50000000000E+03  0.10566000000E+00 0. -1.
        994   -1    0    0    0    0 -0.00000000000E+00 -0.00000000000E+00  0.00000000000E+00  0.13100000000E+03  0.13100000000E+03 0.  0.
         13    1    1    2    0    0  0.36831710498E+02 -0.17166427457E+02  0.40458787552E+02  0.57342704715E+02  0.10566000000E+00 0.  1.
        994    1    1    2    0    0  0.80161699743E+01 -0.25744987626E+02  0.16925632689E+03  0.21572150463E+03  0.13100000000E+03 0.  0.
        997    1    1    2    0    0 -0.44847880473E+02  0.42911415083E+02  0.29028487439E+03  0.35793579065E+03  0.20000000000E+03 0.  0.
</event>
<event>
 5    1  0.6487493E-012  0.2329515E+03  0.7957747E-01  0.4532928E+00
         13   -1    0    0    0    0  0.00000000000E+00  0.00000000000E+00  0.49999998884E+03  0.50000000000E+03  0.10566000000E+00 0.  1.
        994   -1    0    0    0    0 -0.00000000000E+00 -0.00000000000E+00  0.00000000000E+00  0.13100000000E+03  0.13100000000E+03 0.  0.
         13    1    1    2    0    0  0.17597416356E+02  0.52693677517E+01  0.26461480097E+02  0.32212674397E+02  0.10566000000E+00 0. -1.
        994    1    1    2    0    0 -0.76387311514E+01  0.22693867475E+02  0.77392509963E+02  0.15402584989E+03  0.13100000000E+03 0.  0.
        997    1    1    2    0    0 -0.99586852043E+01 -0.27963235227E+02  0.39614599878E+03  0.44476147572E+03  0.20000000000E+03 0.  0.
</event>
<event>
 5    1  0.6487493E-012  0.2397094E+03  0.7957747E-01  0.4449858E+00
         13   -1    0    0    0    0  0.00000000000E+00  0.00000000000E+00  0.49999998884E+03  0.50000000000E+03  0.10566000000E+00 0.  1.
        994   -1    0    0    0    0 -0.00000000000E+00 -0.00000000000E+00  0.00000000000E+00  0.13100000000E+03  0.13100000000E+03 0.  0.
         13    1    1    2    0    0  0.20288133343E+02  0.91440003889E+01  0.65296294051E+01  0.23191988312E+02  0.10566000000E+00 0. -1.
        994    1    1    2    0    0 -0.49773243676E+02  0.31724899594E+02  0.15422042356E+03  0.21078136560E+03  0.13100000000E+03 0.  0.
        997    1    1    2    0    0  0.29485110333E+02 -0.40868899983E+02  0.33924993587E+03  0.39702664609E+03  0.20000000000E+03 0.  0.
</event>
<event>
 5    1  0.6487493E-012  0.2361869E+03  0.7957747E-01  0.4492448E+00
         13   -1    0    0    0    0  0.00000000000E+00  0.00000000000E+00  0.49999998884E+03  0.50000000000E+03  0.10566000000E+00 0. -1.
        994   -1    0    0    0    0 -0.00000000000E+00 -0.00000000000E+00  0.00000000000E+00  0.13100000000E+03  0.13100000000E+03 0.  0.
         13    1    1    2    0    0 -0.21576470234E+02  0.16080515452E+02  0.51630308466E+02  0.58222220511E+02  0.10566000000E+00 0.  1.
        994    1    1    2    0    0  0.69777659357E+01 -0.37811746991E+02  0.96475309939E+02  0.16717327195E+03  0.13100000000E+03 0.  0.
        997    1    1    2    0    0  0.14598704299E+02  0.21731231539E+02  0.35189437043E+03  0.40560450753E+03  0.20000000000E+03 0.  0.
</event>
<event>
 5    1  0.6487493E-012  0.2335814E+03  0.7957747E-01  0.4524941E+00
         13   -1    0    0    0    0  0.00000000000E+00  0.00000000000E+00  0.49999998884E+03  0.50000000000E+03  0.10566000000E+00 0.  1.
        994   -1    0    0    0    0 -0.00000000000E+00 -0.00000000000E+00  0.00000000000E+00  0.13100000000E+03  0.13100000000E+03 0.  0.
         13    1    1    2    0    0  0.63576161743E+01  0.11968483536E+02  0.40742473130E+01  0.14151838636E+02  0.10566000000E+00 0. -1.
        994    1    1    2    0    0 -0.28735871963E+02 -0.28455100280E+02  0.91538156430E+02  0.16485046907E+03  0.13100000000E+03 0.  0.
        997    1    1    2    0    0  0.22378255788E+02  0.16486616744E+02  0.40438758509E+03  0.45199769230E+03  0.20000000000E+03 0.  0.
</event>
<event>
 5    1  0.6487493E-012  0.2352049E+03  0.7957747E-01  0.4504593E+00
         13   -1    0    0    0    0  0.00000000000E+00  0.00000000000E+00  0.49999998884E+03  0.50000000000E+03  0.10566000000E+00 0. -1.
        994   -1    0    0    0    0 -0.00000000000E+00 -0.00000000000E+00  0.00000000000E+00  0.13100000000E+03  0.13100000000E+03 0.  0.
         13    1    1    2    0    0 -0.23031519146E+02 -0.84107990957E+01  0.54390565001E+02  0.59661856665E+02  0.10566000000E+00 0.  1.
        994    1    1    2    0    0  0.16188399528E+02  0.55090702364E+02  0.12197857249E+03  0.18798090838E+03  0.13100000000E+03 0.  0.
        997    1    1    2    0    0  0.68431196184E+01 -0.46679903269E+02  0.32363085134E+03  0.38335723496E+03  0.20000000000E+03 0.  0.
</event>
<event>
 5    1  0.6487493E-012  0.2326585E+03  0.7957747E-01  0.4536661E+00
         13   -1    0    0    0    0  0.00000000000E+00  0.00000000000E+00  0.49999998884E+03  0.50000000000E+03  0.10566000000E+00 0. -1.
        994   -1    0    0    0    0 -0.00000000000E+00 -0.00000000000E+00  0.00000000000E+00  0.13100000000E+03  0.13100000000E+03 0.  0.
         13    1    1    2    0    0 -0.16000062035E+02 -0.18562843554E+01  0.11739912112E+02  0.19931996317E+02  0.10566000000E+00 0.  1.
        994    1    1    2    0    0  0.23983300877E+02  0.31738022978E+02  0.88558770327E+02  0.16305261919E+03  0.13100000000E+03 0.  0.
        997    1    1    2    0    0 -0.79832388422E+01 -0.29881738622E+02  0.39970130640E+03  0.44801538449E+03  0.20000000000E+03 0.  0.
</event>
<event>
 5    1  0.6487493E-012  0.2337848E+03  0.7957747E-01  0.4522374E+00
         13   -1    0    0    0    0  0.00000000000E+00  0.00000000000E+00  0.49999998884E+03  0.50000000000E+03  0.10566000000E+00 0.  1.
        994   -1    0    0    0    0 -0.00000000000E+00 -0.00000000000E+00  0.00000000000E+00  0.13100000000E+03  0.13100000000E+03 0.  0.
         13    1    1    2    0    0  0.13071367669E+02 -0.54703277121E+01  0.46962483560E+01  0.14928196497E+02  0.10566000000E+00 0. -1.
        994    1    1    2    0    0 -0.42442032583E+02 -0.37646248250E+01  0.94410797385E+02  0.16700268618E+03  0.13100000000E+03 0.  0.
        997    1    1    2    0    0  0.29370664914E+02  0.92349525371E+01  0.40089294310E+03  0.44906911732E+03  0.20000000000E+03 0.  0.
</event>
<event>
 5    1  0.6487493E-012  0.2451459E+03  0.7957747E-01  0.4386966E+00
         13   -1    0    0    0    0  0.00000000000E+00  0.00000000000E+00  0.49999998884E+03  0.50000000000E+03  0.10566000000E+00 0. -1.
        994   -1    0    0    0    0 -0.00000000000E+00 -0.00000000000E+00  0.00000000000E+00  0.13100000000E+03  0.13100000000E+03 0.  0.
         13    1    1    2    0    0 -0.20307427651E+02 -0.32435039833E+02  0.20899620035E+02  0.43603081410E+02  0.10566000000E+00 0.  1.
        994    1    1    2    0    0  0.79265517031E+01  0.44725426301E+02  0.21050369463E+03  0.25206348294E+03  0.13100000000E+03 0.  0.
        997    1    1    2    0    0  0.12380875948E+02 -0.12290386468E+02  0.26859667418E+03  0.33533343565E+03  0.20000000000E+03 0.  0.
</event>
<event>
 5    1  0.6487493E-012  0.2349732E+03  0.7957747E-01  0.4507476E+00
         13   -1    0    0    0    0  0.00000000000E+00  0.00000000000E+00  0.49999998884E+03  0.50000000000E+03  0.10566000000E+00 0.  1.
        994   -1    0    0    0    0 -0.00000000000E+00 -0.00000000000E+00  0.00000000000E+00  0.13100000000E+03  0.13100000000E+03 0.  0.
         13    1    1    2    0    0 -0.82719125686E+01  0.18033413354E+02  0.75590747712E+02  0.78151140992E+02  0.10566000000E+00 0. -1.
        994    1    1    2    0    0  0.19832074877E+02 -0.58653078187E+02  0.13152529165E+03  0.19568698761E+03  0.13100000000E+03 0.  0.
        997    1    1    2    0    0 -0.11560162308E+02  0.40619664833E+02  0.29288394947E+03  0.35716187140E+03  0.20000000000E+03 0.  0.
</event>
<event>
 5    1  0.6487493E-012  0.2304252E+03  0.7957747E-01  0.4565490E+00
         13   -1    0    0    0    0  0.00000000000E+00  0.00000000000E+00  0.49999998884E+03  0.50000000000E+03  0.10566000000E+00 0. -1.
        994   -1    0    0    0    0 -0.00000000000E+00 -0.00000000000E+00  0.00000000000E+00  0.13100000000E+03  0.13100000000E+03 0.  0.
         13    1    1    2    0    0 -0.66209004537E+01  0.12106040170E+02  0.11639263150E+02  0.18052039833E+02  0.10566000000E+00 0.  1.
        994    1    1    2    0    0  0.26661552199E+02 -0.23640590624E+02  0.79805689498E+02  0.15747909057E+03  0.13100000000E+03 0.  0.
        997    1    1    2    0    0 -0.20040651746E+02  0.11534550454E+02  0.40855503619E+03  0.45546886960E+03  0.20000000000E+03 0.  0.
</event>
<event>
 5    1  0.6487493E-012  0.2530055E+03  0.7957747E-01  0.4301631E+00
         13   -1    0    0    0    0  0.00000000000E+00  0.00000000000E+00  0.49999998884E+03  0.50000000000E+03  0.10566000000E+00 0.  1.
        994   -1    0    0    0    0 -0.00000000000E+00 -0.00000000000E+00  0.00000000000E+00  0.13100000000E+03  0.13100000000E+03 0.  0.
         13    1    1    2    0    0 -0.87039288816E+01 -0.31584516982E+02  0.35304658099E+01  0.32951713822E+02  0.10566000000E+00 0. -1.
        994    1    1    2    0    0 -0.59777740967E+01  0.62459284039E+01  0.19239892532E+03  0.23292293118E+03  0.13100000000E+03 0.  0.
        997    1    1    2    0    0  0.14681702978E+02  0.25338588578E+02  0.30407059771E+03  0.36512535500E+03  0.20000000000E+03 0.  0.
</event>
<event>
 5    1  0.6487493E-012  0.2344704E+03  0.7957747E-01  0.4513757E+00
         13   -1    0    0    0    0  0.00000000000E+00  0.00000000000E+00  0.49999998884E+03  0.50000000000E+03  0.10566000000E+00 0.  1.
        994   -1    0    0    0    0 -0.00000000000E+00 -0.00000000000E+00  0.00000000000E+00  0.13100000000E+03  0.13100000000E+03 0.  0.
         13    1    1    2    0    0 -0.13903118323E+02  0.77695258865E+01  0.72927343686E+01  0.17517344839E+02  0.10566000000E+00 0. -1.
        994    1    1    2    0    0  0.39866397047E+02  0.49437847331E+02  0.13322560969E+03  0.19734105867E+03  0.13100000000E+03 0.  0.
        997    1    1    2    0    0 -0.25963278724E+02 -0.57207373218E+02  0.35948164478E+03  0.41614159649E+03  0.20000000000E+03 0.  0.
</event>
<event>
 5    1  0.6487493E-012  0.2428902E+03  0.7957747E-01  0.4412658E+00
         13   -1    0    0    0    0  0.00000000000E+00  0.00000000000E+00  0.49999998884E+03  0.50000000000E+03  0.10566000000E+00 0. -1.
        994   -1    0    0    0    0 -0.00000000000E+00 -0.00000000000E+00  0.00000000000E+00  0.13100000000E+03  0.13100000000E+03 0.  0.
         13    1    1    2    0    0 -0.19705635325E+02 -0.22196959108E+02  0.20178807886E+02  0.35891677432E+02  0.10566000000E+00 0.  1.
        994    1    1    2    0    0  0.33212235024E+02 -0.61682552719E+01  0.11361004825E+03  0.17666166249E+03  0.13100000000E+03 0.  0.
        997    1    1    2    0    0 -0.13506599699E+02  0.28365214379E+02  0.36621113270E+03  0.41844666008E+03  0.20000000000E+03 0.  0.
</event>
<event>
 5    1  0.6487493E-012  0.2311987E+03  0.7957747E-01  0.4555428E+00
         13   -1    0    0    0    0  0.00000000000E+00  0.00000000000E+00  0.49999998884E+03  0.50000000000E+03  0.10566000000E+00 0. -1.
        994   -1    0    0    0    0 -0.00000000000E+00 -0.00000000000E+00  0.00000000000E+00  0.13100000000E+03  0.13100000000E+03 0.  0.
         13    1    1    2    0    0 -0.14008460180E+02 -0.21940465711E+01  0.10774026501E+02  0.17808470121E+02  0.10566000000E+00 0.  1.
        994    1    1    2    0    0  0.28811657585E+02  0.11059167464E+02  0.77927132673E+02  0.15551866385E+03  0.13100000000E+03 0.  0.
        997    1    1    2    0    0 -0.14803197405E+02 -0.88651208933E+01  0.41129882966E+03  0.45767286603E+03  0.20000000000E+03 0.  0.
</event>
<event>
 5    1  0.6487493E-012  0.2337666E+03  0.7957747E-01  0.4522603E+00
         13   -1    0    0    0    0  0.00000000000E+00  0.00000000000E+00  0.49999998884E+03  0.50000000000E+03  0.10566000000E+00 0.  1.
        994   -1    0    0    0    0 -0.00000000000E+00 -0.00000000000E+00  0.00000000000E+00  0.13100000000E+03  0.13100000000E+03 0.  0.
         13    1    1    2    0    0  0.34260283838E+01 -0.16382718134E+02  0.13395999199E+02  0.21438168824E+02  0.10566000000E+00 0. -1.
        994    1    1    2    0    0  0.28214524361E+02  0.10418594004E+02  0.82993803296E+02  0.15796701514E+03  0.13100000000E+03 0.  0.
        997    1    1    2    0    0 -0.31640552745E+02  0.59641241294E+01  0.40361018634E+03  0.45159481604E+03  0.20000000000E+03 0.  0.
</event>
<event>
 5    1  0.6487493E-012  0.2485164E+03  0.7957747E-01  0.4349599E+00
         13   -1    0    0    0    0  0.00000000000E+00  0.00000000000E+00  0.49999998884E+03  0.50000000000E+03  0.10566000000E+00 0. -1.
        994   -1    0    0    0    0 -0.00000000000E+00 -0.00000000000E+00  0.00000000000E+00  0.13100000000E+03  0.13100000000E+03 0.  0.
         13    1    1    2    0    0 -0.30781273725E+02 -0.34940384314E+02  0.60295880358E+02  0.76183473407E+02  0.10566000000E+00 0.  1.
        994    1    1    2    0    0  0.26230380114E+02  0.17435720823E+02  0.14232708338E+03  0.19598478478E+03  0.13100000000E+03 0.  0.
        997    1    1    2    0    0  0.45508936109E+01  0.17504663492E+02  0.29737702510E+03  0.35883174182E+03  0.20000000000E+03 0.  0.
</event>
<event>
 5    1  0.6487493E-012  0.2354920E+03  0.7957747E-01  0.4501030E+00
         13   -1    0    0    0    0  0.00000000000E+00  0.00000000000E+00  0.49999998884E+03  0.50000000000E+03  0.10566000000E+00 0. -1.
        994   -1    0    0    0    0 -0.00000000000E+00 -0.00000000000E+00  0.00000000000E+00  0.13100000000E+03  0.13100000000E+03 0.  0.
         13    1    1    2    0    0  0.39893814157E+01 -0.25280020999E+02  0.70573340570E+02  0.75070647986E+02  0.10566000000E+00 0.  1.
        994    1    1    2    0    0 -0.61327417555E+01  0.61257385983E+02  0.13327462490E+03  0.19675671145E+03  0.13100000000E+03 0.  0.
        997    1    1    2    0    0  0.21433603398E+01 -0.35977364983E+02  0.29615202337E+03  0.35917264056E+03  0.20000000000E+03 0.  0.
</event>
<event>
 5    1  0.6487493E-012  0.2415577E+03  0.7957747E-01  0.4428099E+00
         13   -1    0    0    0    0  0.00000000000E+00  0.00000000000E+00  0.49999998884E+03  0.50000000000E+03  0.10566000000E+00 0.  1.
        994   -1    0    0    0    0 -0.00000000000E+00 -0.00000000000E+00  0.00000000000E+00  0.13100000000E+03  0.13100000000E+03 0.  0.
         13    1    1    2    0    0 -0.38023940052E+02  0.41489279588E+01  0.74832948390E+02  0.84041745276E+02  0.10566000000E+00 0. -1.
        994    1    1    2    0    0  0.49929505404E+02 -0.12101886394E+02  0.14128344731E+03  0.19940266710E+03  0.13100000000E+03 0.  0.
        997    1    1    2    0    0 -0.11905565352E+02  0.79529584355E+01  0.28388359314E+03  0.34755558762E+03  0.20000000000E+03 0.  0.
</event>
<event>
 5    1  0.6487493E-012  0.2380460E+03  0.7957747E-01  0.4469783E+00
         13   -1    0    0    0    0  0.00000000000E+00  0.00000000000E+00  0.49999998884E+03  0.50000000000E+03  0.10566000000E+00 0. -1.
        994   -1    0    0    0    0 -0.00000000000E+00 -0.00000000000E+00  0.00000000000E+00  0.13100000000E+03  0.13100000000E+03 0.  0.
         13    1    1    2    0    0  0.18458930214E+02  0.14774150585E+01  0.69857830934E+01  0.19792099165E+02  0.10566000000E+00 0.  1.
        994    1    1    2    0    0 -0.17813483368E+02 -0.79438110004E+01  0.86719752940E+02  0.15830900124E+03  0.13100000000E+03 0.  0.
        997    1    1    2    0    0 -0.64544684619E+00  0.64663959418E+01  0.40629445280E+03  0.45289889960E+03  0.20000000000E+03 0.  0.
</event>
<event>
 5    1  0.6487493E-012  0.2387669E+03  0.7957747E-01  0.4461107E+00
         13   -1    0    0    0    0  0.00000000000E+00  0.00000000000E+00  0.49999998884E+03  0.50000000000E+03  0.10566000000E+00 0. -1.
        994   -1    0    0    0    0 -0.00000000000E+00 -0.00000000000E+00  0.00000000000E+00  0.13100000000E+03  0.13100000000E+03 0.  0.
         13    1    1    2    0    0 -0.10223996110E+02 -0.18131086737E+02  0.11114360098E+02  0.23596749080E+02  0.10566000000E+00 0.  1.
        994    1    1    2    0    0  0.73436756575E+01  0.58214752228E+01  0.84737993533E+02  0.15629890177E+03  0.13100000000E+03 0.  0.
        997    1    1    2    0    0  0.28803204523E+01  0.12309611515E+02  0.40414763521E+03  0.45110434915E+03  0.20000000000E+03 0.  0.
</event>
<event>
 5    1  0.6487493E-012  0.2391621E+03  0.7957747E-01  0.4456376E+00
         13   -1    0    0    0    0  0.00000000000E+00  0.00000000000E+00  0.49999998884E+03  0.50000000000E+03  0.10566000000E+00 0.  1.
        994   -1    0    0    0    0 -0.00000000000E+00 -0.00000000000E+00  0.00000000000E+00  0.13100000000E+03  0.13100000000E+03 0.  0.
         13    1    1    2    0    0  0.26246096365E+02 -0.34561322628E+01  0.27813159367E+02  0.38397726790E+02  0.10566000000E+00 0. -1.
        994    1    1    2    0    0 -0.10936695211E+01  0.23632338640E+02  0.92020863964E+02  0.16182868394E+03  0.13100000000E+03 0.  0.
        997    1    1    2    0    0 -0.25152426844E+02 -0.20176206378E+02  0.38016596551E+03  0.43077358927E+03  0.20000000000E+03 0.  0.
</event>
<event>
 5    1  0.6487493E-012  0.2441716E+03  0.7957747E-01  0.4397995E+00
         13   -1    0    0    0    0  0.00000000000E+00  0.00000000000E+00  0.49999998884E+03  0.50000000000E+03  0.10566000000E+00 0.  1.
        994   -1    0    0    0    0 -0.00000000000E+00 -0.00000000000E+00  0.00000000000E+00  0.13100000000E+03  0.13100000000E+03 0.  0.
         13    1    1    2    0    0 -0.11515325516E+02 -0.20464273988E+02  0.70136535646E+01  0.24506973129E+02  0.10566000000E+00 0. -1.
        994    1    1    2    0    0 -0.20618012056E+02  0.12706164549E+02  0.10839095944E+03  0.17174442968E+03  0.13100000000E+03 0.  0.
        997    1    1    2    0    0  0.32133337572E+02  0.77581094391E+01  0.38459537584E+03  0.43474859719E+03  0.20000000000E+03 0.  0.
</event>
<event>
 5    1  0.6487493E-012  0.2492504E+03  0.7957747E-01  0.4341618E+00
         13   -1    0    0    0    0  0.00000000000E+00  0.00000000000E+00  0.49999998884E+03  0.50000000000E+03  0.10566000000E+00 0. -1.
        994   -1    0    0    0    0 -0.00000000000E+00 -0.00000000000E+00  0.00000000000E+00  0.13100000000E+03  0.13100000000E+03 0.  0.
         13    1    1    2    0    0 -0.38075383832E+02 -0.14478403611E+02  0.36147277313E+02  0.54460957082E+02  0.10566000000E+00 0.  1.
        994    1    1    2    0    0  0.12480607061E+02  0.84801151051E+00  0.12215776531E+03  0.17955501748E+03  0.13100000000E+03 0.  0.
        997    1    1    2    0    0  0.25594776770E+02  0.13630392101E+02  0.34169494622E+03  0.39698402544E+03  0.20000000000E+03 0.  0.
</event>
<event>
 5    1  0.6487493E-012  0.2355426E+03  0.7957747E-01  0.4500403E+00
         13   -1    0    0    0    0  0.00000000000E+00  0.00000000000E+00  0.49999998884E+03  0.50000000000E+03  0.10566000000E+00 0.  1.
        994   -1    0    0    0    0 -0.00000000000E+00 -0.00000000000E+00  0.00000000000E+00  0.13100000000E+03  0.13100000000E+03 0.  0.
         13    1    1    2    0    0 -0.62812250685E+01  0.23352700810E+02  0.39826511911E+02  0.46593611563E+02  0.10566000000E+00 0. -1.
        994    1    1    2    0    0 -0.10219472522E+01 -0.13350145975E+02  0.78437578166E+02  0.15327336508E+03  0.13100000000E+03 0.  0.
        997    1    1    2    0    0  0.73031723206E+01 -0.10002554835E+02  0.38173589876E+03  0.43113302336E+03  0.20000000000E+03 0.  0.
</event>
<event>
 5    1  0.7315346E-012  0.2367833E+03  0.7957747E-01  0.4485131E+00
         13   -1    0    0    0    0  0.00000000000E+00  0.00000000000E+00  0.49999998884E+03  0.50000000000E+03  0.10566000000E+00 0. -1.
        994   -1    0    0    0    0 -0.00000000000E+00 -0.00000000000E+00  0.00000000000E+00  0.13100000000E+03  0.13100000000E+03 0.  0.
         13    1    1    2    0    0  0.93048696353E+01 -0.14992888206E+02  0.67993852454E+01  0.18910581679E+02  0.10566000000E+00 0.  1.
        994    1    1    2    0    0 -0.11751629951E+02  0.23692610608E+02  0.87671712697E+02  0.15983356910E+03  0.13100000000E+03 0.  0.
        997    1    1    2    0    0  0.24467603157E+01 -0.86997224028E+01  0.40552889089E+03  0.45225584922E+03  0.20000000000E+03 0.  0.
</event>
<event>
 5    1  0.6487493E-012  0.2365277E+03  0.7957747E-01  0.4488261E+00
         13   -1    0    0    0    0  0.00000000000E+00  0.00000000000E+00  0.49999998884E+03  0.50000000000E+03  0.10566000000E+00 0. -1.
        994   -1    0    0    0    0 -0.00000000000E+00 -0.00000000000E+00  0.00000000000E+00  0.13100000000E+03  0.13100000000E+03 0.  0.
         13    1    1    2    0    0 -0.90895115134E+01  0.27455324564E+02  0.21652892192E+02  0.36128561704E+02  0.10566000000E+00 0.  1.
        994    1    1    2    0    0 -0.15623618882E+02 -0.67277734405E+02  0.20812994351E+03  0.25543974710E+03  0.13100000000E+03 0.  0.
        997    1    1    2    0    0  0.24713130396E+02  0.39822409841E+02  0.27021715313E+03  0.33943169120E+03  0.20000000000E+03 0.  0.
</event>
<event>
 5    1  0.6487493E-012  0.2439744E+03  0.7957747E-01  0.4400239E+00
         13   -1    0    0    0    0  0.00000000000E+00  0.00000000000E+00  0.49999998884E+03  0.50000000000E+03  0.10566000000E+00 0.  1.
        994   -1    0    0    0    0 -0.00000000000E+00 -0.00000000000E+00  0.00000000000E+00  0.13100000000E+03  0.13100000000E+03 0.  0.
         13    1    1    2    0    0 -0.29229787663E+02  0.19563979467E+01  0.29906817287E+02  0.41864506017E+02  0.10566000000E+00 0. -1.
        994    1    1    2    0    0 -0.31612083175E+02 -0.47367002719E+00  0.11540682283E+03  0.17742402014E+03  0.13100000000E+03 0.  0.
        997    1    1    2    0    0  0.60841870838E+02 -0.14827279195E+01  0.35468634872E+03  0.41171147385E+03  0.20000000000E+03 0.  0.
</event>
<event>
 5    1  0.6566936E-012  0.2338863E+03  0.7957747E-01  0.4521094E+00
         13   -1    0    0    0    0  0.00000000000E+00  0.00000000000E+00  0.49999998884E+03  0.50000000000E+03  0.10566000000E+00 0.  1.
        994   -1    0    0    0    0 -0.00000000000E+00 -0.00000000000E+00  0.00000000000E+00  0.13100000000E+03  0.13100000000E+03 0.  0.
         13    1    1    2    0    0 -0.13593229102E+02 -0.65615190138E+01  0.57887491610E+01  0.16166328899E+02  0.10566000000E+00 0. -1.
        994    1    1    2    0    0  0.38373772246E+02  0.16731369617E+02  0.93853404239E+02  0.16649908893E+03  0.13100000000E+03 0.  0.
        997    1    1    2    0    0 -0.24780543144E+02 -0.10169850603E+02  0.40035783544E+03  0.44833458218E+03  0.20000000000E+03 0.  0.
</event>
<event>
 5    1  0.6487493E-012  0.2358886E+03  0.7957747E-01  0.4496124E+00
         13   -1    0    0    0    0  0.00000000000E+00  0.00000000000E+00  0.49999998884E+03  0.50000000000E+03  0.10566000000E+00 0. -1.
        994   -1    0    0    0    0 -0.00000000000E+00 -0.00000000000E+00  0.00000000000E+00  0.13100000000E+03  0.13100000000E+03 0.  0.
         13    1    1    2    0    0  0.18352627752E+02  0.20400398417E+02  0.62861909987E+02  0.68590276951E+02  0.10566000000E+00 0.  1.
        994    1    1    2    0    0 -0.29784966795E+02 -0.30676030537E+02  0.10055814832E+03  0.17059045779E+03  0.13100000000E+03 0.  0.
        997    1    1    2    0    0  0.11432339042E+02  0.10275632119E+02  0.33657993053E+03  0.39181926525E+03  0.20000000000E+03 0.  0.
</event>
<event>
 5    1  0.6487493E-012  0.2414604E+03  0.7957747E-01  0.4429235E+00
         13   -1    0    0    0    0  0.00000000000E+00  0.00000000000E+00  0.49999998884E+03  0.50000000000E+03  0.10566000000E+00 0.  1.
        994   -1    0    0    0    0 -0.00000000000E+00 -0.00000000000E+00  0.00000000000E+00  0.13100000000E+03  0.13100000000E+03 0.  0.
         13    1    1    2    0    0  0.15033248367E+02  0.32520176809E+02  0.42689813863E+02  0.55731425855E+02  0.10566000000E+00 0. -1.
        994    1    1    2    0    0 -0.21294303411E+01 -0.39945643109E+02  0.11643918023E+03  0.17977561450E+03  0.13100000000E+03 0.  0.
        997    1    1    2    0    0 -0.12903818026E+02  0.74254663003E+01  0.34087099475E+03  0.39549295964E+03  0.20000000000E+03 0.  0.
</event>
<event>
 5    1  0.6487493E-012  0.2392994E+03  0.7957747E-01  0.4454738E+00
         13   -1    0    0    0    0  0.00000000000E+00  0.00000000000E+00  0.49999998884E+03  0.50000000000E+03  0.10566000000E+00 0. -1.
        994   -1    0    0    0    0 -0.00000000000E+00 -0.00000000000E+00  0.00000000000E+00  0.13100000000E+03  0.13100000000E+03 0.  0.
         13    1    1    2    0    0 -0.88197454616E+01  0.15154462343E+02  0.48181579943E+01  0.18184373770E+02  0.10566000000E+00 0.  1.
        994    1    1    2    0    0  0.14065000083E+02  0.88110629751E+01  0.88526829094E+02  0.15897628291E+03  0.13100000000E+03 0.  0.
        997    1    1    2    0    0 -0.52452546214E+01 -0.23965525318E+02  0.40665500175E+03  0.45383934332E+03  0.20000000000E+03 0.  0.
</event>
<event>
 5    1  0.6487493E-012  0.2486499E+03  0.7957747E-01  0.4348143E+00
         13   -1    0    0    0    0  0.00000000000E+00  0.00000000000E+00  0.49999998884E+03  0.50000000000E+03  0.10566000000E+00 0. -1.
        994   -1    0    0    0    0 -0.00000000000E+00 -0.00000000000E+00  0.00000000000E+00  0.13100000000E+03  0.13100000000E+03 0.  0.
         13    1    1    2    0    0  0.92401157345E+01  0.16201412251E+02 -0.49100706536E+01  0.19286924471E+02  0.10566000000E+00 0.  1.
        994    1    1    2    0    0 -0.33911447145E+01 -0.17970584981E+02  0.12330339381E+03  0.18082911467E+03  0.13100000000E+03 0.  0.
        997    1    1    2    0    0 -0.58489710200E+01  0.17691727301E+01  0.38160666568E+03  0.43088396086E+03  0.20000000000E+03 0.  0.
</event>
<event>
 5    1  0.6487493E-012  0.2424137E+03  0.7957747E-01  0.4418157E+00
         13   -1    0    0    0    0  0.00000000000E+00  0.00000000000E+00  0.49999998884E+03  0.50000000000E+03  0.10566000000E+00 0.  1.
        994   -1    0    0    0    0 -0.00000000000E+00 -0.00000000000E+00  0.00000000000E+00  0.13100000000E+03  0.13100000000E+03 0.  0.
         13    1    1    2    0    0  0.20063771673E+02  0.20873526132E+02  0.19856333257E+02  0.35107608312E+02  0.10566000000E+00 0. -1.
        994    1    1    2    0    0 -0.27474786506E+02  0.11159447657E+01  0.10496589499E+03  0.17010275817E+03  0.13100000000E+03 0.  0.
        997    1    1    2    0    0  0.74110148327E+01 -0.21989470898E+02  0.37517776058E+03  0.42578963351E+03  0.20000000000E+03 0.  0.
</event>
<event>
 5    1  0.6487493E-012  0.2346222E+03  0.7957747E-01  0.4511857E+00
         13   -1    0    0    0    0  0.00000000000E+00  0.00000000000E+00  0.49999998884E+03  0.50000000000E+03  0.10566000000E+00 0.  1.
        994   -1    0    0    0    0 -0.00000000000E+00 -0.00000000000E+00  0.00000000000E+00  0.13100000000E+03  0.13100000000E+03 0.  0.
         13    1    1    2    0    0 -0.69301993426E+01  0.15993754177E+02  0.12222533962E+02  0.21289183547E+02  0.10566000000E+00 0. -1.
        994    1    1    2    0    0 -0.35451358419E+02 -0.22504260095E+02  0.95997346372E+02  0.16774901206E+03  0.13100000000E+03 0.  0.
        997    1    1    2    0    0  0.42381557762E+02  0.65105059183E+01  0.39178010850E+03  0.44196180439E+03  0.20000000000E+03 0.  0.
</event>
<event>
 5    1  0.6487493E-012  0.2369996E+03  0.7957747E-01  0.4482488E+00
         13   -1    0    0    0    0  0.00000000000E+00  0.00000000000E+00  0.49999998884E+03  0.50000000000E+03  0.10566000000E+00 0.  1.
        994   -1    0    0    0    0 -0.00000000000E+00 -0.00000000000E+00  0.00000000000E+00  0.13100000000E+03  0.13100000000E+03 0.  0.
         13    1    1    2    0    0 -0.72575256329E+01  0.23388472317E+02  0.57790114832E+02  0.62764646513E+02  0.10566000000E+00 0. -1.
        994    1    1    2    0    0  0.27385020038E+02  0.67174752253E+01  0.89459154669E+02  0.16111798208E+03  0.13100000000E+03 0.  0.
        997    1    1    2    0    0 -0.20127494405E+02 -0.30105947542E+02  0.35275071934E+03  0.40711737141E+03  0.20000000000E+03 0.  0.
</event>
<event>
 5    1  0.6487493E-012  0.2366248E+03  0.7957747E-01  0.4487071E+00
         13   -1    0    0    0    0  0.00000000000E+00  0.00000000000E+00  0.49999998884E+03  0.50000000000E+03  0.10566000000E+00 0.  1.
        994   -1    0    0    0    0 -0.00000000000E+00 -0.00000000000E+00  0.00000000000E+00  0.13100000000E+03  0.13100000000E+03 0.  0.
         13    1    1    2    0    0 -0.61709271508E+01  0.10162409755E+02  0.78659603312E+00  0.11915737966E+02  0.10566000000E+00 0. -1.
        994    1    1    2    0    0  0.57645141079E+00  0.33389822264E+02  0.92720107991E+02  0.16393056748E+03  0.13100000000E+03 0.  0.
        997    1    1    2    0    0  0.55944757400E+01 -0.43552232019E+02  0.40649328481E+03  0.45515369456E+03  0.20000000000E+03 0.  0.
</event>
<event>
 5    1  0.6487493E-012  0.2535056E+03  0.7957747E-01  0.4296410E+00
         13   -1    0    0    0    0  0.00000000000E+00  0.00000000000E+00  0.49999998884E+03  0.50000000000E+03  0.10566000000E+00 0. -1.
        994   -1    0    0    0    0 -0.00000000000E+00 -0.00000000000E+00  0.00000000000E+00  0.13100000000E+03  0.13100000000E+03 0.  0.
         13    1    1    2    0    0 -0.29894641624E+02  0.36049787661E+02  0.79187299038E+02  0.91999545006E+02  0.10566000000E+00 0.  1.
        994    1    1    2    0    0  0.67027713434E+01  0.51301256439E+01  0.16077224058E+03  0.20755712147E+03  0.13100000000E+03 0.  0.
        997    1    1    2    0    0  0.23191870280E+02 -0.41179913305E+02  0.26004044922E+03  0.33144333352E+03  0.20000000000E+03 0.  0.
</event>
<event>
 5    1  0.6487493E-012  0.2473529E+03  0.7957747E-01  0.4362363E+00
         13   -1    0    0    0    0  0.00000000000E+00  0.00000000000E+00  0.49999998884E+03  0.50000000000E+03  0.10566000000E+00 0.  1.
        994   -1    0    0    0    0 -0.00000000000E+00 -0.00000000000E+00  0.00000000000E+00  0.13100000000E+03  0.13100000000E+03 0.  0.
         13    1    1    2    0    0  0.90896447393E+01 -0.30419020575E+02  0.77373255932E+01  0.32677451333E+02  0.10566000000E+00 0. -1.
        994    1    1    2    0    0  0.39546331808E+01  0.41408991986E+02  0.16934704792E+03  0.21810494350E+03  0.13100000000E+03 0.  0.
        997    1    1    2    0    0 -0.13044277920E+02 -0.10989971411E+02  0.32291561532E+03  0.38021760516E+03  0.20000000000E+03 0.  0.
</event>
<event>
 5    1  0.6487493E-012  0.2310916E+03  0.7957747E-01  0.4556817E+00
         13   -1    0    0    0    0  0.00000000000E+00  0.00000000000E+00  0.49999998884E+03  0.50000000000E+03  0.10566000000E+00 0.  1.
        994   -1    0    0    0    0 -0.00000000000E+00 -0.00000000000E+00  0.00000000000E+00  0.13100000000E+03  0.13100000000E+03 0.  0.
         13    1    1    2    0    0 -0.16076943433E+02  0.42215322796E+01  0.40797346799E+02  0.44053650414E+02  0.10566000000E+00 0. -1.
        994    1    1    2    0    0  0.14014236115E+02  0.18055085826E+00  0.69650240993E+02  0.14902545918E+03  0.13100000000E+03 0.  0.
        997    1    1    2    0    0  0.20627073179E+01 -0.44020831379E+01  0.38955240104E+03  0.43792089041E+03  0.20000000000E+03 0.  0.
</event>
<event>
 5    1  0.6487493E-012  0.2347857E+03  0.7957747E-01  0.4509815E+00
         13   -1    0    0    0    0  0.00000000000E+00  0.00000000000E+00  0.49999998884E+03  0.50000000000E+03  0.10566000000E+00 0. -1.
        994   -1    0    0    0    0 -0.00000000000E+00 -0.00000000000E+00  0.00000000000E+00  0.13100000000E+03  0.13100000000E+03 0.  0.
         13    1    1    2    0    0 -0.89849688310E+01 -0.57318152745E+01 -0.93737125274E+00  0.10699214931E+02  0.10566000000E+00 0.  1.
        994    1    1    2    0    0  0.44809184792E+02  0.38991582907E+01  0.10006029004E+03  0.17086874530E+03  0.13100000000E+03 0.  0.
        997    1    1    2    0    0 -0.35824215961E+02  0.18326569838E+01  0.40087707005E+03  0.44943203977E+03  0.20000000000E+03 0.  0.
</event>
<event>
 5    1  0.6487493E-012  0.2400397E+03  0.7957747E-01  0.4445940E+00
         13   -1    0    0    0    0  0.00000000000E+00  0.00000000000E+00  0.49999998884E+03  0.50000000000E+03  0.10566000000E+00 0. -1.
        994   -1    0    0    0    0 -0.00000000000E+00 -0.00000000000E+00  0.00000000000E+00  0.13100000000E+03  0.13100000000E+03 0.  0.
         13    1    1    2    0    0  0.23227435231E+02 -0.10111079113E+02  0.20280625603E+02  0.32450926136E+02  0.10566000000E+00 0.  1.
        994    1    1    2    0    0  0.86274796525E+01  0.24738171405E+02  0.96303595113E+02  0.16468695444E+03  0.13100000000E+03 0.  0.
        997    1    1    2    0    0 -0.31854914883E+02 -0.14627092292E+02  0.38341576812E+03  0.43386211943E+03  0.20000000000E+03 0.  0.
</event>
<event>
 5    1  0.6487493E-012  0.2442993E+03  0.7957747E-01  0.4396543E+00
         13   -1    0    0    0    0  0.00000000000E+00  0.00000000000E+00  0.49999998884E+03  0.50000000000E+03  0.10566000000E+00 0.  1.
        994   -1    0    0    0    0 -0.00000000000E+00 -0.00000000000E+00  0.00000000000E+00  0.13100000000E+03  0.13100000000E+03 0.  0.
         13    1    1    2    0    0  0.13489785152E+02 -0.22098467542E+02  0.14408035258E+02  0.29629701571E+02  0.10566000000E+00 0. -1.
        994    1    1    2    0    0 -0.37598044930E+01 -0.31474213156E+02  0.11693275755E+03  0.17843495177E+03  0.13100000000E+03 0.  0.
        997    1    1    2    0    0 -0.97299806590E+01  0.53572680698E+02  0.36865919603E+03  0.42293534666E+03  0.20000000000E+03 0.  0.
</event>
<event>
 5    1  0.6487493E-012  0.2351174E+03  0.7957747E-01  0.4505681E+00
         13   -1    0    0    0    0  0.00000000000E+00  0.00000000000E+00  0.49999998884E+03  0.50000000000E+03  0.10566000000E+00 0. -1.
        994   -1    0    0    0    0 -0.00000000000E+00 -0.00000000000E+00  0.00000000000E+00  0.13100000000E+03  0.13100000000E+03 0.  0.
         13    1    1    2    0    0 -0.10287992356E+02  0.97242809752E+01  0.22734883624E+01  0.14338212600E+02  0.10566000000E+00 0.  1.
        994    1    1    2    0    0  0.12576783456E+02 -0.49103435986E+02  0.10925475823E+03  0.17795203034E+03  0.13100000000E+03 0.  0.
        997    1    1    2    0    0 -0.22887911001E+01  0.39379155011E+02  0.38847174224E+03  0.43870975706E+03  0.20000000000E+03 0.  0.
</event>
<event>
 5    1  0.6487493E-012  0.2448180E+03  0.7957747E-01  0.4390666E+00
         13   -1    0    0    0    0  0.00000000000E+00  0.00000000000E+00  0.49999998884E+03  0.50000000000E+03  0.10566000000E+00 0.  1.
        994   -1    0    0    0    0 -0.00000000000E+00 -0.00000000000E+00  0.00000000000E+00  0.13100000000E+03  0.13100000000E+03 0.  0.
         13    1    1    2    0    0  0.11454374880E+02  0.41332869247E+02  0.49932376005E+02  0.65824479654E+02  0.10566000000E+00 0. -1.
        994    1    1    2    0    0 -0.33731414541E+02 -0.35147135026E+02  0.16612906141E+03  0.21710134608E+03  0.13100000000E+03 0.  0.
        997    1    1    2    0    0  0.22277039661E+02 -0.61857342216E+01  0.28393855142E+03  0.34807417426E+03  0.20000000000E+03 0.  0.
</event>
<event>
 5    1  0.6487493E-012  0.2439553E+03  0.7957747E-01  0.4400457E+00
         13   -1    0    0    0    0  0.00000000000E+00  0.00000000000E+00  0.49999998884E+03  0.50000000000E+03  0.10566000000E+00 0.  1.
        994   -1    0    0    0    0 -0.00000000000E+00 -0.00000000000E+00  0.00000000000E+00  0.13100000000E+03  0.13100000000E+03 0.  0.
         13    1    1    2    0    0 -0.19505677734E+02  0.20890544073E+02  0.98615776039E+02  0.10267408993E+03  0.10566000000E+00 0. -1.
        994    1    1    2    0    0 -0.80415297192E+01 -0.57043298440E+01  0.99325439952E+02  0.16469289177E+03  0.13100000000E+03 0.  0.
        997    1    1    2    0    0  0.27547207453E+02 -0.15186214229E+02  0.30205877285E+03  0.36363301829E+03  0.20000000000E+03 0.  0.
</event>
<event>
 5    1  0.6487493E-012  0.2383962E+03  0.7957747E-01  0.4465560E+00
         13   -1    0    0    0    0  0.00000000000E+00  0.00000000000E+00  0.49999998884E+03  0.50000000000E+03  0.10566000000E+00 0.  1.
        994   -1    0    0    0    0 -0.00000000000E+00 -0.00000000000E+00  0.00000000000E+00  0.13100000000E+03  0.13100000000E+03 0.  0.
         13    1    1    2    0    0 -0.18606048423E+02 -0.22951669784E+02  0.53251032757E+02  0.60898668602E+02  0.10566000000E+00 0. -1.
        994    1    1    2    0    0  0.73005294126E+01  0.17233458160E+02  0.87206826762E+02  0.15848129367E+03  0.13100000000E+03 0.  0.
        997    1    1    2    0    0  0.11305519010E+02  0.57182116234E+01  0.35954212932E+03  0.41162003773E+03  0.20000000000E+03 0.  0.
</event>
<event>
 5    1  0.6487493E-012  0.2288781E+03  0.7957747E-01  0.4585861E+00
         13   -1    0    0    0    0  0.00000000000E+00  0.00000000000E+00  0.49999998884E+03  0.50000000000E+03  0.10566000000E+00 0. -1.
        994   -1    0    0    0    0 -0.00000000000E+00 -0.00000000000E+00  0.00000000000E+00  0.13100000000E+03  0.13100000000E+03 0.  0.
         13    1    1    2    0    0  0.19512744154E+01  0.11213790711E+02  0.92479829221E+01  0.14666046711E+02  0.10566000000E+00 0.  1.
        994    1    1    2    0    0  0.12248074481E+02 -0.41230133325E+02  0.82929796997E+02  0.16089838549E+03  0.13100000000E+03 0.  0.
        997    1    1    2    0    0 -0.14199348897E+02  0.30016342613E+02  0.40782220892E+03  0.45543556780E+03  0.20000000000E+03 0.  0.
</event>
<event>
 5    1  0.6487493E-012  0.2371182E+03  0.7957747E-01  0.4481041E+00
         13   -1    0    0    0    0  0.00000000000E+00  0.00000000000E+00  0.49999998884E+03  0.50000000000E+03  0.10566000000E+00 0.  1.
        994   -1    0    0    0    0 -0.00000000000E+00 -0.00000000000E+00  0.00000000000E+00  0.13100000000E+03  0.13100000000E+03 0.  0.
         13    1    1    2    0    0 -0.19483034399E+02 -0.45299582065E+01  0.83155866061E+02  0.85527880688E+02  0.10566000000E+00 0. -1.
        994    1    1    2    0    0  0.86076675899E+01 -0.34895600045E+01  0.80838083657E+02  0.15421434674E+03  0.13100000000E+03 0.  0.
        997    1    1    2    0    0  0.10875366809E+02  0.80195182111E+01  0.33600603912E+03  0.39125777257E+03  0.20000000000E+03 0.  0.
</event>
<event>
 5    1  0.6487493E-012  0.2380820E+03  0.7957747E-01  0.4469347E+00
         13   -1    0    0    0    0  0.00000000000E+00  0.00000000000E+00  0.49999998884E+03  0.50000000000E+03  0.10566000000E+00 0.  1.
        994   -1    0    0    0    0 -0.00000000000E+00 -0.00000000000E+00  0.00000000000E+00  0.13100000000E+03  0.13100000000E+03 0.  0.
         13    1    1    2    0    0 -0.25731149686E+02 -0.59526117030E+01  0.33529732731E+02  0.42682312394E+02  0.10566000000E+00 0. -1.
        994    1    1    2    0    0  0.15420159065E+01  0.23052054050E+02  0.88811829243E+02  0.15994472802E+03  0.13100000000E+03 0.  0.
        997    1    1    2    0    0  0.24189133780E+02 -0.17099442347E+02  0.37765842686E+03  0.42837295958E+03  0.20000000000E+03 0.  0.
</event>
<event>
 5    1  0.6487493E-012  0.2492165E+03  0.7957747E-01  0.4341986E+00
         13   -1    0    0    0    0  0.00000000000E+00  0.00000000000E+00  0.49999998884E+03  0.50000000000E+03  0.10566000000E+00 0.  1.
        994   -1    0    0    0    0 -0.00000000000E+00 -0.00000000000E+00  0.00000000000E+00  0.13100000000E+03  0.13100000000E+03 0.  0.
         13    1    1    2    0    0 -0.24471734504E+02 -0.24307366698E+02  0.16784884705E+02  0.38359580082E+02  0.10566000000E+00 0. -1.
        994    1    1    2    0    0 -0.58053057256E+01  0.22533684955E+02  0.13252571083E+03  0.18779119405E+03  0.13100000000E+03 0.  0.
        997    1    1    2    0    0  0.30277040230E+02  0.17736817433E+01  0.35068939330E+03  0.40484922586E+03  0.20000000000E+03 0.  0.
</event>
<event>
 5    1  0.6487493E-012  0.2400110E+03  0.7957747E-01  0.4446280E+00
         13   -1    0    0    0    0  0.00000000000E+00  0.00000000000E+00  0.49999998884E+03  0.50000000000E+03  0.10566000000E+00 0.  1.
        994   -1    0    0    0    0 -0.00000000000E+00 -0.00000000000E+00  0.00000000000E+00  0.13100000000E+03  0.13100000000E+03 0.  0.
         13    1    1    2    0    0  0.25507491735E+02  0.78465627305E+01  0.20216983414E+02  0.33480416122E+02  0.10566000000E+00 0. -1.
        994    1    1    2    0    0 -0.26768491714E+02  0.20123515038E+02  0.10280916825E+03  0.16985945097E+03  0.13100000000E+03 0.  0.
        997    1    1    2    0    0  0.12609999786E+01 -0.27970077768E+02  0.37697383717E+03  0.42766013291E+03  0.20000000000E+03 0.  0.
</event>
<event>
 5    1  0.6487493E-012  0.2393309E+03  0.7957747E-01  0.4454363E+00
         13   -1    0    0    0    0  0.00000000000E+00  0.00000000000E+00  0.49999998884E+03  0.50000000000E+03  0.10566000000E+00 0. -1.
        994   -1    0    0    0    0 -0.00000000000E+00 -0.00000000000E+00  0.00000000000E+00  0.13100000000E+03  0.13100000000E+03 0.  0.
         13    1    1    2    0    0  0.16777880938E+02 -0.16813326819E+02  0.22150047233E+02  0.32478008004E+02  0.10566000000E+00 0.  1.
        994    1    1    2    0    0  0.22806556470E+02 -0.21068893777E+01  0.91995952443E+02  0.16170600875E+03  0.13100000000E+03 0.  0.
        997    1    1    2    0    0 -0.39584437408E+02  0.18920216196E+02  0.38585398916E+03  0.43681598324E+03  0.20000000000E+03 0.  0.
</event>
<event>
 5    1  0.6487493E-012  0.2363671E+03  0.7957747E-01  0.4490232E+00
         13   -1    0    0    0    0  0.00000000000E+00  0.00000000000E+00  0.49999998884E+03  0.50000000000E+03  0.10566000000E+00 0.  1.
        994   -1    0    0    0    0 -0.00000000000E+00 -0.00000000000E+00  0.00000000000E+00  0.13100000000E+03  0.13100000000E+03 0.  0.
         13    1    1    2    0    0  0.17747815859E+02  0.99029422660E+01  0.16164398698E+02  0.25968291869E+02  0.10566000000E+00 0. -1.
        994    1    1    2    0    0 -0.20842903308E+02  0.33866997557E+02  0.98441163141E+02  0.16862106257E+03  0.13100000000E+03 0.  0.
        997    1    1    2    0    0  0.30950874494E+01 -0.43769939823E+02  0.38539442700E+03  0.43641064556E+03  0.20000000000E+03 0.  0.
</event>
<event>
 5    1  0.6487493E-012  0.2370603E+03  0.7957747E-01  0.4481747E+00
         13   -1    0    0    0    0  0.00000000000E+00  0.00000000000E+00  0.49999998884E+03  0.50000000000E+03  0.10566000000E+00 0.  1.
        994   -1    0    0    0    0 -0.00000000000E+00 -0.00000000000E+00  0.00000000000E+00  0.13100000000E+03  0.13100000000E+03 0.  0.
         13    1    1    2    0    0  0.26373643504E+02  0.43702886364E+01  0.46227126961E+02  0.53400626640E+02  0.10566000000E+00 0. -1.
        994    1    1    2    0    0 -0.15488654334E+02  0.13543943033E+02  0.84850898562E+02  0.15742938669E+03  0.13100000000E+03 0.  0.
        997    1    1    2    0    0 -0.10884989171E+02 -0.17914231670E+02  0.36892196331E+03  0.42016998667E+03  0.20000000000E+03 0.  0.
</event>
<event>
 5    1  0.6487493E-012  0.2496334E+03  0.7957747E-01  0.4337475E+00
         13   -1    0    0    0    0  0.00000000000E+00  0.00000000000E+00  0.49999998884E+03  0.50000000000E+03  0.10566000000E+00 0. -1.
        994   -1    0    0    0    0 -0.00000000000E+00 -0.00000000000E+00  0.00000000000E+00  0.13100000000E+03  0.13100000000E+03 0.  0.
         13    1    1    2    0    0 -0.25835022903E+02 -0.20485380935E+02  0.10115191525E+03  0.10638994484E+03  0.10566000000E+00 0.  1.
        994    1    1    2    0    0  0.22602249648E+02  0.98802150616E+01  0.21354686724E+03  0.25173745221E+03  0.13100000000E+03 0.  0.
        997    1    1    2    0    0  0.32327732549E+01  0.10605165874E+02  0.18530120635E+03  0.27287260295E+03  0.20000000000E+03 0.  0.
</event>
<event>
 5    1  0.6487493E-012  0.2381392E+03  0.7957747E-01  0.4468657E+00
         13   -1    0    0    0    0  0.00000000000E+00  0.00000000000E+00  0.49999998884E+03  0.50000000000E+03  0.10566000000E+00 0. -1.
        994   -1    0    0    0    0 -0.00000000000E+00 -0.00000000000E+00  0.00000000000E+00  0.13100000000E+03  0.13100000000E+03 0.  0.
         13    1    1    2    0    0  0.82000650278E+01  0.99943034615E+01 -0.37691448315E+01  0.13466431782E+02  0.10566000000E+00 0.  1.
        994    1    1    2    0    0 -0.26054074565E+02 -0.56733431861E+02  0.15455207113E+03  0.21200198061E+03  0.13100000000E+03 0.  0.
        997    1    1    2    0    0  0.17854009538E+02  0.46739128399E+02  0.34921706254E+03  0.40553158761E+03  0.20000000000E+03 0.  0.
</event>
<event>
 5    1  0.6487493E-012  0.2323975E+03  0.7957747E-01  0.4539995E+00
         13   -1    0    0    0    0  0.00000000000E+00  0.00000000000E+00  0.49999998884E+03  0.50000000000E+03  0.10566000000E+00 0. -1.
        994   -1    0    0    0    0 -0.00000000000E+00 -0.00000000000E+00  0.00000000000E+00  0.13100000000E+03  0.13100000000E+03 0.  0.
         13    1    1    2    0    0 -0.58662911945E+01 -0.12664102937E+02  0.51124921479E+02  0.52995864328E+02  0.10566000000E+00 0.  1.
        994    1    1    2    0    0  0.15299558446E+02 -0.27986431306E+02  0.81234997856E+02  0.15740851852E+03  0.13100000000E+03 0.  0.
        997    1    1    2    0    0 -0.94332672511E+01  0.40650534244E+02  0.36764006950E+03  0.42059561715E+03  0.20000000000E+03 0.  0.
</event>
<event>
 5    1  0.6487493E-012  0.2435777E+03  0.7957747E-01  0.4404767E+00
         13   -1    0    0    0    0  0.00000000000E+00  0.00000000000E+00  0.49999998884E+03  0.50000000000E+03  0.10566000000E+00 0.  1.
        994   -1    0    0    0    0 -0.00000000000E+00 -0.00000000000E+00  0.00000000000E+00  0.13100000000E+03  0.13100000000E+03 0.  0.
         13    1    1    2    0    0 -0.30909992185E+02  0.13215985245E+02  0.69764801653E+02  0.77441775526E+02  0.10566000000E+00 0. -1.
        994    1    1    2    0    0 -0.11847902045E+02 -0.43793508302E+02  0.13847810351E+03  0.19594751671E+03  0.13100000000E+03 0.  0.
        997    1    1    2    0    0  0.42757894231E+02  0.30577523057E+02  0.29175708368E+03  0.35761070777E+03  0.20000000000E+03 0.  0.
</event>
<event>
 5    1  0.6487493E-012  0.2346268E+03  0.7957747E-01  0.4511800E+00
         13   -1    0    0    0    0  0.00000000000E+00  0.00000000000E+00  0.49999998884E+03  0.50000000000E+03  0.10566000000E+00 0.  1.
        994   -1    0    0    0    0 -0.00000000000E+00 -0.00000000000E+00  0.00000000000E+00  0.13100000000E+03  0.13100000000E+03 0.  0.
         13    1    1    2    0    0  0.16755083592E+02  0.83742232002E+01  0.27752575563E+02  0.33482488778E+02  0.10566000000E+00 0. -1.
        994    1    1    2    0    0  0.18906790624E+02  0.24911221169E+02  0.85891867916E+02  0.15973868863E+03  0.13100000000E+03 0.  0.
        997    1    1    2    0    0 -0.35661874217E+02 -0.33285444369E+02  0.38635554536E+03  0.43777882259E+03  0.20000000000E+03 0.  0.
</event>
<event>
 5    1  0.6487493E-012  0.2332996E+03  0.7957747E-01  0.4528508E+00
         13   -1    0    0    0    0  0.00000000000E+00  0.00000000000E+00  0.49999998884E+03  0.50000000000E+03  0.10566000000E+00 0. -1.
        994   -1    0    0    0    0 -0.00000000000E+00 -0.00000000000E+00  0.00000000000E+00  0.13100000000E+03  0.13100000000E+03 0.  0.
         13    1    1    2    0    0  0.11974687757E+01  0.16769752946E+02  0.11873324977E+02  0.20582651807E+02  0.10566000000E+00 0.  1.
        994    1    1    2    0    0 -0.59517859688E+00 -0.28955557192E+02  0.81169944253E+02  0.15680669112E+03  0.13100000000E+03 0.  0.
        997    1    1    2    0    0 -0.60229017881E+00  0.12185804246E+02  0.40695671961E+03  0.45361065707E+03  0.20000000000E+03 0.  0.
</event>
<event>
 5    1  0.6487493E-012  0.2364892E+03  0.7957747E-01  0.4488733E+00
         13   -1    0    0    0    0  0.00000000000E+00  0.00000000000E+00  0.49999998884E+03  0.50000000000E+03  0.10566000000E+00 0. -1.
        994   -1    0    0    0    0 -0.00000000000E+00 -0.00000000000E+00  0.00000000000E+00  0.13100000000E+03  0.13100000000E+03 0.  0.
         13    1    1    2    0    0  0.86943142731E+01  0.25185096841E+02  0.46464341336E+02  0.53561426264E+02  0.10566000000E+00 0.  1.
        994    1    1    2    0    0  0.35007373525E+00 -0.20900621577E+02  0.83660276576E+02  0.15683430878E+03  0.13100000000E+03 0.  0.
        997    1    1    2    0    0 -0.90443880084E+01 -0.42844752641E+01  0.36987537092E+03  0.42060426496E+03  0.20000000000E+03 0.  0.
</event>
<event>
 5    1  0.6487493E-012  0.2470413E+03  0.7957747E-01  0.4365805E+00
         13   -1    0    0    0    0  0.00000000000E+00  0.00000000000E+00  0.49999998884E+03  0.50000000000E+03  0.10566000000E+00 0.  1.
        994   -1    0    0    0    0 -0.00000000000E+00 -0.00000000000E+00  0.00000000000E+00  0.13100000000E+03  0.13100000000E+03 0.  0.
         13    1    1    2    0    0 -0.21826033091E+01 -0.40175064433E+02  0.58037441792E+02  0.70619794485E+02  0.10566000000E+00 0. -1.
        994    1    1    2    0    0 -0.24349725797E+02  0.79716296829E+01  0.12249480552E+03  0.18116962605E+03  0.13100000000E+03 0.  0.
        997    1    1    2    0    0  0.26532329106E+02  0.32203434750E+02  0.31946774153E+03  0.37921057946E+03  0.20000000000E+03 0.  0.
</event>
<event>
 5    1  0.6487493E-012  0.2352823E+03  0.7957747E-01  0.4503632E+00
         13   -1    0    0    0    0  0.00000000000E+00  0.00000000000E+00  0.49999998884E+03  0.50000000000E+03  0.10566000000E+00 0. -1.
        994   -1    0    0    0    0 -0.00000000000E+00 -0.00000000000E+00  0.00000000000E+00  0.13100000000E+03  0.13100000000E+03 0.  0.
         13    1    1    2    0    0  0.14071800292E+02  0.13339815087E+02  0.48780212482E+02  0.52492728294E+02  0.10566000000E+00 0.  1.
        994    1    1    2    0    0  0.50735930439E+01  0.31445456238E+02  0.87943778507E+02  0.16096479815E+03  0.13100000000E+03 0.  0.
        997    1    1    2    0    0 -0.19145393336E+02 -0.44785271324E+02  0.36327599785E+03  0.41754247356E+03  0.20000000000E+03 0.  0.
</event>
<event>
 5    1  0.6487493E-012  0.2465600E+03  0.7957747E-01  0.4371143E+00
         13   -1    0    0    0    0  0.00000000000E+00  0.00000000000E+00  0.49999998884E+03  0.50000000000E+03  0.10566000000E+00 0.  1.
        994   -1    0    0    0    0 -0.00000000000E+00 -0.00000000000E+00  0.00000000000E+00  0.13100000000E+03  0.13100000000E+03 0.  0.
         13    1    1    2    0    0  0.20550575221E+02 -0.47935244697E+01  0.26641904893E+00  0.21104174040E+02  0.10566000000E+00 0. -1.
        994    1    1    2    0    0 -0.10185476858E+02 -0.14807783463E+02  0.11296007306E+03  0.17390800009E+03  0.13100000000E+03 0.  0.
        997    1    1    2    0    0 -0.10365098363E+02  0.19601307933E+02  0.38677349672E+03  0.43598782587E+03  0.20000000000E+03 0.  0.
</event>
<event>
 5    1  0.6487493E-012  0.2439583E+03  0.7957747E-01  0.4400422E+00
         13   -1    0    0    0    0  0.00000000000E+00  0.00000000000E+00  0.49999998884E+03  0.50000000000E+03  0.10566000000E+00 0.  1.
        994   -1    0    0    0    0 -0.00000000000E+00 -0.00000000000E+00  0.00000000000E+00  0.13100000000E+03  0.13100000000E+03 0.  0.
         13    1    1    2    0    0  0.15545459416E+01 -0.32303593876E+02  0.19630630429E+02  0.37832679068E+02  0.10566000000E+00 0. -1.
        994    1    1    2    0    0 -0.28430418547E+01  0.35461557123E+02  0.12083640288E+03  0.18173618567E+03  0.13100000000E+03 0.  0.
        997    1    1    2    0    0  0.12884959131E+01 -0.31579632469E+01  0.35953295553E+03  0.41143113526E+03  0.20000000000E+03 0.  0.
</event>
<event>
 5    1  0.6487493E-012  0.2384930E+03  0.7957747E-01  0.4464395E+00
         13   -1    0    0    0    0  0.00000000000E+00  0.00000000000E+00  0.49999998884E+03  0.50000000000E+03  0.10566000000E+00 0.  1.
        994   -1    0    0    0    0 -0.00000000000E+00 -0.00000000000E+00  0.00000000000E+00  0.13100000000E+03  0.13100000000E+03 0.  0.
         13    1    1    2    0    0  0.96657587763E+01 -0.89584285072E+01 -0.11729778020E+00  0.13179729013E+02  0.10566000000E+00 0. -1.
        994    1    1    2    0    0  0.29810430192E+01  0.51136628723E+01  0.83408195629E+02  0.15541223653E+03  0.13100000000E+03 0.  0.
        997    1    1    2    0    0 -0.12646801796E+02  0.38447656348E+01  0.41670909099E+03  0.46240803446E+03  0.20000000000E+03 0.  0.
</event>
<event>
 5    1  0.6487493E-012  0.2440665E+03  0.7957747E-01  0.4399190E+00
         13   -1    0    0    0    0  0.00000000000E+00  0.00000000000E+00  0.49999998884E+03  0.50000000000E+03  0.10566000000E+00 0.  1.
        994   -1    0    0    0    0 -0.00000000000E+00 -0.00000000000E+00  0.00000000000E+00  0.13100000000E+03  0.13100000000E+03 0.  0.
         13    1    1    2    0    0 -0.31075198059E+02  0.57733564903E+01  0.25454033303E+02  0.40582244332E+02  0.10566000000E+00 0. -1.
        994    1    1    2    0    0  0.80317209291E+01 -0.53471836497E+01  0.99619022484E+02  0.16485766756E+03  0.13100000000E+03 0.  0.
        997    1    1    2    0    0  0.23043477130E+02 -0.42617284064E+00  0.37492693305E+03  0.42556008810E+03  0.20000000000E+03 0.  0.
</event>
<event>
 5    1  0.6487493E-012  0.2344896E+03  0.7957747E-01  0.4513516E+00
         13   -1    0    0    0    0  0.00000000000E+00  0.00000000000E+00  0.49999998884E+03  0.50000000000E+03  0.10566000000E+00 0.  1.
        994   -1    0    0    0    0 -0.00000000000E+00 -0.00000000000E+00  0.00000000000E+00  0.13100000000E+03  0.13100000000E+03 0.  0.
         13    1    1    2    0    0  0.13290498723E+02  0.17594767831E+02  0.37188391949E+02  0.43234255760E+02  0.10566000000E+00 0. -1.
        994    1    1    2    0    0 -0.10493536296E+02 -0.23878866026E+01  0.75479368745E+02  0.15157160490E+03  0.13100000000E+03 0.  0.
        997    1    1    2    0    0 -0.27969624265E+01 -0.15206881228E+02  0.38733222814E+03  0.43619413934E+03  0.20000000000E+03 0.  0.
</event>
<event>
 5    1  0.6487493E-012  0.2438101E+03  0.7957747E-01  0.4402112E+00
         13   -1    0    0    0    0  0.00000000000E+00  0.00000000000E+00  0.49999998884E+03  0.50000000000E+03  0.10566000000E+00 0. -1.
        994   -1    0    0    0    0 -0.00000000000E+00 -0.00000000000E+00  0.00000000000E+00  0.13100000000E+03  0.13100000000E+03 0.  0.
         13    1    1    2    0    0 -0.30623907685E+02  0.15114102161E+02  0.66806264845E+02  0.75028981018E+02  0.10566000000E+00 0.  1.
        994    1    1    2    0    0 -0.87813900067E+00  0.76283804785E+01  0.98253458421E+02  0.16393201459E+03  0.13100000000E+03 0.  0.
        997    1    1    2    0    0  0.31502046686E+02 -0.22742482639E+02  0.33494026557E+03  0.39203900439E+03  0.20000000000E+03 0.  0.
</event>
<event>
 5    1  0.6487493E-012  0.2378250E+03  0.7957747E-01  0.4472454E+00
         13   -1    0    0    0    0  0.00000000000E+00  0.00000000000E+00  0.49999998884E+03  0.50000000000E+03  0.10566000000E+00 0.  1.
        994   -1    0    0    0    0 -0.00000000000E+00 -0.00000000000E+00  0.00000000000E+00  0.13100000000E+03  0.13100000000E+03 0.  0.
         13    1    1    2    0    0 -0.20270825010E+02 -0.16844886770E+02  0.15014398466E+02  0.30333148242E+02  0.10566000000E+00 0. -1.
        994    1    1    2    0    0  0.36805617235E+02  0.48300762765E+02  0.14506942033E+03  0.20467963713E+03  0.13100000000E+03 0.  0.
        997    1    1    2    0    0 -0.16534792225E+02 -0.31455875994E+02  0.33991617004E+03  0.39598721462E+03  0.20000000000E+03 0.  0.
</event>
<event>
 5    1  0.6487493E-012  0.2308566E+03  0.7957747E-01  0.4559869E+00
         13   -1    0    0    0    0  0.00000000000E+00  0.00000000000E+00  0.49999998884E+03  0.50000000000E+03  0.10566000000E+00 0.  1.
        994   -1    0    0    0    0 -0.00000000000E+00 -0.00000000000E+00  0.00000000000E+00  0.13100000000E+03  0.13100000000E+03 0.  0.
         13    1    1    2    0    0 -0.41604750338E+01  0.11686254098E+02  0.86695811132E+01  0.15134427246E+02  0.10566000000E+00 0. -1.
        994    1    1    2    0    0 -0.26331246070E+02 -0.23476478827E+02  0.80450424870E+02  0.15772682219E+03  0.13100000000E+03 0.  0.
        997    1    1    2    0    0  0.30491721104E+02  0.11790224729E+02  0.41087998285E+03  0.45813875056E+03  0.20000000000E+03 0.  0.
</event>
<event>
 5    1  0.6487493E-012  0.2409408E+03  0.7957747E-01  0.4435317E+00
         13   -1    0    0    0    0  0.00000000000E+00  0.00000000000E+00  0.49999998884E+03  0.50000000000E+03  0.10566000000E+00 0.  1.
        994   -1    0    0    0    0 -0.00000000000E+00 -0.00000000000E+00  0.00000000000E+00  0.13100000000E+03  0.13100000000E+03 0.  0.
         13    1    1    2    0    0  0.22182242007E+02 -0.14183802353E+02  0.18022957064E+02  0.31907213213E+02  0.10566000000E+00 0. -1.
        994    1    1    2    0    0 -0.15349299803E+00  0.25371270134E+02  0.98372202814E+02  0.16577640120E+03  0.13100000000E+03 0.  0.
        997    1    1    2    0    0 -0.22028749009E+02 -0.11187467780E+02  0.38360482896E+03  0.43331638559E+03  0.20000000000E+03 0.  0.
</event>
<event>
 5    1  0.6487493E-012  0.2302825E+03  0.7957747E-01  0.4567355E+00
         13   -1    0    0    0    0  0.00000000000E+00  0.00000000000E+00  0.49999998884E+03  0.50000000000E+03  0.10566000000E+00 0. -1.
        994   -1    0    0    0    0 -0.00000000000E+00 -0.00000000000E+00  0.00000000000E+00  0.13100000000E+03  0.13100000000E+03 0.  0.
         13    1    1    2    0    0  0.15795431678E+02 -0.18620882117E+01  0.33071009663E+02  0.36696946447E+02  0.10566000000E+00 0.  1.
        994    1    1    2    0    0 -0.20895028568E+02 -0.12263090376E+02  0.72164666992E+02  0.15151146744E+03  0.13100000000E+03 0.  0.
        997    1    1    2    0    0  0.50995968899E+01  0.14125178588E+02  0.39476431218E+03  0.44279158611E+03  0.20000000000E+03 0.  0.
</event>
<event>
 5    1  0.6487493E-012  0.2386946E+03  0.7957747E-01  0.4461974E+00
         13   -1    0    0    0    0  0.00000000000E+00  0.00000000000E+00  0.49999998884E+03  0.50000000000E+03  0.10566000000E+00 0.  1.
        994   -1    0    0    0    0 -0.00000000000E+00 -0.00000000000E+00  0.00000000000E+00  0.13100000000E+03  0.13100000000E+03 0.  0.
         13    1    1    2    0    0 -0.17329606625E+02 -0.90069100749E+01  0.45888488094E+02  0.49871877832E+02  0.10566000000E+00 0. -1.
        994    1    1    2    0    0 -0.60993520844E+02  0.15208755543E+02  0.21679912849E+03  0.26098731376E+03  0.13100000000E+03 0.  0.
        997    1    1    2    0    0  0.78323127469E+02 -0.62018454678E+01  0.23731237225E+03  0.32014080841E+03  0.20000000000E+03 0.  0.
</event>
<event>
 5    1  0.6487493E-012  0.2358095E+03  0.7957747E-01  0.4497101E+00
         13   -1    0    0    0    0  0.00000000000E+00  0.00000000000E+00  0.49999998884E+03  0.50000000000E+03  0.10566000000E+00 0.  1.
        994   -1    0    0    0    0 -0.00000000000E+00 -0.00000000000E+00  0.00000000000E+00  0.13100000000E+03  0.13100000000E+03 0.  0.
         13    1    1    2    0    0 -0.16819303871E+02  0.88849153832E+01  0.32737306199E+02  0.37862555187E+02  0.10566000000E+00 0. -1.
        994    1    1    2    0    0 -0.40658260967E+02  0.24046618187E+02  0.10631542617E+03  0.17520075306E+03  0.13100000000E+03 0.  0.
        997    1    1    2    0    0  0.57477564838E+02 -0.32931533570E+02  0.36094725646E+03  0.41793669175E+03  0.20000000000E+03 0.  0.
</event>
<event>
 5    1  0.6487493E-012  0.2417394E+03  0.7957747E-01  0.4425983E+00
         13   -1    0    0    0    0  0.00000000000E+00  0.00000000000E+00  0.49999998884E+03  0.50000000000E+03  0.10566000000E+00 0. -1.
        994   -1    0    0    0    0 -0.00000000000E+00 -0.00000000000E+00  0.00000000000E+00  0.13100000000E+03  0.13100000000E+03 0.  0.
         13    1    1    2    0    0  0.31586206261E+02 -0.11631371228E+02  0.65892782807E+02  0.73992210487E+02  0.10566000000E+00 0.  1.
        994    1    1    2    0    0 -0.19928353292E+02 -0.14614496303E+02  0.10036189241E+03  0.16686591089E+03  0.13100000000E+03 0.  0.
        997    1    1    2    0    0 -0.11657852969E+02  0.26245867531E+02  0.33374531362E+03  0.39014187863E+03  0.20000000000E+03 0.  0.
</event>
<event>
 5    1  0.7096646E-012  0.2357816E+03  0.7957747E-01  0.4497446E+00
         13   -1    0    0    0    0  0.00000000000E+00  0.00000000000E+00  0.49999998884E+03  0.50000000000E+03  0.10566000000E+00 0.  1.
        994   -1    0    0    0    0 -0.00000000000E+00 -0.00000000000E+00  0.00000000000E+00  0.13100000000E+03  0.13100000000E+03 0.  0.
         13    1    1    2    0    0 -0.19992606602E+01  0.14456836435E+02  0.17805156749E+01  0.14703012039E+02  0.10566000000E+00 0. -1.
        994    1    1    2    0    0  0.85788871429E+01 -0.48388810971E+02  0.10909231469E+03  0.17741817115E+03  0.13100000000E+03 0.  0.
        997    1    1    2    0    0 -0.65796264826E+01  0.33931974536E+02  0.38912715847E+03  0.43887881681E+03  0.20000000000E+03 0.  0.
</event>
<event>
 5    1  0.6487493E-012  0.2337276E+03  0.7957747E-01  0.4523095E+00
         13   -1    0    0    0    0  0.00000000000E+00  0.00000000000E+00  0.49999998884E+03  0.50000000000E+03  0.10566000000E+00 0. -1.
        994   -1    0    0    0    0 -0.00000000000E+00 -0.00000000000E+00  0.00000000000E+00  0.13100000000E+03  0.13100000000E+03 0.  0.
         13    1    1    2    0    0 -0.13160522523E+02 -0.69557670557E+01  0.91226297126E+01  0.17458968621E+02  0.10566000000E+00 0.  1.
        994    1    1    2    0    0 -0.11251490952E+02  0.21998782702E+02  0.79474820860E+02  0.15520241506E+03  0.13100000000E+03 0.  0.
        997    1    1    2    0    0  0.24412013475E+02 -0.15043015646E+02  0.41140253826E+03  0.45833861632E+03  0.20000000000E+03 0.  0.
</event>
<event>
 5    1  0.6487493E-012  0.2332053E+03  0.7957747E-01  0.4529704E+00
         13   -1    0    0    0    0  0.00000000000E+00  0.00000000000E+00  0.49999998884E+03  0.50000000000E+03  0.10566000000E+00 0. -1.
        994   -1    0    0    0    0 -0.00000000000E+00 -0.00000000000E+00  0.00000000000E+00  0.13100000000E+03  0.13100000000E+03 0.  0.
         13    1    1    2    0    0 -0.92671680836E+01  0.15739218957E+02  0.17291152132E+02  0.25151511361E+02  0.10566000000E+00 0.  1.
        994    1    1    2    0    0  0.57026076138E+01 -0.23734461875E+02  0.78182763976E+02  0.15449721356E+03  0.13100000000E+03 0.  0.
        997    1    1    2    0    0  0.35645604698E+01  0.79952429181E+01  0.40452607273E+03  0.45135127508E+03  0.20000000000E+03 0.  0.
</event>
<event>
 5    1  0.6487493E-012  0.2455819E+03  0.7957747E-01  0.4382065E+00
         13   -1    0    0    0    0  0.00000000000E+00  0.00000000000E+00  0.49999998884E+03  0.50000000000E+03  0.10566000000E+00 0. -1.
        994   -1    0    0    0    0 -0.00000000000E+00 -0.00000000000E+00  0.00000000000E+00  0.13100000000E+03  0.13100000000E+03 0.  0.
         13    1    1    2    0    0  0.56963620326E+01  0.12720760375E+02 -0.86276655661E+01  0.16392500178E+02  0.10566000000E+00 0.  1.
        994    1    1    2    0    0 -0.74035987011E-01 -0.46838065994E+02  0.16835605195E+03  0.21840002320E+03  0.13100000000E+03 0.  0.
        997    1    1    2    0    0 -0.56223260456E+01  0.34117305619E+02  0.34027160245E+03  0.39620747662E+03  0.20000000000E+03 0.  0.
</event>
<event>
 5    1  0.6487493E-012  0.2440092E+03  0.7957747E-01  0.4399843E+00
         13   -1    0    0    0    0  0.00000000000E+00  0.00000000000E+00  0.49999998884E+03  0.50000000000E+03  0.10566000000E+00 0. -1.
        994   -1    0    0    0    0 -0.00000000000E+00 -0.00000000000E+00  0.00000000000E+00  0.13100000000E+03  0.13100000000E+03 0.  0.
         13    1    1    2    0    0 -0.24314696629E+01  0.21242208277E+02  0.39789776713E+01  0.21748261644E+02  0.10566000000E+00 0.  1.
        994    1    1    2    0    0  0.22841757262E+02  0.13298980875E+01  0.10666369569E+03  0.17047480307E+03  0.13100000000E+03 0.  0.
        997    1    1    2    0    0 -0.20410287599E+02 -0.22572106364E+02  0.38935731547E+03  0.43877693528E+03  0.20000000000E+03 0.  0.
</event>
<event>
 5    1  0.6487493E-012  0.2384071E+03  0.7957747E-01  0.4465428E+00
         13   -1    0    0    0    0  0.00000000000E+00  0.00000000000E+00  0.49999998884E+03  0.50000000000E+03  0.10566000000E+00 0. -1.
        994   -1    0    0    0    0 -0.00000000000E+00 -0.00000000000E+00  0.00000000000E+00  0.13100000000E+03  0.13100000000E+03 0.  0.
         13    1    1    2    0    0  0.11013985192E+01  0.28522672152E+02  0.35837323680E+02  0.45815726972E+02  0.10566000000E+00 0.  1.
        994    1    1    2    0    0 -0.60710233734E+02 -0.17094648844E+02  0.16070819787E+03  0.21671659918E+03  0.13100000000E+03 0.  0.
        997    1    1    2    0    0  0.59608835215E+02 -0.11428023308E+02  0.30345446729E+03  0.36846767385E+03  0.20000000000E+03 0.  0.
</event>
<event>
 5    1  0.6487493E-012  0.2307160E+03  0.7957747E-01  0.4561697E+00
         13   -1    0    0    0    0  0.00000000000E+00  0.00000000000E+00  0.49999998884E+03  0.50000000000E+03  0.10566000000E+00 0.  1.
        994   -1    0    0    0    0 -0.00000000000E+00 -0.00000000000E+00  0.00000000000E+00  0.13100000000E+03  0.13100000000E+03 0.  0.
         13    1    1    2    0    0  0.99645088098E+01 -0.11684421447E+02  0.18945821659E+02  0.24387957331E+02  0.10566000000E+00 0. -1.
        994    1    1    2    0    0 -0.92783569406E+01  0.16782923630E+02  0.70713701345E+02  0.15009724178E+03  0.13100000000E+03 0.  0.
        997    1    1    2    0    0 -0.68615186917E+00 -0.50985021831E+01  0.41034046583E+03  0.45651480089E+03  0.20000000000E+03 0.  0.
</event>
<event>
 5    1  0.6487493E-012  0.2372004E+03  0.7957747E-01  0.4480038E+00
         13   -1    0    0    0    0  0.00000000000E+00  0.00000000000E+00  0.49999998884E+03  0.50000000000E+03  0.10566000000E+00 0.  1.
        994   -1    0    0    0    0 -0.00000000000E+00 -0.00000000000E+00  0.00000000000E+00  0.13100000000E+03  0.13100000000E+03 0.  0.
         13    1    1    2    0    0 -0.29970790917E+01  0.11894281025E+02 -0.13589791781E+01  0.12341571725E+02  0.10566000000E+00 0. -1.
        994    1    1    2    0    0  0.54950618808E+02  0.36680116764E+02  0.16376544831E+03  0.21987524539E+03  0.13100000000E+03 0.  0.
        997    1    1    2    0    0 -0.51953539717E+02 -0.48574397790E+02  0.33759351970E+03  0.39878318289E+03  0.20000000000E+03 0.  0.
</event>
<event>
 5    1  0.6487493E-012  0.2483275E+03  0.7957747E-01  0.4351662E+00
         13   -1    0    0    0    0  0.00000000000E+00  0.00000000000E+00  0.49999998884E+03  0.50000000000E+03  0.10566000000E+00 0.  1.
        994   -1    0    0    0    0 -0.00000000000E+00 -0.00000000000E+00  0.00000000000E+00  0.13100000000E+03  0.13100000000E+03 0.  0.
         13    1    1    2    0    0  0.80142619330E+01  0.29183323907E+02  0.12064248932E+02  0.32579933317E+02  0.10566000000E+00 0. -1.
        994    1    1    2    0    0  0.14187459317E+02 -0.67265361905E+01  0.11948848345E+03  0.17800288753E+03  0.13100000000E+03 0.  0.
        997    1    1    2    0    0 -0.22201721250E+02 -0.22456787717E+02  0.36844725645E+03  0.42041717915E+03  0.20000000000E+03 0.  0.
</event>
<event>
 5    1  0.6487493E-012  0.2502952E+03  0.7957747E-01  0.4330352E+00
         13   -1    0    0    0    0  0.00000000000E+00  0.00000000000E+00  0.49999998884E+03  0.50000000000E+03  0.10566000000E+00 0. -1.
        994   -1    0    0    0    0 -0.00000000000E+00 -0.00000000000E+00  0.00000000000E+00  0.13100000000E+03  0.13100000000E+03 0.  0.
         13    1    1    2    0    0 -0.14721327507E+02 -0.24961297213E+02  0.46595702395E+01  0.29351432690E+02  0.10566000000E+00 0.  1.
        994    1    1    2    0    0  0.15418688167E+02  0.91969085061E+01  0.13340994270E+03  0.18783378791E+03  0.13100000000E+03 0.  0.
        997    1    1    2    0    0 -0.69736065982E+00  0.15764388707E+02  0.36193047590E+03  0.41381477940E+03  0.20000000000E+03 0.  0.
</event>
<event>
 5    1  0.6487493E-012  0.2465062E+03  0.7957747E-01  0.4371741E+00
         13   -1    0    0    0    0  0.00000000000E+00  0.00000000000E+00  0.49999998884E+03  0.50000000000E+03  0.10566000000E+00 0.  1.
        994   -1    0    0    0    0 -0.00000000000E+00 -0.00000000000E+00  0.00000000000E+00  0.13100000000E+03  0.13100000000E+03 0.  0.
         13    1    1    2    0    0  0.33629666128E+00  0.29162142451E+02  0.91254367874E+01  0.30558606126E+02  0.10566000000E+00 0. -1.
        994    1    1    2    0    0  0.79976270482E+01 -0.29324539477E+02  0.12610352768E+03  0.18435560840E+03  0.13100000000E+03 0.  0.
        997    1    1    2    0    0 -0.83339237095E+01  0.16239702677E+00  0.36477102437E+03  0.41608578548E+03  0.20000000000E+03 0.  0.
</event>
<event>
 5    1  0.6487493E-012  0.2469327E+03  0.7957747E-01  0.4367008E+00
         13   -1    0    0    0    0  0.00000000000E+00  0.00000000000E+00  0.49999998884E+03  0.50000000000E+03  0.10566000000E+00 0.  1.
        994   -1    0    0    0    0 -0.00000000000E+00 -0.00000000000E+00  0.00000000000E+00  0.13100000000E+03  0.13100000000E+03 0.  0.
         13    1    1    2    0    0 -0.82733164207E+01  0.36141060521E+02  0.42649865336E+02  0.56512354378E+02  0.10566000000E+00 0. -1.
        994    1    1    2    0    0 -0.27487858172E+02  0.23020525611E+00  0.12430351023E+03  0.18266909426E+03  0.13100000000E+03 0.  0.
        997    1    1    2    0    0  0.35761174592E+02 -0.36371265777E+02  0.33304661327E+03  0.39181855136E+03  0.20000000000E+03 0.  0.
</event>
<event>
 5    1  0.6512872E-012  0.2397355E+03  0.7957747E-01  0.4449548E+00
         13   -1    0    0    0    0  0.00000000000E+00  0.00000000000E+00  0.49999998884E+03  0.50000000000E+03  0.10566000000E+00 0. -1.
        994   -1    0    0    0    0 -0.00000000000E+00 -0.00000000000E+00  0.00000000000E+00  0.13100000000E+03  0.13100000000E+03 0.  0.
         13    1    1    2    0    0 -0.98240152118E+01  0.11625972812E+02  0.12716322701E+01  0.15274250599E+02  0.10566000000E+00 0.  1.
        994    1    1    2    0    0 -0.26031129309E+02 -0.74179756649E+01  0.96086522995E+02  0.16470053417E+03  0.13100000000E+03 0.  0.
        997    1    1    2    0    0  0.35855144521E+02 -0.42079971471E+01  0.40264183357E+03  0.45102521523E+03  0.20000000000E+03 0.  0.
</event>
<event>
 5    1  0.6487493E-012  0.2479421E+03  0.7957747E-01  0.4355881E+00
         13   -1    0    0    0    0  0.00000000000E+00  0.00000000000E+00  0.49999998884E+03  0.50000000000E+03  0.10566000000E+00 0.  1.
        994   -1    0    0    0    0 -0.00000000000E+00 -0.00000000000E+00  0.00000000000E+00  0.13100000000E+03  0.13100000000E+03 0.  0.
         13    1    1    2    0    0  0.76997408966E+01  0.20380725536E+02 -0.25268016839E+00  0.21788414228E+02  0.10566000000E+00 0. -1.
        994    1    1    2    0    0  0.12321338659E+02 -0.80353397117E+01  0.11692610818E+03  0.17620753912E+03  0.13100000000E+03 0.  0.
        997    1    1    2    0    0 -0.20021079555E+02 -0.12345385825E+02  0.38332656083E+03  0.43300404665E+03  0.20000000000E+03 0.  0.
</event>
<event>
 5    1  0.6487493E-012  0.2347180E+03  0.7957747E-01  0.4510660E+00
         13   -1    0    0    0    0  0.00000000000E+00  0.00000000000E+00  0.49999998884E+03  0.50000000000E+03  0.10566000000E+00 0.  1.
        994   -1    0    0    0    0 -0.00000000000E+00 -0.00000000000E+00  0.00000000000E+00  0.13100000000E+03  0.13100000000E+03 0.  0.
         13    1    1    2    0    0 -0.89499729860E+01 -0.20306662368E+02  0.25608846233E+02  0.33886379601E+02  0.10566000000E+00 0. -1.
        994    1    1    2    0    0  0.17256165522E+02  0.18220524625E+02  0.81898505885E+02  0.15651877853E+03  0.13100000000E+03 0.  0.
        997    1    1    2    0    0 -0.83061925356E+01  0.20861377432E+01  0.39249263672E+03  0.44059484187E+03  0.20000000000E+03 0.  0.
</event>
<event>
 5    1  0.6487493E-012  0.2400783E+03  0.7957747E-01  0.4445484E+00
         13   -1    0    0    0    0  0.00000000000E+00  0.00000000000E+00  0.49999998884E+03  0.50000000000E+03  0.10566000000E+00 0. -1.
        994   -1    0    0    0    0 -0.00000000000E+00 -0.00000000000E+00  0.00000000000E+00  0.13100000000E+03  0.13100000000E+03 0.  0.
         13    1    1    2    0    0  0.18861736871E+01  0.12728423613E+02 -0.21390016537E+01  0.13044420683E+02  0.10566000000E+00 0.  1.
        994    1    1    2    0    0 -0.22519747862E+02 -0.19010042705E+01  0.93878879469E+02  0.16274211769E+03  0.13100000000E+03 0.  0.
        997    1    1    2    0    0  0.20633574175E+02 -0.10827419342E+02  0.40826011102E+03  0.45521346162E+03  0.20000000000E+03 0.  0.
</event>
<event>
 5    1  0.6487493E-012  0.2447808E+03  0.7957747E-01  0.4391087E+00
         13   -1    0    0    0    0  0.00000000000E+00  0.00000000000E+00  0.49999998884E+03  0.50000000000E+03  0.10566000000E+00 0. -1.
        994   -1    0    0    0    0 -0.00000000000E+00 -0.00000000000E+00  0.00000000000E+00  0.13100000000E+03  0.13100000000E+03 0.  0.
         13    1    1    2    0    0 -0.18456881513E+02  0.33688609368E+02  0.58335185664E+02  0.69846860537E+02  0.10566000000E+00 0.  1.
        994    1    1    2    0    0  0.27299506096E+02 -0.15181024630E+01  0.11385856586E+03  0.17570526653E+03  0.13100000000E+03 0.  0.
        997    1    1    2    0    0 -0.88426245825E+01 -0.32170506905E+02  0.32780623732E+03  0.38544787293E+03  0.20000000000E+03 0.  0.
</event>
<event>
 5    1  0.6487493E-012  0.2385353E+03  0.7957747E-01  0.4463886E+00
         13   -1    0    0    0    0  0.00000000000E+00  0.00000000000E+00  0.49999998884E+03  0.50000000000E+03  0.10566000000E+00 0.  1.
        994   -1    0    0    0    0 -0.00000000000E+00 -0.00000000000E+00  0.00000000000E+00  0.13100000000E+03  0.13100000000E+03 0.  0.
         13    1    1    2    0    0  0.20000473588E+00 -0.25138432481E+02  0.72566688022E+02  0.76797891664E+02  0.10566000000E+00 0. -1.
        994    1    1    2    0    0  0.12389449932E+02  0.16726145464E-01  0.85012557831E+02  0.15665769607E+03  0.13100000000E+03 0.  0.
        997    1    1    2    0    0 -0.12589454668E+02  0.25121706335E+02  0.34242074298E+03  0.39754441227E+03  0.20000000000E+03 0.  0.
</event>
<event>
 5    1  0.6487493E-012  0.2408387E+03  0.7957747E-01  0.4436516E+00
         13   -1    0    0    0    0  0.00000000000E+00  0.00000000000E+00  0.49999998884E+03  0.50000000000E+03  0.10566000000E+00 0.  1.
        994   -1    0    0    0    0 -0.00000000000E+00 -0.00000000000E+00  0.00000000000E+00  0.13100000000E+03  0.13100000000E+03 0.  0.
         13    1    1    2    0    0 -0.39633257568E+01  0.30043599297E+02  0.36198744806E+02  0.47208962066E+02  0.10566000000E+00 0. -1.
        994    1    1    2    0    0  0.22612932433E+02 -0.43691742700E+01  0.96367618268E+02  0.16425027320E+03  0.13100000000E+03 0.  0.
        997    1    1    2    0    0 -0.18649606677E+02 -0.25674425027E+02  0.36743362576E+03  0.41954076473E+03  0.20000000000E+03 0.  0.
</event>
<event>
 5    1  0.6487493E-012  0.2385008E+03  0.7957747E-01  0.4464302E+00
         13   -1    0    0    0    0  0.00000000000E+00  0.00000000000E+00  0.49999998884E+03  0.50000000000E+03  0.10566000000E+00 0. -1.
        994   -1    0    0    0    0 -0.00000000000E+00 -0.00000000000E+00  0.00000000000E+00  0.13100000000E+03  0.13100000000E+03 0.  0.
         13    1    1    2    0    0  0.73386573232E+01  0.13824553342E+02  0.15625296566E+01  0.15729807036E+02  0.10566000000E+00 0.  1.
        994    1    1    2    0    0 -0.35803227440E+02 -0.53213699712E+01  0.10090574525E+03  0.16927243573E+03  0.13100000000E+03 0.  0.
        997    1    1    2    0    0  0.28464570117E+02 -0.85031833712E+01  0.39753171392E+03  0.44599775723E+03  0.20000000000E+03 0.  0.
</event>
<event>
 5    1  0.6487493E-012  0.2403120E+03  0.7957747E-01  0.4442720E+00
         13   -1    0    0    0    0  0.00000000000E+00  0.00000000000E+00  0.49999998884E+03  0.50000000000E+03  0.10566000000E+00 0.  1.
        994   -1    0    0    0    0 -0.00000000000E+00 -0.00000000000E+00  0.00000000000E+00  0.13100000000E+03  0.13100000000E+03 0.  0.
         13    1    1    2    0    0  0.42921111493E-01  0.25834756617E+02  0.51655690812E+01  0.26346361412E+02  0.10566000000E+00 0. -1.
        994    1    1    2    0    0 -0.19464932975E+02 -0.56914889505E+02  0.20662996146E+03  0.25194271023E+03  0.13100000000E+03 0.  0.
        997    1    1    2    0    0  0.19422011864E+02  0.31080132888E+02  0.28820445829E+03  0.35271092836E+03  0.20000000000E+03 0.  0.
</event>
<event>
 5    1  0.6487493E-012  0.2396174E+03  0.7957747E-01  0.4450950E+00
         13   -1    0    0    0    0  0.00000000000E+00  0.00000000000E+00  0.49999998884E+03  0.50000000000E+03  0.10566000000E+00 0. -1.
        994   -1    0    0    0    0 -0.00000000000E+00 -0.00000000000E+00  0.00000000000E+00  0.13100000000E+03  0.13100000000E+03 0.  0.
         13    1    1    2    0    0 -0.77463412578E+01 -0.18933686823E+02  0.80740130784E+01  0.21992979580E+02  0.10566000000E+00 0.  1.
        994    1    1    2    0    0 -0.13471000342E+02  0.20362990151E+02  0.93791036278E+02  0.16295360599E+03  0.13100000000E+03 0.  0.
        997    1    1    2    0    0  0.21217341600E+02 -0.14293033281E+01  0.39813493948E+03  0.44605341443E+03  0.20000000000E+03 0.  0.
</event>
<event>
 5    1  0.6487493E-012  0.2429445E+03  0.7957747E-01  0.4412032E+00
         13   -1    0    0    0    0  0.00000000000E+00  0.00000000000E+00  0.49999998884E+03  0.50000000000E+03  0.10566000000E+00 0. -1.
        994   -1    0    0    0    0 -0.00000000000E+00 -0.00000000000E+00  0.00000000000E+00  0.13100000000E+03  0.13100000000E+03 0.  0.
         13    1    1    2    0    0  0.10273194068E+02  0.14168626339E+02  0.12572784699E+01  0.17546521076E+02  0.10566000000E+00 0.  1.
        994    1    1    2    0    0  0.15575579274E+02  0.40782190333E+02  0.13031293090E+03  0.18986375557E+03  0.13100000000E+03 0.  0.
        997    1    1    2    0    0 -0.25848773342E+02 -0.54950816672E+02  0.36842977947E+03  0.42358972336E+03  0.20000000000E+03 0.  0.
</event>
<event>
 5    1  0.6487493E-012  0.2352727E+03  0.7957747E-01  0.4503751E+00
         13   -1    0    0    0    0  0.00000000000E+00  0.00000000000E+00  0.49999998884E+03  0.50000000000E+03  0.10566000000E+00 0.  1.
        994   -1    0    0    0    0 -0.00000000000E+00 -0.00000000000E+00  0.00000000000E+00  0.13100000000E+03  0.13100000000E+03 0.  0.
         13    1    1    2    0    0 -0.17767214981E+02 -0.11359948385E+02  0.15709595662E+02  0.26296861322E+02  0.10566000000E+00 0. -1.
        994    1    1    2    0    0  0.13935300340E+02  0.44088244780E+02  0.10319402802E+03  0.17305482756E+03  0.13100000000E+03 0.  0.
        997    1    1    2    0    0  0.38319146416E+01 -0.32728296395E+02  0.38109636516E+03  0.43164831112E+03  0.20000000000E+03 0.  0.
</event>
<event>
 5    1  0.6487493E-012  0.2292841E+03  0.7957747E-01  0.4580482E+00
         13   -1    0    0    0    0  0.00000000000E+00  0.00000000000E+00  0.49999998884E+03  0.50000000000E+03  0.10566000000E+00 0.  1.
        994   -1    0    0    0    0 -0.00000000000E+00 -0.00000000000E+00  0.00000000000E+00  0.13100000000E+03  0.13100000000E+03 0.  0.
         13    1    1    2    0    0 -0.10596303218E+02  0.86969275874E+01  0.26557348459E+02  0.29886821721E+02  0.10566000000E+00 0. -1.
        994    1    1    2    0    0  0.24842415283E+02  0.81808619371E+01  0.71260030037E+02  0.15140364586E+03  0.13100000000E+03 0.  0.
        997    1    1    2    0    0 -0.14246112066E+02 -0.16877789525E+02  0.40218261034E+03  0.44970953242E+03  0.20000000000E+03 0.  0.
</event>
<event>
 5    1  0.6487493E-012  0.2335199E+03  0.7957747E-01  0.4525719E+00
         13   -1    0    0    0    0  0.00000000000E+00  0.00000000000E+00  0.49999998884E+03  0.50000000000E+03  0.10566000000E+00 0.  1.
        994   -1    0    0    0    0 -0.00000000000E+00 -0.00000000000E+00  0.00000000000E+00  0.13100000000E+03  0.13100000000E+03 0.  0.
         13    1    1    2    0    0  0.16012275661E+02 -0.65699339852E-02  0.88703570541E+01  0.18305393012E+02  0.10566000000E+00 0. -1.
        994    1    1    2    0    0 -0.32847311234E+02 -0.23140598924E+02  0.91112241259E+02  0.16455052015E+03  0.13100000000E+03 0.  0.
        997    1    1    2    0    0  0.16835035573E+02  0.23147168858E+02  0.40001739052E+03  0.44814408684E+03  0.20000000000E+03 0.  0.
</event>
<event>
 5    1  0.6487493E-012  0.2357804E+03  0.7957747E-01  0.4497461E+00
         13   -1    0    0    0    0  0.00000000000E+00  0.00000000000E+00  0.49999998884E+03  0.50000000000E+03  0.10566000000E+00 0.  1.
        994   -1    0    0    0    0 -0.00000000000E+00 -0.00000000000E+00  0.00000000000E+00  0.13100000000E+03  0.13100000000E+03 0.  0.
         13    1    1    2    0    0  0.21639565956E+02  0.19192694463E+00  0.18727425189E+02  0.28618792234E+02  0.10566000000E+00 0. -1.
        994    1    1    2    0    0 -0.21971102411E+02 -0.24263260817E+02  0.89926245297E+02  0.16223182413E+03  0.13100000000E+03 0.  0.
        997    1    1    2    0    0  0.33153645473E+00  0.24071333873E+02  0.39134631835E+03  0.44014938364E+03  0.20000000000E+03 0.  0.
</event>
<event>
 5    1  0.6487493E-012  0.2363419E+03  0.7957747E-01  0.4490542E+00
         13   -1    0    0    0    0  0.00000000000E+00  0.00000000000E+00  0.49999998884E+03  0.50000000000E+03  0.10566000000E+00 0. -1.
        994   -1    0    0    0    0 -0.00000000000E+00 -0.00000000000E+00  0.00000000000E+00  0.13100000000E+03  0.13100000000E+03 0.  0.
         13    1    1    2    0    0 -0.80809117309E+01 -0.11386657927E+02  0.26314963620E+01  0.14208907428E+02  0.10566000000E+00 0.  1.
        994    1    1    2    0    0 -0.71543443600E+01  0.20005667230E+02  0.83491394850E+02  0.15679038357E+03  0.13100000000E+03 0.  0.
        997    1    1    2    0    0  0.15235256091E+02 -0.86190093035E+01  0.41387709762E+03  0.46000070901E+03  0.20000000000E+03 0.  0.
</event>
<event>
 5    1  0.6487493E-012  0.2327063E+03  0.7957747E-01  0.4536051E+00
         13   -1    0    0    0    0  0.00000000000E+00  0.00000000000E+00  0.49999998884E+03  0.50000000000E+03  0.10566000000E+00 0. -1.
        994   -1    0    0    0    0 -0.00000000000E+00 -0.00000000000E+00  0.00000000000E+00  0.13100000000E+03  0.13100000000E+03 0.  0.
         13    1    1    2    0    0 -0.11716335548E+02  0.12119100432E+02  0.17577332836E+02  0.24354032677E+02  0.10566000000E+00 0.  1.
        994    1    1    2    0    0  0.17061203456E+01 -0.84108967676E+01  0.71444677184E+02  0.14946235623E+03  0.13100000000E+03 0.  0.
        997    1    1    2    0    0  0.10010215203E+02 -0.37082036644E+01  0.41097797882E+03  0.45718361110E+03  0.20000000000E+03 0.  0.
</event>
<event>
 5    1  0.6487493E-012  0.2328327E+03  0.7957747E-01  0.4534440E+00
         13   -1    0    0    0    0  0.00000000000E+00  0.00000000000E+00  0.49999998884E+03  0.50000000000E+03  0.10566000000E+00 0.  1.
        994   -1    0    0    0    0 -0.00000000000E+00 -0.00000000000E+00  0.00000000000E+00  0.13100000000E+03  0.13100000000E+03 0.  0.
         13    1    1    2    0    0 -0.15656378902E+01 -0.17234845595E+02  0.21884297957E+02  0.27900264977E+02  0.10566000000E+00 0. -1.
        994    1    1    2    0    0  0.19835461641E+02 -0.54917186523E+01  0.75483423309E+02  0.15258555537E+03  0.13100000000E+03 0.  0.
        997    1    1    2    0    0 -0.18269823751E+02  0.22726564247E+02  0.40263226757E+03  0.45051417966E+03  0.20000000000E+03 0.  0.
</event>
<event>
 5    1  0.6487493E-012  0.2503583E+03  0.7957747E-01  0.4329675E+00
         13   -1    0    0    0    0  0.00000000000E+00  0.00000000000E+00  0.49999998884E+03  0.50000000000E+03  0.10566000000E+00 0. -1.
        994   -1    0    0    0    0 -0.00000000000E+00 -0.00000000000E+00  0.00000000000E+00  0.13100000000E+03  0.13100000000E+03 0.  0.
         13    1    1    2    0    0  0.33160034178E+01 -0.16522663137E+02 -0.88643111079E+01  0.19041571660E+02  0.10566000000E+00 0.  1.
        994    1    1    2    0    0  0.28712022369E+02 -0.10671165608E+02  0.17905307300E+03  0.22396262401E+03  0.13100000000E+03 0.  0.
        997    1    1    2    0    0 -0.32028025787E+02  0.27193828745E+02  0.32981122695E+03  0.38799580433E+03  0.20000000000E+03 0.  0.
</event>
<event>
 5    1  0.6487493E-012  0.2496136E+03  0.7957747E-01  0.4337689E+00
         13   -1    0    0    0    0  0.00000000000E+00  0.00000000000E+00  0.49999998884E+03  0.50000000000E+03  0.10566000000E+00 0. -1.
        994   -1    0    0    0    0 -0.00000000000E+00 -0.00000000000E+00  0.00000000000E+00  0.13100000000E+03  0.13100000000E+03 0.  0.
         13    1    1    2    0    0  0.10437004108E+02  0.20369326673E+02 -0.17310505174E+00  0.22888461138E+02  0.10566000000E+00 0.  1.
        994    1    1    2    0    0  0.17186577507E+02  0.60158975232E+01  0.12897369367E+03  0.18473435828E+03  0.13100000000E+03 0.  0.
        997    1    1    2    0    0 -0.27623581615E+02 -0.26385224196E+02  0.37119940022E+03  0.42337718059E+03  0.20000000000E+03 0.  0.
</event>
<event>
 5    1  0.6487493E-012  0.2340034E+03  0.7957747E-01  0.4519620E+00
         13   -1    0    0    0    0  0.00000000000E+00  0.00000000000E+00  0.49999998884E+03  0.50000000000E+03  0.10566000000E+00 0.  1.
        994   -1    0    0    0    0 -0.00000000000E+00 -0.00000000000E+00  0.00000000000E+00  0.13100000000E+03  0.13100000000E+03 0.  0.
         13    1    1    2    0    0  0.96798719949E+01  0.20706734992E+02  0.65264171014E+02  0.69151225427E+02  0.10566000000E+00 0. -1.
        994    1    1    2    0    0 -0.20340863447E+02 -0.61469636527E+02  0.13422443853E+03  0.19841740558E+03  0.13100000000E+03 0.  0.
        997    1    1    2    0    0  0.10660991452E+02  0.40762901535E+02  0.30051137929E+03  0.36343136899E+03  0.20000000000E+03 0.  0.
</event>
<event>
 5    1  0.6487493E-012  0.2436531E+03  0.7957747E-01  0.4403905E+00
         13   -1    0    0    0    0  0.00000000000E+00  0.00000000000E+00  0.49999998884E+03  0.50000000000E+03  0.10566000000E+00 0.  1.
        994   -1    0    0    0    0 -0.00000000000E+00 -0.00000000000E+00  0.00000000000E+00  0.13100000000E+03  0.13100000000E+03 0.  0.
         13    1    1    2    0    0  0.25932204298E+02 -0.14610013328E+02  0.20834271918E+02  0.36331938560E+02  0.10566000000E+00 0. -1.
        994    1    1    2    0    0 -0.65077683323E+01  0.93143178657E+01  0.98866100183E+02  0.16451326187E+03  0.13100000000E+03 0.  0.
        997    1    1    2    0    0 -0.19424435966E+02  0.52956954621E+01  0.38029961674E+03  0.43015479957E+03  0.20000000000E+03 0.  0.
</event>
<event>
 5    1  0.6487493E-012  0.2365498E+03  0.7957747E-01  0.4487990E+00
         13   -1    0    0    0    0  0.00000000000E+00  0.00000000000E+00  0.49999998884E+03  0.50000000000E+03  0.10566000000E+00 0.  1.
        994   -1    0    0    0    0 -0.00000000000E+00 -0.00000000000E+00  0.00000000000E+00  0.13100000000E+03  0.13100000000E+03 0.  0.
         13    1    1    2    0    0 -0.18538575745E+00  0.22941279251E+02  0.10477139982E+02  0.25221385525E+02  0.10566000000E+00 0. -1.
        994    1    1    2    0    0  0.12701350699E+02 -0.62660293041E+02  0.14740966424E+03  0.20731195273E+03  0.13100000000E+03 0.  0.
        997    1    1    2    0    0 -0.12515964941E+02  0.39719013790E+02  0.34211318462E+03  0.39846666175E+03  0.20000000000E+03 0.  0.
</event>
<event>
 5    1  0.6487493E-012  0.2329846E+03  0.7957747E-01  0.4532507E+00
         13   -1    0    0    0    0  0.00000000000E+00  0.00000000000E+00  0.49999998884E+03  0.50000000000E+03  0.10566000000E+00 0. -1.
        994   -1    0    0    0    0 -0.00000000000E+00 -0.00000000000E+00  0.00000000000E+00  0.13100000000E+03  0.13100000000E+03 0.  0.
         13    1    1    2    0    0 -0.10276235115E+02 -0.44613932106E+01  0.37643776292E+01  0.11818914522E+02  0.10566000000E+00 0.  1.
        994    1    1    2    0    0 -0.24517933665E+01 -0.25223966598E+02  0.78236878682E+02  0.15467471987E+03  0.13100000000E+03 0.  0.
        997    1    1    2    0    0  0.12728028481E+02  0.29685359809E+02  0.41799873252E+03  0.46450636561E+03  0.20000000000E+03 0.  0.
</event>
<event>
 5    1  0.6487493E-012  0.2402874E+03  0.7957747E-01  0.4443011E+00
         13   -1    0    0    0    0  0.00000000000E+00  0.00000000000E+00  0.49999998884E+03  0.50000000000E+03  0.10566000000E+00 0.  1.
        994   -1    0    0    0    0 -0.00000000000E+00 -0.00000000000E+00  0.00000000000E+00  0.13100000000E+03  0.13100000000E+03 0.  0.
         13    1    1    2    0    0 -0.19239295054E+02 -0.75700442093E+01  0.77476317880E+02  0.80187574098E+02  0.10566000000E+00 0. -1.
        994    1    1    2    0    0 -0.37996530848E+02  0.80522336708E+01  0.11014404704E+03  0.17550295132E+03  0.13100000000E+03 0.  0.
        997    1    1    2    0    0  0.57235825901E+02 -0.48218946152E+00  0.31237962392E+03  0.37530947458E+03  0.20000000000E+03 0.  0.
</event>
<event>
 5    1  0.6487493E-012  0.2375440E+03  0.7957747E-01  0.4475861E+00
         13   -1    0    0    0    0  0.00000000000E+00  0.00000000000E+00  0.49999998884E+03  0.50000000000E+03  0.10566000000E+00 0. -1.
        994   -1    0    0    0    0 -0.00000000000E+00 -0.00000000000E+00  0.00000000000E+00  0.13100000000E+03  0.13100000000E+03 0.  0.
         13    1    1    2    0    0  0.95627341561E+01 -0.20370621623E+02  0.16748240804E+02  0.28052145086E+02  0.10566000000E+00 0.  1.
        994    1    1    2    0    0  0.18136450363E+02  0.26017331891E+02  0.93734564231E+02  0.16417369132E+03  0.13100000000E+03 0.  0.
        997    1    1    2    0    0 -0.27699184520E+02 -0.56467102680E+01  0.38951718380E+03  0.43877416359E+03  0.20000000000E+03 0.  0.
</event>
<event>
 5    1  0.6487493E-012  0.2486210E+03  0.7957747E-01  0.4348458E+00
         13   -1    0    0    0    0  0.00000000000E+00  0.00000000000E+00  0.49999998884E+03  0.50000000000E+03  0.10566000000E+00 0.  1.
        994   -1    0    0    0    0 -0.00000000000E+00 -0.00000000000E+00  0.00000000000E+00  0.13100000000E+03  0.13100000000E+03 0.  0.
         13    1    1    2    0    0 -0.14959973043E+02 -0.15842022197E+02 -0.32651227219E+01  0.22032763131E+02  0.10566000000E+00 0. -1.
        994    1    1    2    0    0 -0.32116247752E+02 -0.12464145234E+02  0.20184103188E+03  0.24307943236E+03  0.13100000000E+03 0.  0.
        997    1    1    2    0    0  0.47076220795E+02  0.28306167431E+02  0.30142407967E+03  0.36588780451E+03  0.20000000000E+03 0.  0.
</event>
<event>
 5    1  0.6487493E-012  0.2422883E+03  0.7957747E-01  0.4419608E+00
         13   -1    0    0    0    0  0.00000000000E+00  0.00000000000E+00  0.49999998884E+03  0.50000000000E+03  0.10566000000E+00 0. -1.
        994   -1    0    0    0    0 -0.00000000000E+00 -0.00000000000E+00  0.00000000000E+00  0.13100000000E+03  0.13100000000E+03 0.  0.
         13    1    1    2    0    0  0.23427108552E+02  0.18932801462E+01  0.46773150356E+01  0.23964606502E+02  0.10566000000E+00 0.  1.
        994    1    1    2    0    0 -0.27861785412E+02 -0.45094106101E+02  0.15364734415E+03  0.20875407506E+03  0.13100000000E+03 0.  0.
        997    1    1    2    0    0  0.44346768596E+01  0.43200825955E+02  0.34167532965E+03  0.39828131843E+03  0.20000000000E+03 0.  0.
</event>
<event>
 5    1  0.6487493E-012  0.2462778E+03  0.7957747E-01  0.4374283E+00
         13   -1    0    0    0    0  0.00000000000E+00  0.00000000000E+00  0.49999998884E+03  0.50000000000E+03  0.10566000000E+00 0. -1.
        994   -1    0    0    0    0 -0.00000000000E+00 -0.00000000000E+00  0.00000000000E+00  0.13100000000E+03  0.13100000000E+03 0.  0.
         13    1    1    2    0    0 -0.53203919002E+01  0.12215964657E+02 -0.10259041521E+02  0.16816523405E+02  0.10566000000E+00 0.  1.
        994    1    1    2    0    0 -0.11451050565E+02 -0.43187384104E+02  0.19315348132E+03  0.23762479680E+03  0.13100000000E+03 0.  0.
        997    1    1    2    0    0  0.16771442465E+02  0.30971419448E+02  0.31710554903E+03  0.37655867980E+03  0.20000000000E+03 0.  0.
</event>
<event>
 5    1  0.6487493E-012  0.2504002E+03  0.7957747E-01  0.4329226E+00
         13   -1    0    0    0    0  0.00000000000E+00  0.00000000000E+00  0.49999998884E+03  0.50000000000E+03  0.10566000000E+00 0. -1.
        994   -1    0    0    0    0 -0.00000000000E+00 -0.00000000000E+00  0.00000000000E+00  0.13100000000E+03  0.13100000000E+03 0.  0.
         13    1    1    2    0    0 -0.40643392226E+01 -0.30702791505E+02  0.91990413148E+01  0.32308107104E+02  0.10566000000E+00 0.  1.
        994    1    1    2    0    0 -0.27421814749E+02 -0.56133047071E+01  0.15463872415E+03  0.20459130021E+03  0.13100000000E+03 0.  0.
        997    1    1    2    0    0  0.31486153972E+02  0.36316096212E+02  0.33616222337E+03  0.39410059269E+03  0.20000000000E+03 0.  0.
</event>
<event>
 5    1  0.6487493E-012  0.2287391E+03  0.7957747E-01  0.4587708E+00
         13   -1    0    0    0    0  0.00000000000E+00  0.00000000000E+00  0.49999998884E+03  0.50000000000E+03  0.10566000000E+00 0.  1.
        994   -1    0    0    0    0 -0.00000000000E+00 -0.00000000000E+00  0.00000000000E+00  0.13100000000E+03  0.13100000000E+03 0.  0.
         13    1    1    2    0    0  0.80515051510E+01 -0.59966917745E+01  0.63676655259E+01  0.11888876134E+02  0.10566000000E+00 0. -1.
        994    1    1    2    0    0 -0.21426738651E+02  0.36288616788E+02  0.81800704231E+02  0.16008848819E+03  0.13100000000E+03 0.  0.
        997    1    1    2    0    0  0.13375233500E+02 -0.30291925013E+02  0.41183161908E+03  0.45902263568E+03  0.20000000000E+03 0.  0.
</event>
<event>
 5    1  0.6487493E-012  0.2493739E+03  0.7957747E-01  0.4340280E+00
         13   -1    0    0    0    0  0.00000000000E+00  0.00000000000E+00  0.49999998884E+03  0.50000000000E+03  0.10566000000E+00 0.  1.
        994   -1    0    0    0    0 -0.00000000000E+00 -0.00000000000E+00  0.00000000000E+00  0.13100000000E+03  0.13100000000E+03 0.  0.
         13    1    1    2    0    0  0.34529945434E+02  0.55648192222E+01  0.21265173618E+02  0.40932909959E+02  0.10566000000E+00 0. -1.
        994    1    1    2    0    0 -0.69533631907E-01  0.17969406883E+02  0.12721766550E+03  0.18348907006E+03  0.13100000000E+03 0.  0.
        997    1    1    2    0    0 -0.34460411802E+02 -0.23534226105E+02  0.35151714972E+03  0.40657801998E+03  0.20000000000E+03 0.  0.
</event>
<event>
 5    1  0.6487493E-012  0.2445963E+03  0.7957747E-01  0.4393175E+00
         13   -1    0    0    0    0  0.00000000000E+00  0.00000000000E+00  0.49999998884E+03  0.50000000000E+03  0.10566000000E+00 0.  1.
        994   -1    0    0    0    0 -0.00000000000E+00 -0.00000000000E+00  0.00000000000E+00  0.13100000000E+03  0.13100000000E+03 0.  0.
         13    1    1    2    0    0 -0.24240275077E+02  0.24976644028E+01  0.86215681273E+01  0.25849020567E+02  0.10566000000E+00 0. -1.
        994    1    1    2    0    0 -0.29785318222E+02 -0.35211531957E+02  0.14941145489E+03  0.20398970567E+03  0.13100000000E+03 0.  0.
        997    1    1    2    0    0  0.54025593299E+02  0.32713867554E+02  0.34196696581E+03  0.40116127377E+03  0.20000000000E+03 0.  0.
</event>
<event>
 5    1  0.6487493E-012  0.2449031E+03  0.7957747E-01  0.4389705E+00
         13   -1    0    0    0    0  0.00000000000E+00  0.00000000000E+00  0.49999998884E+03  0.50000000000E+03  0.10566000000E+00 0. -1.
        994   -1    0    0    0    0 -0.00000000000E+00 -0.00000000000E+00  0.00000000000E+00  0.13100000000E+03  0.13100000000E+03 0.  0.
         13    1    1    2    0    0 -0.25133296843E+02 -0.11978338863E+02  0.17081087285E+02  0.32664015659E+02  0.10566000000E+00 0.  1.
        994    1    1    2    0    0 -0.21817746634E+02  0.76149075917E+01  0.11025295562E+03  0.17277359494E+03  0.13100000000E+03 0.  0.
        997    1    1    2    0    0  0.46951043477E+02  0.43634312712E+01  0.37266594593E+03  0.42556238940E+03  0.20000000000E+03 0.  0.
</event>
<event>
 5    1  0.6487493E-012  0.2349668E+03  0.7957747E-01  0.4507557E+00
         13   -1    0    0    0    0  0.00000000000E+00  0.00000000000E+00  0.49999998884E+03  0.50000000000E+03  0.10566000000E+00 0.  1.
        994   -1    0    0    0    0 -0.00000000000E+00 -0.00000000000E+00  0.00000000000E+00  0.13100000000E+03  0.13100000000E+03 0.  0.
         13    1    1    2    0    0  0.36756751189E+01 -0.18567488692E+02  0.15560343021E+02  0.24503013343E+02  0.10566000000E+00 0. -1.
        994    1    1    2    0    0 -0.20202349540E+02  0.61092718700E+01  0.80281511888E+02  0.15508571591E+03  0.13100000000E+03 0.  0.
        997    1    1    2    0    0  0.16526674421E+02  0.12458216822E+02  0.40415813393E+03  0.45141127074E+03  0.20000000000E+03 0.  0.
</event>
<event>
 5    1  0.6487493E-012  0.2298099E+03  0.7957747E-01  0.4573552E+00
         13   -1    0    0    0    0  0.00000000000E+00  0.00000000000E+00  0.49999998884E+03  0.50000000000E+03  0.10566000000E+00 0. -1.
        994   -1    0    0    0    0 -0.00000000000E+00 -0.00000000000E+00  0.00000000000E+00  0.13100000000E+03  0.13100000000E+03 0.  0.
         13    1    1    2    0    0 -0.14379543617E+02 -0.37996472635E+01  0.24966533258E+02  0.29061100132E+02  0.10566000000E+00 0.  1.
        994    1    1    2    0    0  0.89373529176E+01  0.63090933293E+02  0.11416806767E+03  0.18508292686E+03  0.13100000000E+03 0.  0.
        997    1    1    2    0    0  0.54421906992E+01 -0.59291286030E+02  0.36086538791E+03  0.41685597300E+03  0.20000000000E+03 0.  0.
</event>
<event>
 5    1  0.6487493E-012  0.2386308E+03  0.7957747E-01  0.4462740E+00
         13   -1    0    0    0    0  0.00000000000E+00  0.00000000000E+00  0.49999998884E+03  0.50000000000E+03  0.10566000000E+00 0.  1.
        994   -1    0    0    0    0 -0.00000000000E+00 -0.00000000000E+00  0.00000000000E+00  0.13100000000E+03  0.13100000000E+03 0.  0.
         13    1    1    2    0    0 -0.24539796994E+02 -0.26034123348E+01  0.10307467135E+02  0.26743867243E+02  0.10566000000E+00 0. -1.
        994    1    1    2    0    0  0.55122185294E+02  0.20884463698E+02  0.14471095509E+03  0.20390408691E+03  0.13100000000E+03 0.  0.
        997    1    1    2    0    0 -0.30582388299E+02 -0.18281051363E+02  0.34498156661E+03  0.40035204585E+03  0.20000000000E+03 0.  0.
</event>
<event>
 5    1  0.6487493E-012  0.2365922E+03  0.7957747E-01  0.4487470E+00
         13   -1    0    0    0    0  0.00000000000E+00  0.00000000000E+00  0.49999998884E+03  0.50000000000E+03  0.10566000000E+00 0. -1.
        994   -1    0    0    0    0 -0.00000000000E+00 -0.00000000000E+00  0.00000000000E+00  0.13100000000E+03  0.13100000000E+03 0.  0.
         13    1    1    2    0    0 -0.25438212816E+02  0.11909135664E+02  0.65294777508E+02  0.71079879835E+02  0.10566000000E+00 0.  1.
        994    1    1    2    0    0  0.34576999306E+02 -0.16881964641E+02  0.97666459263E+02  0.16786991057E+03  0.13100000000E+03 0.  0.
        997    1    1    2    0    0 -0.91387864895E+01  0.49728289762E+01  0.33703875207E+03  0.39205020959E+03  0.20000000000E+03 0.  0.
</event>
<event>
 5    1  0.6487493E-012  0.2455412E+03  0.7957747E-01  0.4382521E+00
         13   -1    0    0    0    0  0.00000000000E+00  0.00000000000E+00  0.49999998884E+03  0.50000000000E+03  0.10566000000E+00 0.  1.
        994   -1    0    0    0    0 -0.00000000000E+00 -0.00000000000E+00  0.00000000000E+00  0.13100000000E+03  0.13100000000E+03 0.  0.
         13    1    1    2    0    0  0.42399135438E+02  0.10740860860E+02  0.55799352493E+02  0.70898742447E+02  0.10566000000E+00 0. -1.
        994    1    1    2    0    0 -0.38435693996E+02 -0.10641769054E+02  0.13848646290E+03  0.19475638687E+03  0.13100000000E+03 0.  0.
        997    1    1    2    0    0 -0.39634414418E+01 -0.99091806313E-01  0.30571417345E+03  0.36534487068E+03  0.20000000000E+03 0.  0.
</event>
<event>
 5    1  0.6487493E-012  0.2323654E+03  0.7957747E-01  0.4540406E+00
         13   -1    0    0    0    0  0.00000000000E+00  0.00000000000E+00  0.49999998884E+03  0.50000000000E+03  0.10566000000E+00 0.  1.
        994   -1    0    0    0    0 -0.00000000000E+00 -0.00000000000E+00  0.00000000000E+00  0.13100000000E+03  0.13100000000E+03 0.  0.
         13    1    1    2    0    0 -0.16278723235E+00  0.20359716077E+02  0.27824872763E+02  0.34478678147E+02  0.10566000000E+00 0. -1.
        994    1    1    2    0    0 -0.29850971976E+01 -0.36194353728E+02  0.84681031127E+02  0.16015873089E+03  0.13100000000E+03 0.  0.
        997    1    1    2    0    0  0.31478844300E+01  0.15834637651E+02  0.38749408495E+03  0.43636259096E+03  0.20000000000E+03 0.  0.
</event>
<event>
 5    1  0.6487493E-012  0.2425737E+03  0.7957747E-01  0.4416307E+00
         13   -1    0    0    0    0  0.00000000000E+00  0.00000000000E+00  0.49999998884E+03  0.50000000000E+03  0.10566000000E+00 0. -1.
        994   -1    0    0    0    0 -0.00000000000E+00 -0.00000000000E+00  0.00000000000E+00  0.13100000000E+03  0.13100000000E+03 0.  0.
         13    1    1    2    0    0 -0.27839222109E+02 -0.15872631319E+01  0.18760459848E+02  0.33608149453E+02  0.10566000000E+00 0.  1.
        994    1    1    2    0    0  0.55815063356E+01  0.27923245684E+02  0.10645823713E+03  0.17118766637E+03  0.13100000000E+03 0.  0.
        997    1    1    2    0    0  0.22257715774E+02 -0.26335982552E+02  0.37478129186E+03  0.42620418418E+03  0.20000000000E+03 0.  0.
</event>
<event>
 5    1  0.6487493E-012  0.2283739E+03  0.7957747E-01  0.4592571E+00
         13   -1    0    0    0    0  0.00000000000E+00  0.00000000000E+00  0.49999998884E+03  0.50000000000E+03  0.10566000000E+00 0. -1.
        994   -1    0    0    0    0 -0.00000000000E+00 -0.00000000000E+00  0.00000000000E+00  0.13100000000E+03  0.13100000000E+03 0.  0.
         13    1    1    2    0    0 -0.11113416104E+02 -0.40854268686E+01  0.99542093902E+01  0.15469200975E+02  0.10566000000E+00 0.  1.
        994    1    1    2    0    0  0.58861948583E+02  0.34446778853E+01  0.10139074398E+03  0.17583423376E+03  0.13100000000E+03 0.  0.
        997    1    1    2    0    0 -0.47748532480E+02  0.64074898327E+00  0.38865503547E+03  0.43969656527E+03  0.20000000000E+03 0.  0.
</event>
<event>
 5    1  0.6487493E-012  0.2300827E+03  0.7957747E-01  0.4569972E+00
         13   -1    0    0    0    0  0.00000000000E+00  0.00000000000E+00  0.49999998884E+03  0.50000000000E+03  0.10566000000E+00 0.  1.
        994   -1    0    0    0    0 -0.00000000000E+00 -0.00000000000E+00  0.00000000000E+00  0.13100000000E+03  0.13100000000E+03 0.  0.
         13    1    1    2    0    0  0.15991355678E+02 -0.71534197009E+01  0.41530713414E+02  0.45074451639E+02  0.10566000000E+00 0. -1.
        994    1    1    2    0    0 -0.49504285166E+02  0.17982764926E+02  0.96948574846E+02  0.17127194823E+03  0.13100000000E+03 0.  0.
        997    1    1    2    0    0  0.33512929488E+02 -0.10829345225E+02  0.36152070058E+03  0.41465360014E+03  0.20000000000E+03 0.  0.
</event>
<event>
 5    1  0.6487493E-012  0.2286530E+03  0.7957747E-01  0.4588852E+00
         13   -1    0    0    0    0  0.00000000000E+00  0.00000000000E+00  0.49999998884E+03  0.50000000000E+03  0.10566000000E+00 0. -1.
        994   -1    0    0    0    0 -0.00000000000E+00 -0.00000000000E+00  0.00000000000E+00  0.13100000000E+03  0.13100000000E+03 0.  0.
         13    1    1    2    0    0 -0.84641170569E+01  0.72419126701E+01  0.20936617461E+02  0.23715811001E+02  0.10566000000E+00 0.  1.
        994    1    1    2    0    0 -0.33275526170E+02 -0.24650751834E+02  0.80940503034E+02  0.15945935294E+03  0.13100000000E+03 0.  0.
        997    1    1    2    0    0  0.41739643227E+02  0.17408839164E+02  0.39812286834E+03  0.44782483606E+03  0.20000000000E+03 0.  0.
</event>
<event>
 5    1  0.6487493E-012  0.2288032E+03  0.7957747E-01  0.4586855E+00
         13   -1    0    0    0    0  0.00000000000E+00  0.00000000000E+00  0.49999998884E+03  0.50000000000E+03  0.10566000000E+00 0. -1.
        994   -1    0    0    0    0 -0.00000000000E+00 -0.00000000000E+00  0.00000000000E+00  0.13100000000E+03  0.13100000000E+03 0.  0.
         13    1    1    2    0    0  0.93809391878E+01 -0.43305305818E+01  0.10162253938E+02  0.14492690720E+02  0.10566000000E+00 0.  1.
        994    1    1    2    0    0 -0.34915624018E+01 -0.82819897791E+00  0.63711543343E+02  0.14571560547E+03  0.13100000000E+03 0.  0.
        997    1    1    2    0    0 -0.58893767860E+01  0.51587295597E+01  0.42612619156E+03  0.47079170381E+03  0.20000000000E+03 0.  0.
</event>
<event>
 5    1  0.9050230E-012  0.2402814E+03  0.7957747E-01  0.4443081E+00
         13   -1    0    0    0    0  0.00000000000E+00  0.00000000000E+00  0.49999998884E+03  0.50000000000E+03  0.10566000000E+00 0.  1.
        994   -1    0    0    0    0 -0.00000000000E+00 -0.00000000000E+00  0.00000000000E+00  0.13100000000E+03  0.13100000000E+03 0.  0.
         13    1    1    2    0    0 -0.11633531171E+02 -0.57876084886E+01 -0.18717478431E+01  0.13128216313E+02  0.10566000000E+00 0. -1.
        994    1    1    2    0    0 -0.12437181939E+02  0.14493588399E+02  0.92380156111E+02  0.16143060689E+03  0.13100000000E+03 0.  0.
        997    1    1    2    0    0  0.24070713110E+02 -0.87059799107E+01  0.40949158057E+03  0.45644117679E+03  0.20000000000E+03 0.  0.
</event>
<event>
 5    1  0.6487493E-012  0.2517165E+03  0.7957747E-01  0.4315201E+00
         13   -1    0    0    0    0  0.00000000000E+00  0.00000000000E+00  0.49999998884E+03  0.50000000000E+03  0.10566000000E+00 0. -1.
        994   -1    0    0    0    0 -0.00000000000E+00 -0.00000000000E+00  0.00000000000E+00  0.13100000000E+03  0.13100000000E+03 0.  0.
         13    1    1    2    0    0 -0.19648794952E+02 -0.70198263345E+01 -0.67750686740E+01  0.21937771637E+02  0.10566000000E+00 0.  1.
        994    1    1    2    0    0 -0.73530677498E+01  0.22700173804E+02  0.16735124601E+03  0.21386164929E+03  0.13100000000E+03 0.  0.
        997    1    1    2    0    0  0.27001862702E+02 -0.15680347470E+02  0.33942381150E+03  0.39520057907E+03  0.20000000000E+03 0.  0.
</event>
<event>
 5    1  0.1275380E-011  0.2432337E+03  0.7957747E-01  0.4408709E+00
         13   -1    0    0    0    0  0.00000000000E+00  0.00000000000E+00  0.49999998884E+03  0.50000000000E+03  0.10566000000E+00 0.  1.
        994   -1    0    0    0    0 -0.00000000000E+00 -0.00000000000E+00  0.00000000000E+00  0.13100000000E+03  0.13100000000E+03 0.  0.
         13    1    1    2    0    0 -0.61832606129E+01 -0.95980189419E+01 -0.53334171461E+01  0.12602030864E+02  0.10566000000E+00 0. -1.
        994    1    1    2    0    0 -0.89733757147E+01 -0.25189712437E+01  0.96893590338E+02  0.16320611060E+03  0.13100000000E+03 0.  0.
        997    1    1    2    0    0  0.15156636328E+02  0.12116990186E+02  0.40843981564E+03  0.45519185854E+03  0.20000000000E+03 0.  0.
</event>
<event>
 5    1  0.6487493E-012  0.2355015E+03  0.7957747E-01  0.4500912E+00
         13   -1    0    0    0    0  0.00000000000E+00  0.00000000000E+00  0.49999998884E+03  0.50000000000E+03  0.10566000000E+00 0. -1.
        994   -1    0    0    0    0 -0.00000000000E+00 -0.00000000000E+00  0.00000000000E+00  0.13100000000E+03  0.13100000000E+03 0.  0.
         13    1    1    2    0    0 -0.19246982154E+02 -0.61588267391E+01  0.14854034960E+02  0.25080490176E+02  0.10566000000E+00 0.  1.
        994    1    1    2    0    0  0.15158093183E+02  0.33503831964E+02  0.92878485458E+02  0.16474127475E+03  0.13100000000E+03 0.  0.
        997    1    1    2    0    0  0.40888889719E+01 -0.27345005225E+02  0.39226746842E+03  0.44117823507E+03  0.20000000000E+03 0.  0.
</event>
<event>
 5    1  0.6487493E-012  0.2473802E+03  0.7957747E-01  0.4362062E+00
         13   -1    0    0    0    0  0.00000000000E+00  0.00000000000E+00  0.49999998884E+03  0.50000000000E+03  0.10566000000E+00 0.  1.
        994   -1    0    0    0    0 -0.00000000000E+00 -0.00000000000E+00  0.00000000000E+00  0.13100000000E+03  0.13100000000E+03 0.  0.
         13    1    1    2    0    0 -0.62336744851E+01 -0.19542063989E+02 -0.21367437255E+01  0.20623476921E+02  0.10566000000E+00 0. -1.
        994    1    1    2    0    0  0.27415164053E+02 -0.30653365599E+02  0.16553172817E+03  0.21506504382E+03  0.13100000000E+03 0.  0.
        997    1    1    2    0    0 -0.21181489568E+02  0.50195429588E+02  0.33660500439E+03  0.39531147926E+03  0.20000000000E+03 0.  0.
</event>
<event>
 5    1  0.6487493E-012  0.2430592E+03  0.7957747E-01  0.4410713E+00
         13   -1    0    0    0    0  0.00000000000E+00  0.00000000000E+00  0.49999998884E+03  0.50000000000E+03  0.10566000000E+00 0. -1.
        994   -1    0    0    0    0 -0.00000000000E+00 -0.00000000000E+00  0.00000000000E+00  0.13100000000E+03  0.13100000000E+03 0.  0.
         13    1    1    2    0    0 -0.30648665350E+02 -0.86962556012E+00  0.29529007994E+02  0.42568420379E+02  0.10566000000E+00 0.  1.
        994    1    1    2    0    0 -0.81179976820E+01 -0.50587785804E+02  0.15415096153E+03  0.20868288118E+03  0.13100000000E+03 0.  0.
        997    1    1    2    0    0  0.38766663032E+02  0.51457411364E+02  0.31632001932E+03  0.37974869844E+03  0.20000000000E+03 0.  0.
</event>
<event>
 5    1  0.6487493E-012  0.2308365E+03  0.7957747E-01  0.4560130E+00
         13   -1    0    0    0    0  0.00000000000E+00  0.00000000000E+00  0.49999998884E+03  0.50000000000E+03  0.10566000000E+00 0. -1.
        994   -1    0    0    0    0 -0.00000000000E+00 -0.00000000000E+00  0.00000000000E+00  0.13100000000E+03  0.13100000000E+03 0.  0.
         13    1    1    2    0    0  0.71033980966E+01 -0.14122464366E+02  0.20772657074E+02  0.26103959666E+02  0.10566000000E+00 0.  1.
        994    1    1    2    0    0  0.78663309792E+01  0.24164490958E+02  0.73867483965E+02  0.15252280804E+03  0.13100000000E+03 0.  0.
        997    1    1    2    0    0 -0.14969729076E+02 -0.10042026592E+02  0.40535984780E+03  0.45237323229E+03  0.20000000000E+03 0.  0.
</event>
<event>
 5    1  0.6487493E-012  0.2345389E+03  0.7957747E-01  0.4512900E+00
         13   -1    0    0    0    0  0.00000000000E+00  0.00000000000E+00  0.49999998884E+03  0.50000000000E+03  0.10566000000E+00 0.  1.
        994   -1    0    0    0    0 -0.00000000000E+00 -0.00000000000E+00  0.00000000000E+00  0.13100000000E+03  0.13100000000E+03 0.  0.
         13    1    1    2    0    0  0.99573516963E+01  0.83768364359E+01  0.30345262705E+01  0.13361876934E+02  0.10566000000E+00 0. -1.
        994    1    1    2    0    0 -0.91158004220E+01 -0.24031701035E+02  0.81858812598E+02  0.15659656980E+03  0.13100000000E+03 0.  0.
        997    1    1    2    0    0 -0.84155127422E+00  0.15654864599E+02  0.41510664997E+03  0.46104155327E+03  0.20000000000E+03 0.  0.
</event>
<event>
 5    1  0.6487493E-012  0.2410657E+03  0.7957747E-01  0.4433853E+00
         13   -1    0    0    0    0  0.00000000000E+00  0.00000000000E+00  0.49999998884E+03  0.50000000000E+03  0.10566000000E+00 0.  1.
        994   -1    0    0    0    0 -0.00000000000E+00 -0.00000000000E+00  0.00000000000E+00  0.13100000000E+03  0.13100000000E+03 0.  0.
         13    1    1    2    0    0 -0.23604532622E+02 -0.28789418468E+02  0.51650934755E+02  0.63669732221E+02  0.10566000000E+00 0. -1.
        994    1    1    2    0    0  0.34987068686E+02  0.27570393764E+02  0.12236285449E+03  0.18471028598E+03  0.13100000000E+03 0.  0.
        997    1    1    2    0    0 -0.11382536065E+02  0.12190247041E+01  0.32598619959E+03  0.38261998180E+03  0.20000000000E+03 0.  0.
</event>
<event>
 5    1  0.6487493E-012  0.2383305E+03  0.7957747E-01  0.4466351E+00
         13   -1    0    0    0    0  0.00000000000E+00  0.00000000000E+00  0.49999998884E+03  0.50000000000E+03  0.10566000000E+00 0.  1.
        994   -1    0    0    0    0 -0.00000000000E+00 -0.00000000000E+00  0.00000000000E+00  0.13100000000E+03  0.13100000000E+03 0.  0.
         13    1    1    2    0    0 -0.21471669645E+02 -0.73501506468E+01  0.16747572955E+02  0.28205490171E+02  0.10566000000E+00 0. -1.
        994    1    1    2    0    0  0.14449379861E+02 -0.21343330884E+02  0.91207324956E+02  0.16169136797E+03  0.13100000000E+03 0.  0.
        997    1    1    2    0    0  0.70222897842E+01  0.28693481530E+02  0.39204509093E+03  0.44110314186E+03  0.20000000000E+03 0.  0.
</event>
<event>
 5    1  0.6487493E-012  0.2442426E+03  0.7957747E-01  0.4397187E+00
         13   -1    0    0    0    0  0.00000000000E+00  0.00000000000E+00  0.49999998884E+03  0.50000000000E+03  0.10566000000E+00 0. -1.
        994   -1    0    0    0    0 -0.00000000000E+00 -0.00000000000E+00  0.00000000000E+00  0.13100000000E+03  0.13100000000E+03 0.  0.
         13    1    1    2    0    0  0.27239922334E+02 -0.25487361525E+02  0.34943977097E+02  0.51114691290E+02  0.10566000000E+00 0.  1.
        994    1    1    2    0    0  0.11139001356E+02  0.49185279292E+02  0.16762130103E+03  0.21863478591E+03  0.13100000000E+03 0.  0.
        997    1    1    2    0    0 -0.38378923690E+02 -0.23697917767E+02  0.29743471071E+03  0.36125052280E+03  0.20000000000E+03 0.  0.
</event>
<event>
 5    1  0.6487493E-012  0.2307429E+03  0.7957747E-01  0.4561347E+00
         13   -1    0    0    0    0  0.00000000000E+00  0.00000000000E+00  0.49999998884E+03  0.50000000000E+03  0.10566000000E+00 0.  1.
        994   -1    0    0    0    0 -0.00000000000E+00 -0.00000000000E+00  0.00000000000E+00  0.13100000000E+03  0.13100000000E+03 0.  0.
         13    1    1    2    0    0  0.14452899404E+02 -0.89485362582E+01  0.22095167338E+02  0.27877772258E+02  0.10566000000E+00 0. -1.
        994    1    1    2    0    0 -0.56459196823E+02 -0.23560860748E+02  0.11251057162E+03  0.18320039244E+03  0.13100000000E+03 0.  0.
        997    1    1    2    0    0  0.42006297419E+02  0.32509397007E+02  0.36539424988E+03  0.41992183530E+03  0.20000000000E+03 0.  0.
</event>
<event>
 5    1  0.6487493E-012  0.2413625E+03  0.7957747E-01  0.4430379E+00
         13   -1    0    0    0    0  0.00000000000E+00  0.00000000000E+00  0.49999998884E+03  0.50000000000E+03  0.10566000000E+00 0.  1.
        994   -1    0    0    0    0 -0.00000000000E+00 -0.00000000000E+00  0.00000000000E+00  0.13100000000E+03  0.13100000000E+03 0.  0.
         13    1    1    2    0    0  0.39178811856E+01 -0.13985936686E+02 -0.65695607025E+00  0.14539565787E+02  0.10566000000E+00 0. -1.
        994    1    1    2    0    0  0.12221485287E+02 -0.30445431638E+02  0.10665881030E+03  0.17208541724E+03  0.13100000000E+03 0.  0.
        997    1    1    2    0    0 -0.16139366472E+02  0.44431368324E+02  0.39399813461E+03  0.44437501698E+03  0.20000000000E+03 0.  0.
</event>
<event>
 5    1  0.6487493E-012  0.2277257E+03  0.7957747E-01  0.4601253E+00
         13   -1    0    0    0    0  0.00000000000E+00  0.00000000000E+00  0.49999998884E+03  0.50000000000E+03  0.10566000000E+00 0. -1.
        994   -1    0    0    0    0 -0.00000000000E+00 -0.00000000000E+00  0.00000000000E+00  0.13100000000E+03  0.13100000000E+03 0.  0.
         13    1    1    2    0    0  0.67657734733E+01  0.12828844396E+02  0.12348161351E+02  0.19048443296E+02  0.10566000000E+00 0.  1.
        994    1    1    2    0    0 -0.32034135776E+02 -0.71466927471E+02  0.26583966786E+03  0.30653782244E+03  0.13100000000E+03 0.  0.
        997    1    1    2    0    0  0.25268362302E+02  0.58638083075E+02  0.22181215962E+03  0.30541373426E+03  0.20000000000E+03 0.  0.
</event>
<event>
 5    1  0.6487493E-012  0.2426145E+03  0.7957747E-01  0.4415836E+00
         13   -1    0    0    0    0  0.00000000000E+00  0.00000000000E+00  0.49999998884E+03  0.50000000000E+03  0.10566000000E+00 0.  1.
        994   -1    0    0    0    0 -0.00000000000E+00 -0.00000000000E+00  0.00000000000E+00  0.13100000000E+03  0.13100000000E+03 0.  0.
         13    1    1    2    0    0  0.14442740320E+02 -0.28175510636E+02  0.29625261243E+02  0.43360343810E+02  0.10566000000E+00 0. -1.
        994    1    1    2    0    0  0.93628441395E+01  0.19676861002E+02  0.10103245752E+03  0.16686341475E+03  0.13100000000E+03 0.  0.
        997    1    1    2    0    0 -0.23805584460E+02  0.84986496341E+01  0.36934227008E+03  0.42077624144E+03  0.20000000000E+03 0.  0.
</event>
<event>
 5    1  0.6487493E-012  0.2282309E+03  0.7957747E-01  0.4594481E+00
         13   -1    0    0    0    0  0.00000000000E+00  0.00000000000E+00  0.49999998884E+03  0.50000000000E+03  0.10566000000E+00 0. -1.
        994   -1    0    0    0    0 -0.00000000000E+00 -0.00000000000E+00  0.00000000000E+00  0.13100000000E+03  0.13100000000E+03 0.  0.
         13    1    1    2    0    0  0.22394039717E+01  0.10688129323E+02  0.21524638585E+02  0.24136533903E+02  0.10566000000E+00 0.  1.
        994    1    1    2    0    0  0.17865534162E+01  0.32336516936E+01  0.62743395656E+02  0.14529756355E+03  0.13100000000E+03 0.  0.
        997    1    1    2    0    0 -0.40259573879E+01 -0.13921781016E+02  0.41573195459E+03  0.46156590254E+03  0.20000000000E+03 0.  0.
</event>
<event>
 5    1  0.6487493E-012  0.2443247E+03  0.7957747E-01  0.4396255E+00
         13   -1    0    0    0    0  0.00000000000E+00  0.00000000000E+00  0.49999998884E+03  0.50000000000E+03  0.10566000000E+00 0.  1.
        994   -1    0    0    0    0 -0.00000000000E+00 -0.00000000000E+00  0.00000000000E+00  0.13100000000E+03  0.13100000000E+03 0.  0.
         13    1    1    2    0    0 -0.28525997597E+02 -0.28898098882E+02  0.52595198316E+02  0.66446209130E+02  0.10566000000E+00 0. -1.
        994    1    1    2    0    0  0.12098783276E+02  0.35795026877E+02  0.12637391990E+03  0.18590059746E+03  0.13100000000E+03 0.  0.
        997    1    1    2    0    0  0.16427214321E+02 -0.68969279953E+01  0.32103087062E+03  0.37865319341E+03  0.20000000000E+03 0.  0.
</event>
<event>
 5    1  0.6487493E-012  0.2437199E+03  0.7957747E-01  0.4403142E+00
         13   -1    0    0    0    0  0.00000000000E+00  0.00000000000E+00  0.49999998884E+03  0.50000000000E+03  0.10566000000E+00 0. -1.
        994   -1    0    0    0    0 -0.00000000000E+00 -0.00000000000E+00  0.00000000000E+00  0.13100000000E+03  0.13100000000E+03 0.  0.
         13    1    1    2    0    0 -0.89419716737E+01  0.22861311071E+02  0.78666377768E+01  0.25777772504E+02  0.10566000000E+00 0.  1.
        994    1    1    2    0    0  0.77692685162E+01 -0.18735267260E+02  0.10370367713E+03  0.16830574685E+03  0.13100000000E+03 0.  0.
        997    1    1    2    0    0  0.11727031575E+01 -0.41260438111E+01  0.38842967393E+03  0.43691648065E+03  0.20000000000E+03 0.  0.
</event>
<event>
 5    1  0.6487493E-012  0.2402574E+03  0.7957747E-01  0.4443366E+00
         13   -1    0    0    0    0  0.00000000000E+00  0.00000000000E+00  0.49999998884E+03  0.50000000000E+03  0.10566000000E+00 0. -1.
        994   -1    0    0    0    0 -0.00000000000E+00 -0.00000000000E+00  0.00000000000E+00  0.13100000000E+03  0.13100000000E+03 0.  0.
         13    1    1    2    0    0  0.17236506947E+02  0.24918497951E+02  0.67985201100E+02  0.74431360625E+02  0.10566000000E+00 0.  1.
        994    1    1    2    0    0  0.26502628401E+01 -0.10994615751E+02  0.89040576651E+02  0.15879902317E+03  0.13100000000E+03 0.  0.
        997    1    1    2    0    0 -0.19886769788E+02 -0.13923882201E+02  0.34297421109E+03  0.39776961621E+03  0.20000000000E+03 0.  0.
</event>
<event>
 5    1  0.6487493E-012  0.2470336E+03  0.7957747E-01  0.4365891E+00
         13   -1    0    0    0    0  0.00000000000E+00  0.00000000000E+00  0.49999998884E+03  0.50000000000E+03  0.10566000000E+00 0.  1.
        994   -1    0    0    0    0 -0.00000000000E+00 -0.00000000000E+00  0.00000000000E+00  0.13100000000E+03  0.13100000000E+03 0.  0.
         13    1    1    2    0    0  0.36337889809E+02 -0.15840744699E+01  0.21086864013E+02  0.42043055617E+02  0.10566000000E+00 0. -1.
        994    1    1    2    0    0 -0.30986703056E+02 -0.21234266262E+02  0.14473133775E+03  0.19879444147E+03  0.13100000000E+03 0.  0.
        997    1    1    2    0    0 -0.53511867529E+01  0.22818340732E+02  0.33418178707E+03  0.39016250292E+03  0.20000000000E+03 0.  0.
</event>
<event>
 5    1  0.6487493E-012  0.2412157E+03  0.7957747E-01  0.4432096E+00
         13   -1    0    0    0    0  0.00000000000E+00  0.00000000000E+00  0.49999998884E+03  0.50000000000E+03  0.10566000000E+00 0.  1.
        994   -1    0    0    0    0 -0.00000000000E+00 -0.00000000000E+00  0.00000000000E+00  0.13100000000E+03  0.13100000000E+03 0.  0.
         13    1    1    2    0    0 -0.83768992995E-01 -0.21677047134E+02  0.12266527624E+02  0.24907433703E+02  0.10566000000E+00 0. -1.
        994    1    1    2    0    0 -0.17769736908E+01 -0.35103857580E+02  0.10884363915E+03  0.17390622829E+03  0.13100000000E+03 0.  0.
        997    1    1    2    0    0  0.18607426838E+01  0.56780904714E+02  0.37888982206E+03  0.43218633801E+03  0.20000000000E+03 0.  0.
</event>
<event>
 5    1  0.6487493E-012  0.2300036E+03  0.7957747E-01  0.4571008E+00
         13   -1    0    0    0    0  0.00000000000E+00  0.00000000000E+00  0.49999998884E+03  0.50000000000E+03  0.10566000000E+00 0.  1.
        994   -1    0    0    0    0 -0.00000000000E+00 -0.00000000000E+00  0.00000000000E+00  0.13100000000E+03  0.13100000000E+03 0.  0.
         13    1    1    2    0    0  0.65889433847E+01  0.90229934204E+01  0.50401064943E+02  0.51624675269E+02  0.10566000000E+00 0. -1.
        994    1    1    2    0    0 -0.55402359361E+00 -0.65999349998E+02  0.11957748709E+03  0.18925114679E+03  0.13100000000E+03 0.  0.
        997    1    1    2    0    0 -0.60349197911E+01  0.56976356578E+02  0.33002143680E+03  0.39012417794E+03  0.20000000000E+03 0.  0.
</event>
<event>
 5    1  0.6487493E-012  0.2397625E+03  0.7957747E-01  0.4449227E+00
         13   -1    0    0    0    0  0.00000000000E+00  0.00000000000E+00  0.49999998884E+03  0.50000000000E+03  0.10566000000E+00 0. -1.
        994   -1    0    0    0    0 -0.00000000000E+00 -0.00000000000E+00  0.00000000000E+00  0.13100000000E+03  0.13100000000E+03 0.  0.
         13    1    1    2    0    0 -0.48999951160E+00 -0.12694184976E+02 -0.22545612729E+01  0.12902582776E+02  0.10566000000E+00 0.  1.
        994    1    1    2    0    0  0.33711855844E+02  0.34008602468E+01  0.10241865292E+03  0.16970160736E+03  0.13100000000E+03 0.  0.
        997    1    1    2    0    0 -0.33221856333E+02  0.92933247290E+01  0.39983589719E+03  0.44839580986E+03  0.20000000000E+03 0.  0.
</event>
<event>
 5    1  0.6487493E-012  0.2474235E+03  0.7957747E-01  0.4361585E+00
         13   -1    0    0    0    0  0.00000000000E+00  0.00000000000E+00  0.49999998884E+03  0.50000000000E+03  0.10566000000E+00 0. -1.
        994   -1    0    0    0    0 -0.00000000000E+00 -0.00000000000E+00  0.00000000000E+00  0.13100000000E+03  0.13100000000E+03 0.  0.
         13    1    1    2    0    0  0.22358863990E+02 -0.26436721054E+02  0.29333565756E+02  0.45379381474E+02  0.10566000000E+00 0.  1.
        994    1    1    2    0    0  0.26783363006E+02  0.67962884455E+01  0.12728525197E+03  0.18473243743E+03  0.13100000000E+03 0.  0.
        997    1    1    2    0    0 -0.49142226996E+02  0.19640432608E+02  0.34338117112E+03  0.40088818110E+03  0.20000000000E+03 0.  0.
</event>
<event>
 5    1  0.6487493E-012  0.2473844E+03  0.7957747E-01  0.4362015E+00
         13   -1    0    0    0    0  0.00000000000E+00  0.00000000000E+00  0.49999998884E+03  0.50000000000E+03  0.10566000000E+00 0.  1.
        994   -1    0    0    0    0 -0.00000000000E+00 -0.00000000000E+00  0.00000000000E+00  0.13100000000E+03  0.13100000000E+03 0.  0.
         13    1    1    2    0    0  0.15648123154E+02  0.75377949466E+01 -0.35805300671E+01  0.17734527637E+02  0.10566000000E+00 0. -1.
        994    1    1    2    0    0  0.14327434759E+02  0.27467044942E+01  0.11429244121E+03  0.17446083197E+03  0.13100000000E+03 0.  0.
        997    1    1    2    0    0 -0.29975557913E+02 -0.10284499441E+02  0.38928807769E+03  0.43880464040E+03  0.20000000000E+03 0.  0.
</event>
<event>
 5    1  0.6487493E-012  0.2323273E+03  0.7957747E-01  0.4540895E+00
         13   -1    0    0    0    0  0.00000000000E+00  0.00000000000E+00  0.49999998884E+03  0.50000000000E+03  0.10566000000E+00 0. -1.
        994   -1    0    0    0    0 -0.00000000000E+00 -0.00000000000E+00  0.00000000000E+00  0.13100000000E+03  0.13100000000E+03 0.  0.
         13    1    1    2    0    0  0.20606306450E+02  0.36546091310E+01  0.55836242743E+02  0.59629465880E+02  0.10566000000E+00 0.  1.
        994    1    1    2    0    0 -0.55420842644E+02 -0.23025261316E+02  0.11590244698E+03  0.18492163117E+03  0.13100000000E+03 0.  0.
        997    1    1    2    0    0  0.34814536194E+02  0.19370652185E+02  0.32826129912E+03  0.38644890295E+03  0.20000000000E+03 0.  0.
</event>
<event>
 5    1  0.6487493E-012  0.2412933E+03  0.7957747E-01  0.4431188E+00
         13   -1    0    0    0    0  0.00000000000E+00  0.00000000000E+00  0.49999998884E+03  0.50000000000E+03  0.10566000000E+00 0.  1.
        994   -1    0    0    0    0 -0.00000000000E+00 -0.00000000000E+00  0.00000000000E+00  0.13100000000E+03  0.13100000000E+03 0.  0.
         13    1    1    2    0    0  0.23848940724E+02 -0.13175137556E+02  0.51601707349E+02  0.58353265450E+02  0.10566000000E+00 0. -1.
        994    1    1    2    0    0 -0.34136570002E+01 -0.55239046037E+02  0.15362593995E+03  0.20934405816E+03  0.13100000000E+03 0.  0.
        997    1    1    2    0    0 -0.20435283724E+02  0.68414183593E+02  0.29477234154E+03  0.36330267639E+03  0.20000000000E+03 0.  0.
</event>
<event>
 5    1  0.6487493E-012  0.2296767E+03  0.7957747E-01  0.4575304E+00
         13   -1    0    0    0    0  0.00000000000E+00  0.00000000000E+00  0.49999998884E+03  0.50000000000E+03  0.10566000000E+00 0. -1.
        994   -1    0    0    0    0 -0.00000000000E+00 -0.00000000000E+00  0.00000000000E+00  0.13100000000E+03  0.13100000000E+03 0.  0.
         13    1    1    2    0    0  0.10067700755E+02  0.76242758388E+01  0.39922309578E+02  0.41872307635E+02  0.10566000000E+00 0.  1.
        994    1    1    2    0    0  0.89162724343E+01 -0.19441216937E+02  0.69681101846E+02  0.14991303074E+03  0.13100000000E+03 0.  0.
        997    1    1    2    0    0 -0.18983973190E+02  0.11816941098E+02  0.39039657741E+03  0.43921466163E+03  0.20000000000E+03 0.  0.
</event>
<event>
 5    1  0.6487493E-012  0.2487101E+03  0.7957747E-01  0.4347488E+00
         13   -1    0    0    0    0  0.00000000000E+00  0.00000000000E+00  0.49999998884E+03  0.50000000000E+03  0.10566000000E+00 0.  1.
        994   -1    0    0    0    0 -0.00000000000E+00 -0.00000000000E+00  0.00000000000E+00  0.13100000000E+03  0.13100000000E+03 0.  0.
         13    1    1    2    0    0 -0.18689531101E+02  0.34474255805E+02  0.55099769738E+02  0.67629643466E+02  0.10566000000E+00 0. -1.
        994    1    1    2    0    0 -0.22056906728E+02  0.35373291147E+01  0.12796206957E+03  0.18448390466E+03  0.13100000000E+03 0.  0.
        997    1    1    2    0    0  0.40746437828E+02 -0.38011584920E+02  0.31693814953E+03  0.37888645187E+03  0.20000000000E+03 0.  0.
</event>
<event>
 5    1  0.6487493E-012  0.2431885E+03  0.7957747E-01  0.4409228E+00
         13   -1    0    0    0    0  0.00000000000E+00  0.00000000000E+00  0.49999998884E+03  0.50000000000E+03  0.10566000000E+00 0.  1.
        994   -1    0    0    0    0 -0.00000000000E+00 -0.00000000000E+00  0.00000000000E+00  0.13100000000E+03  0.13100000000E+03 0.  0.
         13    1    1    2    0    0  0.20612257883E+02  0.37135701277E+01  0.44640884743E+01  0.21414831964E+02  0.10566000000E+00 0. -1.
        994    1    1    2    0    0  0.13596217664E+00 -0.18123246196E+02  0.10055432164E+03  0.16613440986E+03  0.13100000000E+03 0.  0.
        997    1    1    2    0    0 -0.20748220059E+02  0.14409676069E+02  0.39498157872E+03  0.44345075818E+03  0.20000000000E+03 0.  0.
</event>
<event>
 5    1  0.6487493E-012  0.2284146E+03  0.7957747E-01  0.4592029E+00
         13   -1    0    0    0    0  0.00000000000E+00  0.00000000000E+00  0.49999998884E+03  0.50000000000E+03  0.10566000000E+00 0.  1.
        994   -1    0    0    0    0 -0.00000000000E+00 -0.00000000000E+00  0.00000000000E+00  0.13100000000E+03  0.13100000000E+03 0.  0.
         13    1    1    2    0    0 -0.85266567202E+01  0.83598259118E+01  0.17407646884E+02  0.21109900477E+02  0.10566000000E+00 0. -1.
        994    1    1    2    0    0  0.36835937292E+02  0.96600672870E+01  0.77570224452E+02  0.15693419926E+03  0.13100000000E+03 0.  0.
        997    1    1    2    0    0 -0.28309280571E+02 -0.18019893199E+02  0.40502211750E+03  0.45295590026E+03  0.20000000000E+03 0.  0.
</event>
<event>
 5    1  0.6487493E-012  0.2428242E+03  0.7957747E-01  0.4413417E+00
         13   -1    0    0    0    0  0.00000000000E+00  0.00000000000E+00  0.49999998884E+03  0.50000000000E+03  0.10566000000E+00 0. -1.
        994   -1    0    0    0    0 -0.00000000000E+00 -0.00000000000E+00  0.00000000000E+00  0.13100000000E+03  0.13100000000E+03 0.  0.
         13    1    1    2    0    0  0.33319495048E+02  0.18434833851E+02  0.58300957880E+02  0.69635082416E+02  0.10566000000E+00 0.  1.
        994    1    1    2    0    0 -0.25198616374E+02 -0.15483213172E+02  0.10848203661E+03  0.17263850215E+03  0.13100000000E+03 0.  0.
        997    1    1    2    0    0 -0.81208786739E+01 -0.29516206785E+01  0.33321699435E+03  0.38872641544E+03  0.20000000000E+03 0.  0.
</event>
<event>
 5    1  0.6487493E-012  0.2342258E+03  0.7957747E-01  0.4516824E+00
         13   -1    0    0    0    0  0.00000000000E+00  0.00000000000E+00  0.49999998884E+03  0.50000000000E+03  0.10566000000E+00 0. -1.
        994   -1    0    0    0    0 -0.00000000000E+00 -0.00000000000E+00  0.00000000000E+00  0.13100000000E+03  0.13100000000E+03 0.  0.
         13    1    1    2    0    0 -0.22236185187E+02  0.25828252080E+01  0.67039701471E+02  0.70678509146E+02  0.10566000000E+00 0.  1.
        994    1    1    2    0    0  0.45828673940E+02 -0.11460827271E+01  0.99523801855E+02  0.17078515157E+03  0.13100000000E+03 0.  0.
        997    1    1    2    0    0 -0.23592488753E+02 -0.14367424809E+01  0.33343648551E+03  0.38953633929E+03  0.20000000000E+03 0.  0.
</event>
<event>
 5    1  0.6487493E-012  0.2363566E+03  0.7957747E-01  0.4490361E+00
         13   -1    0    0    0    0  0.00000000000E+00  0.00000000000E+00  0.49999998884E+03  0.50000000000E+03  0.10566000000E+00 0. -1.
        994   -1    0    0    0    0 -0.00000000000E+00 -0.00000000000E+00  0.00000000000E+00  0.13100000000E+03  0.13100000000E+03 0.  0.
         13    1    1    2    0    0  0.10946171319E+02 -0.49508647828E+00 -0.10773069915E+00  0.10958400755E+02  0.10566000000E+00 0.  1.
        994    1    1    2    0    0  0.48184758396E+02 -0.22104746231E+02  0.11787630399E+03  0.18402775277E+03  0.13100000000E+03 0.  0.
        997    1    1    2    0    0 -0.59130929715E+02  0.22599832709E+02  0.38223141555E+03  0.43601384647E+03  0.20000000000E+03 0.  0.
</event>
<event>
 5    1  0.6487493E-012  0.2514538E+03  0.7957747E-01  0.4317987E+00
         13   -1    0    0    0    0  0.00000000000E+00  0.00000000000E+00  0.49999998884E+03  0.50000000000E+03  0.10566000000E+00 0. -1.
        994   -1    0    0    0    0 -0.00000000000E+00 -0.00000000000E+00  0.00000000000E+00  0.13100000000E+03  0.13100000000E+03 0.  0.
         13    1    1    2    0    0  0.38708301322E+02 -0.13290568672E+01  0.16984651290E+02  0.42291707543E+02  0.10566000000E+00 0.  1.
        994    1    1    2    0    0 -0.21212875488E+02  0.11108623016E+02  0.15888679030E+03  0.20731473591E+03  0.13100000000E+03 0.  0.
        997    1    1    2    0    0 -0.17495425835E+02 -0.97795661488E+01  0.32412854725E+03  0.38139355655E+03  0.20000000000E+03 0.  0.
</event>
<event>
 5    1  0.6487493E-012  0.2465689E+03  0.7957747E-01  0.4371044E+00
         13   -1    0    0    0    0  0.00000000000E+00  0.00000000000E+00  0.49999998884E+03  0.50000000000E+03  0.10566000000E+00 0. -1.
        994   -1    0    0    0    0 -0.00000000000E+00 -0.00000000000E+00  0.00000000000E+00  0.13100000000E+03  0.13100000000E+03 0.  0.
         13    1    1    2    0    0  0.12288896659E+02 -0.42928747718E+02  0.70424430383E+02  0.83387684466E+02  0.10566000000E+00 0.  1.
        994    1    1    2    0    0 -0.30974151519E+02  0.29769004457E+02  0.16076522197E+03  0.21178302171E+03  0.13100000000E+03 0.  0.
        997    1    1    2    0    0  0.18685254859E+02  0.13159743262E+02  0.26881033648E+03  0.33582929382E+03  0.20000000000E+03 0.  0.
</event>
<event>
 5    1  0.6487493E-012  0.2382968E+03  0.7957747E-01  0.4466757E+00
         13   -1    0    0    0    0  0.00000000000E+00  0.00000000000E+00  0.49999998884E+03  0.50000000000E+03  0.10566000000E+00 0.  1.
        994   -1    0    0    0    0 -0.00000000000E+00 -0.00000000000E+00  0.00000000000E+00  0.13100000000E+03  0.13100000000E+03 0.  0.
         13    1    1    2    0    0  0.13479426143E+02  0.25927109908E+02  0.50839307513E+02  0.58639204545E+02  0.10566000000E+00 0. -1.
        994    1    1    2    0    0 -0.37713065144E+02 -0.19453514343E+01  0.10201884193E+03  0.17027889999E+03  0.13100000000E+03 0.  0.
        997    1    1    2    0    0  0.24233639001E+02 -0.23981758474E+02  0.34714183939E+03  0.40208189546E+03  0.20000000000E+03 0.  0.
</event>
<event>
 5    1  0.6487493E-012  0.2473722E+03  0.7957747E-01  0.4362150E+00
         13   -1    0    0    0    0  0.00000000000E+00  0.00000000000E+00  0.49999998884E+03  0.50000000000E+03  0.10566000000E+00 0. -1.
        994   -1    0    0    0    0 -0.00000000000E+00 -0.00000000000E+00  0.00000000000E+00  0.13100000000E+03  0.13100000000E+03 0.  0.
         13    1    1    2    0    0 -0.93313371460E-01 -0.23164573717E+02  0.23754385556E+01  0.23286477948E+02  0.10566000000E+00 0.  1.
        994    1    1    2    0    0 -0.10265412021E+02  0.14509605099E+01  0.11207766124E+03  0.17271330614E+03  0.13100000000E+03 0.  0.
        997    1    1    2    0    0  0.10358725392E+02  0.21713613207E+02  0.38554688904E+03  0.43500021591E+03  0.20000000000E+03 0.  0.
</event>
<event>
 5    1  0.6487493E-012  0.2399442E+03  0.7957747E-01  0.4447071E+00
         13   -1    0    0    0    0  0.00000000000E+00  0.00000000000E+00  0.49999998884E+03  0.50000000000E+03  0.10566000000E+00 0.  1.
        994   -1    0    0    0    0 -0.00000000000E+00 -0.00000000000E+00  0.00000000000E+00  0.13100000000E+03  0.13100000000E+03 0.  0.
         13    1    1    2    0    0  0.51078092101E+01  0.27301447805E+02  0.26543769111E+02  0.38419286951E+02  0.10566000000E+00 0. -1.
        994    1    1    2    0    0 -0.39619346818E+02 -0.30345711253E+01  0.11008914799E+03  0.17566878428E+03  0.13100000000E+03 0.  0.
        997    1    1    2    0    0  0.34511537608E+02 -0.24266876680E+02  0.36336707173E+03  0.41691192877E+03  0.20000000000E+03 0.  0.
</event>
<event>
 5    1  0.6487493E-012  0.2512765E+03  0.7957747E-01  0.4319871E+00
         13   -1    0    0    0    0  0.00000000000E+00  0.00000000000E+00  0.49999998884E+03  0.50000000000E+03  0.10566000000E+00 0.  1.
        994   -1    0    0    0    0 -0.00000000000E+00 -0.00000000000E+00  0.00000000000E+00  0.13100000000E+03  0.13100000000E+03 0.  0.
         13    1    1    2    0    0 -0.14318304561E+02 -0.19610423531E+02 -0.13136692190E+01  0.24317060830E+02  0.10566000000E+00 0. -1.
        994    1    1    2    0    0  0.43385330103E+01  0.20375910137E+01  0.13098086812E+03  0.18531044887E+03  0.13100000000E+03 0.  0.
        997    1    1    2    0    0  0.99797715504E+01  0.17572832518E+02  0.37033278993E+03  0.42137249030E+03  0.20000000000E+03 0.  0.
</event>
<event>
 5    1  0.6487493E-012  0.2485247E+03  0.7957747E-01  0.4349509E+00
         13   -1    0    0    0    0  0.00000000000E+00  0.00000000000E+00  0.49999998884E+03  0.50000000000E+03  0.10566000000E+00 0. -1.
        994   -1    0    0    0    0 -0.00000000000E+00 -0.00000000000E+00  0.00000000000E+00  0.13100000000E+03  0.13100000000E+03 0.  0.
         13    1    1    2    0    0  0.15381835544E+02 -0.34682502904E+02  0.34281436373E+02  0.51134185397E+02  0.10566000000E+00 0.  1.
        994    1    1    2    0    0  0.33260042681E+02  0.81725157870E+01  0.15029325431E+03  0.20229207287E+03  0.13100000000E+03 0.  0.
        997    1    1    2    0    0 -0.48641878225E+02  0.26509987117E+02  0.31542529815E+03  0.37757374173E+03  0.20000000000E+03 0.  0.
</event>
<event>
 5    1  0.6487493E-012  0.2461321E+03  0.7957747E-01  0.4375908E+00
         13   -1    0    0    0    0  0.00000000000E+00  0.00000000000E+00  0.49999998884E+03  0.50000000000E+03  0.10566000000E+00 0. -1.
        994   -1    0    0    0    0 -0.00000000000E+00 -0.00000000000E+00  0.00000000000E+00  0.13100000000E+03  0.13100000000E+03 0.  0.
         13    1    1    2    0    0 -0.25265587754E+02 -0.13864610404E+02  0.30728407371E+01  0.28983285881E+02  0.10566000000E+00 0.  1.
        994    1    1    2    0    0  0.25291807299E+02  0.36931799607E+02  0.19638990218E+03  0.24027822835E+03  0.13100000000E+03 0.  0.
        997    1    1    2    0    0 -0.26219545190E-01 -0.23067189203E+02  0.30053724592E+03  0.36173848577E+03  0.20000000000E+03 0.  0.
</event>
<event>
 5    1  0.6487493E-012  0.2514586E+03  0.7957747E-01  0.4317936E+00
         13   -1    0    0    0    0  0.00000000000E+00  0.00000000000E+00  0.49999998884E+03  0.50000000000E+03  0.10566000000E+00 0. -1.
        994   -1    0    0    0    0 -0.00000000000E+00 -0.00000000000E+00  0.00000000000E+00  0.13100000000E+03  0.13100000000E+03 0.  0.
         13    1    1    2    0    0 -0.19537208472E+02  0.43793283071E+01 -0.58126581031E+01  0.20848961355E+02  0.10566000000E+00 0.  1.
        994    1    1    2    0    0  0.52448328921E+01 -0.22271725488E+01  0.13261877765E+03  0.18649720844E+03  0.13100000000E+03 0.  0.
        997    1    1    2    0    0  0.14292375580E+02 -0.21521557583E+01  0.37319386929E+03  0.42365383021E+03  0.20000000000E+03 0.  0.
</event>
<event>
 5    1  0.6487493E-012  0.2448260E+03  0.7957747E-01  0.4390576E+00
         13   -1    0    0    0    0  0.00000000000E+00  0.00000000000E+00  0.49999998884E+03  0.50000000000E+03  0.10566000000E+00 0. -1.
        994   -1    0    0    0    0 -0.00000000000E+00 -0.00000000000E+00  0.00000000000E+00  0.13100000000E+03  0.13100000000E+03 0.  0.
         13    1    1    2    0    0  0.28617967470E+02  0.15660389545E+02  0.48537046090E+02  0.58481551535E+02  0.10566000000E+00 0.  1.
        994    1    1    2    0    0  0.37861592066E+02 -0.18277144577E+02  0.13869913182E+03  0.19536121247E+03  0.13100000000E+03 0.  0.
        997    1    1    2    0    0 -0.66479559536E+02  0.26167550319E+01  0.31276381092E+03  0.37715723600E+03  0.20000000000E+03 0.  0.
</event>
<event>
 5    1  0.6487493E-012  0.2444508E+03  0.7957747E-01  0.4394823E+00
         13   -1    0    0    0    0  0.00000000000E+00  0.00000000000E+00  0.49999998884E+03  0.50000000000E+03  0.10566000000E+00 0. -1.
        994   -1    0    0    0    0 -0.00000000000E+00 -0.00000000000E+00  0.00000000000E+00  0.13100000000E+03  0.13100000000E+03 0.  0.
         13    1    1    2    0    0  0.34583104871E+02  0.16702597810E+02  0.61896003032E+02  0.72842942496E+02  0.10566000000E+00 0.  1.
        994    1    1    2    0    0 -0.13253139644E+02 -0.93296859484E+01  0.10372406011E+03  0.16787605367E+03  0.13100000000E+03 0.  0.
        997    1    1    2    0    0 -0.21329965227E+02 -0.73729118615E+01  0.33437992570E+03  0.39028100383E+03  0.20000000000E+03 0.  0.
</event>
<event>
 5    1  0.6487493E-012  0.2403627E+03  0.7957747E-01  0.4442122E+00
         13   -1    0    0    0    0  0.00000000000E+00  0.00000000000E+00  0.49999998884E+03  0.50000000000E+03  0.10566000000E+00 0.  1.
        994   -1    0    0    0    0 -0.00000000000E+00 -0.00000000000E+00  0.00000000000E+00  0.13100000000E+03  0.13100000000E+03 0.  0.
         13    1    1    2    0    0 -0.15524715739E+01  0.31407643504E+02  0.63639371498E+02  0.70984723759E+02  0.10566000000E+00 0. -1.
        994    1    1    2    0    0  0.18908924658E+02 -0.11491029602E+02  0.94385188351E+02  0.16296979773E+03  0.13100000000E+03 0.  0.
        997    1    1    2    0    0 -0.17356453084E+02 -0.19916613902E+02  0.34197542899E+03  0.39704547851E+03  0.20000000000E+03 0.  0.
</event>
<event>
 5    1  0.6487493E-012  0.2328590E+03  0.7957747E-01  0.4534105E+00
         13   -1    0    0    0    0  0.00000000000E+00  0.00000000000E+00  0.49999998884E+03  0.50000000000E+03  0.10566000000E+00 0.  1.
        994   -1    0    0    0    0 -0.00000000000E+00 -0.00000000000E+00  0.00000000000E+00  0.13100000000E+03  0.13100000000E+03 0.  0.
         13    1    1    2    0    0 -0.95834224743E+01  0.13072597679E+02  0.10412829472E+02  0.19265850047E+02  0.10566000000E+00 0. -1.
        994    1    1    2    0    0  0.26115054067E+01 -0.42775952908E+02  0.92246373936E+02  0.16585233074E+03  0.13100000000E+03 0.  0.
        997    1    1    2    0    0  0.69719170677E+01  0.29703355229E+02  0.39734078543E+03  0.44588181921E+03  0.20000000000E+03 0.  0.
</event>
<event>
 5    1  0.6487493E-012  0.2451449E+03  0.7957747E-01  0.4386978E+00
         13   -1    0    0    0    0  0.00000000000E+00  0.00000000000E+00  0.49999998884E+03  0.50000000000E+03  0.10566000000E+00 0.  1.
        994   -1    0    0    0    0 -0.00000000000E+00 -0.00000000000E+00  0.00000000000E+00  0.13100000000E+03  0.13100000000E+03 0.  0.
         13    1    1    2    0    0  0.21886301189E+02  0.21123423973E+02  0.83556468926E+02  0.88920773071E+02  0.10566000000E+00 0. -1.
        994    1    1    2    0    0  0.33083821330E+02 -0.13016917724E+02  0.12691424179E+03  0.18582842665E+03  0.13100000000E+03 0.  0.
        997    1    1    2    0    0 -0.54970122519E+02 -0.81065062491E+01  0.28952927812E+03  0.35625080028E+03  0.20000000000E+03 0.  0.
</event>
<event>
 5    1  0.6487493E-012  0.2443922E+03  0.7957747E-01  0.4395488E+00
         13   -1    0    0    0    0  0.00000000000E+00  0.00000000000E+00  0.49999998884E+03  0.50000000000E+03  0.10566000000E+00 0. -1.
        994   -1    0    0    0    0 -0.00000000000E+00 -0.00000000000E+00  0.00000000000E+00  0.13100000000E+03  0.13100000000E+03 0.  0.
         13    1    1    2    0    0  0.26129212731E+02  0.12777311941E+02  0.41128343187E+02  0.50374073051E+02  0.10566000000E+00 0.  1.
        994    1    1    2    0    0  0.48171564058E+02  0.15445469330E+02  0.17400277820E+03  0.22360015413E+03  0.13100000000E+03 0.  0.
        997    1    1    2    0    0 -0.74300776789E+02 -0.28222781271E+02  0.28486886745E+03  0.35702577282E+03  0.20000000000E+03 0.  0.
</event>
<event>
 5    1  0.6487493E-012  0.2398968E+03  0.7957747E-01  0.4447633E+00
         13   -1    0    0    0    0  0.00000000000E+00  0.00000000000E+00  0.49999998884E+03  0.50000000000E+03  0.10566000000E+00 0.  1.
        994   -1    0    0    0    0 -0.00000000000E+00 -0.00000000000E+00  0.00000000000E+00  0.13100000000E+03  0.13100000000E+03 0.  0.
         13    1    1    2    0    0 -0.23731610048E+02  0.15411875030E+02  0.53424621184E+02  0.60455905585E+02  0.10566000000E+00 0. -1.
        994    1    1    2    0    0 -0.20119134366E+02 -0.16386223820E+02  0.95695024406E+02  0.16429189145E+03  0.13100000000E+03 0.  0.
        997    1    1    2    0    0  0.43850744414E+02  0.97434878990E+00  0.35088034325E+03  0.40625220297E+03  0.20000000000E+03 0.  0.
</event>
<event>
 5    1  0.6487493E-012  0.2372861E+03  0.7957747E-01  0.4478995E+00
         13   -1    0    0    0    0  0.00000000000E+00  0.00000000000E+00  0.49999998884E+03  0.50000000000E+03  0.10566000000E+00 0.  1.
        994   -1    0    0    0    0 -0.00000000000E+00 -0.00000000000E+00  0.00000000000E+00  0.13100000000E+03  0.13100000000E+03 0.  0.
         13    1    1    2    0    0  0.13332421021E+02 -0.19899268630E+02  0.35098135239E+02  0.42492641758E+02  0.10566000000E+00 0. -1.
        994    1    1    2    0    0  0.10458794093E+02 -0.71226142169E+01  0.82122632653E+02  0.15512976762E+03  0.13100000000E+03 0.  0.
        997    1    1    2    0    0 -0.23791215114E+02  0.27021882847E+02  0.38277922094E+03  0.43337759062E+03  0.20000000000E+03 0.  0.
</event>
<event>
 5    1  0.6487493E-012  0.2323702E+03  0.7957747E-01  0.4540345E+00
         13   -1    0    0    0    0  0.00000000000E+00  0.00000000000E+00  0.49999998884E+03  0.50000000000E+03  0.10566000000E+00 0.  1.
        994   -1    0    0    0    0 -0.00000000000E+00 -0.00000000000E+00  0.00000000000E+00  0.13100000000E+03  0.13100000000E+03 0.  0.
         13    1    1    2    0    0 -0.62769916196E+01  0.17525062016E+02  0.22449003024E+02  0.29163287251E+02  0.10566000000E+00 0. -1.
        994    1    1    2    0    0 -0.53649075246E+02 -0.43700941744E+02  0.13856228303E+03  0.20285093508E+03  0.13100000000E+03 0.  0.
        997    1    1    2    0    0  0.59926066865E+02  0.26175879728E+02  0.33898870278E+03  0.39898577767E+03  0.20000000000E+03 0.  0.
</event>
<event>
 5    1  0.6487493E-012  0.2467017E+03  0.7957747E-01  0.4369569E+00
         13   -1    0    0    0    0  0.00000000000E+00  0.00000000000E+00  0.49999998884E+03  0.50000000000E+03  0.10566000000E+00 0. -1.
        994   -1    0    0    0    0 -0.00000000000E+00 -0.00000000000E+00  0.00000000000E+00  0.13100000000E+03  0.13100000000E+03 0.  0.
         13    1    1    2    0    0  0.96509047498E+01  0.33814258431E+02  0.69771292098E+02  0.78131865463E+02  0.10566000000E+00 0.  1.
        994    1    1    2    0    0  0.95268310822E+01  0.18587583019E+02  0.11591791067E+03  0.17616532226E+03  0.13100000000E+03 0.  0.
        997    1    1    2    0    0 -0.19177735832E+02 -0.52401841450E+02  0.31431078606E+03  0.37670281227E+03  0.20000000000E+03 0.  0.
</event>
<event>
 5    1  0.6487493E-012  0.2464780E+03  0.7957747E-01  0.4372054E+00
         13   -1    0    0    0    0  0.00000000000E+00  0.00000000000E+00  0.49999998884E+03  0.50000000000E+03  0.10566000000E+00 0. -1.
        994   -1    0    0    0    0 -0.00000000000E+00 -0.00000000000E+00  0.00000000000E+00  0.13100000000E+03  0.13100000000E+03 0.  0.
         13    1    1    2    0    0 -0.16698526618E+02  0.22055487556E+01 -0.81271950561E+01  0.18702077426E+02  0.10566000000E+00 0.  1.
        994    1    1    2    0    0  0.44600449470E+02 -0.37941769226E+01  0.18122751103E+03  0.22805264003E+03  0.13100000000E+03 0.  0.
        997    1    1    2    0    0 -0.27901922852E+02  0.15886281670E+01  0.32689967287E+03  0.38424528255E+03  0.20000000000E+03 0.  0.
</event>
<event>
 5    1  0.6487493E-012  0.2384191E+03  0.7957747E-01  0.4465285E+00
         13   -1    0    0    0    0  0.00000000000E+00  0.00000000000E+00  0.49999998884E+03  0.50000000000E+03  0.10566000000E+00 0. -1.
        994   -1    0    0    0    0 -0.00000000000E+00 -0.00000000000E+00  0.00000000000E+00  0.13100000000E+03  0.13100000000E+03 0.  0.
         13    1    1    2    0    0 -0.43858305416E+01 -0.20732181606E+02  0.20863885097E+02  0.29738388138E+02  0.10566000000E+00 0.  1.
        994    1    1    2    0    0  0.12814723443E+02 -0.46842570989E+02  0.11805338450E+03  0.18290993736E+03  0.13100000000E+03 0.  0.
        997    1    1    2    0    0 -0.84288929011E+01  0.67574752596E+02  0.36108271924E+03  0.41835167450E+03  0.20000000000E+03 0.  0.
</event>
<event>
 5    1  0.6487493E-012  0.2419616E+03  0.7957747E-01  0.4423397E+00
         13   -1    0    0    0    0  0.00000000000E+00  0.00000000000E+00  0.49999998884E+03  0.50000000000E+03  0.10566000000E+00 0.  1.
        994   -1    0    0    0    0 -0.00000000000E+00 -0.00000000000E+00  0.00000000000E+00  0.13100000000E+03  0.13100000000E+03 0.  0.
         13    1    1    2    0    0  0.12079513313E+02  0.34086112553E+02  0.37445658479E+02  0.52057335831E+02  0.10566000000E+00 0. -1.
        994    1    1    2    0    0  0.26271706545E+02 -0.48564699857E+02  0.16102618246E+03  0.21480028882E+03  0.13100000000E+03 0.  0.
        997    1    1    2    0    0 -0.38351219858E+02  0.14478587303E+02  0.30152814789E+03  0.36414237535E+03  0.20000000000E+03 0.  0.
</event>
<event>
 5    1  0.6487493E-012  0.2351827E+03  0.7957747E-01  0.4504870E+00
         13   -1    0    0    0    0  0.00000000000E+00  0.00000000000E+00  0.49999998884E+03  0.50000000000E+03  0.10566000000E+00 0.  1.
        994   -1    0    0    0    0 -0.00000000000E+00 -0.00000000000E+00  0.00000000000E+00  0.13100000000E+03  0.13100000000E+03 0.  0.
         13    1    1    2    0    0 -0.16590797198E+01 -0.24138171976E+02  0.26480724040E+02  0.35869817418E+02  0.10566000000E+00 0. -1.
        994    1    1    2    0    0  0.33610893482E+02  0.34412221966E+02  0.10553316809E+03  0.17496326114E+03  0.13100000000E+03 0.  0.
        997    1    1    2    0    0 -0.31951813762E+02 -0.10274049991E+02  0.36798609671E+03  0.42016692144E+03  0.20000000000E+03 0.  0.
</event>
<event>
 5    1  0.6487493E-012  0.2373476E+03  0.7957747E-01  0.4478247E+00
         13   -1    0    0    0    0  0.00000000000E+00  0.00000000000E+00  0.49999998884E+03  0.50000000000E+03  0.10566000000E+00 0.  1.
        994   -1    0    0    0    0 -0.00000000000E+00 -0.00000000000E+00  0.00000000000E+00  0.13100000000E+03  0.13100000000E+03 0.  0.
         13    1    1    2    0    0 -0.13901319736E+02 -0.16947454640E+02  0.19964294474E+02  0.29648728928E+02  0.10566000000E+00 0. -1.
        994    1    1    2    0    0 -0.44765633771E+01 -0.14158856441E+01  0.80582772321E+02  0.15387211426E+03  0.13100000000E+03 0.  0.
        997    1    1    2    0    0  0.18377883113E+02  0.18363340284E+02  0.39945292204E+03  0.44747915681E+03  0.20000000000E+03 0.  0.
</event>
<event>
 5    1  0.6487493E-012  0.2460909E+03  0.7957747E-01  0.4376368E+00
         13   -1    0    0    0    0  0.00000000000E+00  0.00000000000E+00  0.49999998884E+03  0.50000000000E+03  0.10566000000E+00 0. -1.
        994   -1    0    0    0    0 -0.00000000000E+00 -0.00000000000E+00  0.00000000000E+00  0.13100000000E+03  0.13100000000E+03 0.  0.
         13    1    1    2    0    0  0.25784380701E+02 -0.17654217810E+02  0.57592595714E+02  0.65524224068E+02  0.10566000000E+00 0.  1.
        994    1    1    2    0    0  0.27154067850E+02 -0.34927063463E+02  0.15996264484E+03  0.21143862208E+03  0.13100000000E+03 0.  0.
        997    1    1    2    0    0 -0.52938448552E+02  0.52581281273E+02  0.28244474828E+03  0.35403715385E+03  0.20000000000E+03 0.  0.
</event>
<event>
 5    1  0.6487493E-012  0.2451103E+03  0.7957747E-01  0.4387367E+00
         13   -1    0    0    0    0  0.00000000000E+00  0.00000000000E+00  0.49999998884E+03  0.50000000000E+03  0.10566000000E+00 0. -1.
        994   -1    0    0    0    0 -0.00000000000E+00 -0.00000000000E+00  0.00000000000E+00  0.13100000000E+03  0.13100000000E+03 0.  0.
         13    1    1    2    0    0  0.37460275965E+02  0.60932727631E+01  0.33609472968E+02  0.50695247169E+02  0.10566000000E+00 0.  1.
        994    1    1    2    0    0 -0.30294399999E+02  0.37487556582E+02  0.16871832794E+03  0.21897475140E+03  0.13100000000E+03 0.  0.
        997    1    1    2    0    0 -0.71658759664E+01 -0.43580829345E+02  0.29767218793E+03  0.36133000143E+03  0.20000000000E+03 0.  0.
</event>
<event>
 5    1  0.6487493E-012  0.2499973E+03  0.7957747E-01  0.4333553E+00
         13   -1    0    0    0    0  0.00000000000E+00  0.00000000000E+00  0.49999998884E+03  0.50000000000E+03  0.10566000000E+00 0.  1.
        994   -1    0    0    0    0 -0.00000000000E+00 -0.00000000000E+00  0.00000000000E+00  0.13100000000E+03  0.13100000000E+03 0.  0.
         13    1    1    2    0    0  0.33400008656E+02  0.32907413511E+02  0.49189583892E+02  0.67956491740E+02  0.10566000000E+00 0. -1.
        994    1    1    2    0    0 -0.19647835185E+02 -0.18948458882E+02  0.14699641065E+03  0.19878135291E+03  0.13100000000E+03 0.  0.
        997    1    1    2    0    0 -0.13752173471E+02 -0.13958954629E+02  0.30381399429E+03  0.36426215535E+03  0.20000000000E+03 0.  0.
</event>
<event>
 5    1  0.6487493E-012  0.2409068E+03  0.7957747E-01  0.4435716E+00
         13   -1    0    0    0    0  0.00000000000E+00  0.00000000000E+00  0.49999998884E+03  0.50000000000E+03  0.10566000000E+00 0.  1.
        994   -1    0    0    0    0 -0.00000000000E+00 -0.00000000000E+00  0.00000000000E+00  0.13100000000E+03  0.13100000000E+03 0.  0.
         13    1    1    2    0    0 -0.30403132947E+02  0.11095480819E+02  0.20732212466E+02  0.38435608299E+02  0.10566000000E+00 0. -1.
        994    1    1    2    0    0  0.43802191033E+02 -0.36811635098E+02  0.15847617435E+03  0.21342311556E+03  0.13100000000E+03 0.  0.
        997    1    1    2    0    0 -0.13399058086E+02  0.25716154280E+02  0.32079160202E+03  0.37914127614E+03  0.20000000000E+03 0.  0.
</event>
<event>
 5    1  0.6487493E-012  0.2462263E+03  0.7957747E-01  0.4374858E+00
         13   -1    0    0    0    0  0.00000000000E+00  0.00000000000E+00  0.49999998884E+03  0.50000000000E+03  0.10566000000E+00 0.  1.
        994   -1    0    0    0    0 -0.00000000000E+00 -0.00000000000E+00  0.00000000000E+00  0.13100000000E+03  0.13100000000E+03 0.  0.
         13    1    1    2    0    0 -0.60226638287E+01  0.31018384878E+02  0.29889964769E+02  0.43495216265E+02  0.10566000000E+00 0. -1.
        994    1    1    2    0    0 -0.23193194579E+02  0.30958648109E+02  0.14075427189E+03  0.19613548180E+03  0.13100000000E+03 0.  0.
        997    1    1    2    0    0  0.29215858408E+02 -0.61977032987E+02  0.32935575218E+03  0.39136930193E+03  0.20000000000E+03 0.  0.
</event>
<event>
 5    1  0.6487493E-012  0.2484732E+03  0.7957747E-01  0.4350070E+00
         13   -1    0    0    0    0  0.00000000000E+00  0.00000000000E+00  0.49999998884E+03  0.50000000000E+03  0.10566000000E+00 0.  1.
        994   -1    0    0    0    0 -0.00000000000E+00 -0.00000000000E+00  0.00000000000E+00  0.13100000000E+03  0.13100000000E+03 0.  0.
         13    1    1    2    0    0  0.22338373443E+02  0.13362247992E+01  0.67535706306E-01  0.22378653889E+02  0.10566000000E+00 0. -1.
        994    1    1    2    0    0  0.13332709245E+02  0.25836439848E+02  0.13673005309E+03  0.19157606891E+03  0.13100000000E+03 0.  0.
        997    1    1    2    0    0 -0.35671082687E+02 -0.27172664647E+02  0.36320240004E+03  0.41704527720E+03  0.20000000000E+03 0.  0.
</event>
<event>
 5    1  0.6487493E-012  0.2462490E+03  0.7957747E-01  0.4374604E+00
         13   -1    0    0    0    0  0.00000000000E+00  0.00000000000E+00  0.49999998884E+03  0.50000000000E+03  0.10566000000E+00 0.  1.
        994   -1    0    0    0    0 -0.00000000000E+00 -0.00000000000E+00  0.00000000000E+00  0.13100000000E+03  0.13100000000E+03 0.  0.
         13    1    1    2    0    0 -0.18208045646E+02  0.31447365037E+02  0.59299830592E+02  0.69548190245E+02  0.10566000000E+00 0. -1.
        994    1    1    2    0    0 -0.16445374961E+02  0.53448669875E+01  0.11118289645E+03  0.17268947398E+03  0.13100000000E+03 0.  0.
        997    1    1    2    0    0  0.34653420607E+02 -0.36792232025E+02  0.32951726179E+03  0.38876233577E+03  0.20000000000E+03 0.  0.
</event>
<event>
 5    1  0.6487493E-012  0.2394667E+03  0.7957747E-01  0.4452744E+00
         13   -1    0    0    0    0  0.00000000000E+00  0.00000000000E+00  0.49999998884E+03  0.50000000000E+03  0.10566000000E+00 0. -1.
        994   -1    0    0    0    0 -0.00000000000E+00 -0.00000000000E+00  0.00000000000E+00  0.13100000000E+03  0.13100000000E+03 0.  0.
         13    1    1    2    0    0 -0.30792133795E+02 -0.12831893596E+02  0.68923970773E+02  0.76572435694E+02  0.10566000000E+00 0.  1.
        994    1    1    2    0    0  0.32921849670E+02  0.19594990067E+02  0.10653095147E+03  0.17314056556E+03  0.13100000000E+03 0.  0.
        997    1    1    2    0    0 -0.21297158747E+01 -0.67630964713E+01  0.32454506659E+03  0.38128699874E+03  0.20000000000E+03 0.  0.
</event>
<event>
 5    1  0.6487493E-012  0.2328372E+03  0.7957747E-01  0.4534383E+00
         13   -1    0    0    0    0  0.00000000000E+00  0.00000000000E+00  0.49999998884E+03  0.50000000000E+03  0.10566000000E+00 0.  1.
        994   -1    0    0    0    0 -0.00000000000E+00 -0.00000000000E+00  0.00000000000E+00  0.13100000000E+03  0.13100000000E+03 0.  0.
         13    1    1    2    0    0  0.76359691563E+01 -0.77456150856E+01  0.16495539715E+01  0.11001580357E+02  0.10566000000E+00 0. -1.
        994    1    1    2    0    0  0.73953573720E+01  0.45476166966E+02  0.95905144165E+02  0.16876483564E+03  0.13100000000E+03 0.  0.
        997    1    1    2    0    0 -0.15031326528E+02 -0.37730551881E+02  0.40244529070E+03  0.45123358400E+03  0.20000000000E+03 0.  0.
</event>
<event>
 5    1  0.6487493E-012  0.2297405E+03  0.7957747E-01  0.4574464E+00
         13   -1    0    0    0    0  0.00000000000E+00  0.00000000000E+00  0.49999998884E+03  0.50000000000E+03  0.10566000000E+00 0.  1.
        994   -1    0    0    0    0 -0.00000000000E+00 -0.00000000000E+00  0.00000000000E+00  0.13100000000E+03  0.13100000000E+03 0.  0.
         13    1    1    2    0    0  0.18442441164E+01  0.11373537870E+02  0.14694930575E+02  0.18673798453E+02  0.10566000000E+00 0. -1.
        994    1    1    2    0    0 -0.62258201044E+02  0.34390108607E+02  0.13087255560E+03  0.19836176289E+03  0.13100000000E+03 0.  0.
        997    1    1    2    0    0  0.60413956927E+02 -0.45763646477E+02  0.35443250266E+03  0.41396443866E+03  0.20000000000E+03 0.  0.
</event>
<event>
 5    1  0.6487493E-012  0.2354626E+03  0.7957747E-01  0.4501394E+00
         13   -1    0    0    0    0  0.00000000000E+00  0.00000000000E+00  0.49999998884E+03  0.50000000000E+03  0.10566000000E+00 0.  1.
        994   -1    0    0    0    0 -0.00000000000E+00 -0.00000000000E+00  0.00000000000E+00  0.13100000000E+03  0.13100000000E+03 0.  0.
         13    1    1    2    0    0  0.21164944438E+02 -0.76451605816E+01  0.37062483581E+02  0.43359453485E+02  0.10566000000E+00 0. -1.
        994    1    1    2    0    0 -0.11667238833E+01 -0.96333461031E+01  0.77281290780E+02  0.15240590706E+03  0.13100000000E+03 0.  0.
        997    1    1    2    0    0 -0.19998220554E+02  0.17278506685E+02  0.38565621448E+03  0.43523463946E+03  0.20000000000E+03 0.  0.
</event>
<event>
 5    1  0.6487493E-012  0.2319832E+03  0.7957747E-01  0.4545307E+00
         13   -1    0    0    0    0  0.00000000000E+00  0.00000000000E+00  0.49999998884E+03  0.50000000000E+03  0.10566000000E+00 0.  1.
        994   -1    0    0    0    0 -0.00000000000E+00 -0.00000000000E+00  0.00000000000E+00  0.13100000000E+03  0.13100000000E+03 0.  0.
         13    1    1    2    0    0  0.78651369928E+01  0.17475277735E+02  0.56654713117E+02  0.59808138194E+02  0.10566000000E+00 0. -1.
        994    1    1    2    0    0 -0.27715447142E+02 -0.42416367921E+02  0.99477252208E+02  0.17211629204E+03  0.13100000000E+03 0.  0.
        997    1    1    2    0    0  0.19850310149E+02  0.24941090186E+02  0.34386802351E+03  0.39907556977E+03  0.20000000000E+03 0.  0.
</event>
<event>
 5    1  0.6487493E-012  0.2449065E+03  0.7957747E-01  0.4389667E+00
         13   -1    0    0    0    0  0.00000000000E+00  0.00000000000E+00  0.49999998884E+03  0.50000000000E+03  0.10566000000E+00 0.  1.
        994   -1    0    0    0    0 -0.00000000000E+00 -0.00000000000E+00  0.00000000000E+00  0.13100000000E+03  0.13100000000E+03 0.  0.
         13    1    1    2    0    0  0.20711190186E+02 -0.33292898541E+02  0.50829991907E+02  0.64195558518E+02  0.10566000000E+00 0. -1.
        994    1    1    2    0    0 -0.20743928218E+02  0.12227726484E+02  0.11113129589E+03  0.17346755541E+03  0.13100000000E+03 0.  0.
        997    1    1    2    0    0  0.32738032500E-01  0.21065172058E+02  0.33803870104E+03  0.39333688608E+03  0.20000000000E+03 0.  0.
</event>
<event>
 5    1  0.6487493E-012  0.2441336E+03  0.7957747E-01  0.4398427E+00
         13   -1    0    0    0    0  0.00000000000E+00  0.00000000000E+00  0.49999998884E+03  0.50000000000E+03  0.10566000000E+00 0.  1.
        994   -1    0    0    0    0 -0.00000000000E+00 -0.00000000000E+00  0.00000000000E+00  0.13100000000E+03  0.13100000000E+03 0.  0.
         13    1    1    2    0    0  0.16523634691E+02  0.10701809027E+02 -0.42821970036E+01  0.20147148559E+02  0.10566000000E+00 0. -1.
        994    1    1    2    0    0 -0.41002765371E+02 -0.31213404244E+02  0.17983404715E+03  0.22837860646E+03  0.13100000000E+03 0.  0.
        997    1    1    2    0    0  0.24479130680E+02  0.20511595217E+02  0.32444813869E+03  0.38247424498E+03  0.20000000000E+03 0.  0.
</event>
<event>
 5    1  0.6487493E-012  0.2432915E+03  0.7957747E-01  0.4408045E+00
         13   -1    0    0    0    0  0.00000000000E+00  0.00000000000E+00  0.49999998884E+03  0.50000000000E+03  0.10566000000E+00 0.  1.
        994   -1    0    0    0    0 -0.00000000000E+00 -0.00000000000E+00  0.00000000000E+00  0.13100000000E+03  0.13100000000E+03 0.  0.
         13    1    1    2    0    0 -0.64920220805E+01  0.25858838856E+02  0.21478089471E+02  0.34236608901E+02  0.10566000000E+00 0. -1.
        994    1    1    2    0    0  0.16877485173E+02  0.45191926650E+02  0.14484478487E+03  0.20116702375E+03  0.13100000000E+03 0.  0.
        997    1    1    2    0    0 -0.10385463092E+02 -0.71050765506E+02  0.33367711450E+03  0.39559636735E+03  0.20000000000E+03 0.  0.
</event>
<event>
 5    1  0.6487493E-012  0.2292870E+03  0.7957747E-01  0.4580445E+00
         13   -1    0    0    0    0  0.00000000000E+00  0.00000000000E+00  0.49999998884E+03  0.50000000000E+03  0.10566000000E+00 0. -1.
        994   -1    0    0    0    0 -0.00000000000E+00 -0.00000000000E+00  0.00000000000E+00  0.13100000000E+03  0.13100000000E+03 0.  0.
         13    1    1    2    0    0 -0.10187369816E+02 -0.20184335136E+01  0.59389728394E+01  0.11964077066E+02  0.10566000000E+00 0.  1.
        994    1    1    2    0    0  0.38839879275E+02  0.39358782217E+01  0.80192222496E+02  0.15847971450E+03  0.13100000000E+03 0.  0.
        997    1    1    2    0    0 -0.28652509459E+02 -0.19174447080E+01  0.41386879350E+03  0.46055620843E+03  0.20000000000E+03 0.  0.
</event>
<event>
 5    1  0.6487493E-012  0.2327994E+03  0.7957747E-01  0.4534865E+00
         13   -1    0    0    0    0  0.00000000000E+00  0.00000000000E+00  0.49999998884E+03  0.50000000000E+03  0.10566000000E+00 0.  1.
        994   -1    0    0    0    0 -0.00000000000E+00 -0.00000000000E+00  0.00000000000E+00  0.13100000000E+03  0.13100000000E+03 0.  0.
         13    1    1    2    0    0  0.88632989140E+01  0.22307742018E+02  0.28640784326E+02  0.37369762006E+02  0.10566000000E+00 0. -1.
        994    1    1    2    0    0 -0.22222945544E+02 -0.61045821177E+02  0.12885822099E+03  0.19489969909E+03  0.13100000000E+03 0.  0.
        997    1    1    2    0    0  0.13359646630E+02  0.38738079159E+02  0.34250098353E+03  0.39873053890E+03  0.20000000000E+03 0.  0.
</event>
<event>
 5    1  0.6487493E-012  0.2346523E+03  0.7957747E-01  0.4511481E+00
         13   -1    0    0    0    0  0.00000000000E+00  0.00000000000E+00  0.49999998884E+03  0.50000000000E+03  0.10566000000E+00 0. -1.
        994   -1    0    0    0    0 -0.00000000000E+00 -0.00000000000E+00  0.00000000000E+00  0.13100000000E+03  0.13100000000E+03 0.  0.
         13    1    1    2    0    0  0.41829737954E+01  0.95567252999E+01  0.37990467948E+00  0.10439528717E+02  0.10566000000E+00 0.  1.
        994    1    1    2    0    0  0.15990527956E+02 -0.73247075824E+01  0.78016063756E+02  0.15348242417E+03  0.13100000000E+03 0.  0.
        997    1    1    2    0    0 -0.20173501751E+02 -0.22320177176E+01  0.42160402040E+03  0.46707804711E+03  0.20000000000E+03 0.  0.
</event>
<event>
 5    1  0.6487493E-012  0.2360551E+03  0.7957747E-01  0.4494071E+00
         13   -1    0    0    0    0  0.00000000000E+00  0.00000000000E+00  0.49999998884E+03  0.50000000000E+03  0.10566000000E+00 0. -1.
        994   -1    0    0    0    0 -0.00000000000E+00 -0.00000000000E+00  0.00000000000E+00  0.13100000000E+03  0.13100000000E+03 0.  0.
         13    1    1    2    0    0  0.50495296931E+01 -0.17827052620E+02  0.71430493555E+01  0.19857891967E+02  0.10566000000E+00 0.  1.
        994    1    1    2    0    0 -0.50039547818E+02  0.26641227022E+02  0.12410664866E+03  0.18914854365E+03  0.13100000000E+03 0.  0.
        997    1    1    2    0    0  0.44990018125E+02 -0.88141744016E+01  0.36875029082E+03  0.42199356438E+03  0.20000000000E+03 0.  0.
</event>
<event>
 5    1  0.6487493E-012  0.2442848E+03  0.7957747E-01  0.4396707E+00
         13   -1    0    0    0    0  0.00000000000E+00  0.00000000000E+00  0.49999998884E+03  0.50000000000E+03  0.10566000000E+00 0. -1.
        994   -1    0    0    0    0 -0.00000000000E+00 -0.00000000000E+00  0.00000000000E+00  0.13100000000E+03  0.13100000000E+03 0.  0.
         13    1    1    2    0    0  0.26538238944E+02 -0.15281689700E+02  0.40212521541E+02  0.50545684475E+02  0.10566000000E+00 0.  1.
        994    1    1    2    0    0  0.45305353784E+02  0.97164276543E+01  0.14716194779E+03  0.20239719100E+03  0.13100000000E+03 0.  0.
        997    1    1    2    0    0 -0.71843592727E+02  0.55652620457E+01  0.31262551950E+03  0.37805712452E+03  0.20000000000E+03 0.  0.
</event>
<event>
 5    1  0.6487493E-012  0.2402928E+03  0.7957747E-01  0.4442947E+00
         13   -1    0    0    0    0  0.00000000000E+00  0.00000000000E+00  0.49999998884E+03  0.50000000000E+03  0.10566000000E+00 0. -1.
        994   -1    0    0    0    0 -0.00000000000E+00 -0.00000000000E+00  0.00000000000E+00  0.13100000000E+03  0.13100000000E+03 0.  0.
         13    1    1    2    0    0  0.97802502696E+01 -0.15701878456E+02  0.66703443596E+01  0.19664865631E+02  0.10566000000E+00 0.  1.
        994    1    1    2    0    0  0.35903260762E+02 -0.19920083828E+02  0.11329268713E+03  0.17799462585E+03  0.13100000000E+03 0.  0.
        997    1    1    2    0    0 -0.45683511032E+02  0.35621962284E+02  0.38003695735E+03  0.43334050852E+03  0.20000000000E+03 0.  0.
</event>
<event>
 5    1  0.6487493E-012  0.2466418E+03  0.7957747E-01  0.4370234E+00
         13   -1    0    0    0    0  0.00000000000E+00  0.00000000000E+00  0.49999998884E+03  0.50000000000E+03  0.10566000000E+00 0.  1.
        994   -1    0    0    0    0 -0.00000000000E+00 -0.00000000000E+00  0.00000000000E+00  0.13100000000E+03  0.13100000000E+03 0.  0.
         13    1    1    2    0    0  0.27830950911E+02 -0.12591787216E+02  0.11907334443E+02  0.32785830956E+02  0.10566000000E+00 0. -1.
        994    1    1    2    0    0 -0.23564193801E+02 -0.36538887339E+02  0.16603441908E+03  0.21591384818E+03  0.13100000000E+03 0.  0.
        997    1    1    2    0    0 -0.42667571099E+01  0.49130674556E+02  0.32205823531E+03  0.38230032086E+03  0.20000000000E+03 0.  0.
</event>
<event>
 5    1  0.6487493E-012  0.2366403E+03  0.7957747E-01  0.4486881E+00
         13   -1    0    0    0    0  0.00000000000E+00  0.00000000000E+00  0.49999998884E+03  0.50000000000E+03  0.10566000000E+00 0. -1.
        994   -1    0    0    0    0 -0.00000000000E+00 -0.00000000000E+00  0.00000000000E+00  0.13100000000E+03  0.13100000000E+03 0.  0.
         13    1    1    2    0    0 -0.86114278372E+01 -0.18628478846E+02  0.77098673294E+01  0.21923278308E+02  0.10566000000E+00 0.  1.
        994    1    1    2    0    0  0.31819337959E+02  0.47865163469E+02  0.12866679471E+03  0.19240501086E+03  0.13100000000E+03 0.  0.
        997    1    1    2    0    0 -0.23207910122E+02 -0.29236684623E+02  0.36362332679E+03  0.41667171083E+03  0.20000000000E+03 0.  0.
</event>
<event>
 5    1  0.6487493E-012  0.2389382E+03  0.7957747E-01  0.4459055E+00
         13   -1    0    0    0    0  0.00000000000E+00  0.00000000000E+00  0.49999998884E+03  0.50000000000E+03  0.10566000000E+00 0. -1.
        994   -1    0    0    0    0 -0.00000000000E+00 -0.00000000000E+00  0.00000000000E+00  0.13100000000E+03  0.13100000000E+03 0.  0.
         13    1    1    2    0    0  0.17990300060E+02  0.16650741342E+02  0.10154275411E+02  0.26533348011E+02  0.10566000000E+00 0.  1.
        994    1    1    2    0    0  0.10985343500E+02  0.91090182887E+01  0.29258957894E+03  0.32089455229E+03  0.13100000000E+03 0.  0.
        997    1    1    2    0    0 -0.28975643560E+02 -0.25759759631E+02  0.19725613449E+03  0.28357209970E+03  0.20000000000E+03 0.  0.
</event>
<event>
 5    1  0.6487493E-012  0.2356447E+03  0.7957747E-01  0.4499139E+00
         13   -1    0    0    0    0  0.00000000000E+00  0.00000000000E+00  0.49999998884E+03  0.50000000000E+03  0.10566000000E+00 0.  1.
        994   -1    0    0    0    0 -0.00000000000E+00 -0.00000000000E+00  0.00000000000E+00  0.13100000000E+03  0.13100000000E+03 0.  0.
         13    1    1    2    0    0  0.76130543174E+00 -0.11445362621E+02  0.84902215318E+00  0.11502517731E+02  0.10566000000E+00 0. -1.
        994    1    1    2    0    0 -0.33939110384E+02 -0.21114938368E+02  0.96593823795E+02  0.16759794340E+03  0.13100000000E+03 0.  0.
        997    1    1    2    0    0  0.33177804952E+02  0.32560300990E+02  0.40255714289E+03  0.45189953887E+03  0.20000000000E+03 0.  0.
</event>
<event>
 5    1  0.6487493E-012  0.2351253E+03  0.7957747E-01  0.4505583E+00
         13   -1    0    0    0    0  0.00000000000E+00  0.00000000000E+00  0.49999998884E+03  0.50000000000E+03  0.10566000000E+00 0. -1.
        994   -1    0    0    0    0 -0.00000000000E+00 -0.00000000000E+00  0.00000000000E+00  0.13100000000E+03  0.13100000000E+03 0.  0.
         13    1    1    2    0    0  0.24813020527E+01  0.21490160000E+02  0.45596137870E+02  0.50467839159E+02  0.10566000000E+00 0.  1.
        994    1    1    2    0    0 -0.31770784167E+02  0.71120697563E+01  0.88127563088E+02  0.16120617742E+03  0.13100000000E+03 0.  0.
        997    1    1    2    0    0  0.29289482114E+02 -0.28602229756E+02  0.36627628788E+03  0.41932598342E+03  0.20000000000E+03 0.  0.
</event>
<event>
 5    1  0.6487493E-012  0.2301497E+03  0.7957747E-01  0.4569094E+00
         13   -1    0    0    0    0  0.00000000000E+00  0.00000000000E+00  0.49999998884E+03  0.50000000000E+03  0.10566000000E+00 0.  1.
        994   -1    0    0    0    0 -0.00000000000E+00 -0.00000000000E+00  0.00000000000E+00  0.13100000000E+03  0.13100000000E+03 0.  0.
         13    1    1    2    0    0  0.11435665160E+02 -0.38434434093E+01  0.15311443019E+02  0.19493536012E+02  0.10566000000E+00 0. -1.
        994    1    1    2    0    0  0.33876048991E+02  0.23895067470E+02  0.84275753777E+02  0.16118921682E+03  0.13100000000E+03 0.  0.
        997    1    1    2    0    0 -0.45311714151E+02 -0.20051624061E+02  0.40041279204E+03  0.45031724717E+03  0.20000000000E+03 0.  0.
</event>
<event>
 5    1  0.6487493E-012  0.2478302E+03  0.7957747E-01  0.4357110E+00
         13   -1    0    0    0    0  0.00000000000E+00  0.00000000000E+00  0.49999998884E+03  0.50000000000E+03  0.10566000000E+00 0.  1.
        994   -1    0    0    0    0 -0.00000000000E+00 -0.00000000000E+00  0.00000000000E+00  0.13100000000E+03  0.13100000000E+03 0.  0.
         13    1    1    2    0    0 -0.13601618832E+02 -0.16695245459E+02  0.69070364888E+00  0.21545846267E+02  0.10566000000E+00 0. -1.
        994    1    1    2    0    0 -0.85722219829E+01 -0.22690306148E+02  0.12511956233E+03  0.18276826273E+03  0.13100000000E+03 0.  0.
        997    1    1    2    0    0  0.22173840814E+02  0.39385551607E+02  0.37418972286E+03  0.42668589100E+03  0.20000000000E+03 0.  0.
</event>
<event>
 5    1  0.6487493E-012  0.2284176E+03  0.7957747E-01  0.4591989E+00
         13   -1    0    0    0    0  0.00000000000E+00  0.00000000000E+00  0.49999998884E+03  0.50000000000E+03  0.10566000000E+00 0. -1.
        994   -1    0    0    0    0 -0.00000000000E+00 -0.00000000000E+00  0.00000000000E+00  0.13100000000E+03  0.13100000000E+03 0.  0.
         13    1    1    2    0    0 -0.13840531369E+02  0.45039538365E+01  0.33933073723E+02  0.36923035697E+02  0.10566000000E+00 0.  1.
        994    1    1    2    0    0  0.76335471223E+02  0.37089283784E+01  0.14000764153E+03  0.20640736422E+03  0.13100000000E+03 0.  0.
        997    1    1    2    0    0 -0.62494939854E+02 -0.82128822149E+01  0.32605927358E+03  0.38766960008E+03  0.20000000000E+03 0.  0.
</event>
<event>
 5    1  0.6487493E-012  0.2456810E+03  0.7957747E-01  0.4380953E+00
         13   -1    0    0    0    0  0.00000000000E+00  0.00000000000E+00  0.49999998884E+03  0.50000000000E+03  0.10566000000E+00 0.  1.
        994   -1    0    0    0    0 -0.00000000000E+00 -0.00000000000E+00  0.00000000000E+00  0.13100000000E+03  0.13100000000E+03 0.  0.
         13    1    1    2    0    0 -0.85104204140E+01 -0.35034511916E+02  0.31349650224E+02  0.47777149496E+02  0.10566000000E+00 0. -1.
        994    1    1    2    0    0  0.37910325459E+02  0.41203378479E+01  0.13533258223E+03  0.19217200049E+03  0.13100000000E+03 0.  0.
        997    1    1    2    0    0 -0.29399905045E+02  0.30914174068E+02  0.33331775638E+03  0.39105085001E+03  0.20000000000E+03 0.  0.
</event>
<event>
 5    1  0.6620338E-012  0.2310510E+03  0.7957747E-01  0.4557344E+00
         13   -1    0    0    0    0  0.00000000000E+00  0.00000000000E+00  0.49999998884E+03  0.50000000000E+03  0.10566000000E+00 0. -1.
        994   -1    0    0    0    0 -0.00000000000E+00 -0.00000000000E+00  0.00000000000E+00  0.13100000000E+03  0.13100000000E+03 0.  0.
         13    1    1    2    0    0 -0.49777116644E+01 -0.17159670743E+02  0.18567013182E+02  0.25767752249E+02  0.10566000000E+00 0.  1.
        994    1    1    2    0    0  0.23139432760E+02  0.47850703763E+02  0.10030711669E+03  0.17334255351E+03  0.13100000000E+03 0.  0.
        997    1    1    2    0    0 -0.18161721096E+02 -0.30691033020E+02  0.38112585896E+03  0.43188969424E+03  0.20000000000E+03 0.  0.
</event>
<event>
 5    1  0.6487493E-012  0.2301445E+03  0.7957747E-01  0.4569161E+00
         13   -1    0    0    0    0  0.00000000000E+00  0.00000000000E+00  0.49999998884E+03  0.50000000000E+03  0.10566000000E+00 0.  1.
        994   -1    0    0    0    0 -0.00000000000E+00 -0.00000000000E+00  0.00000000000E+00  0.13100000000E+03  0.13100000000E+03 0.  0.
         13    1    1    2    0    0  0.23338645393E+01  0.97692215012E+01  0.61697802768E+01  0.11788212974E+02  0.10566000000E+00 0. -1.
        994    1    1    2    0    0  0.46197866615E+01  0.46718557187E+01  0.66359788117E+02  0.14699588478E+03  0.13100000000E+03 0.  0.
        997    1    1    2    0    0 -0.69536512009E+01 -0.14441077220E+02  0.42747042044E+03  0.47221590224E+03  0.20000000000E+03 0.  0.
</event>
<event>
 5    1  0.6487493E-012  0.2355883E+03  0.7957747E-01  0.4499837E+00
         13   -1    0    0    0    0  0.00000000000E+00  0.00000000000E+00  0.49999998884E+03  0.50000000000E+03  0.10566000000E+00 0.  1.
        994   -1    0    0    0    0 -0.00000000000E+00 -0.00000000000E+00  0.00000000000E+00  0.13100000000E+03  0.13100000000E+03 0.  0.
         13    1    1    2    0    0  0.34139066284E+01 -0.25674927581E+02  0.26665269672E+02  0.37173975244E+02  0.10566000000E+00 0. -1.
        994    1    1    2    0    0 -0.20517318315E+01  0.48622172026E+02  0.10770121808E+03  0.17643377679E+03  0.13100000000E+03 0.  0.
        997    1    1    2    0    0 -0.13621747969E+01 -0.22947244444E+02  0.36563350108E+03  0.41739224797E+03  0.20000000000E+03 0.  0.
</event>
<event>
 5    1  0.6487493E-012  0.2360488E+03  0.7957747E-01  0.4494148E+00
         13   -1    0    0    0    0  0.00000000000E+00  0.00000000000E+00  0.49999998884E+03  0.50000000000E+03  0.10566000000E+00 0. -1.
        994   -1    0    0    0    0 -0.00000000000E+00 -0.00000000000E+00  0.00000000000E+00  0.13100000000E+03  0.13100000000E+03 0.  0.
         13    1    1    2    0    0  0.17051940296E+02  0.18557151514E+01  0.50431070170E+01  0.17878938420E+02  0.10566000000E+00 0.  1.
        994    1    1    2    0    0 -0.21091832758E+02 -0.60138836929E+02  0.14313914399E+03  0.20423359092E+03  0.13100000000E+03 0.  0.
        997    1    1    2    0    0  0.40398924612E+01  0.58283121778E+02  0.35181773783E+03  0.40888747066E+03  0.20000000000E+03 0.  0.
</event>
<event>
 5    1  0.6487493E-012  0.2463592E+03  0.7957747E-01  0.4373377E+00
         13   -1    0    0    0    0  0.00000000000E+00  0.00000000000E+00  0.49999998884E+03  0.50000000000E+03  0.10566000000E+00 0.  1.
        994   -1    0    0    0    0 -0.00000000000E+00 -0.00000000000E+00  0.00000000000E+00  0.13100000000E+03  0.13100000000E+03 0.  0.
         13    1    1    2    0    0 -0.16030912177E+02 -0.29384515851E+02  0.23743472685E+02  0.41039049407E+02  0.10566000000E+00 0. -1.
        994    1    1    2    0    0  0.18802991540E+02 -0.21792359639E+01  0.11281336095E+03  0.17391422014E+03  0.13100000000E+03 0.  0.
        997    1    1    2    0    0 -0.27720793631E+01  0.31563751815E+02  0.36344315520E+03  0.41604673045E+03  0.20000000000E+03 0.  0.
</event>
<event>
 5    1  0.6487493E-012  0.2375569E+03  0.7957747E-01  0.4475704E+00
         13   -1    0    0    0    0  0.00000000000E+00  0.00000000000E+00  0.49999998884E+03  0.50000000000E+03  0.10566000000E+00 0.  1.
        994   -1    0    0    0    0 -0.00000000000E+00 -0.00000000000E+00  0.00000000000E+00  0.13100000000E+03  0.13100000000E+03 0.  0.
         13    1    1    2    0    0  0.19074808336E+02 -0.22270768971E+02  0.41549206546E+02  0.50854529712E+02  0.10566000000E+00 0. -1.
        994    1    1    2    0    0 -0.18401642347E+02  0.25584249127E+02  0.93596131439E+02  0.16405611864E+03  0.13100000000E+03 0.  0.
        997    1    1    2    0    0 -0.67316598914E+00 -0.33134801566E+01  0.36485465085E+03  0.41608935164E+03  0.20000000000E+03 0.  0.
</event>
<event>
 5    1  0.6487493E-012  0.2390776E+03  0.7957747E-01  0.4457386E+00
         13   -1    0    0    0    0  0.00000000000E+00  0.00000000000E+00  0.49999998884E+03  0.50000000000E+03  0.10566000000E+00 0.  1.
        994   -1    0    0    0    0 -0.00000000000E+00 -0.00000000000E+00  0.00000000000E+00  0.13100000000E+03  0.13100000000E+03 0.  0.
         13    1    1    2    0    0  0.32709847161E+02 -0.11789095695E+02  0.33325816121E+02  0.48161582852E+02  0.10566000000E+00 0. -1.
        994    1    1    2    0    0 -0.50165726884E+02  0.38225808239E+02  0.17073177015E+03  0.22425019489E+03  0.13100000000E+03 0.  0.
        997    1    1    2    0    0  0.17455879723E+02 -0.26436712544E+02  0.29594240257E+03  0.35858822226E+03  0.20000000000E+03 0.  0.
</event>
<event>
 5    1  0.6487493E-012  0.2507227E+03  0.7957747E-01  0.4325774E+00
         13   -1    0    0    0    0  0.00000000000E+00  0.00000000000E+00  0.49999998884E+03  0.50000000000E+03  0.10566000000E+00 0.  1.
        994   -1    0    0    0    0 -0.00000000000E+00 -0.00000000000E+00  0.00000000000E+00  0.13100000000E+03  0.13100000000E+03 0.  0.
         13    1    1    2    0    0  0.39447937593E+02 -0.14560569487E+02  0.31652969521E+02  0.52631469746E+02  0.10566000000E+00 0. -1.
        994    1    1    2    0    0 -0.19866560916E+02 -0.13997159515E+02  0.14806162270E+03  0.19918294313E+03  0.13100000000E+03 0.  0.
        997    1    1    2    0    0 -0.19581376676E+02  0.28557729002E+02  0.32028539661E+03  0.37918558712E+03  0.20000000000E+03 0.  0.
</event>
<event>
 5    1  0.6487493E-012  0.2281492E+03  0.7957747E-01  0.4595575E+00
         13   -1    0    0    0    0  0.00000000000E+00  0.00000000000E+00  0.49999998884E+03  0.50000000000E+03  0.10566000000E+00 0. -1.
        994   -1    0    0    0    0 -0.00000000000E+00 -0.00000000000E+00  0.00000000000E+00  0.13100000000E+03  0.13100000000E+03 0.  0.
         13    1    1    2    0    0 -0.10592783659E+01  0.11284407891E+02  0.12691821557E+02  0.17016269584E+02  0.10566000000E+00 0.  1.
        994    1    1    2    0    0 -0.77482810775E+01 -0.34937737256E+02  0.75242934237E+02  0.15525199032E+03  0.13100000000E+03 0.  0.
        997    1    1    2    0    0  0.88075594434E+01  0.23653329365E+02  0.41206523304E+03  0.45873174010E+03  0.20000000000E+03 0.  0.
</event>
<event>
 5    1  0.6487493E-012  0.2474652E+03  0.7957747E-01  0.4361125E+00
         13   -1    0    0    0    0  0.00000000000E+00  0.00000000000E+00  0.49999998884E+03  0.50000000000E+03  0.10566000000E+00 0. -1.
        994   -1    0    0    0    0 -0.00000000000E+00 -0.00000000000E+00  0.00000000000E+00  0.13100000000E+03  0.13100000000E+03 0.  0.
         13    1    1    2    0    0  0.22841414408E+02  0.26687110685E+02  0.43678255871E+02  0.56051166703E+02  0.10566000000E+00 0.  1.
        994    1    1    2    0    0  0.24082427951E+02  0.17629519361E+02  0.13100137700E+03  0.18765160288E+03  0.13100000000E+03 0.  0.
        997    1    1    2    0    0 -0.46923842358E+02 -0.44316630045E+02  0.32532035597E+03  0.38729723041E+03  0.20000000000E+03 0.  0.
</event>
<event>
 5    1  0.6487493E-012  0.2320235E+03  0.7957747E-01  0.4544790E+00
         13   -1    0    0    0    0  0.00000000000E+00  0.00000000000E+00  0.49999998884E+03  0.50000000000E+03  0.10566000000E+00 0. -1.
        994   -1    0    0    0    0 -0.00000000000E+00 -0.00000000000E+00  0.00000000000E+00  0.13100000000E+03  0.13100000000E+03 0.  0.
         13    1    1    2    0    0  0.54858004495E+01 -0.20170419243E+02  0.33171927295E+02  0.39208771258E+02  0.10566000000E+00 0.  1.
        994    1    1    2    0    0  0.66414512608E+01  0.45711070572E+02  0.93871778814E+02  0.16764999763E+03  0.13100000000E+03 0.  0.
        997    1    1    2    0    0 -0.12127251710E+02 -0.25540651329E+02  0.37295628273E+03  0.42414123111E+03  0.20000000000E+03 0.  0.
</event>
<event>
 5    1  0.6487493E-012  0.2478019E+03  0.7957747E-01  0.4357421E+00
         13   -1    0    0    0    0  0.00000000000E+00  0.00000000000E+00  0.49999998884E+03  0.50000000000E+03  0.10566000000E+00 0. -1.
        994   -1    0    0    0    0 -0.00000000000E+00 -0.00000000000E+00  0.00000000000E+00  0.13100000000E+03  0.13100000000E+03 0.  0.
         13    1    1    2    0    0  0.24976768094E+02 -0.25278637457E+02  0.24889199312E+02  0.43385848644E+02  0.10566000000E+00 0.  1.
        994    1    1    2    0    0  0.70014158267E+01  0.18095902959E+02  0.11984977964E+03  0.17860977355E+03  0.13100000000E+03 0.  0.
        997    1    1    2    0    0 -0.31978183920E+02  0.71827344981E+01  0.35526100988E+03  0.40900437781E+03  0.20000000000E+03 0.  0.
</event>
<event>
 5    1  0.6487493E-012  0.2482217E+03  0.7957747E-01  0.4352818E+00
         13   -1    0    0    0    0  0.00000000000E+00  0.00000000000E+00  0.49999998884E+03  0.50000000000E+03  0.10566000000E+00 0.  1.
        994   -1    0    0    0    0 -0.00000000000E+00 -0.00000000000E+00  0.00000000000E+00  0.13100000000E+03  0.13100000000E+03 0.  0.
         13    1    1    2    0    0 -0.13301416259E+02  0.35609367640E+02  0.19019749393E+02  0.42505491048E+02  0.10566000000E+00 0. -1.
        994    1    1    2    0    0  0.29609004816E+02 -0.24646539221E+02  0.16714212190E+03  0.21582778777E+03  0.13100000000E+03 0.  0.
        997    1    1    2    0    0 -0.16307588557E+02 -0.10962828419E+02  0.31383811755E+03  0.37266672118E+03  0.20000000000E+03 0.  0.
</event>
<event>
 5    1  0.1024417E-011  0.2405992E+03  0.7957747E-01  0.4439334E+00
         13   -1    0    0    0    0  0.00000000000E+00  0.00000000000E+00  0.49999998884E+03  0.50000000000E+03  0.10566000000E+00 0.  1.
        994   -1    0    0    0    0 -0.00000000000E+00 -0.00000000000E+00  0.00000000000E+00  0.13100000000E+03  0.13100000000E+03 0.  0.
         13    1    1    2    0    0 -0.10464292263E+02  0.29181696189E+01 -0.39180880545E+01  0.11549013141E+02  0.10566000000E+00 0. -1.
        994    1    1    2    0    0 -0.14261616962E+02 -0.14244485047E+02  0.93862714586E+02  0.16241153981E+03  0.13100000000E+03 0.  0.
        997    1    1    2    0    0  0.24725909225E+02  0.11326315428E+02  0.41005536230E+03  0.45703944705E+03  0.20000000000E+03 0.  0.
</event>
<event>
 5    1  0.6487493E-012  0.2296603E+03  0.7957747E-01  0.4575520E+00
         13   -1    0    0    0    0  0.00000000000E+00  0.00000000000E+00  0.49999998884E+03  0.50000000000E+03  0.10566000000E+00 0.  1.
        994   -1    0    0    0    0 -0.00000000000E+00 -0.00000000000E+00  0.00000000000E+00  0.13100000000E+03  0.13100000000E+03 0.  0.
         13    1    1    2    0    0  0.54972452639E+01 -0.12770234025E+02  0.23026516923E+02  0.26898517212E+02  0.10566000000E+00 0. -1.
        994    1    1    2    0    0  0.84715700869E+01  0.13662189829E+02  0.67640137784E+02  0.14830580289E+03  0.13100000000E+03 0.  0.
        997    1    1    2    0    0 -0.13968815351E+02 -0.89195580416E+00  0.40933333413E+03  0.45579567990E+03  0.20000000000E+03 0.  0.
</event>
<event>
 5    1  0.6487493E-012  0.2389142E+03  0.7957747E-01  0.4459341E+00
         13   -1    0    0    0    0  0.00000000000E+00  0.00000000000E+00  0.49999998884E+03  0.50000000000E+03  0.10566000000E+00 0.  1.
        994   -1    0    0    0    0 -0.00000000000E+00 -0.00000000000E+00  0.00000000000E+00  0.13100000000E+03  0.13100000000E+03 0.  0.
         13    1    1    2    0    0  0.19890815544E+02 -0.38323704715E+01  0.13296268038E+02  0.24230838084E+02  0.10566000000E+00 0. -1.
        994    1    1    2    0    0  0.27472954569E+02  0.30581794362E+01  0.94184368032E+02  0.16369426036E+03  0.13100000000E+03 0.  0.
        997    1    1    2    0    0 -0.47363770113E+02  0.77419103539E+00  0.39251935277E+03  0.44307490155E+03  0.20000000000E+03 0.  0.
</event>
<event>
 5    1  0.6487493E-012  0.2390770E+03  0.7957747E-01  0.4457393E+00
         13   -1    0    0    0    0  0.00000000000E+00  0.00000000000E+00  0.49999998884E+03  0.50000000000E+03  0.10566000000E+00 0.  1.
        994   -1    0    0    0    0 -0.00000000000E+00 -0.00000000000E+00  0.00000000000E+00  0.13100000000E+03  0.13100000000E+03 0.  0.
         13    1    1    2    0    0 -0.18586383933E+02 -0.19817815040E+02  0.21726086050E+02  0.34788409561E+02  0.10566000000E+00 0. -1.
        994    1    1    2    0    0  0.21241393101E+02  0.24971608697E+02  0.99154581492E+02  0.16753330729E+03  0.13100000000E+03 0.  0.
        997    1    1    2    0    0 -0.26550091689E+01 -0.51537936568E+01  0.37911932129E+03  0.42867828315E+03  0.20000000000E+03 0.  0.
</event>
<event>
 5    1  0.6487493E-012  0.2403036E+03  0.7957747E-01  0.4442819E+00
         13   -1    0    0    0    0  0.00000000000E+00  0.00000000000E+00  0.49999998884E+03  0.50000000000E+03  0.10566000000E+00 0. -1.
        994   -1    0    0    0    0 -0.00000000000E+00 -0.00000000000E+00  0.00000000000E+00  0.13100000000E+03  0.13100000000E+03 0.  0.
         13    1    1    2    0    0 -0.13793491591E+02  0.37972241799E+01 -0.60835021601E+00  0.14319936305E+02  0.10566000000E+00 0.  1.
        994    1    1    2    0    0  0.36408511650E+01  0.16744684328E+02  0.91445413060E+02  0.16067639472E+03  0.13100000000E+03 0.  0.
        997    1    1    2    0    0  0.10152640426E+02 -0.20541908508E+02  0.40916292599E+03  0.45600366898E+03  0.20000000000E+03 0.  0.
</event>
<event>
 5    1  0.6487493E-012  0.2280220E+03  0.7957747E-01  0.4597277E+00
         13   -1    0    0    0    0  0.00000000000E+00  0.00000000000E+00  0.49999998884E+03  0.50000000000E+03  0.10566000000E+00 0. -1.
        994   -1    0    0    0    0 -0.00000000000E+00 -0.00000000000E+00  0.00000000000E+00  0.13100000000E+03  0.13100000000E+03 0.  0.
         13    1    1    2    0    0  0.19136180288E+01 -0.10587683166E+02  0.33205155230E+02  0.34904934704E+02  0.10566000000E+00 0.  1.
        994    1    1    2    0    0 -0.25413622593E+02  0.14712346752E+02  0.70698652373E+02  0.15172872110E+03  0.13100000000E+03 0.  0.
        997    1    1    2    0    0  0.23500004565E+02 -0.41246635865E+01  0.39609618123E+03  0.44436634419E+03  0.20000000000E+03 0.  0.
</event>
<event>
 5    1  0.6487493E-012  0.2471173E+03  0.7957747E-01  0.4364965E+00
         13   -1    0    0    0    0  0.00000000000E+00  0.00000000000E+00  0.49999998884E+03  0.50000000000E+03  0.10566000000E+00 0. -1.
        994   -1    0    0    0    0 -0.00000000000E+00 -0.00000000000E+00  0.00000000000E+00  0.13100000000E+03  0.13100000000E+03 0.  0.
         13    1    1    2    0    0 -0.32746597036E+02 -0.27941000540E+02  0.47083222762E+02  0.63795612375E+02  0.10566000000E+00 0.  1.
        994    1    1    2    0    0  0.24261596227E+02  0.17519179255E+02  0.12894835765E+03  0.18623701467E+03  0.13100000000E+03 0.  0.
        997    1    1    2    0    0  0.84850008089E+01  0.10421821285E+02  0.32396840843E+03  0.38096737296E+03  0.20000000000E+03 0.  0.
</event>
<event>
 5    1  0.6487493E-012  0.2387222E+03  0.7957747E-01  0.4461643E+00
         13   -1    0    0    0    0  0.00000000000E+00  0.00000000000E+00  0.49999998884E+03  0.50000000000E+03  0.10566000000E+00 0.  1.
        994   -1    0    0    0    0 -0.00000000000E+00 -0.00000000000E+00  0.00000000000E+00  0.13100000000E+03  0.13100000000E+03 0.  0.
         13    1    1    2    0    0 -0.22407128260E+02  0.15910261130E+02  0.45317155388E+02  0.52998788123E+02  0.10566000000E+00 0. -1.
        994    1    1    2    0    0 -0.47258134807E+01 -0.33749563002E+01  0.83940933871E+02  0.15569458572E+03  0.13100000000E+03 0.  0.
        997    1    1    2    0    0  0.27132941740E+02 -0.12535304830E+02  0.37074189958E+03  0.42230662616E+03  0.20000000000E+03 0.  0.
</event>
<event>
 5    1  0.6487493E-012  0.2298609E+03  0.7957747E-01  0.4572882E+00
         13   -1    0    0    0    0  0.00000000000E+00  0.00000000000E+00  0.49999998884E+03  0.50000000000E+03  0.10566000000E+00 0. -1.
        994   -1    0    0    0    0 -0.00000000000E+00 -0.00000000000E+00  0.00000000000E+00  0.13100000000E+03  0.13100000000E+03 0.  0.
         13    1    1    2    0    0 -0.75672402490E+01  0.12882193119E+02  0.16907702095E+02  0.22563146472E+02  0.10566000000E+00 0.  1.
        994    1    1    2    0    0  0.12804645472E+02 -0.38407435826E+02  0.82722670430E+02  0.16013472539E+03  0.13100000000E+03 0.  0.
        997    1    1    2    0    0 -0.52374052235E+01  0.25525242707E+02  0.40036961631E+03  0.44830212814E+03  0.20000000000E+03 0.  0.
</event>
<event>
 5    1  0.6487493E-012  0.2397277E+03  0.7957747E-01  0.4449640E+00
         13   -1    0    0    0    0  0.00000000000E+00  0.00000000000E+00  0.49999998884E+03  0.50000000000E+03  0.10566000000E+00 0. -1.
        994   -1    0    0    0    0 -0.00000000000E+00 -0.00000000000E+00  0.00000000000E+00  0.13100000000E+03  0.13100000000E+03 0.  0.
         13    1    1    2    0    0 -0.36521049980E+01  0.22276154457E+02  0.11731830605E+02  0.25440360486E+02  0.10566000000E+00 0.  1.
        994    1    1    2    0    0  0.20040365481E+02 -0.13228798459E+02  0.93825235097E+02  0.16291344972E+03  0.13100000000E+03 0.  0.
        997    1    1    2    0    0 -0.16388260484E+02 -0.90473559974E+01  0.39444292313E+03  0.44264618980E+03  0.20000000000E+03 0.  0.
</event>
<event>
 5    1  0.6487493E-012  0.2313645E+03  0.7957747E-01  0.4553283E+00
         13   -1    0    0    0    0  0.00000000000E+00  0.00000000000E+00  0.49999998884E+03  0.50000000000E+03  0.10566000000E+00 0.  1.
        994   -1    0    0    0    0 -0.00000000000E+00 -0.00000000000E+00  0.00000000000E+00  0.13100000000E+03  0.13100000000E+03 0.  0.
         13    1    1    2    0    0 -0.64749772611E+01  0.14365773752E+02  0.19728221655E+02  0.25249053046E+02  0.10566000000E+00 0. -1.
        994    1    1    2    0    0 -0.28244578018E+02 -0.21370172498E+02  0.81671540346E+02  0.15838459825E+03  0.13100000000E+03 0.  0.
        997    1    1    2    0    0  0.34719555279E+02  0.70043987457E+01  0.39860022683E+03  0.44736634870E+03  0.20000000000E+03 0.  0.
</event>
<event>
 5    1  0.6487493E-012  0.2309246E+03  0.7957747E-01  0.4558985E+00
         13   -1    0    0    0    0  0.00000000000E+00  0.00000000000E+00  0.49999998884E+03  0.50000000000E+03  0.10566000000E+00 0.  1.
        994   -1    0    0    0    0 -0.00000000000E+00 -0.00000000000E+00  0.00000000000E+00  0.13100000000E+03  0.13100000000E+03 0.  0.
         13    1    1    2    0    0  0.18424181305E+01 -0.12188164033E+02  0.82052784989E+01  0.14808227657E+02  0.10566000000E+00 0. -1.
        994    1    1    2    0    0  0.91794177183E+00  0.17740362882E+02  0.70568108938E+02  0.14985466656E+03  0.13100000000E+03 0.  0.
        997    1    1    2    0    0 -0.27603599024E+01 -0.55521988486E+01  0.42122660140E+03  0.46633710578E+03  0.20000000000E+03 0.  0.
</event>
<event>
 5    1  0.6487493E-012  0.2341726E+03  0.7957747E-01  0.4517492E+00
         13   -1    0    0    0    0  0.00000000000E+00  0.00000000000E+00  0.49999998884E+03  0.50000000000E+03  0.10566000000E+00 0.  1.
        994   -1    0    0    0    0 -0.00000000000E+00 -0.00000000000E+00  0.00000000000E+00  0.13100000000E+03  0.13100000000E+03 0.  0.
         13    1    1    2    0    0 -0.35599949066E+01 -0.21494434228E+02  0.13874095976E+02  0.25829943278E+02  0.10566000000E+00 0. -1.
        994    1    1    2    0    0  0.71684247114E+01  0.65564123998E+02  0.13872451839E+03  0.20187999572E+03  0.13100000000E+03 0.  0.
        997    1    1    2    0    0 -0.36084298048E+01 -0.44069689770E+02  0.34740137447E+03  0.40329006100E+03  0.20000000000E+03 0.  0.
</event>
<event>
 5    1  0.6487493E-012  0.2351739E+03  0.7957747E-01  0.4504979E+00
         13   -1    0    0    0    0  0.00000000000E+00  0.00000000000E+00  0.49999998884E+03  0.50000000000E+03  0.10566000000E+00 0. -1.
        994   -1    0    0    0    0 -0.00000000000E+00 -0.00000000000E+00  0.00000000000E+00  0.13100000000E+03  0.13100000000E+03 0.  0.
         13    1    1    2    0    0  0.21714713288E+02 -0.56828590036E+01  0.20042576748E+02  0.30092186799E+02  0.10566000000E+00 0.  1.
        994    1    1    2    0    0 -0.37089398732E+02  0.65412035758E+01  0.92881729377E+02  0.16494370705E+03  0.13100000000E+03 0.  0.
        997    1    1    2    0    0  0.15374685444E+02 -0.85834457221E+00  0.38707568271E+03  0.43596410615E+03  0.20000000000E+03 0.  0.
</event>
<event>
 5    1  0.6487493E-012  0.2507500E+03  0.7957747E-01  0.4325482E+00
         13   -1    0    0    0    0  0.00000000000E+00  0.00000000000E+00  0.49999998884E+03  0.50000000000E+03  0.10566000000E+00 0. -1.
        994   -1    0    0    0    0 -0.00000000000E+00 -0.00000000000E+00  0.00000000000E+00  0.13100000000E+03  0.13100000000E+03 0.  0.
         13    1    1    2    0    0 -0.10683388627E+02  0.54628807849E+01 -0.11304169202E+02  0.16485547137E+02  0.10566000000E+00 0.  1.
        994    1    1    2    0    0  0.14084235427E+02 -0.15650936163E+02  0.14164003668E+03  0.19407786448E+03  0.13100000000E+03 0.  0.
        997    1    1    2    0    0 -0.34008468000E+01  0.10188055378E+02  0.36966412136E+03  0.42043658838E+03  0.20000000000E+03 0.  0.
</event>
<event>
 5    1  0.6487493E-012  0.2375339E+03  0.7957747E-01  0.4475984E+00
         13   -1    0    0    0    0  0.00000000000E+00  0.00000000000E+00  0.49999998884E+03  0.50000000000E+03  0.10566000000E+00 0. -1.
        994   -1    0    0    0    0 -0.00000000000E+00 -0.00000000000E+00  0.00000000000E+00  0.13100000000E+03  0.13100000000E+03 0.  0.
         13    1    1    2    0    0 -0.22386101654E+02  0.11271495096E+00  0.17250070285E+02  0.28261746952E+02  0.10566000000E+00 0.  1.
        994    1    1    2    0    0  0.13289553196E+02 -0.13070374093E+02  0.85039926584E+02  0.15729029219E+03  0.13100000000E+03 0.  0.
        997    1    1    2    0    0  0.90965484575E+01  0.12957659143E+02  0.39770999197E+03  0.44544796086E+03  0.20000000000E+03 0.  0.
</event>
<event>
 5    1  0.6487493E-012  0.2330681E+03  0.7957747E-01  0.4531446E+00
         13   -1    0    0    0    0  0.00000000000E+00  0.00000000000E+00  0.49999998884E+03  0.50000000000E+03  0.10566000000E+00 0.  1.
        994   -1    0    0    0    0 -0.00000000000E+00 -0.00000000000E+00  0.00000000000E+00  0.13100000000E+03  0.13100000000E+03 0.  0.
         13    1    1    2    0    0  0.19194206560E+02 -0.14256311628E+02  0.28093002950E+02  0.36890215037E+02  0.10566000000E+00 0. -1.
        994    1    1    2    0    0 -0.57301755242E+02  0.25303740020E+02  0.12442759523E+03  0.19122499018E+03  0.13100000000E+03 0.  0.
        997    1    1    2    0    0  0.38107548682E+02 -0.11047428393E+02  0.34747939065E+03  0.40288479479E+03  0.20000000000E+03 0.  0.
</event>
<event>
 5    1  0.6487493E-012  0.2491697E+03  0.7957747E-01  0.4342493E+00
         13   -1    0    0    0    0  0.00000000000E+00  0.00000000000E+00  0.49999998884E+03  0.50000000000E+03  0.10566000000E+00 0. -1.
        994   -1    0    0    0    0 -0.00000000000E+00 -0.00000000000E+00  0.00000000000E+00  0.13100000000E+03  0.13100000000E+03 0.  0.
         13    1    1    2    0    0  0.36406610604E+02  0.24668986350E+02  0.66962719597E+02  0.80112528129E+02  0.10566000000E+00 0.  1.
        994    1    1    2    0    0  0.56260159710E+01 -0.30030564441E+02  0.14642671748E+03  0.19883478179E+03  0.13100000000E+03 0.  0.
        997    1    1    2    0    0 -0.42032626575E+02  0.53615780909E+01  0.28661055176E+03  0.35205269008E+03  0.20000000000E+03 0.  0.
</event>
<event>
 5    1  0.6487493E-012  0.2396604E+03  0.7957747E-01  0.4450440E+00
         13   -1    0    0    0    0  0.00000000000E+00  0.00000000000E+00  0.49999998884E+03  0.50000000000E+03  0.10566000000E+00 0.  1.
        994   -1    0    0    0    0 -0.00000000000E+00 -0.00000000000E+00  0.00000000000E+00  0.13100000000E+03  0.13100000000E+03 0.  0.
         13    1    1    2    0    0 -0.24257580351E+01  0.25717823301E+02  0.31835636637E+02  0.40997678733E+02  0.10566000000E+00 0. -1.
        994    1    1    2    0    0  0.14138878618E+02  0.20450837450E+02  0.94224840139E+02  0.16327113995E+03  0.13100000000E+03 0.  0.
        997    1    1    2    0    0 -0.11713120583E+02 -0.46168660751E+02  0.37393951206E+03  0.42673118132E+03  0.20000000000E+03 0.  0.
</event>
<event>
 5    1  0.6487493E-012  0.2432891E+03  0.7957747E-01  0.4408073E+00
         13   -1    0    0    0    0  0.00000000000E+00  0.00000000000E+00  0.49999998884E+03  0.50000000000E+03  0.10566000000E+00 0.  1.
        994   -1    0    0    0    0 -0.00000000000E+00 -0.00000000000E+00  0.00000000000E+00  0.13100000000E+03  0.13100000000E+03 0.  0.
         13    1    1    2    0    0 -0.20764501015E+02 -0.30691114639E+02  0.32094594981E+02  0.49022272603E+02  0.10566000000E+00 0. -1.
        994    1    1    2    0    0  0.53035943017E+02  0.20191662420E+01  0.19868323200E+03  0.24382968434E+03  0.13100000000E+03 0.  0.
        997    1    1    2    0    0 -0.32271442002E+02  0.28671948397E+02  0.26922216185E+03  0.33814804306E+03  0.20000000000E+03 0.  0.
</event>
<event>
 5    1  0.6487493E-012  0.2470884E+03  0.7957747E-01  0.4365284E+00
         13   -1    0    0    0    0  0.00000000000E+00  0.00000000000E+00  0.49999998884E+03  0.50000000000E+03  0.10566000000E+00 0.  1.
        994   -1    0    0    0    0 -0.00000000000E+00 -0.00000000000E+00  0.00000000000E+00  0.13100000000E+03  0.13100000000E+03 0.  0.
         13    1    1    2    0    0 -0.19059819857E+02  0.94698716179E+01 -0.24535145947E+01  0.21423960870E+02  0.10566000000E+00 0. -1.
        994    1    1    2    0    0 -0.24369004918E+02 -0.35237560243E+02  0.17840108379E+03  0.22544063687E+03  0.13100000000E+03 0.  0.
        997    1    1    2    0    0  0.43428824776E+02  0.25767688625E+02  0.32405241964E+03  0.38413540226E+03  0.20000000000E+03 0.  0.
</event>
<event>
 5    1  0.6487493E-012  0.2335212E+03  0.7957747E-01  0.4525702E+00
         13   -1    0    0    0    0  0.00000000000E+00  0.00000000000E+00  0.49999998884E+03  0.50000000000E+03  0.10566000000E+00 0. -1.
        994   -1    0    0    0    0 -0.00000000000E+00 -0.00000000000E+00  0.00000000000E+00  0.13100000000E+03  0.13100000000E+03 0.  0.
         13    1    1    2    0    0  0.14289931727E+01  0.18193546607E+02  0.33884832895E+02  0.38486883792E+02  0.10566000000E+00 0.  1.
        994    1    1    2    0    0 -0.32166194814E+02  0.18935963495E+02  0.88336199666E+02  0.16234998914E+03  0.13100000000E+03 0.  0.
        997    1    1    2    0    0  0.30737201642E+02 -0.37129510102E+02  0.37777895627E+03  0.43016312707E+03  0.20000000000E+03 0.  0.
</event>
<event>
 5    1  0.6487493E-012  0.2346748E+03  0.7957747E-01  0.4511200E+00
         13   -1    0    0    0    0  0.00000000000E+00  0.00000000000E+00  0.49999998884E+03  0.50000000000E+03  0.10566000000E+00 0.  1.
        994   -1    0    0    0    0 -0.00000000000E+00 -0.00000000000E+00  0.00000000000E+00  0.13100000000E+03  0.13100000000E+03 0.  0.
         13    1    1    2    0    0  0.15424800371E+02  0.16211714607E+02  0.66909902755E+02  0.70552749115E+02  0.10566000000E+00 0. -1.
        994    1    1    2    0    0 -0.30564317187E+02 -0.17045996367E+02  0.89087155841E+02  0.16224137824E+03  0.13100000000E+03 0.  0.
        997    1    1    2    0    0  0.15139516816E+02  0.83428176002E+00  0.34400293024E+03  0.39820587265E+03  0.20000000000E+03 0.  0.
</event>
<event>
 5    1  0.6487493E-012  0.2469081E+03  0.7957747E-01  0.4367280E+00
         13   -1    0    0    0    0  0.00000000000E+00  0.00000000000E+00  0.49999998884E+03  0.50000000000E+03  0.10566000000E+00 0. -1.
        994   -1    0    0    0    0 -0.00000000000E+00 -0.00000000000E+00  0.00000000000E+00  0.13100000000E+03  0.13100000000E+03 0.  0.
         13    1    1    2    0    0 -0.40251587169E+02  0.43692232900E+01  0.49359974294E+02  0.63841198360E+02  0.10566000000E+00 0.  1.
        994    1    1    2    0    0  0.16467426682E+02  0.37632818748E+02  0.15620221012E+03  0.20796041844E+03  0.13100000000E+03 0.  0.
        997    1    1    2    0    0  0.23784160487E+02 -0.42002042038E+02  0.29443780442E+03  0.35919838320E+03  0.20000000000E+03 0.  0.
</event>
<event>
 5    1  0.6487493E-012  0.2319534E+03  0.7957747E-01  0.4545691E+00
         13   -1    0    0    0    0  0.00000000000E+00  0.00000000000E+00  0.49999998884E+03  0.50000000000E+03  0.10566000000E+00 0.  1.
        994   -1    0    0    0    0 -0.00000000000E+00 -0.00000000000E+00  0.00000000000E+00  0.13100000000E+03  0.13100000000E+03 0.  0.
         13    1    1    2    0    0 -0.10944400158E+02  0.13254398758E+02  0.20753281220E+02  0.26947519862E+02  0.10566000000E+00 0. -1.
        994    1    1    2    0    0 -0.17382452331E+02 -0.35338309369E+02  0.86479866302E+02  0.16183545049E+03  0.13100000000E+03 0.  0.
        997    1    1    2    0    0  0.28326852489E+02  0.22083910610E+02  0.39276684131E+03  0.44221702965E+03  0.20000000000E+03 0.  0.
</event>
<event>
 5    1  0.6487493E-012  0.2355830E+03  0.7957747E-01  0.4499902E+00
         13   -1    0    0    0    0  0.00000000000E+00  0.00000000000E+00  0.49999998884E+03  0.50000000000E+03  0.10566000000E+00 0.  1.
        994   -1    0    0    0    0 -0.00000000000E+00 -0.00000000000E+00  0.00000000000E+00  0.13100000000E+03  0.13100000000E+03 0.  0.
         13    1    1    2    0    0  0.82524158991E+01  0.15920118582E+02  0.91760886320E+01  0.20143592293E+02  0.10566000000E+00 0. -1.
        994    1    1    2    0    0  0.18287658716E+02 -0.37232560161E+02  0.98128986504E+02  0.16885200618E+03  0.13100000000E+03 0.  0.
        997    1    1    2    0    0 -0.26540074615E+02  0.21312441579E+02  0.39269491370E+03  0.44200440153E+03  0.20000000000E+03 0.  0.
</event>
<event>
 5    1  0.9022594E-012  0.2464638E+03  0.7957747E-01  0.4372212E+00
         13   -1    0    0    0    0  0.00000000000E+00  0.00000000000E+00  0.49999998884E+03  0.50000000000E+03  0.10566000000E+00 0. -1.
        994   -1    0    0    0    0 -0.00000000000E+00 -0.00000000000E+00  0.00000000000E+00  0.13100000000E+03  0.13100000000E+03 0.  0.
         13    1    1    2    0    0  0.10580536265E+02 -0.84206918626E+00 -0.80783332015E+01  0.13338945218E+02  0.10566000000E+00 0.  1.
        994    1    1    2    0    0  0.34105447957E+01 -0.66566987279E+01  0.10741488064E+03  0.16957269838E+03  0.13100000000E+03 0.  0.
        997    1    1    2    0    0 -0.13991081061E+02  0.74987679142E+01  0.40066344140E+03  0.44808835640E+03  0.20000000000E+03 0.  0.
</event>
<event>
 5    1  0.6487493E-012  0.2467726E+03  0.7957747E-01  0.4368782E+00
         13   -1    0    0    0    0  0.00000000000E+00  0.00000000000E+00  0.49999998884E+03  0.50000000000E+03  0.10566000000E+00 0.  1.
        994   -1    0    0    0    0 -0.00000000000E+00 -0.00000000000E+00  0.00000000000E+00  0.13100000000E+03  0.13100000000E+03 0.  0.
         13    1    1    2    0    0  0.37586189316E+02  0.40207199392E+01  0.77641791358E+02  0.86354772569E+02  0.10566000000E+00 0. -1.
        994    1    1    2    0    0 -0.23366632139E+02  0.35178979223E+02  0.19879419805E+03  0.24179266584E+03  0.13100000000E+03 0.  0.
        997    1    1    2    0    0 -0.14219557177E+02 -0.39199699163E+02  0.22356399943E+03  0.30285256159E+03  0.20000000000E+03 0.  0.
</event>
<event>
 5    1  0.6487493E-012  0.2310980E+03  0.7957747E-01  0.4556734E+00
         13   -1    0    0    0    0  0.00000000000E+00  0.00000000000E+00  0.49999998884E+03  0.50000000000E+03  0.10566000000E+00 0. -1.
        994   -1    0    0    0    0 -0.00000000000E+00 -0.00000000000E+00  0.00000000000E+00  0.13100000000E+03  0.13100000000E+03 0.  0.
         13    1    1    2    0    0  0.11285402075E+02 -0.40815219543E+01  0.57263404132E+02  0.58507501556E+02  0.10566000000E+00 0.  1.
        994    1    1    2    0    0 -0.36116520189E+02 -0.24260638311E+02  0.88548490597E+02  0.16399639261E+03  0.13100000000E+03 0.  0.
        997    1    1    2    0    0  0.24831118114E+02  0.28342160266E+02  0.35418809411E+03  0.40849610583E+03  0.20000000000E+03 0.  0.
</event>
<event>
 5    1  0.6487493E-012  0.2295636E+03  0.7957747E-01  0.4576793E+00
         13   -1    0    0    0    0  0.00000000000E+00  0.00000000000E+00  0.49999998884E+03  0.50000000000E+03  0.10566000000E+00 0.  1.
        994   -1    0    0    0    0 -0.00000000000E+00 -0.00000000000E+00  0.00000000000E+00  0.13100000000E+03  0.13100000000E+03 0.  0.
         13    1    1    2    0    0 -0.40543628052E+01  0.11385014648E+02  0.49746889068E+02  0.51193950349E+02  0.10566000000E+00 0. -1.
        994    1    1    2    0    0  0.35204180099E+02 -0.49806279470E+02  0.10829343618E+03  0.18057814954E+03  0.13100000000E+03 0.  0.
        997    1    1    2    0    0 -0.31149817294E+02  0.38421264822E+02  0.34195966359E+03  0.39922790011E+03  0.20000000000E+03 0.  0.
</event>
<event>
 5    1  0.6487493E-012  0.2384347E+03  0.7957747E-01  0.4465097E+00
         13   -1    0    0    0    0  0.00000000000E+00  0.00000000000E+00  0.49999998884E+03  0.50000000000E+03  0.10566000000E+00 0.  1.
        994   -1    0    0    0    0 -0.00000000000E+00 -0.00000000000E+00  0.00000000000E+00  0.13100000000E+03  0.13100000000E+03 0.  0.
         13    1    1    2    0    0  0.23047856688E+02 -0.20787655652E+02  0.55658839356E+02  0.63727920788E+02  0.10566000000E+00 0. -1.
        994    1    1    2    0    0 -0.35232879744E+02  0.55655112814E+01  0.10013461126E+03  0.16870172229E+03  0.13100000000E+03 0.  0.
        997    1    1    2    0    0  0.12185023056E+02  0.15222144371E+02  0.34420653822E+03  0.39857035692E+03  0.20000000000E+03 0.  0.
</event>
<event>
 5    1  0.6487493E-012  0.2306736E+03  0.7957747E-01  0.4562250E+00
         13   -1    0    0    0    0  0.00000000000E+00  0.00000000000E+00  0.49999998884E+03  0.50000000000E+03  0.10566000000E+00 0.  1.
        994   -1    0    0    0    0 -0.00000000000E+00 -0.00000000000E+00  0.00000000000E+00  0.13100000000E+03  0.13100000000E+03 0.  0.
         13    1    1    2    0    0 -0.10797077680E+02  0.11843344976E+02  0.18233827654E+02  0.24276024008E+02  0.10566000000E+00 0. -1.
        994    1    1    2    0    0  0.12190376842E+02 -0.34930734022E+02  0.81452583952E+02  0.15863254678E+03  0.13100000000E+03 0.  0.
        997    1    1    2    0    0 -0.13932991621E+01  0.23087389045E+02  0.40031357723E+03  0.44809142921E+03  0.20000000000E+03 0.  0.
</event>
<event>
 5    1  0.6487493E-012  0.2363801E+03  0.7957747E-01  0.4490072E+00
         13   -1    0    0    0    0  0.00000000000E+00  0.00000000000E+00  0.49999998884E+03  0.50000000000E+03  0.10566000000E+00 0.  1.
        994   -1    0    0    0    0 -0.00000000000E+00 -0.00000000000E+00  0.00000000000E+00  0.13100000000E+03  0.13100000000E+03 0.  0.
         13    1    1    2    0    0  0.13991712152E+02  0.31145974351E+01  0.31581033301E+01  0.14678334606E+02  0.10566000000E+00 0. -1.
        994    1    1    2    0    0 -0.37340537589E+01 -0.25967775012E+02  0.86531049512E+02  0.15917566091E+03  0.13100000000E+03 0.  0.
        997    1    1    2    0    0 -0.10257658393E+02  0.22853177577E+02  0.41031083599E+03  0.45714600448E+03  0.20000000000E+03 0.  0.
</event>
<event>
 5    1  0.8709863E-012  0.2374635E+03  0.7957747E-01  0.4476838E+00
         13   -1    0    0    0    0  0.00000000000E+00  0.00000000000E+00  0.49999998884E+03  0.50000000000E+03  0.10566000000E+00 0. -1.
        994   -1    0    0    0    0 -0.00000000000E+00 -0.00000000000E+00  0.00000000000E+00  0.13100000000E+03  0.13100000000E+03 0.  0.
         13    1    1    2    0    0  0.14689534384E+02 -0.17433659331E+01  0.48003026238E+00  0.14800788434E+02  0.10566000000E+00 0.  1.
        994    1    1    2    0    0 -0.31695027219E+02  0.39689826386E+02  0.11819681509E+03  0.18360649271E+03  0.13100000000E+03 0.  0.
        997    1    1    2    0    0  0.17005492836E+02 -0.37946460453E+02  0.38132314349E+03  0.43259271885E+03  0.20000000000E+03 0.  0.
</event>
<event>
 5    1  0.6487493E-012  0.2315339E+03  0.7957747E-01  0.4551094E+00
         13   -1    0    0    0    0  0.00000000000E+00  0.00000000000E+00  0.49999998884E+03  0.50000000000E+03  0.10566000000E+00 0. -1.
        994   -1    0    0    0    0 -0.00000000000E+00 -0.00000000000E+00  0.00000000000E+00  0.13100000000E+03  0.13100000000E+03 0.  0.
         13    1    1    2    0    0 -0.17176525245E+01  0.19547317266E+02  0.23342904891E+02  0.30495086740E+02  0.10566000000E+00 0.  1.
        994    1    1    2    0    0 -0.48115917283E+01 -0.52277722766E+02  0.10075673482E+03  0.17340424252E+03  0.13100000000E+03 0.  0.
        997    1    1    2    0    0  0.65292442529E+01  0.32730405500E+02  0.37590034912E+03  0.42710067074E+03  0.20000000000E+03 0.  0.
</event>
<event>
 5    1  0.6487493E-012  0.2314521E+03  0.7957747E-01  0.4552150E+00
         13   -1    0    0    0    0  0.00000000000E+00  0.00000000000E+00  0.49999998884E+03  0.50000000000E+03  0.10566000000E+00 0.  1.
        994   -1    0    0    0    0 -0.00000000000E+00 -0.00000000000E+00  0.00000000000E+00  0.13100000000E+03  0.13100000000E+03 0.  0.
         13    1    1    2    0    0  0.12954824216E+02 -0.19696669744E+01  0.25411241981E+01  0.13348240883E+02  0.10566000000E+00 0. -1.
        994    1    1    2    0    0 -0.36888998116E+02  0.70560579661E+02  0.21103583184E+03  0.26083848624E+03  0.13100000000E+03 0.  0.
        997    1    1    2    0    0  0.23934173900E+02 -0.68590912686E+02  0.28642303280E+03  0.35681327288E+03  0.20000000000E+03 0.  0.
</event>
<event>
 5    1  0.6487493E-012  0.2342014E+03  0.7957747E-01  0.4517131E+00
         13   -1    0    0    0    0  0.00000000000E+00  0.00000000000E+00  0.49999998884E+03  0.50000000000E+03  0.10566000000E+00 0. -1.
        994   -1    0    0    0    0 -0.00000000000E+00 -0.00000000000E+00  0.00000000000E+00  0.13100000000E+03  0.13100000000E+03 0.  0.
         13    1    1    2    0    0  0.25070525441E+02  0.64680573348E+01  0.52665190887E+02  0.58685607322E+02  0.10566000000E+00 0.  1.
        994    1    1    2    0    0 -0.55029275335E+02  0.38334970316E+01  0.11362666933E+03  0.18197509947E+03  0.13100000000E+03 0.  0.
        997    1    1    2    0    0  0.29958749894E+02 -0.10301554366E+02  0.33370812862E+03  0.39033929321E+03  0.20000000000E+03 0.  0.
</event>
<event>
 5    1  0.6487493E-012  0.2420927E+03  0.7957747E-01  0.4421876E+00
         13   -1    0    0    0    0  0.00000000000E+00  0.00000000000E+00  0.49999998884E+03  0.50000000000E+03  0.10566000000E+00 0. -1.
        994   -1    0    0    0    0 -0.00000000000E+00 -0.00000000000E+00  0.00000000000E+00  0.13100000000E+03  0.13100000000E+03 0.  0.
         13    1    1    2    0    0  0.31268722553E+02  0.87775854299E+00  0.36495015293E+02  0.48066628501E+02  0.10566000000E+00 0.  1.
        994    1    1    2    0    0  0.13239626961E+01 -0.46469996279E+02  0.13173894018E+03  0.19151334625E+03  0.13100000000E+03 0.  0.
        997    1    1    2    0    0 -0.32592685250E+02  0.45592237736E+02  0.33176603337E+03  0.39142002525E+03  0.20000000000E+03 0.  0.
</event>
<event>
 5    1  0.6487493E-012  0.2511639E+03  0.7957747E-01  0.4321068E+00
         13   -1    0    0    0    0  0.00000000000E+00  0.00000000000E+00  0.49999998884E+03  0.50000000000E+03  0.10566000000E+00 0.  1.
        994   -1    0    0    0    0 -0.00000000000E+00 -0.00000000000E+00  0.00000000000E+00  0.13100000000E+03  0.13100000000E+03 0.  0.
         13    1    1    2    0    0  0.37200356080E+02 -0.22652498709E+02  0.52916673093E+02  0.68536031731E+02  0.10566000000E+00 0. -1.
        994    1    1    2    0    0  0.65716660368E+01  0.35648960553E+01  0.13121589775E+03  0.18556537150E+03  0.13100000000E+03 0.  0.
        997    1    1    2    0    0 -0.43772022116E+02  0.19087602654E+02  0.31586741799E+03  0.37689859677E+03  0.20000000000E+03 0.  0.
</event>
<event>
 5    1  0.6487493E-012  0.2471595E+03  0.7957747E-01  0.4364499E+00
         13   -1    0    0    0    0  0.00000000000E+00  0.00000000000E+00  0.49999998884E+03  0.50000000000E+03  0.10566000000E+00 0. -1.
        994   -1    0    0    0    0 -0.00000000000E+00 -0.00000000000E+00  0.00000000000E+00  0.13100000000E+03  0.13100000000E+03 0.  0.
         13    1    1    2    0    0 -0.79777102599E+01  0.30251929169E+02  0.20005278974E+02  0.37135500943E+02  0.10566000000E+00 0.  1.
        994    1    1    2    0    0  0.10623877882E+01  0.13040969752E+02  0.11245780018E+03  0.17314431085E+03  0.13100000000E+03 0.  0.
        997    1    1    2    0    0  0.69153224717E+01 -0.43292898921E+02  0.36753690969E+03  0.42072018821E+03  0.20000000000E+03 0.  0.
</event>
<event>
 5    1  0.6487493E-012  0.2392082E+03  0.7957747E-01  0.4455827E+00
         13   -1    0    0    0    0  0.00000000000E+00  0.00000000000E+00  0.49999998884E+03  0.50000000000E+03  0.10566000000E+00 0. -1.
        994   -1    0    0    0    0 -0.00000000000E+00 -0.00000000000E+00  0.00000000000E+00  0.13100000000E+03  0.13100000000E+03 0.  0.
         13    1    1    2    0    0  0.14338739877E+02  0.16727060096E+02  0.14211339840E+02  0.26217691447E+02  0.10566000000E+00 0.  1.
        994    1    1    2    0    0 -0.28457622084E+02  0.41901983692E+02  0.12568917238E+03  0.18847912496E+03  0.13100000000E+03 0.  0.
        997    1    1    2    0    0  0.14118882207E+02 -0.58629043789E+02  0.36009947662E+03  0.41630318360E+03  0.20000000000E+03 0.  0.
</event>
<event>
 5    1  0.6487493E-012  0.2369583E+03  0.7957747E-01  0.4482991E+00
         13   -1    0    0    0    0  0.00000000000E+00  0.00000000000E+00  0.49999998884E+03  0.50000000000E+03  0.10566000000E+00 0. -1.
        994   -1    0    0    0    0 -0.00000000000E+00 -0.00000000000E+00  0.00000000000E+00  0.13100000000E+03  0.13100000000E+03 0.  0.
         13    1    1    2    0    0 -0.29204796636E+01 -0.17258164103E+02  0.90757677001E+02  0.92430192731E+02  0.10566000000E+00 0.  1.
        994    1    1    2    0    0  0.10774244690E+02  0.22392332275E+02  0.87058828761E+02  0.15924113965E+03  0.13100000000E+03 0.  0.
        997    1    1    2    0    0 -0.78537650267E+01 -0.51341681721E+01  0.32218348307E+03  0.37932866761E+03  0.20000000000E+03 0.  0.
</event>
<event>
 5    1  0.6487493E-012  0.2411016E+03  0.7957747E-01  0.4433433E+00
         13   -1    0    0    0    0  0.00000000000E+00  0.00000000000E+00  0.49999998884E+03  0.50000000000E+03  0.10566000000E+00 0.  1.
        994   -1    0    0    0    0 -0.00000000000E+00 -0.00000000000E+00  0.00000000000E+00  0.13100000000E+03  0.13100000000E+03 0.  0.
         13    1    1    2    0    0 -0.22153479679E+02  0.41059862732E+01  0.10502075485E+03  0.10741045525E+03  0.10566000000E+00 0. -1.
        994    1    1    2    0    0  0.35313851661E+02  0.10479272908E+02  0.11053748590E+03  0.17531805118E+03  0.13100000000E+03 0.  0.
        997    1    1    2    0    0 -0.13160371982E+02 -0.14585259182E+02  0.28444174809E+03  0.34827149357E+03  0.20000000000E+03 0.  0.
</event>
<event>
 5    1  0.6487493E-012  0.2403468E+03  0.7957747E-01  0.4442309E+00
         13   -1    0    0    0    0  0.00000000000E+00  0.00000000000E+00  0.49999998884E+03  0.50000000000E+03  0.10566000000E+00 0. -1.
        994   -1    0    0    0    0 -0.00000000000E+00 -0.00000000000E+00  0.00000000000E+00  0.13100000000E+03  0.13100000000E+03 0.  0.
         13    1    1    2    0    0  0.27178703611E+02 -0.19295205394E+02  0.52453723498E+02  0.62148138782E+02  0.10566000000E+00 0.  1.
        994    1    1    2    0    0 -0.14900058511E+02  0.20702926201E+02  0.96684430947E+02  0.16480140195E+03  0.13100000000E+03 0.  0.
        997    1    1    2    0    0 -0.12278645100E+02 -0.14077208074E+01  0.35086183439E+03  0.40405045927E+03  0.20000000000E+03 0.  0.
</event>
<event>
 5    1  0.6487493E-012  0.2432960E+03  0.7957747E-01  0.4407994E+00
         13   -1    0    0    0    0  0.00000000000E+00  0.00000000000E+00  0.49999998884E+03  0.50000000000E+03  0.10566000000E+00 0.  1.
        994   -1    0    0    0    0 -0.00000000000E+00 -0.00000000000E+00  0.00000000000E+00  0.13100000000E+03  0.13100000000E+03 0.  0.
         13    1    1    2    0    0  0.24786377488E+02 -0.19597654112E+02  0.57730086597E+02  0.65811903317E+02  0.10566000000E+00 0. -1.
        994    1    1    2    0    0  0.24978072779E+02  0.19482716976E+01  0.10589667363E+03  0.17030210030E+03  0.13100000000E+03 0.  0.
        997    1    1    2    0    0 -0.49764450267E+02  0.17649382414E+02  0.33637322861E+03  0.39488599638E+03  0.20000000000E+03 0.  0.
</event>
<event>
 5    1  0.7459481E-012  0.2435907E+03  0.7957747E-01  0.4404618E+00
         13   -1    0    0    0    0  0.00000000000E+00  0.00000000000E+00  0.49999998884E+03  0.50000000000E+03  0.10566000000E+00 0. -1.
        994   -1    0    0    0    0 -0.00000000000E+00 -0.00000000000E+00  0.00000000000E+00  0.13100000000E+03  0.13100000000E+03 0.  0.
         13    1    1    2    0    0 -0.67618375483E+00 -0.19951313751E+02  0.23192435663E+00  0.19964395754E+02  0.10566000000E+00 0.  1.
        994    1    1    2    0    0 -0.18465882762E+02  0.31581312549E+02  0.12064852632E+03  0.18181153713E+03  0.13100000000E+03 0.  0.
        997    1    1    2    0    0  0.19142066517E+02 -0.11629998798E+02  0.37911953816E+03  0.42922406712E+03  0.20000000000E+03 0.  0.
</event>
<event>
 5    1  0.6487493E-012  0.2459505E+03  0.7957747E-01  0.4377937E+00
         13   -1    0    0    0    0  0.00000000000E+00  0.00000000000E+00  0.49999998884E+03  0.50000000000E+03  0.10566000000E+00 0.  1.
        994   -1    0    0    0    0 -0.00000000000E+00 -0.00000000000E+00  0.00000000000E+00  0.13100000000E+03  0.13100000000E+03 0.  0.
         13    1    1    2    0    0 -0.10664160197E+00  0.14560932624E+02 -0.72056761395E+01  0.16247001692E+02  0.10566000000E+00 0. -1.
        994    1    1    2    0    0  0.17242036179E+02 -0.34932241237E+02  0.13926692896E+03  0.19512515674E+03  0.13100000000E+03 0.  0.
        997    1    1    2    0    0 -0.17135394577E+02  0.20371308613E+02  0.36793873601E+03  0.41962784157E+03  0.20000000000E+03 0.  0.
</event>
<event>
 5    1  0.6487493E-012  0.2463651E+03  0.7957747E-01  0.4373311E+00
         13   -1    0    0    0    0  0.00000000000E+00  0.00000000000E+00  0.49999998884E+03  0.50000000000E+03  0.10566000000E+00 0. -1.
        994   -1    0    0    0    0 -0.00000000000E+00 -0.00000000000E+00  0.00000000000E+00  0.13100000000E+03  0.13100000000E+03 0.  0.
         13    1    1    2    0    0 -0.35364074158E+02  0.11695716549E+02  0.19916927406E+02  0.42238639751E+02  0.10566000000E+00 0.  1.
        994    1    1    2    0    0  0.41933817716E+02  0.16398687563E+02  0.18468358661E+03  0.23086010739E+03  0.13100000000E+03 0.  0.
        997    1    1    2    0    0 -0.65697435573E+01 -0.28094404111E+02  0.29539947482E+03  0.35790125286E+03  0.20000000000E+03 0.  0.
</event>
<event>
 5    1  0.6487493E-012  0.2390220E+03  0.7957747E-01  0.4458051E+00
         13   -1    0    0    0    0  0.00000000000E+00  0.00000000000E+00  0.49999998884E+03  0.50000000000E+03  0.10566000000E+00 0. -1.
        994   -1    0    0    0    0 -0.00000000000E+00 -0.00000000000E+00  0.00000000000E+00  0.13100000000E+03  0.13100000000E+03 0.  0.
         13    1    1    2    0    0 -0.23567022907E+00  0.13912496096E+02 -0.58271489769E+00  0.13927089027E+02  0.10566000000E+00 0.  1.
        994    1    1    2    0    0 -0.53057807804E+02  0.20524450731E+02  0.14066610112E+03  0.20046031041E+03  0.13100000000E+03 0.  0.
        997    1    1    2    0    0  0.53293478033E+02 -0.34436946827E+02  0.35991660262E+03  0.41661260056E+03  0.20000000000E+03 0.  0.
</event>
<event>
 5    1  0.6487493E-012  0.2473685E+03  0.7957747E-01  0.4362191E+00
         13   -1    0    0    0    0  0.00000000000E+00  0.00000000000E+00  0.49999998884E+03  0.50000000000E+03  0.10566000000E+00 0.  1.
        994   -1    0    0    0    0 -0.00000000000E+00 -0.00000000000E+00  0.00000000000E+00  0.13100000000E+03  0.13100000000E+03 0.  0.
         13    1    1    2    0    0 -0.14256596080E+02  0.12954835248E+02 -0.16824181414E+01  0.19337010703E+02  0.10566000000E+00 0. -1.
        994    1    1    2    0    0 -0.27217301689E+02  0.53753936999E+01  0.12712234027E+03  0.18463684834E+03  0.13100000000E+03 0.  0.
        997    1    1    2    0    0  0.41473897768E+02 -0.18330228948E+02  0.37456006671E+03  0.42702614096E+03  0.20000000000E+03 0.  0.
</event>
<event>
 5    1  0.6487493E-012  0.2432424E+03  0.7957747E-01  0.4408609E+00
         13   -1    0    0    0    0  0.00000000000E+00  0.00000000000E+00  0.49999998884E+03  0.50000000000E+03  0.10566000000E+00 0. -1.
        994   -1    0    0    0    0 -0.00000000000E+00 -0.00000000000E+00  0.00000000000E+00  0.13100000000E+03  0.13100000000E+03 0.  0.
         13    1    1    2    0    0  0.70817294983E+00 -0.18874379826E+02  0.33686700243E+00  0.18890959905E+02  0.10566000000E+00 0.  1.
        994    1    1    2    0    0 -0.41520234668E+02  0.46429076078E+01  0.12807494728E+03  0.18790869750E+03  0.13100000000E+03 0.  0.
        997    1    1    2    0    0  0.40812061718E+02  0.14231472218E+02  0.37158817456E+03  0.42420034259E+03  0.20000000000E+03 0.  0.
</event>
<event>
 5    1  0.6487493E-012  0.2355070E+03  0.7957747E-01  0.4500844E+00
         13   -1    0    0    0    0  0.00000000000E+00  0.00000000000E+00  0.49999998884E+03  0.50000000000E+03  0.10566000000E+00 0. -1.
        994   -1    0    0    0    0 -0.00000000000E+00 -0.00000000000E+00  0.00000000000E+00  0.13100000000E+03  0.13100000000E+03 0.  0.
         13    1    1    2    0    0  0.11760282542E+02  0.18661809740E+02  0.17524881709E+02  0.28172682357E+02  0.10566000000E+00 0.  1.
        994    1    1    2    0    0 -0.13473655010E+02 -0.36516580735E+02  0.95077577941E+02  0.16648046695E+03  0.13100000000E+03 0.  0.
        997    1    1    2    0    0  0.17133724683E+01  0.17854770995E+02  0.38739752919E+03  0.43634685070E+03  0.20000000000E+03 0.  0.
</event>
<event>
 5    1  0.6487493E-012  0.2381743E+03  0.7957747E-01  0.4468234E+00
         13   -1    0    0    0    0  0.00000000000E+00  0.00000000000E+00  0.49999998884E+03  0.50000000000E+03  0.10566000000E+00 0.  1.
        994   -1    0    0    0    0 -0.00000000000E+00 -0.00000000000E+00  0.00000000000E+00  0.13100000000E+03  0.13100000000E+03 0.  0.
         13    1    1    2    0    0 -0.25384671133E+02  0.80449795570E+01  0.28498649623E+02  0.39003684684E+02  0.10566000000E+00 0. -1.
        994    1    1    2    0    0  0.13728717850E+02 -0.16498019830E+02  0.88086895061E+02  0.15931404029E+03  0.13100000000E+03 0.  0.
        997    1    1    2    0    0  0.11655953283E+02  0.84530402730E+01  0.38341444415E+03  0.43268227503E+03  0.20000000000E+03 0.  0.
</event>
<event>
 5    1  0.6487493E-012  0.2380322E+03  0.7957747E-01  0.4469949E+00
         13   -1    0    0    0    0  0.00000000000E+00  0.00000000000E+00  0.49999998884E+03  0.50000000000E+03  0.10566000000E+00 0.  1.
        994   -1    0    0    0    0 -0.00000000000E+00 -0.00000000000E+00  0.00000000000E+00  0.13100000000E+03  0.13100000000E+03 0.  0.
         13    1    1    2    0    0 -0.83691366454E+01 -0.17579960792E+02  0.51620634623E+01  0.20143374416E+02  0.10566000000E+00 0. -1.
        994    1    1    2    0    0  0.91483250878E+01  0.48489616880E+02  0.11787085765E+03  0.18300129475E+03  0.13100000000E+03 0.  0.
        997    1    1    2    0    0 -0.77918844235E+00 -0.30909656088E+02  0.37696706773E+03  0.42785533084E+03  0.20000000000E+03 0.  0.
</event>
<event>
 5    1  0.6487493E-012  0.2404989E+03  0.7957747E-01  0.4440515E+00
         13   -1    0    0    0    0  0.00000000000E+00  0.00000000000E+00  0.49999998884E+03  0.50000000000E+03  0.10566000000E+00 0.  1.
        994   -1    0    0    0    0 -0.00000000000E+00 -0.00000000000E+00  0.00000000000E+00  0.13100000000E+03  0.13100000000E+03 0.  0.
         13    1    1    2    0    0  0.13638519216E+02 -0.16387694402E+02  0.10174799499E+03  0.10395783463E+03  0.10566000000E+00 0. -1.
        994    1    1    2    0    0 -0.27222408252E+02  0.18762595232E+01  0.98544111269E+02  0.16618219437E+03  0.13100000000E+03 0.  0.
        997    1    1    2    0    0  0.13583889036E+02  0.14511434879E+02  0.29970788258E+03  0.36085997099E+03  0.20000000000E+03 0.  0.
</event>
<event>
 5    1  0.6487493E-012  0.2392151E+03  0.7957747E-01  0.4455744E+00
         13   -1    0    0    0    0  0.00000000000E+00  0.00000000000E+00  0.49999998884E+03  0.50000000000E+03  0.10566000000E+00 0. -1.
        994   -1    0    0    0    0 -0.00000000000E+00 -0.00000000000E+00  0.00000000000E+00  0.13100000000E+03  0.13100000000E+03 0.  0.
         13    1    1    2    0    0 -0.34786763694E+01  0.28621256545E+02  0.16740927624E+02  0.33339876083E+02  0.10566000000E+00 0.  1.
        994    1    1    2    0    0  0.15886503524E+02 -0.56776244433E+02  0.14937481417E+03  0.20724323399E+03  0.13100000000E+03 0.  0.
        997    1    1    2    0    0 -0.12407827154E+02  0.28154987888E+02  0.33388424704E+03  0.39041688993E+03  0.20000000000E+03 0.  0.
</event>
<event>
 5    1  0.6487493E-012  0.2456851E+03  0.7957747E-01  0.4380907E+00
         13   -1    0    0    0    0  0.00000000000E+00  0.00000000000E+00  0.49999998884E+03  0.50000000000E+03  0.10566000000E+00 0. -1.
        994   -1    0    0    0    0 -0.00000000000E+00 -0.00000000000E+00  0.00000000000E+00  0.13100000000E+03  0.13100000000E+03 0.  0.
         13    1    1    2    0    0 -0.18419474711E+02 -0.24214855931E+02  0.23565232524E+02  0.38483342427E+02  0.10566000000E+00 0.  1.
        994    1    1    2    0    0 -0.32662442189E+01 -0.46338839084E+02  0.19422983075E+03  0.23883924198E+03  0.13100000000E+03 0.  0.
        997    1    1    2    0    0  0.21685718930E+02  0.70553695014E+02  0.28220492556E+03  0.35367741559E+03  0.20000000000E+03 0.  0.
</event>
<event>
 5    1  0.6487493E-012  0.2434690E+03  0.7957747E-01  0.4406011E+00
         13   -1    0    0    0    0  0.00000000000E+00  0.00000000000E+00  0.49999998884E+03  0.50000000000E+03  0.10566000000E+00 0.  1.
        994   -1    0    0    0    0 -0.00000000000E+00 -0.00000000000E+00  0.00000000000E+00  0.13100000000E+03  0.13100000000E+03 0.  0.
         13    1    1    2    0    0 -0.14873472382E+02  0.81842680351E+01 -0.48005943290E+01  0.17642542162E+02  0.10566000000E+00 0. -1.
        994    1    1    2    0    0  0.25859494004E+02  0.45407933201E+02  0.20138667115E+03  0.24586212629E+03  0.13100000000E+03 0.  0.
        997    1    1    2    0    0 -0.10986021622E+02 -0.53592201236E+02  0.30341391202E+03  0.36749533155E+03  0.20000000000E+03 0.  0.
</event>
<event>
 5    1  0.6487493E-012  0.2490109E+03  0.7957747E-01  0.4344216E+00
         13   -1    0    0    0    0  0.00000000000E+00  0.00000000000E+00  0.49999998884E+03  0.50000000000E+03  0.10566000000E+00 0.  1.
        994   -1    0    0    0    0 -0.00000000000E+00 -0.00000000000E+00  0.00000000000E+00  0.13100000000E+03  0.13100000000E+03 0.  0.
         13    1    1    2    0    0  0.27588346685E+02  0.37311803126E+02  0.41464957737E+02  0.62230550452E+02  0.10566000000E+00 0. -1.
        994    1    1    2    0    0 -0.10225131791E+02 -0.31225656843E+02  0.20139200900E+03  0.24248574443E+03  0.13100000000E+03 0.  0.
        997    1    1    2    0    0 -0.17363214894E+02 -0.60861462829E+01  0.25714302210E+03  0.32628370511E+03  0.20000000000E+03 0.  0.
</event>
<event>
 5    1  0.6487493E-012  0.2494908E+03  0.7957747E-01  0.4339016E+00
         13   -1    0    0    0    0  0.00000000000E+00  0.00000000000E+00  0.49999998884E+03  0.50000000000E+03  0.10566000000E+00 0. -1.
        994   -1    0    0    0    0 -0.00000000000E+00 -0.00000000000E+00  0.00000000000E+00  0.13100000000E+03  0.13100000000E+03 0.  0.
         13    1    1    2    0    0 -0.23953587697E+02  0.45515209184E+01 -0.21632298242E+01  0.24478182807E+02  0.10566000000E+00 0.  1.
        994    1    1    2    0    0 -0.48219798462E+01 -0.33764487493E+02  0.18246107817E+03  0.22719229114E+03  0.13100000000E+03 0.  0.
        997    1    1    2    0    0  0.28775567543E+02  0.29212966575E+02  0.31970214049E+03  0.37932952605E+03  0.20000000000E+03 0.  0.
</event>
<event>
 5    1  0.6487493E-012  0.2370613E+03  0.7957747E-01  0.4481735E+00
         13   -1    0    0    0    0  0.00000000000E+00  0.00000000000E+00  0.49999998884E+03  0.50000000000E+03  0.10566000000E+00 0. -1.
        994   -1    0    0    0    0 -0.00000000000E+00 -0.00000000000E+00  0.00000000000E+00  0.13100000000E+03  0.13100000000E+03 0.  0.
         13    1    1    2    0    0  0.98858699063E+01  0.29679078016E+02  0.36736133496E+02  0.48250728118E+02  0.10566000000E+00 0.  1.
        994    1    1    2    0    0 -0.27465078867E+02 -0.50837453034E+02  0.13157344304E+03  0.19445140293E+03  0.13100000000E+03 0.  0.
        997    1    1    2    0    0  0.17579208961E+02  0.21158375019E+02  0.33169041230E+03  0.38829786895E+03  0.20000000000E+03 0.  0.
</event>
<event>
 5    1  0.6494552E-012  0.2335638E+03  0.7957747E-01  0.4525164E+00
         13   -1    0    0    0    0  0.00000000000E+00  0.00000000000E+00  0.49999998884E+03  0.50000000000E+03  0.10566000000E+00 0.  1.
        994   -1    0    0    0    0 -0.00000000000E+00 -0.00000000000E+00  0.00000000000E+00  0.13100000000E+03  0.13100000000E+03 0.  0.
         13    1    1    2    0    0 -0.15565092354E+02  0.54528636785E+01  0.96021538833E+01  0.19084505378E+02  0.10566000000E+00 0. -1.
        994    1    1    2    0    0  0.30048121961E+02 -0.22134124267E+02  0.88435550490E+02  0.16240275761E+03  0.13100000000E+03 0.  0.
        997    1    1    2    0    0 -0.14483029607E+02  0.16681260589E+02  0.40196228446E+03  0.44951273701E+03  0.20000000000E+03 0.  0.
</event>
<event>
 5    1  0.6487493E-012  0.2347958E+03  0.7957747E-01  0.4509689E+00
         13   -1    0    0    0    0  0.00000000000E+00  0.00000000000E+00  0.49999998884E+03  0.50000000000E+03  0.10566000000E+00 0. -1.
        994   -1    0    0    0    0 -0.00000000000E+00 -0.00000000000E+00  0.00000000000E+00  0.13100000000E+03  0.13100000000E+03 0.  0.
         13    1    1    2    0    0  0.23072079667E+02 -0.13728981306E+02  0.33238824026E+02  0.42727466278E+02  0.10566000000E+00 0.  1.
        994    1    1    2    0    0 -0.23906560941E+02  0.61767483022E+02  0.24654813992E+03  0.28693854902E+03  0.13100000000E+03 0.  0.
        997    1    1    2    0    0  0.83448127489E+00 -0.48038501716E+02  0.22021302489E+03  0.30133398470E+03  0.20000000000E+03 0.  0.
</event>
<event>
 5    1  0.6487493E-012  0.2384126E+03  0.7957747E-01  0.4465363E+00
         13   -1    0    0    0    0  0.00000000000E+00  0.00000000000E+00  0.49999998884E+03  0.50000000000E+03  0.10566000000E+00 0.  1.
        994   -1    0    0    0    0 -0.00000000000E+00 -0.00000000000E+00  0.00000000000E+00  0.13100000000E+03  0.13100000000E+03 0.  0.
         13    1    1    2    0    0  0.73115749474E+01 -0.23142370705E+02  0.33555247532E+02  0.41412489071E+02  0.10566000000E+00 0. -1.
        994    1    1    2    0    0  0.62799790310E+01 -0.21789589216E+02  0.89408051979E+02  0.16021555509E+03  0.13100000000E+03 0.  0.
        997    1    1    2    0    0 -0.13591553978E+02  0.44931959922E+02  0.37703668933E+03  0.42937195584E+03  0.20000000000E+03 0.  0.
</event>
<event>
 5    1  0.6487493E-012  0.2476360E+03  0.7957747E-01  0.4359244E+00
         13   -1    0    0    0    0  0.00000000000E+00  0.00000000000E+00  0.49999998884E+03  0.50000000000E+03  0.10566000000E+00 0. -1.
        994   -1    0    0    0    0 -0.00000000000E+00 -0.00000000000E+00  0.00000000000E+00  0.13100000000E+03  0.13100000000E+03 0.  0.
         13    1    1    2    0    0 -0.35000678545E+02  0.40784379621E+01  0.17710691756E+02  0.39438064370E+02  0.10566000000E+00 0.  1.
        994    1    1    2    0    0  0.20835924158E+02 -0.31348376368E+02  0.15147983055E+03  0.20377437401E+03  0.13100000000E+03 0.  0.
        997    1    1    2    0    0  0.14164754386E+02  0.27269938405E+02  0.33080946653E+03  0.38778756162E+03  0.20000000000E+03 0.  0.
</event>
<event>
 5    1  0.6487493E-012  0.2446585E+03  0.7957747E-01  0.4392470E+00
         13   -1    0    0    0    0  0.00000000000E+00  0.00000000000E+00  0.49999998884E+03  0.50000000000E+03  0.10566000000E+00 0. -1.
        994   -1    0    0    0    0 -0.00000000000E+00 -0.00000000000E+00  0.00000000000E+00  0.13100000000E+03  0.13100000000E+03 0.  0.
         13    1    1    2    0    0 -0.36930651598E+02  0.88621135745E+01  0.54713942553E+02  0.66603579170E+02  0.10566000000E+00 0.  1.
        994    1    1    2    0    0  0.49482589409E+01 -0.45719657329E+02  0.14954514066E+03  0.20405764242E+03  0.13100000000E+03 0.  0.
        997    1    1    2    0    0  0.31982392658E+02  0.36857543754E+02  0.29574090562E+03  0.36033877841E+03  0.20000000000E+03 0.  0.
</event>
<event>
 5    1  0.6487493E-012  0.2352409E+03  0.7957747E-01  0.4504146E+00
         13   -1    0    0    0    0  0.00000000000E+00  0.00000000000E+00  0.49999998884E+03  0.50000000000E+03  0.10566000000E+00 0. -1.
        994   -1    0    0    0    0 -0.00000000000E+00 -0.00000000000E+00  0.00000000000E+00  0.13100000000E+03  0.13100000000E+03 0.  0.
         13    1    1    2    0    0 -0.14948628812E+02 -0.18056985220E+02  0.34346194140E+02  0.41583511570E+02  0.10566000000E+00 0.  1.
        994    1    1    2    0    0  0.42150762640E+02 -0.14836586566E+02  0.10104162072E+03  0.17136866753E+03  0.13100000000E+03 0.  0.
        997    1    1    2    0    0 -0.27202133828E+02  0.32893571786E+02  0.36461217398E+03  0.41804782090E+03  0.20000000000E+03 0.  0.
</event>
<event>
 5    1  0.6487493E-012  0.2419138E+03  0.7957747E-01  0.4423953E+00
         13   -1    0    0    0    0  0.00000000000E+00  0.00000000000E+00  0.49999998884E+03  0.50000000000E+03  0.10566000000E+00 0.  1.
        994   -1    0    0    0    0 -0.00000000000E+00 -0.00000000000E+00  0.00000000000E+00  0.13100000000E+03  0.13100000000E+03 0.  0.
         13    1    1    2    0    0 -0.26483085148E+02  0.19930413817E+02  0.17693199493E+02  0.37571740261E+02  0.10566000000E+00 0. -1.
        994    1    1    2    0    0  0.96697422051E+01 -0.52295666324E+02  0.22093796417E+03  0.26230311596E+03  0.13100000000E+03 0.  0.
        997    1    1    2    0    0  0.16813342943E+02  0.32365252508E+02  0.26136882518E+03  0.33112514378E+03  0.20000000000E+03 0.  0.
</event>
<event>
 5    1  0.6487493E-012  0.2523232E+03  0.7957747E-01  0.4308794E+00
         13   -1    0    0    0    0  0.00000000000E+00  0.00000000000E+00  0.49999998884E+03  0.50000000000E+03  0.10566000000E+00 0. -1.
        994   -1    0    0    0    0 -0.00000000000E+00 -0.00000000000E+00  0.00000000000E+00  0.13100000000E+03  0.13100000000E+03 0.  0.
         13    1    1    2    0    0 -0.70136064762E+01 -0.29374418385E+02  0.38970148193E+01  0.30450698183E+02  0.10566000000E+00 0.  1.
        994    1    1    2    0    0  0.10359442747E+02 -0.17252656261E+02  0.17860781077E+03  0.22241115590E+03  0.13100000000E+03 0.  0.
        997    1    1    2    0    0 -0.33458362711E+01  0.46627074646E+02  0.31749516325E+03  0.37813814592E+03  0.20000000000E+03 0.  0.
</event>
<event>
 5    1  0.6487493E-012  0.2386666E+03  0.7957747E-01  0.4462310E+00
         13   -1    0    0    0    0  0.00000000000E+00  0.00000000000E+00  0.49999998884E+03  0.50000000000E+03  0.10566000000E+00 0.  1.
        994   -1    0    0    0    0 -0.00000000000E+00 -0.00000000000E+00  0.00000000000E+00  0.13100000000E+03  0.13100000000E+03 0.  0.
         13    1    1    2    0    0 -0.11616183340E+02 -0.21306224162E+02  0.21016157667E+02  0.32102662671E+02  0.10566000000E+00 0. -1.
        994    1    1    2    0    0 -0.10416594054E+02  0.12010484291E+02  0.86616410745E+02  0.15784853428E+03  0.13100000000E+03 0.  0.
        997    1    1    2    0    0  0.22032777394E+02  0.92957398714E+01  0.39236742042E+03  0.44104880305E+03  0.20000000000E+03 0.  0.
</event>
<event>
 5    1  0.6487493E-012  0.2290068E+03  0.7957747E-01  0.4584154E+00
         13   -1    0    0    0    0  0.00000000000E+00  0.00000000000E+00  0.49999998884E+03  0.50000000000E+03  0.10566000000E+00 0.  1.
        994   -1    0    0    0    0 -0.00000000000E+00 -0.00000000000E+00  0.00000000000E+00  0.13100000000E+03  0.13100000000E+03 0.  0.
         13    1    1    2    0    0 -0.13589908633E+02  0.26868691841E+01  0.18892417937E+02  0.23427323838E+02  0.10566000000E+00 0. -1.
        994    1    1    2    0    0  0.33840451236E+02 -0.93052238563E+01  0.76444114990E+02  0.15568065406E+03  0.13100000000E+03 0.  0.
        997    1    1    2    0    0 -0.20250542603E+02  0.66183546722E+01  0.40466345591E+03  0.45189202211E+03  0.20000000000E+03 0.  0.
</event>
<event>
 5    1  0.6487493E-012  0.2498405E+03  0.7957747E-01  0.4335241E+00
         13   -1    0    0    0    0  0.00000000000E+00  0.00000000000E+00  0.49999998884E+03  0.50000000000E+03  0.10566000000E+00 0. -1.
        994   -1    0    0    0    0 -0.00000000000E+00 -0.00000000000E+00  0.00000000000E+00  0.13100000000E+03  0.13100000000E+03 0.  0.
         13    1    1    2    0    0  0.14292247665E+01  0.32561990708E+02  0.11787473703E+02  0.34659509844E+02  0.10566000000E+00 0.  1.
        994    1    1    2    0    0 -0.23926207640E+01 -0.14143180857E+02  0.12686281888E+03  0.18292328724E+03  0.13100000000E+03 0.  0.
        997    1    1    2    0    0  0.96339599748E+00 -0.18418809851E+02  0.36134969625E+03  0.41341720292E+03  0.20000000000E+03 0.  0.
</event>
<event>
 5    1  0.6487493E-012  0.2340450E+03  0.7957747E-01  0.4519096E+00
         13   -1    0    0    0    0  0.00000000000E+00  0.00000000000E+00  0.49999998884E+03  0.50000000000E+03  0.10566000000E+00 0. -1.
        994   -1    0    0    0    0 -0.00000000000E+00 -0.00000000000E+00  0.00000000000E+00  0.13100000000E+03  0.13100000000E+03 0.  0.
         13    1    1    2    0    0 -0.98307753557E+01  0.84877120053E+01  0.64894464276E+01  0.14519279533E+02  0.10566000000E+00 0.  1.
        994    1    1    2    0    0 -0.53375908132E+02  0.52402490118E+02  0.19186340928E+03  0.24406469708E+03  0.13100000000E+03 0.  0.
        997    1    1    2    0    0  0.63206683487E+02 -0.60890202123E+02  0.30164713313E+03  0.37241602339E+03  0.20000000000E+03 0.  0.
</event>
<event>
 5    1  0.6487493E-012  0.2514727E+03  0.7957747E-01  0.4317785E+00
         13   -1    0    0    0    0  0.00000000000E+00  0.00000000000E+00  0.49999998884E+03  0.50000000000E+03  0.10566000000E+00 0.  1.
        994   -1    0    0    0    0 -0.00000000000E+00 -0.00000000000E+00  0.00000000000E+00  0.13100000000E+03  0.13100000000E+03 0.  0.
         13    1    1    2    0    0 -0.12185728576E+02  0.39821963795E+01 -0.11453637470E+02  0.17191475919E+02  0.10566000000E+00 0. -1.
        994    1    1    2    0    0 -0.42236726699E+01  0.23820490181E+02  0.16052908316E+03  0.20860451027E+03  0.13100000000E+03 0.  0.
        997    1    1    2    0    0  0.16409401246E+02 -0.27802686561E+02  0.35092454315E+03  0.40520401381E+03  0.20000000000E+03 0.  0.
</event>
<event>
 5    1  0.6487493E-012  0.2480986E+03  0.7957747E-01  0.4354166E+00
         13   -1    0    0    0    0  0.00000000000E+00  0.00000000000E+00  0.49999998884E+03  0.50000000000E+03  0.10566000000E+00 0. -1.
        994   -1    0    0    0    0 -0.00000000000E+00 -0.00000000000E+00  0.00000000000E+00  0.13100000000E+03  0.13100000000E+03 0.  0.
         13    1    1    2    0    0 -0.22589201132E+02  0.97438514908E+01  0.26987121084E+00  0.24602817810E+02  0.10566000000E+00 0.  1.
        994    1    1    2    0    0  0.29744968760E+02 -0.52413082728E+01  0.13605835084E+03  0.19127234330E+03  0.13100000000E+03 0.  0.
        997    1    1    2    0    0 -0.71557676281E+01 -0.45025432180E+01  0.36367176678E+03  0.41512483889E+03  0.20000000000E+03 0.  0.
</event>
<event>
 5    1  0.6487493E-012  0.2372516E+03  0.7957747E-01  0.4479415E+00
         13   -1    0    0    0    0  0.00000000000E+00  0.00000000000E+00  0.49999998884E+03  0.50000000000E+03  0.10566000000E+00 0. -1.
        994   -1    0    0    0    0 -0.00000000000E+00 -0.00000000000E+00  0.00000000000E+00  0.13100000000E+03  0.13100000000E+03 0.  0.
         13    1    1    2    0    0 -0.23255238286E+02 -0.12790602240E+02  0.14616138396E+02  0.30299311528E+02  0.10566000000E+00 0.  1.
        994    1    1    2    0    0  0.66005426348E+02  0.10228327912E+02  0.16965675346E+03  0.22451224687E+03  0.13100000000E+03 0.  0.
        997    1    1    2    0    0 -0.42750188062E+02  0.25622743282E+01  0.31572709698E+03  0.37618844160E+03  0.20000000000E+03 0.  0.
</event>
<event>
 5    1  0.6487493E-012  0.2343833E+03  0.7957747E-01  0.4514848E+00
         13   -1    0    0    0    0  0.00000000000E+00  0.00000000000E+00  0.49999998884E+03  0.50000000000E+03  0.10566000000E+00 0.  1.
        994   -1    0    0    0    0 -0.00000000000E+00 -0.00000000000E+00  0.00000000000E+00  0.13100000000E+03  0.13100000000E+03 0.  0.
         13    1    1    2    0    0  0.22324223710E+02 -0.79759459997E+01  0.39949221879E+02  0.46453613117E+02  0.10566000000E+00 0. -1.
        994    1    1    2    0    0 -0.33970663713E+02 -0.15147463270E+02  0.90369593301E+02  0.16343535428E+03  0.13100000000E+03 0.  0.
        997    1    1    2    0    0  0.11646440003E+02  0.23123409270E+02  0.36968117366E+03  0.42111103260E+03  0.20000000000E+03 0.  0.
</event>
<event>
 5    1  0.6487493E-012  0.2456673E+03  0.7957747E-01  0.4381107E+00
         13   -1    0    0    0    0  0.00000000000E+00  0.00000000000E+00  0.49999998884E+03  0.50000000000E+03  0.10566000000E+00 0. -1.
        994   -1    0    0    0    0 -0.00000000000E+00 -0.00000000000E+00  0.00000000000E+00  0.13100000000E+03  0.13100000000E+03 0.  0.
         13    1    1    2    0    0  0.15872959038E+02  0.17237405636E+02 -0.10445987666E+00  0.23432905445E+02  0.10566000000E+00 0.  1.
        994    1    1    2    0    0 -0.17639424831E+02 -0.39829810161E+02  0.15101769151E+03  0.20460915482E+03  0.13100000000E+03 0.  0.
        997    1    1    2    0    0  0.17664657930E+01  0.22592404525E+02  0.34908675720E+03  0.40295793974E+03  0.20000000000E+03 0.  0.
</event>
<event>
 5    1  0.6487493E-012  0.2356618E+03  0.7957747E-01  0.4498927E+00
         13   -1    0    0    0    0  0.00000000000E+00  0.00000000000E+00  0.49999998884E+03  0.50000000000E+03  0.10566000000E+00 0.  1.
        994   -1    0    0    0    0 -0.00000000000E+00 -0.00000000000E+00  0.00000000000E+00  0.13100000000E+03  0.13100000000E+03 0.  0.
         13    1    1    2    0    0 -0.18034928517E+02  0.11638858111E+02  0.25553315304E+02  0.33372215267E+02  0.10566000000E+00 0. -1.
        994    1    1    2    0    0 -0.56148907942E+01 -0.55791898882E+01  0.77344899859E+02  0.15233478885E+03  0.13100000000E+03 0.  0.
        997    1    1    2    0    0  0.23649819311E+02 -0.60596682230E+01  0.39710177367E+03  0.44529299589E+03  0.20000000000E+03 0.  0.
</event>
