<event>
 5    1  0.1640179E-008  0.3850624E+03  0.7957747E-01  0.3429408E+00
         13   -1    0    0    0    0  0.00000000000E+00  0.00000000000E+00  0.14999999963E+04  0.15000000000E+04  0.10566000000E+00 0.  1.
        994   -1    0    0    0    0 -0.00000000000E+00 -0.00000000000E+00  0.11368683772E-12  0.17120000000E+03  0.17120000000E+03 0.  0.
         13    1    1    2    0    0  0.83299797142E+01  0.14020139705E+02  0.75049699603E+02  0.76801181332E+02  0.10566000000E+00 0.  1.
        994    1    1    2    0    0 -0.30300954305E+02 -0.12823629423E+02  0.51668431871E+01  0.17440966020E+03  0.17120000000E+03 0.  0.
        998    1    1    2    0    0  0.21970974591E+02 -0.11965102819E+01  0.14197834535E+04  0.14199891585E+04  0.10000000000E+02 0.  1.
</event>
<event>
 5    1  0.1640179E-008  0.3850746E+03  0.7957747E-01  0.3429356E+00
         13   -1    0    0    0    0  0.00000000000E+00  0.00000000000E+00  0.14999999963E+04  0.15000000000E+04  0.10566000000E+00 0. -1.
        994   -1    0    0    0    0 -0.00000000000E+00 -0.00000000000E+00  0.11368683772E-12  0.17120000000E+03  0.17120000000E+03 0.  0.
         13    1    1    2    0    0 -0.69192192537E+01  0.11356443744E+02  0.61061011458E+02  0.62492421092E+02  0.10566000000E+00 0. -1.
        994    1    1    2    0    0  0.26001744024E+01  0.88029172790E+01  0.18701635771E+01  0.17145608701E+03  0.17120000000E+03 0.  0.
        998    1    1    2    0    0  0.43190448513E+01 -0.20159361023E+02  0.14370688212E+04  0.14372514919E+04  0.10000000000E+02 0. -1.
</event>
<event>
 5    1  0.1640179E-008  0.3851219E+03  0.7957747E-01  0.3429155E+00
         13   -1    0    0    0    0  0.00000000000E+00  0.00000000000E+00  0.14999999963E+04  0.15000000000E+04  0.10566000000E+00 0. -1.
        994   -1    0    0    0    0 -0.00000000000E+00 -0.00000000000E+00  0.11368683772E-12  0.17120000000E+03  0.17120000000E+03 0.  0.
         13    1    1    2    0    0  0.68530823015E+01  0.13975064754E+02  0.78418420954E+02  0.79948277536E+02  0.10566000000E+00 0. -1.
        994    1    1    2    0    0 -0.43778467554E+01 -0.68936631897E+01  0.17888767901E+01  0.17140399124E+03  0.17120000000E+03 0.  0.
        998    1    1    2    0    0 -0.24752355461E+01 -0.70814015642E+01  0.14197926985E+04  0.14198477312E+04  0.10000000000E+02 0. -1.
</event>
<event>
 5    1  0.1640179E-008  0.3837129E+03  0.7957747E-01  0.3435149E+00
         13   -1    0    0    0    0  0.00000000000E+00  0.00000000000E+00  0.14999999963E+04  0.15000000000E+04  0.10566000000E+00 0.  1.
        994   -1    0    0    0    0 -0.00000000000E+00 -0.00000000000E+00  0.11368683772E-12  0.17120000000E+03  0.17120000000E+03 0.  0.
         13    1    1    2    0    0 -0.20050704080E+02 -0.54180027970E+00  0.90711932582E+02  0.92903122437E+02  0.10566000000E+00 0.  1.
        994    1    1    2    0    0  0.80365831161E+01  0.23308423099E+01  0.25017951304E+01  0.17142263116E+03  0.17120000000E+03 0.  0.
        998    1    1    2    0    0  0.12014120964E+02 -0.17890420302E+01  0.14067862686E+04  0.14068742464E+04  0.10000000000E+02 0.  1.
</event>
<event>
 5    1  0.1640179E-008  0.3849825E+03  0.7957747E-01  0.3429746E+00
         13   -1    0    0    0    0  0.00000000000E+00  0.00000000000E+00  0.14999999963E+04  0.15000000000E+04  0.10566000000E+00 0.  1.
        994   -1    0    0    0    0 -0.00000000000E+00 -0.00000000000E+00  0.11368683772E-12  0.17120000000E+03  0.17120000000E+03 0.  0.
         13    1    1    2    0    0  0.10207700068E+02 -0.50487311160E+01  0.39711463972E+02  0.41312205962E+02  0.10566000000E+00 0.  1.
        994    1    1    2    0    0 -0.46161575744E+01  0.47531681474E+01  0.17832163262E+01  0.17133744885E+03  0.17120000000E+03 0.  0.
        998    1    1    2    0    0 -0.55915424933E+01  0.29556296860E+00  0.14585053160E+04  0.14585503452E+04  0.10000000000E+02 0.  1.
</event>
<event>
 5    1  0.1640179E-008  0.3854002E+03  0.7957747E-01  0.3427976E+00
         13   -1    0    0    0    0  0.00000000000E+00  0.00000000000E+00  0.14999999963E+04  0.15000000000E+04  0.10566000000E+00 0.  1.
        994   -1    0    0    0    0 -0.00000000000E+00 -0.00000000000E+00  0.11368683772E-12  0.17120000000E+03  0.17120000000E+03 0.  0.
         13    1    1    2    0    0  0.90604561069E+01 -0.17923955133E+02  0.11203367374E+03  0.11381966108E+03  0.10566000000E+00 0.  1.
        994    1    1    2    0    0 -0.37734769723E+02  0.26730139097E+02  0.84866883613E+01  0.17753838194E+03  0.17120000000E+03 0.  0.
        998    1    1    2    0    0  0.28674313616E+02 -0.88061839646E+01  0.13794796342E+04  0.13798419570E+04  0.10000000000E+02 0.  1.
</event>
<event>
 5    1  0.1640179E-008  0.3839310E+03  0.7957747E-01  0.3434219E+00
         13   -1    0    0    0    0  0.00000000000E+00  0.00000000000E+00  0.14999999963E+04  0.15000000000E+04  0.10566000000E+00 0. -1.
        994   -1    0    0    0    0 -0.00000000000E+00 -0.00000000000E+00  0.11368683772E-12  0.17120000000E+03  0.17120000000E+03 0.  0.
         13    1    1    2    0    0 -0.10409525890E+01 -0.12095806880E+02  0.33434652475E+02  0.35570764352E+02  0.10566000000E+00 0. -1.
        994    1    1    2    0    0  0.45638258965E+01  0.84118185282E+01  0.24641133282E+01  0.17148498200E+03  0.17120000000E+03 0.  0.
        998    1    1    2    0    0 -0.35228733075E+01  0.36839883522E+01  0.14641012305E+04  0.14641442536E+04  0.10000000000E+02 0. -1.
</event>
<event>
 5    1  0.1640179E-008  0.3762390E+03  0.7957747E-01  0.3467700E+00
         13   -1    0    0    0    0  0.00000000000E+00  0.00000000000E+00  0.14999999963E+04  0.15000000000E+04  0.10566000000E+00 0. -1.
        994   -1    0    0    0    0 -0.00000000000E+00 -0.00000000000E+00  0.11368683772E-12  0.17120000000E+03  0.17120000000E+03 0.  0.
         13    1    1    2    0    0 -0.14768390918E+02  0.56596492177E+02  0.32290929871E+03  0.32816412762E+03  0.10566000000E+00 0. -1.
        994    1    1    2    0    0 -0.93172539089E+00 -0.17765813062E+02  0.71159001012E+01  0.17226888361E+03  0.17120000000E+03 0.  0.
        998    1    1    2    0    0  0.15700116309E+02 -0.38830679115E+02  0.11699747975E+04  0.11707669888E+04  0.10000000000E+02 0. -1.
</event>
<event>
 5    1  0.1640179E-008  0.3859726E+03  0.7957747E-01  0.3425558E+00
         13   -1    0    0    0    0  0.00000000000E+00  0.00000000000E+00  0.14999999963E+04  0.15000000000E+04  0.10566000000E+00 0. -1.
        994   -1    0    0    0    0 -0.00000000000E+00 -0.00000000000E+00  0.11368683772E-12  0.17120000000E+03  0.17120000000E+03 0.  0.
         13    1    1    2    0    0  0.61316121078E+02  0.46298156178E+02  0.14025108738E+03  0.15991736818E+03  0.10566000000E+00 0. -1.
        994    1    1    2    0    0 -0.37324074492E+02 -0.47478606257E+02  0.33288076554E+02  0.18456662924E+03  0.17120000000E+03 0.  0.
        998    1    1    2    0    0 -0.23992046586E+02  0.11804500788E+01  0.13264608323E+04  0.13267160026E+04  0.10000000000E+02 0. -1.
</event>
<event>
 5    1  0.1640179E-008  0.3851682E+03  0.7957747E-01  0.3428959E+00
         13   -1    0    0    0    0  0.00000000000E+00  0.00000000000E+00  0.14999999963E+04  0.15000000000E+04  0.10566000000E+00 0.  1.
        994   -1    0    0    0    0 -0.00000000000E+00 -0.00000000000E+00  0.11368683772E-12  0.17120000000E+03  0.17120000000E+03 0.  0.
         13    1    1    2    0    0  0.48209872488E+01 -0.97648284809E+01  0.36789456064E+02  0.38367551848E+02  0.10566000000E+00 0.  1.
        994    1    1    2    0    0 -0.54313403144E+01  0.14453583720E+02  0.23306362239E+01  0.17191066693E+03  0.17120000000E+03 0.  0.
        998    1    1    2    0    0  0.61035306561E+00 -0.46887552392E+01  0.14608799040E+04  0.14609217812E+04  0.10000000000E+02 0.  1.
</event>
<event>
 5    1  0.1640179E-008  0.3785584E+03  0.7957747E-01  0.3457460E+00
         13   -1    0    0    0    0  0.00000000000E+00  0.00000000000E+00  0.14999999963E+04  0.15000000000E+04  0.10566000000E+00 0. -1.
        994   -1    0    0    0    0 -0.00000000000E+00 -0.00000000000E+00  0.11368683772E-12  0.17120000000E+03  0.17120000000E+03 0.  0.
         13    1    1    2    0    0  0.42078114350E+01 -0.22541908303E+02  0.49944194177E+02  0.54957046892E+02  0.10566000000E+00 0. -1.
        994    1    1    2    0    0 -0.11952118712E+01  0.27785634463E+02  0.74650123734E+01  0.17360482834E+03  0.17120000000E+03 0.  0.
        998    1    1    2    0    0 -0.30125995638E+01 -0.52437261599E+01  0.14425907897E+04  0.14426381248E+04  0.10000000000E+02 0. -1.
</event>
<event>
 5    1  0.1640179E-008  0.3830919E+03  0.7957747E-01  0.3437805E+00
         13   -1    0    0    0    0  0.00000000000E+00  0.00000000000E+00  0.14999999963E+04  0.15000000000E+04  0.10566000000E+00 0.  1.
        994   -1    0    0    0    0 -0.00000000000E+00 -0.00000000000E+00  0.11368683772E-12  0.17120000000E+03  0.17120000000E+03 0.  0.
         13    1    1    2    0    0 -0.25648007148E+00  0.29215238482E+02  0.15859289752E+03  0.16126163291E+03  0.10566000000E+00 0.  1.
        994    1    1    2    0    0  0.99725197618E+01 -0.22093170109E+02  0.45271502895E+01  0.17296674364E+03  0.17120000000E+03 0.  0.
        998    1    1    2    0    0 -0.97160396904E+01 -0.71220683727E+01  0.13368799485E+04  0.13369716234E+04  0.10000000000E+02 0.  1.
</event>
<event>
 5    1  0.1640179E-008  0.3704782E+03  0.7957747E-01  0.3493696E+00
         13   -1    0    0    0    0  0.00000000000E+00  0.00000000000E+00  0.14999999963E+04  0.15000000000E+04  0.10566000000E+00 0. -1.
        994   -1    0    0    0    0 -0.00000000000E+00 -0.00000000000E+00  0.11368683772E-12  0.17120000000E+03  0.17120000000E+03 0.  0.
         13    1    1    2    0    0 -0.95687768057E+01 -0.52227379532E+02  0.13256057199E+03  0.14279907938E+03  0.10566000000E+00 0. -1.
        994    1    1    2    0    0 -0.10332380800E+01  0.67330891292E+02  0.24839124709E+02  0.18563657673E+03  0.17120000000E+03 0.  0.
        998    1    1    2    0    0  0.10602014886E+02 -0.15103511760E+02  0.13426002996E+04  0.13427643439E+04  0.10000000000E+02 0. -1.
</event>
<event>
 5    1  0.1640179E-008  0.3716333E+03  0.7957747E-01  0.3488418E+00
         13   -1    0    0    0    0  0.00000000000E+00  0.00000000000E+00  0.14999999963E+04  0.15000000000E+04  0.10566000000E+00 0.  1.
        994   -1    0    0    0    0 -0.00000000000E+00 -0.00000000000E+00  0.11368683772E-12  0.17120000000E+03  0.17120000000E+03 0.  0.
         13    1    1    2    0    0 -0.81939161392E+02 -0.99542642939E+02  0.57007369528E+03  0.58447137924E+03  0.10566000000E+00 0.  1.
        994    1    1    2    0    0  0.73640372855E+02  0.10870644810E+03  0.70245196943E+02  0.22690047172E+03  0.17120000000E+03 0.  0.
        998    1    1    2    0    0  0.82987885363E+01 -0.91638051639E+01  0.85968110405E+03  0.85982814904E+03  0.10000000000E+02 0.  0.
</event>
<event>
 5    1  0.1640179E-008  0.3843734E+03  0.7957747E-01  0.3432334E+00
         13   -1    0    0    0    0  0.00000000000E+00  0.00000000000E+00  0.14999999963E+04  0.15000000000E+04  0.10566000000E+00 0. -1.
        994   -1    0    0    0    0 -0.00000000000E+00 -0.00000000000E+00  0.11368683772E-12  0.17120000000E+03  0.17120000000E+03 0.  0.
         13    1    1    2    0    0 -0.13179835106E+02  0.20692156486E+01  0.46259506982E+02  0.48145019027E+02  0.10566000000E+00 0. -1.
        994    1    1    2    0    0  0.50718892875E+01 -0.34407738167E+01  0.20653601622E+01  0.17132211970E+03  0.17120000000E+03 0.  0.
        998    1    1    2    0    0  0.81079458189E+01  0.13715581681E+01  0.14516751291E+04  0.14517328613E+04  0.10000000000E+02 0. -1.
</event>
<event>
 5    1  0.1640179E-008  0.3760938E+03  0.7957747E-01  0.3468345E+00
         13   -1    0    0    0    0  0.00000000000E+00  0.00000000000E+00  0.14999999963E+04  0.15000000000E+04  0.10566000000E+00 0. -1.
        994   -1    0    0    0    0 -0.00000000000E+00 -0.00000000000E+00  0.11368683772E-12  0.17120000000E+03  0.17120000000E+03 0.  0.
         13    1    1    2    0    0  0.55331308494E+02 -0.21164239927E+02  0.32952945617E+03  0.33481211507E+03  0.10566000000E+00 0. -1.
        994    1    1    2    0    0 -0.79885941124E+01  0.28501018565E+02  0.90909869155E+01  0.17397761850E+03  0.17120000000E+03 0.  0.
        998    1    1    2    0    0 -0.47342714382E+02 -0.73367786380E+01  0.11613795532E+04  0.11624102664E+04  0.10000000000E+02 0. -1.
</event>
<event>
 5    1  0.1640179E-008  0.4098969E+03  0.7957747E-01  0.3330490E+00
         13   -1    0    0    0    0  0.00000000000E+00  0.00000000000E+00  0.14999999963E+04  0.15000000000E+04  0.10566000000E+00 0.  1.
        994   -1    0    0    0    0 -0.00000000000E+00 -0.00000000000E+00  0.11368683772E-12  0.17120000000E+03  0.17120000000E+03 0.  0.
         13    1    1    2    0    0 -0.68307581542E+01  0.15586406014E+03  0.29389972804E+03  0.33274213109E+03  0.10566000000E+00 0.  1.
        994    1    1    2    0    0  0.39744736581E+02 -0.13629544511E+03  0.12207068083E+03  0.25370609682E+03  0.17120000000E+03 0.  0.
        998    1    1    2    0    0 -0.32913978427E+02 -0.19568615031E+02  0.10840295874E+04  0.10847517721E+04  0.10000000000E+02 0.  1.
</event>
<event>
 5    1  0.1640179E-008  0.3807638E+03  0.7957747E-01  0.3447839E+00
         13   -1    0    0    0    0  0.00000000000E+00  0.00000000000E+00  0.14999999963E+04  0.15000000000E+04  0.10566000000E+00 0.  1.
        994   -1    0    0    0    0 -0.00000000000E+00 -0.00000000000E+00  0.11368683772E-12  0.17120000000E+03  0.17120000000E+03 0.  0.
         13    1    1    2    0    0 -0.56793809091E+02  0.90776532950E+02  0.45747773508E+03  0.46984231924E+03  0.10566000000E+00 0.  1.
        994    1    1    2    0    0  0.55700173400E+02  0.69613226772E+01  0.28287534938E+02  0.18237487207E+03  0.17120000000E+03 0.  0.
        998    1    1    2    0    0  0.10936356910E+01 -0.97737855627E+02  0.10142347263E+04  0.10189828087E+04  0.10000000000E+02 0.  1.
</event>
<event>
 5    1  0.1640179E-008  0.3872768E+03  0.7957747E-01  0.3420073E+00
         13   -1    0    0    0    0  0.00000000000E+00  0.00000000000E+00  0.14999999963E+04  0.15000000000E+04  0.10566000000E+00 0.  1.
        994   -1    0    0    0    0 -0.00000000000E+00 -0.00000000000E+00  0.11368683772E-12  0.17120000000E+03  0.17120000000E+03 0.  0.
         13    1    1    2    0    0  0.22770486988E+01  0.38547540359E+02  0.27768377838E+02  0.47562504037E+02  0.10566000000E+00 0.  1.
        994    1    1    2    0    0  0.21170123297E+01 -0.41584528184E+02  0.26865885073E+02  0.17822730011E+03  0.17120000000E+03 0.  0.
        998    1    1    2    0    0 -0.43940610285E+01  0.30369878257E+01  0.14453657334E+04  0.14454101958E+04  0.10000000000E+02 0.  1.
</event>
<event>
 5    1  0.1640179E-008  0.3837713E+03  0.7957747E-01  0.3434900E+00
         13   -1    0    0    0    0  0.00000000000E+00  0.00000000000E+00  0.14999999963E+04  0.15000000000E+04  0.10566000000E+00 0. -1.
        994   -1    0    0    0    0 -0.00000000000E+00 -0.00000000000E+00  0.11368683772E-12  0.17120000000E+03  0.17120000000E+03 0.  0.
         13    1    1    2    0    0 -0.59335818552E+01  0.26743804775E+02  0.14937496936E+03  0.15186616188E+03  0.10566000000E+00 0. -1.
        994    1    1    2    0    0  0.96533553510E+01 -0.28559171143E+02  0.52478988774E+01  0.17391317940E+03  0.17120000000E+03 0.  0.
        998    1    1    2    0    0 -0.37197734958E+01  0.18153663676E+01  0.13453771280E+04  0.13454206587E+04  0.10000000000E+02 0. -1.
</event>
<event>
 5    1  0.1640179E-008  0.3863956E+03  0.7957747E-01  0.3423775E+00
         13   -1    0    0    0    0  0.00000000000E+00  0.00000000000E+00  0.14999999963E+04  0.15000000000E+04  0.10566000000E+00 0.  1.
        994   -1    0    0    0    0 -0.00000000000E+00 -0.00000000000E+00  0.11368683772E-12  0.17120000000E+03  0.17120000000E+03 0.  0.
         13    1    1    2    0    0  0.30467526406E+01 -0.10749786788E+02  0.61579274596E+02  0.62584813185E+02  0.10566000000E+00 0.  1.
        994    1    1    2    0    0  0.12627494391E+01  0.20793142530E+02  0.23608128550E+01  0.17247887624E+03  0.17120000000E+03 0.  0.
        998    1    1    2    0    0 -0.43095020797E+01 -0.10043355742E+02  0.14360599088E+04  0.14361363106E+04  0.10000000000E+02 0.  1.
</event>
<event>
 5    1  0.1640179E-008  0.3706892E+03  0.7957747E-01  0.3492730E+00
         13   -1    0    0    0    0  0.00000000000E+00  0.00000000000E+00  0.14999999963E+04  0.15000000000E+04  0.10566000000E+00 0.  1.
        994   -1    0    0    0    0 -0.00000000000E+00 -0.00000000000E+00  0.11368683772E-12  0.17120000000E+03  0.17120000000E+03 0.  0.
         13    1    1    2    0    0  0.55326018863E+02 -0.39206890136E+02  0.38670165592E+03  0.39260200006E+03  0.10566000000E+00 0.  1.
        994    1    1    2    0    0  0.43584936744E+02 -0.13852790141E+02  0.18669513672E+02  0.17818399829E+03  0.17120000000E+03 0.  0.
        998    1    1    2    0    0 -0.98910955607E+02  0.53059680277E+02  0.10946288267E+04  0.11004140016E+04  0.10000000000E+02 0.  1.
</event>
<event>
 5    1  0.1640179E-008  0.4117455E+03  0.7957747E-01  0.3323601E+00
         13   -1    0    0    0    0  0.00000000000E+00  0.00000000000E+00  0.14999999963E+04  0.15000000000E+04  0.10566000000E+00 0.  1.
        994   -1    0    0    0    0 -0.00000000000E+00 -0.00000000000E+00  0.11368683772E-12  0.17120000000E+03  0.17120000000E+03 0.  0.
         13    1    1    2    0    0  0.35705095991E+01 -0.77704337890E+02  0.13417708934E+03  0.15509421373E+03  0.10566000000E+00 0.  1.
        994    1    1    2    0    0  0.15910255890E+02 -0.14729608669E+03  0.13268885596E+03  0.26242150425E+03  0.17120000000E+03 0.  0.
        998    1    1    2    0    0 -0.19480765489E+02  0.22500042458E+03  0.12331340510E+04  0.12536842820E+04  0.10000000000E+02 0.  1.
</event>
<event>
 5    1  0.1640179E-008  0.3816413E+03  0.7957747E-01  0.3444043E+00
         13   -1    0    0    0    0  0.00000000000E+00  0.00000000000E+00  0.14999999963E+04  0.15000000000E+04  0.10566000000E+00 0.  1.
        994   -1    0    0    0    0 -0.00000000000E+00 -0.00000000000E+00  0.11368683772E-12  0.17120000000E+03  0.17120000000E+03 0.  0.
         13    1    1    2    0    0  0.12476322392E+01  0.16650806512E+02  0.42627431777E+02  0.45781164770E+02  0.10566000000E+00 0.  1.
        994    1    1    2    0    0  0.41077418520E+01 -0.10983355424E+01  0.33670429653E+01  0.17128589219E+03  0.17120000000E+03 0.  0.
        998    1    1    2    0    0 -0.53553740912E+01 -0.15552470970E+02  0.14540055215E+04  0.14541329430E+04  0.10000000000E+02 0.  1.
</event>
<event>
 5    1  0.1640179E-008  0.3792228E+03  0.7957747E-01  0.3454549E+00
         13   -1    0    0    0    0  0.00000000000E+00  0.00000000000E+00  0.14999999963E+04  0.15000000000E+04  0.10566000000E+00 0. -1.
        994   -1    0    0    0    0 -0.00000000000E+00 -0.00000000000E+00  0.11368683772E-12  0.17120000000E+03  0.17120000000E+03 0.  0.
         13    1    1    2    0    0  0.11435947274E+02 -0.12668434570E+02  0.30211961830E+02  0.34699336105E+02  0.10566000000E+00 0. -1.
        994    1    1    2    0    0 -0.76242833055E+01  0.10970001473E+02  0.51243363476E+01  0.17179688429E+03  0.17120000000E+03 0.  0.
        998    1    1    2    0    0 -0.38116639685E+01  0.16984330972E+01  0.14646636981E+04  0.14647037796E+04  0.10000000000E+02 0. -1.
</event>
<event>
 5    1  0.1640179E-008  0.3695375E+03  0.7957747E-01  0.3498019E+00
         13   -1    0    0    0    0  0.00000000000E+00  0.00000000000E+00  0.14999999963E+04  0.15000000000E+04  0.10566000000E+00 0. -1.
        994   -1    0    0    0    0 -0.00000000000E+00 -0.00000000000E+00  0.11368683772E-12  0.17120000000E+03  0.17120000000E+03 0.  0.
         13    1    1    2    0    0 -0.67587213584E+01 -0.10159163593E+02  0.22602589679E+01  0.12410030377E+02  0.10566000000E+00 0. -1.
        994    1    1    2    0    0 -0.20787353427E+02 -0.62489840542E+01  0.12340680149E+02  0.17301126047E+03  0.17120000000E+03 0.  0.
        998    1    1    2    0    0  0.27546074785E+02  0.16408147648E+02  0.14853990572E+04  0.14857787091E+04  0.10000000000E+02 0. -1.
</event>
<event>
 5    1  0.1640179E-008  0.3834624E+03  0.7957747E-01  0.3436220E+00
         13   -1    0    0    0    0  0.00000000000E+00  0.00000000000E+00  0.14999999963E+04  0.15000000000E+04  0.10566000000E+00 0. -1.
        994   -1    0    0    0    0 -0.00000000000E+00 -0.00000000000E+00  0.11368683772E-12  0.17120000000E+03  0.17120000000E+03 0.  0.
         13    1    1    2    0    0 -0.39356936356E+01 -0.25345924735E+02  0.12694279283E+03  0.12950825997E+03  0.10566000000E+00 0. -1.
        994    1    1    2    0    0  0.68040598094E+01  0.24926953485E+02  0.46052336278E+01  0.17320016287E+03  0.17120000000E+03 0.  0.
        998    1    1    2    0    0 -0.28683661737E+01  0.41897125046E+00  0.13684519698E+04  0.13684915772E+04  0.10000000000E+02 0. -1.
</event>
<event>
 5    1  0.1640179E-008  0.3850071E+03  0.7957747E-01  0.3429642E+00
         13   -1    0    0    0    0  0.00000000000E+00  0.00000000000E+00  0.14999999963E+04  0.15000000000E+04  0.10566000000E+00 0. -1.
        994   -1    0    0    0    0 -0.00000000000E+00 -0.00000000000E+00  0.11368683772E-12  0.17120000000E+03  0.17120000000E+03 0.  0.
         13    1    1    2    0    0  0.17866577808E+02  0.10405023192E+02  0.99376488690E+02  0.10150456531E+03  0.10566000000E+00 0. -1.
        994    1    1    2    0    0 -0.45401517868E+02 -0.22597920416E+02  0.10130889613E+02  0.17884081960E+03  0.17120000000E+03 0.  0.
        998    1    1    2    0    0  0.27534940060E+02  0.12192897224E+02  0.13904926180E+04  0.13908546151E+04  0.10000000000E+02 0. -1.
</event>
<event>
 5    1  0.1640179E-008  0.3832763E+03  0.7957747E-01  0.3437016E+00
         13   -1    0    0    0    0  0.00000000000E+00  0.00000000000E+00  0.14999999963E+04  0.15000000000E+04  0.10566000000E+00 0.  1.
        994   -1    0    0    0    0 -0.00000000000E+00 -0.00000000000E+00  0.11368683772E-12  0.17120000000E+03  0.17120000000E+03 0.  0.
         13    1    1    2    0    0 -0.83506979878E+01 -0.18409136960E+02  0.78627682169E+02  0.81184690970E+02  0.10566000000E+00 0.  1.
        994    1    1    2    0    0  0.30361605513E+01  0.19525537738E+02  0.37807468930E+01  0.17237806978E+03  0.17120000000E+03 0.  0.
        998    1    1    2    0    0  0.53145374365E+01 -0.11164007779E+01  0.14175915672E+04  0.14176372392E+04  0.10000000000E+02 0.  1.
</event>
<event>
 5    1  0.1640179E-008  0.3876488E+03  0.7957747E-01  0.3418515E+00
         13   -1    0    0    0    0  0.00000000000E+00  0.00000000000E+00  0.14999999963E+04  0.15000000000E+04  0.10566000000E+00 0.  1.
        994   -1    0    0    0    0 -0.00000000000E+00 -0.00000000000E+00  0.11368683772E-12  0.17120000000E+03  0.17120000000E+03 0.  0.
         13    1    1    2    0    0 -0.58040021843E+02  0.76702324601E+02  0.18442378849E+03  0.20800008572E+03  0.10566000000E+00 0.  1.
        994    1    1    2    0    0  0.41483370768E+02 -0.99319302233E+02  0.65207953353E+02  0.21247755417E+03  0.17120000000E+03 0.  0.
        998    1    1    2    0    0  0.16556651075E+02  0.22616977633E+02  0.12503682544E+04  0.12507223601E+04  0.10000000000E+02 0.  1.
</event>
<event>
 5    1  0.1640179E-008  0.3862281E+03  0.7957747E-01  0.3424480E+00
         13   -1    0    0    0    0  0.00000000000E+00  0.00000000000E+00  0.14999999963E+04  0.15000000000E+04  0.10566000000E+00 0.  1.
        994   -1    0    0    0    0 -0.00000000000E+00 -0.00000000000E+00  0.11368683772E-12  0.17120000000E+03  0.17120000000E+03 0.  0.
         13    1    1    2    0    0  0.18107678098E+00 -0.11004792830E+02  0.60519903860E+02  0.61512666836E+02  0.10566000000E+00 0.  1.
        994    1    1    2    0    0  0.33198341570E+01  0.68175594909E+01  0.12100014163E+01  0.17137212294E+03  0.17120000000E+03 0.  0.
        998    1    1    2    0    0 -0.35009109380E+01  0.41872333389E+01  0.14382700910E+04  0.14383152102E+04  0.10000000000E+02 0.  1.
</event>
<event>
 5    1  0.1640179E-008  0.3853778E+03  0.7957747E-01  0.3428072E+00
         13   -1    0    0    0    0  0.00000000000E+00  0.00000000000E+00  0.14999999963E+04  0.15000000000E+04  0.10566000000E+00 0. -1.
        994   -1    0    0    0    0 -0.00000000000E+00 -0.00000000000E+00  0.11368683772E-12  0.17120000000E+03  0.17120000000E+03 0.  0.
         13    1    1    2    0    0  0.14251885116E+02 -0.76277362066E+01  0.87875978742E+02  0.89350419097E+02  0.10566000000E+00 0. -1.
        994    1    1    2    0    0 -0.12430741009E+02  0.81829619639E+01  0.21705314755E+01  0.17185934771E+03  0.17120000000E+03 0.  0.
        998    1    1    2    0    0 -0.18211441064E+01 -0.55522575734E+00  0.14099534861E+04  0.14099902332E+04  0.10000000000E+02 0.  0.
</event>
<event>
 5    1  0.1640179E-008  0.3852639E+03  0.7957747E-01  0.3428554E+00
         13   -1    0    0    0    0  0.00000000000E+00  0.00000000000E+00  0.14999999963E+04  0.15000000000E+04  0.10566000000E+00 0. -1.
        994   -1    0    0    0    0 -0.00000000000E+00 -0.00000000000E+00  0.11368683772E-12  0.17120000000E+03  0.17120000000E+03 0.  0.
         13    1    1    2    0    0  0.68275067877E+01 -0.77625478692E+01  0.36631929274E+02  0.38062861227E+02  0.10566000000E+00 0. -1.
        994    1    1    2    0    0 -0.15209745092E+00  0.15735553693E+01  0.15074069342E+01  0.17121393485E+03  0.17120000000E+03 0.  0.
        998    1    1    2    0    0 -0.66754093367E+01  0.61889924999E+01  0.14618606601E+04  0.14619232039E+04  0.10000000000E+02 0. -1.
</event>
<event>
 5    1  0.1640179E-008  0.3754032E+03  0.7957747E-01  0.3471422E+00
         13   -1    0    0    0    0  0.00000000000E+00  0.00000000000E+00  0.14999999963E+04  0.15000000000E+04  0.10566000000E+00 0.  1.
        994   -1    0    0    0    0 -0.00000000000E+00 -0.00000000000E+00  0.11368683772E-12  0.17120000000E+03  0.17120000000E+03 0.  0.
         13    1    1    2    0    0  0.21206676702E+02 -0.47338124538E+02  0.18458377582E+03  0.19173367631E+03  0.10566000000E+00 0.  1.
        994    1    1    2    0    0 -0.76881984466E+01  0.50506099628E+02  0.15383637549E+02  0.17932113874E+03  0.17120000000E+03 0.  0.
        998    1    1    2    0    0 -0.13518478256E+02 -0.31679750897E+01  0.13000325829E+04  0.13001451849E+04  0.10000000000E+02 0.  1.
</event>
<event>
 5    1  0.1640179E-008  0.3799193E+03  0.7957747E-01  0.3451510E+00
         13   -1    0    0    0    0  0.00000000000E+00  0.00000000000E+00  0.14999999963E+04  0.15000000000E+04  0.10566000000E+00 0. -1.
        994   -1    0    0    0    0 -0.00000000000E+00 -0.00000000000E+00  0.11368683772E-12  0.17120000000E+03  0.17120000000E+03 0.  0.
         13    1    1    2    0    0 -0.82214724781E+01  0.22889906256E+02  0.66201237288E+02  0.70527692438E+02  0.10566000000E+00 0. -1.
        994    1    1    2    0    0  0.12036659864E+02 -0.23789199019E+02  0.65543111672E+01  0.17338744524E+03  0.17120000000E+03 0.  0.
        998    1    1    2    0    0 -0.38151873863E+01  0.89929276330E+00  0.14272444478E+04  0.14272848623E+04  0.10000000000E+02 0. -1.
</event>
<event>
 5    1  0.1640179E-008  0.3830638E+03  0.7957747E-01  0.3437926E+00
         13   -1    0    0    0    0  0.00000000000E+00  0.00000000000E+00  0.14999999963E+04  0.15000000000E+04  0.10566000000E+00 0.  1.
        994   -1    0    0    0    0 -0.00000000000E+00 -0.00000000000E+00  0.11368683772E-12  0.17120000000E+03  0.17120000000E+03 0.  0.
         13    1    1    2    0    0  0.21842165184E+02 -0.95008961284E+01  0.10271204442E+03  0.10543776572E+03  0.10566000000E+00 0.  1.
        994    1    1    2    0    0 -0.21306346145E+02  0.98378733645E+01  0.44192541390E+01  0.17285749606E+03  0.17120000000E+03 0.  0.
        998    1    1    2    0    0 -0.53581903939E+00 -0.33697723609E+00  0.13928686977E+04  0.13929047382E+04  0.10000000000E+02 0.  0.
</event>
<event>
 5    1  0.1640179E-008  0.3837840E+03  0.7957747E-01  0.3434846E+00
         13   -1    0    0    0    0  0.00000000000E+00  0.00000000000E+00  0.14999999963E+04  0.15000000000E+04  0.10566000000E+00 0. -1.
        994   -1    0    0    0    0 -0.00000000000E+00 -0.00000000000E+00  0.11368683772E-12  0.17120000000E+03  0.17120000000E+03 0.  0.
         13    1    1    2    0    0 -0.23115924657E+02  0.13909379282E+02  0.15324282672E+03  0.15559945986E+03  0.10566000000E+00 0. -1.
        994    1    1    2    0    0  0.22271647196E+02 -0.76952413045E+01  0.40704563938E+01  0.17286194382E+03  0.17120000000E+03 0.  0.
        998    1    1    2    0    0  0.84427746160E+00 -0.62141379774E+01  0.13426867132E+04  0.13427385963E+04  0.10000000000E+02 0. -1.
</event>
<event>
 5    1  0.1640179E-008  0.3813571E+03  0.7957747E-01  0.3445271E+00
         13   -1    0    0    0    0  0.00000000000E+00  0.00000000000E+00  0.14999999963E+04  0.15000000000E+04  0.10566000000E+00 0.  1.
        994   -1    0    0    0    0 -0.00000000000E+00 -0.00000000000E+00  0.11368683772E-12  0.17120000000E+03  0.17120000000E+03 0.  0.
         13    1    1    2    0    0 -0.23473676151E+02  0.30322548736E+02  0.23119916445E+03  0.23435770788E+03  0.10566000000E+00 0.  1.
        994    1    1    2    0    0  0.14227436825E+02 -0.46963745722E+01  0.41970714164E+01  0.17190558834E+03  0.17120000000E+03 0.  0.
        998    1    1    2    0    0  0.92462393258E+01 -0.25626174164E+02  0.12646037604E+04  0.12649367038E+04  0.10000000000E+02 0.  1.
</event>
<event>
 5    1  0.1640179E-008  0.3794573E+03  0.7957747E-01  0.3453525E+00
         13   -1    0    0    0    0  0.00000000000E+00  0.00000000000E+00  0.14999999963E+04  0.15000000000E+04  0.10566000000E+00 0.  1.
        994   -1    0    0    0    0 -0.00000000000E+00 -0.00000000000E+00  0.11368683772E-12  0.17120000000E+03  0.17120000000E+03 0.  0.
         13    1    1    2    0    0 -0.75204003975E+01  0.78755363464E+01  0.11327540834E+02  0.15713205920E+02  0.10566000000E+00 0.  1.
        994    1    1    2    0    0  0.10416872064E+02 -0.10280134098E+02  0.51249771616E+01  0.17190083703E+03  0.17120000000E+03 0.  0.
        998    1    1    2    0    0 -0.28964716668E+01  0.24045977518E+01  0.14835474783E+04  0.14835859571E+04  0.10000000000E+02 0.  1.
</event>
<event>
 5    1  0.1640179E-008  0.3851862E+03  0.7957747E-01  0.3428883E+00
         13   -1    0    0    0    0  0.00000000000E+00  0.00000000000E+00  0.14999999963E+04  0.15000000000E+04  0.10566000000E+00 0. -1.
        994   -1    0    0    0    0 -0.00000000000E+00 -0.00000000000E+00  0.11368683772E-12  0.17120000000E+03  0.17120000000E+03 0.  0.
         13    1    1    2    0    0 -0.68919701506E+01 -0.11367901921E+02  0.50576788648E+02  0.52294848319E+02  0.10566000000E+00 0. -1.
        994    1    1    2    0    0  0.85117460705E+01  0.32011713244E+02  0.51522050276E+01  0.17445109579E+03  0.17120000000E+03 0.  0.
        998    1    1    2    0    0 -0.16197759199E+01 -0.20643811323E+02  0.14442710026E+04  0.14444540559E+04  0.10000000000E+02 0. -1.
</event>
<event>
 5    1  0.1640179E-008  0.3728200E+03  0.7957747E-01  0.3483030E+00
         13   -1    0    0    0    0  0.00000000000E+00  0.00000000000E+00  0.14999999963E+04  0.15000000000E+04  0.10566000000E+00 0.  1.
        994   -1    0    0    0    0 -0.00000000000E+00 -0.00000000000E+00  0.11368683772E-12  0.17120000000E+03  0.17120000000E+03 0.  0.
         13    1    1    2    0    0  0.99386639675E+01  0.56960966738E+01  0.47814940955E+01  0.12413557451E+02  0.10566000000E+00 0.  1.
        994    1    1    2    0    0 -0.69016308750E+01 -0.96144700331E+01  0.82822931964E+01  0.17180834358E+03  0.17120000000E+03 0.  0.
        998    1    1    2    0    0 -0.30370330926E+01  0.39183733593E+01  0.14869362090E+04  0.14869780990E+04  0.10000000000E+02 0.  1.
</event>
<event>
 5    1  0.1640179E-008  0.3687291E+03  0.7957747E-01  0.3501752E+00
         13   -1    0    0    0    0  0.00000000000E+00  0.00000000000E+00  0.14999999963E+04  0.15000000000E+04  0.10566000000E+00 0. -1.
        994   -1    0    0    0    0 -0.00000000000E+00 -0.00000000000E+00  0.11368683772E-12  0.17120000000E+03  0.17120000000E+03 0.  0.
         13    1    1    2    0    0  0.21072311540E+02 -0.59381999078E+01  0.19062862169E+02  0.29029440400E+02  0.10566000000E+00 0. -1.
        994    1    1    2    0    0 -0.12110251361E+02  0.64782193523E+01  0.10925140730E+02  0.17209713598E+03  0.17120000000E+03 0.  0.
        998    1    1    2    0    0 -0.89620601789E+01 -0.54001944457E+00  0.14700119934E+04  0.14700734236E+04  0.10000000000E+02 0. -1.
</event>
<event>
 5    1  0.1640179E-008  0.3845939E+03  0.7957747E-01  0.3431396E+00
         13   -1    0    0    0    0  0.00000000000E+00  0.00000000000E+00  0.14999999963E+04  0.15000000000E+04  0.10566000000E+00 0.  1.
        994   -1    0    0    0    0 -0.00000000000E+00 -0.00000000000E+00  0.11368683772E-12  0.17120000000E+03  0.17120000000E+03 0.  0.
         13    1    1    2    0    0  0.14314204187E+02 -0.80254135700E+01  0.76161722108E+02  0.77909709170E+02  0.10566000000E+00 0.  1.
        994    1    1    2    0    0 -0.48424769926E+01  0.13055826242E+01  0.19147203881E+01  0.17128415071E+03  0.17120000000E+03 0.  0.
        998    1    1    2    0    0 -0.94717271948E+01  0.67198309459E+01  0.14219235538E+04  0.14220061401E+04  0.10000000000E+02 0.  1.
</event>
<event>
 5    1  0.1640179E-008  0.3818332E+03  0.7957747E-01  0.3443215E+00
         13   -1    0    0    0    0  0.00000000000E+00  0.00000000000E+00  0.14999999963E+04  0.15000000000E+04  0.10566000000E+00 0. -1.
        994   -1    0    0    0    0 -0.00000000000E+00 -0.00000000000E+00  0.11368683772E-12  0.17120000000E+03  0.17120000000E+03 0.  0.
         13    1    1    2    0    0 -0.17089746603E+02  0.99085936689E+01  0.58694039925E+02  0.61929323863E+02  0.10566000000E+00 0. -1.
        994    1    1    2    0    0  0.16761827631E+02 -0.40880117559E+01  0.42003248362E+01  0.17211842851E+03  0.17120000000E+03 0.  0.
        998    1    1    2    0    0  0.32791897244E+00 -0.58205819130E+01  0.14371056315E+04  0.14371522476E+04  0.10000000000E+02 0. -1.
</event>
<event>
 5    1  0.1640179E-008  0.3801018E+03  0.7957747E-01  0.3450716E+00
         13   -1    0    0    0    0  0.00000000000E+00  0.00000000000E+00  0.14999999963E+04  0.15000000000E+04  0.10566000000E+00 0. -1.
        994   -1    0    0    0    0 -0.00000000000E+00 -0.00000000000E+00  0.11368683772E-12  0.17120000000E+03  0.17120000000E+03 0.  0.
         13    1    1    2    0    0  0.86798931611E+01 -0.28845330023E+02  0.12111081406E+03  0.12480077746E+03  0.10566000000E+00 0. -1.
        994    1    1    2    0    0  0.36920287051E+01  0.22339791551E+01  0.41440263312E+01  0.17130450868E+03  0.17120000000E+03 0.  0.
        998    1    1    2    0    0 -0.12371921866E+02  0.26611350868E+02  0.13747451559E+04  0.13750947139E+04  0.10000000000E+02 0. -1.
</event>
<event>
 5    1  0.1640179E-008  0.3783254E+03  0.7957747E-01  0.3458483E+00
         13   -1    0    0    0    0  0.00000000000E+00  0.00000000000E+00  0.14999999963E+04  0.15000000000E+04  0.10566000000E+00 0. -1.
        994   -1    0    0    0    0 -0.00000000000E+00 -0.00000000000E+00  0.11368683772E-12  0.17120000000E+03  0.17120000000E+03 0.  0.
         13    1    1    2    0    0 -0.15000901480E+03  0.66982071580E+02  0.82045510630E+03  0.83674123542E+03  0.10566000000E+00 0. -1.
        994    1    1    2    0    0  0.17236548954E+03 -0.52336001928E+02  0.12318551368E+03  0.27736804044E+03  0.17120000000E+03 0.  0.
        998    1    1    2    0    0 -0.22356474739E+02 -0.14646069652E+02  0.55635937630E+03  0.55709072414E+03  0.10000000000E+02 0. -1.
</event>
<event>
 5    1  0.1640179E-008  0.3858590E+03  0.7957747E-01  0.3426037E+00
         13   -1    0    0    0    0  0.00000000000E+00  0.00000000000E+00  0.14999999963E+04  0.15000000000E+04  0.10566000000E+00 0. -1.
        994   -1    0    0    0    0 -0.00000000000E+00 -0.00000000000E+00  0.11368683772E-12  0.17120000000E+03  0.17120000000E+03 0.  0.
         13    1    1    2    0    0  0.12186295494E+02  0.12401519871E+01  0.57986142232E+02  0.59265906133E+02  0.10566000000E+00 0. -1.
        994    1    1    2    0    0 -0.18509121133E+02 -0.22113346167E+02  0.39362300320E+01  0.17365633173E+03  0.17120000000E+03 0.  0.
        998    1    1    2    0    0  0.63228256393E+01  0.20873194180E+02  0.14380776240E+04  0.14382777621E+04  0.10000000000E+02 0. -1.
</event>
<event>
 5    1  0.1640179E-008  0.3760921E+03  0.7957747E-01  0.3468353E+00
         13   -1    0    0    0    0  0.00000000000E+00  0.00000000000E+00  0.14999999963E+04  0.15000000000E+04  0.10566000000E+00 0.  1.
        994   -1    0    0    0    0 -0.00000000000E+00 -0.00000000000E+00  0.11368683772E-12  0.17120000000E+03  0.17120000000E+03 0.  0.
         13    1    1    2    0    0 -0.20671710916E+02 -0.61701819623E+02  0.28647381493E+03  0.29377149621E+03  0.10566000000E+00 0.  1.
        994    1    1    2    0    0  0.17369005117E+02  0.59317346844E+02  0.19168634334E+02  0.18302214761E+03  0.17120000000E+03 0.  0.
        998    1    1    2    0    0  0.33027057987E+01  0.23844727794E+01  0.11943575470E+04  0.11944063562E+04  0.10000000000E+02 0.  0.
</event>
<event>
 5    1  0.1640179E-008  0.3848070E+03  0.7957747E-01  0.3430491E+00
         13   -1    0    0    0    0  0.00000000000E+00  0.00000000000E+00  0.14999999963E+04  0.15000000000E+04  0.10566000000E+00 0. -1.
        994   -1    0    0    0    0 -0.00000000000E+00 -0.00000000000E+00  0.11368683772E-12  0.17120000000E+03  0.17120000000E+03 0.  0.
         13    1    1    2    0    0  0.36797058626E+01 -0.13266674085E+02  0.53762305509E+02  0.55497220959E+02  0.10566000000E+00 0. -1.
        994    1    1    2    0    0  0.20299883832E+01  0.13580739046E+02  0.23467045813E+01  0.17176584162E+03  0.17120000000E+03 0.  0.
        998    1    1    2    0    0 -0.57096942458E+01 -0.31406496037E+00  0.14438909862E+04  0.14439369374E+04  0.10000000000E+02 0. -1.
</event>
<event>
 5    1  0.1640179E-008  0.3841375E+03  0.7957747E-01  0.3433339E+00
         13   -1    0    0    0    0  0.00000000000E+00  0.00000000000E+00  0.14999999963E+04  0.15000000000E+04  0.10566000000E+00 0. -1.
        994   -1    0    0    0    0 -0.00000000000E+00 -0.00000000000E+00  0.11368683772E-12  0.17120000000E+03  0.17120000000E+03 0.  0.
         13    1    1    2    0    0  0.13356188664E+02 -0.34493958290E+01  0.44225361197E+02  0.46326880364E+02  0.10566000000E+00 0. -1.
        994    1    1    2    0    0 -0.14782394316E+02  0.87262886699E+01  0.30313592567E+01  0.17208514298E+03  0.17120000000E+03 0.  0.
        998    1    1    2    0    0  0.14262056521E+01 -0.52768928409E+01  0.14527432758E+04  0.14527879767E+04  0.10000000000E+02 0. -1.
</event>
<event>
 5    1  0.1640179E-008  0.3719218E+03  0.7957747E-01  0.3487105E+00
         13   -1    0    0    0    0  0.00000000000E+00  0.00000000000E+00  0.14999999963E+04  0.15000000000E+04  0.10566000000E+00 0.  1.
        994   -1    0    0    0    0 -0.00000000000E+00 -0.00000000000E+00  0.11368683772E-12  0.17120000000E+03  0.17120000000E+03 0.  0.
         13    1    1    2    0    0 -0.12996017125E+02 -0.24812157460E+02  0.42587159046E+02  0.50972707389E+02  0.10566000000E+00 0.  1.
        994    1    1    2    0    0  0.11181991516E+02  0.30032353049E+02  0.11803737975E+02  0.17457304315E+03  0.17120000000E+03 0.  0.
        998    1    1    2    0    0  0.18140256093E+01 -0.52201955889E+01  0.14456090993E+04  0.14456542495E+04  0.10000000000E+02 0.  1.
</event>
<event>
 5    1  0.1640179E-008  0.3843447E+03  0.7957747E-01  0.3432456E+00
         13   -1    0    0    0    0  0.00000000000E+00  0.00000000000E+00  0.14999999963E+04  0.15000000000E+04  0.10566000000E+00 0.  1.
        994   -1    0    0    0    0 -0.00000000000E+00 -0.00000000000E+00  0.11368683772E-12  0.17120000000E+03  0.17120000000E+03 0.  0.
         13    1    1    2    0    0 -0.12243504132E+02  0.19283957499E+01  0.39956983117E+02  0.41835317226E+02  0.10566000000E+00 0.  1.
        994    1    1    2    0    0  0.95671199720E+00 -0.99369537130E+01  0.22843439427E+01  0.17150602489E+03  0.17120000000E+03 0.  0.
        998    1    1    2    0    0  0.11286792135E+02  0.80085579632E+01  0.14577586692E+04  0.14578586579E+04  0.10000000000E+02 0.  1.
</event>
<event>
 5    1  0.1640179E-008  0.3794003E+03  0.7957747E-01  0.3453774E+00
         13   -1    0    0    0    0  0.00000000000E+00  0.00000000000E+00  0.14999999963E+04  0.15000000000E+04  0.10566000000E+00 0. -1.
        994   -1    0    0    0    0 -0.00000000000E+00 -0.00000000000E+00  0.11368683772E-12  0.17120000000E+03  0.17120000000E+03 0.  0.
         13    1    1    2    0    0 -0.19758834735E+02  0.12983993687E+02  0.58368371419E+02  0.62975182320E+02  0.10566000000E+00 0. -1.
        994    1    1    2    0    0  0.16286240300E+02 -0.26294365207E+02  0.76471163245E+01  0.17413946610E+03  0.17120000000E+03 0.  0.
        998    1    1    2    0    0  0.34725944350E+01  0.13310371520E+02  0.14339845085E+04  0.14340853516E+04  0.10000000000E+02 0. -1.
</event>
<event>
 5    1  0.1640179E-008  0.3777049E+03  0.7957747E-01  0.3461213E+00
         13   -1    0    0    0    0  0.00000000000E+00  0.00000000000E+00  0.14999999963E+04  0.15000000000E+04  0.10566000000E+00 0. -1.
        994   -1    0    0    0    0 -0.00000000000E+00 -0.00000000000E+00  0.11368683772E-12  0.17120000000E+03  0.17120000000E+03 0.  0.
         13    1    1    2    0    0 -0.81107092900E+01  0.42492631996E+02  0.17313789093E+03  0.17846049372E+03  0.10566000000E+00 0. -1.
        994    1    1    2    0    0 -0.97129071572E+01 -0.29405344188E+02  0.85334215871E+01  0.17418746831E+03  0.17120000000E+03 0.  0.
        998    1    1    2    0    0  0.17823616447E+02 -0.13087287809E+02  0.13183286838E+04  0.13185520380E+04  0.10000000000E+02 0. -1.
</event>
<event>
 5    1  0.1640179E-008  0.3835603E+03  0.7957747E-01  0.3435801E+00
         13   -1    0    0    0    0  0.00000000000E+00  0.00000000000E+00  0.14999999963E+04  0.15000000000E+04  0.10566000000E+00 0.  1.
        994   -1    0    0    0    0 -0.00000000000E+00 -0.00000000000E+00  0.11368683772E-12  0.17120000000E+03  0.17120000000E+03 0.  0.
         13    1    1    2    0    0 -0.13050247451E+02  0.20141881546E+02  0.12489301631E+03  0.12717814686E+03  0.10566000000E+00 0.  1.
        994    1    1    2    0    0  0.62980166027E+01 -0.98473766650E+01  0.27981851267E+01  0.17162140216E+03  0.17120000000E+03 0.  0.
        998    1    1    2    0    0  0.67522308482E+01 -0.10294504881E+02  0.13723087948E+04  0.13724004510E+04  0.10000000000E+02 0.  1.
</event>
<event>
 5    1  0.1640179E-008  0.3756434E+03  0.7957747E-01  0.3470350E+00
         13   -1    0    0    0    0  0.00000000000E+00  0.00000000000E+00  0.14999999963E+04  0.15000000000E+04  0.10566000000E+00 0. -1.
        994   -1    0    0    0    0 -0.00000000000E+00 -0.00000000000E+00  0.11368683772E-12  0.17120000000E+03  0.17120000000E+03 0.  0.
         13    1    1    2    0    0  0.16202875476E+02 -0.89968792712E+02  0.37788276938E+03  0.38878312128E+03  0.10566000000E+00 0. -1.
        994    1    1    2    0    0 -0.73441174061E+02  0.11196592914E+03  0.69817593123E+02  0.22828471619E+03  0.17120000000E+03 0.  0.
        998    1    1    2    0    0  0.57238298585E+02 -0.21997136427E+02  0.10522996338E+04  0.10541321625E+04  0.10000000000E+02 0. -1.
</event>
<event>
 5    1  0.1640179E-008  0.3948178E+03  0.7957747E-01  0.3389072E+00
         13   -1    0    0    0    0  0.00000000000E+00  0.00000000000E+00  0.14999999963E+04  0.15000000000E+04  0.10566000000E+00 0. -1.
        994   -1    0    0    0    0 -0.00000000000E+00 -0.00000000000E+00  0.11368683772E-12  0.17120000000E+03  0.17120000000E+03 0.  0.
         13    1    1    2    0    0 -0.53525778489E+02 -0.11195964818E+03  0.27424678300E+03  0.30101707748E+03  0.10566000000E+00 0. -1.
        994    1    1    2    0    0  0.53867864245E+02  0.85930923923E+02  0.65346014878E+02  0.20944071272E+03  0.17120000000E+03 0.  0.
        998    1    1    2    0    0 -0.34208575672E+00  0.26028724262E+02  0.11604071984E+04  0.11607422098E+04  0.10000000000E+02 0. -1.
</event>
<event>
 5    1  0.1640179E-008  0.2949512E+03  0.7957747E-01  0.3932735E+00
         13   -1    0    0    0    0  0.00000000000E+00  0.00000000000E+00  0.14999999963E+04  0.15000000000E+04  0.10566000000E+00 0. -1.
        994   -1    0    0    0    0 -0.00000000000E+00 -0.00000000000E+00  0.11368683772E-12  0.17120000000E+03  0.17120000000E+03 0.  0.
         13    1    1    2    0    0  0.91940440315E+02  0.13466437156E+03  0.81657477831E+03  0.83269557298E+03  0.10566000000E+00 0. -1.
        994    1    1    2    0    0 -0.64741190826E+02 -0.16713781184E+02  0.45800337371E+02  0.18941458015E+03  0.17120000000E+03 0.  0.
        998    1    1    2    0    0 -0.27199249489E+02 -0.11795059038E+03  0.63762488060E+03  0.64908984687E+03  0.10000000000E+02 0.  1.
</event>
<event>
 5    1  0.1640179E-008  0.3787392E+03  0.7957747E-01  0.3456667E+00
         13   -1    0    0    0    0  0.00000000000E+00  0.00000000000E+00  0.14999999963E+04  0.15000000000E+04  0.10566000000E+00 0. -1.
        994   -1    0    0    0    0 -0.00000000000E+00 -0.00000000000E+00  0.11368683772E-12  0.17120000000E+03  0.17120000000E+03 0.  0.
         13    1    1    2    0    0 -0.33864439702E+01 -0.26268776617E+02  0.67613290841E+02  0.72616009874E+02  0.10566000000E+00 0. -1.
        994    1    1    2    0    0 -0.10180030486E+00  0.31790811682E+02  0.81711080380E+01  0.17431830964E+03  0.17120000000E+03 0.  0.
        998    1    1    2    0    0  0.34882442751E+01 -0.55220350646E+01  0.14242155974E+04  0.14242656805E+04  0.10000000000E+02 0. -1.
</event>
<event>
 5    1  0.1640179E-008  0.3762882E+03  0.7957747E-01  0.3467481E+00
         13   -1    0    0    0    0  0.00000000000E+00  0.00000000000E+00  0.14999999963E+04  0.15000000000E+04  0.10566000000E+00 0. -1.
        994   -1    0    0    0    0 -0.00000000000E+00 -0.00000000000E+00  0.11368683772E-12  0.17120000000E+03  0.17120000000E+03 0.  0.
         13    1    1    2    0    0 -0.90793373413E+01  0.15439139611E+02  0.23681125735E+02  0.29691889104E+02  0.10566000000E+00 0. -1.
        994    1    1    2    0    0  0.12207178561E+02 -0.15510141195E+02  0.73383330924E+01  0.17249020500E+03  0.17120000000E+03 0.  0.
        998    1    1    2    0    0 -0.31278412199E+01  0.71001584046E-01  0.14689805375E+04  0.14690179059E+04  0.10000000000E+02 0. -1.
</event>
<event>
 5    1  0.1640179E-008  0.3778257E+03  0.7957747E-01  0.3460681E+00
         13   -1    0    0    0    0  0.00000000000E+00  0.00000000000E+00  0.14999999963E+04  0.15000000000E+04  0.10566000000E+00 0.  1.
        994   -1    0    0    0    0 -0.00000000000E+00 -0.00000000000E+00  0.11368683772E-12  0.17120000000E+03  0.17120000000E+03 0.  0.
         13    1    1    2    0    0  0.11638623522E+02  0.26967222387E+02  0.80670504502E+02  0.85851209085E+02  0.10566000000E+00 0.  1.
        994    1    1    2    0    0 -0.88915854642E+01 -0.15516050416E+02  0.63123423533E+01  0.17224718801E+03  0.17120000000E+03 0.  0.
        998    1    1    2    0    0 -0.27470380575E+01 -0.11451171971E+02  0.14130171494E+04  0.14131016029E+04  0.10000000000E+02 0.  1.
</event>
<event>
 5    1  0.1640179E-008  0.3812631E+03  0.7957747E-01  0.3445677E+00
         13   -1    0    0    0    0  0.00000000000E+00  0.00000000000E+00  0.14999999963E+04  0.15000000000E+04  0.10566000000E+00 0.  1.
        994   -1    0    0    0    0 -0.00000000000E+00 -0.00000000000E+00  0.11368683772E-12  0.17120000000E+03  0.17120000000E+03 0.  0.
         13    1    1    2    0    0  0.30415502078E+02  0.77496147427E+00  0.12110322914E+03  0.12486675540E+03  0.10566000000E+00 0.  1.
        994    1    1    2    0    0 -0.31741454999E+02  0.66490154054E+01  0.70060567808E+01  0.17438536121E+03  0.17120000000E+03 0.  0.
        998    1    1    2    0    0  0.13259529209E+01 -0.74239768797E+01  0.13718907104E+04  0.13719478834E+04  0.10000000000E+02 0.  1.
</event>
<event>
 5    1  0.1640179E-008  0.3840825E+03  0.7957747E-01  0.3433573E+00
         13   -1    0    0    0    0  0.00000000000E+00  0.00000000000E+00  0.14999999963E+04  0.15000000000E+04  0.10566000000E+00 0. -1.
        994   -1    0    0    0    0 -0.00000000000E+00 -0.00000000000E+00  0.11368683772E-12  0.17120000000E+03  0.17120000000E+03 0.  0.
         13    1    1    2    0    0 -0.13573630167E+02 -0.58695334173E+01  0.52517448452E+02  0.54559952478E+02  0.10566000000E+00 0. -1.
        994    1    1    2    0    0  0.62656440645E+01  0.51246280216E+01  0.23024803409E+01  0.17140671376E+03  0.17120000000E+03 0.  0.
        998    1    1    2    0    0  0.73079861029E+01  0.74490539573E+00  0.14451800675E+04  0.14452333338E+04  0.10000000000E+02 0. -1.
</event>
<event>
 5    1  0.1640179E-008  0.3749969E+03  0.7957747E-01  0.3473237E+00
         13   -1    0    0    0    0  0.00000000000E+00  0.00000000000E+00  0.14999999963E+04  0.15000000000E+04  0.10566000000E+00 0.  1.
        994   -1    0    0    0    0 -0.00000000000E+00 -0.00000000000E+00  0.11368683772E-12  0.17120000000E+03  0.17120000000E+03 0.  0.
         13    1    1    2    0    0  0.42698635162E+02  0.69245228587E+02  0.35097948412E+03  0.36028417196E+03  0.10566000000E+00 0.  1.
        994    1    1    2    0    0 -0.52316314018E+02 -0.72714212679E+02  0.34465866743E+02  0.19626943065E+03  0.17120000000E+03 0.  0.
        998    1    1    2    0    0  0.96176788565E+01  0.34689840921E+01  0.11145546454E+04  0.11146463974E+04  0.10000000000E+02 0.  1.
</event>
<event>
 5    1  0.1640179E-008  0.3859958E+03  0.7957747E-01  0.3425460E+00
         13   -1    0    0    0    0  0.00000000000E+00  0.00000000000E+00  0.14999999963E+04  0.15000000000E+04  0.10566000000E+00 0. -1.
        994   -1    0    0    0    0 -0.00000000000E+00 -0.00000000000E+00  0.11368683772E-12  0.17120000000E+03  0.17120000000E+03 0.  0.
         13    1    1    2    0    0 -0.23842558160E+01 -0.12544720324E+02  0.71875168651E+02  0.73000724082E+02  0.10566000000E+00 0. -1.
        994    1    1    2    0    0 -0.21408860027E+01  0.10254601950E+02  0.14963440680E+01  0.17152673057E+03  0.17120000000E+03 0.  0.
        998    1    1    2    0    0  0.45251418188E+01  0.22901183738E+01  0.14266284836E+04  0.14266725453E+04  0.10000000000E+02 0. -1.
</event>
<event>
 5    1  0.1640179E-008  0.3799085E+03  0.7957747E-01  0.3451557E+00
         13   -1    0    0    0    0  0.00000000000E+00  0.00000000000E+00  0.14999999963E+04  0.15000000000E+04  0.10566000000E+00 0.  1.
        994   -1    0    0    0    0 -0.00000000000E+00 -0.00000000000E+00  0.11368683772E-12  0.17120000000E+03  0.17120000000E+03 0.  0.
         13    1    1    2    0    0 -0.25906637793E+02  0.24897971086E+02  0.17382306783E+03  0.17749798005E+03  0.10566000000E+00 0.  1.
        994    1    1    2    0    0  0.96928167166E+00 -0.28659186953E+01  0.42099298946E+01  0.17127847648E+03  0.17120000000E+03 0.  0.
        998    1    1    2    0    0  0.24937356121E+02 -0.22032052390E+02  0.13219669986E+04  0.13224235435E+04  0.10000000000E+02 0.  1.
</event>
<event>
 5    1  0.1640179E-008  0.3847683E+03  0.7957747E-01  0.3430655E+00
         13   -1    0    0    0    0  0.00000000000E+00  0.00000000000E+00  0.14999999963E+04  0.15000000000E+04  0.10566000000E+00 0. -1.
        994   -1    0    0    0    0 -0.00000000000E+00 -0.00000000000E+00  0.11368683772E-12  0.17120000000E+03  0.17120000000E+03 0.  0.
         13    1    1    2    0    0 -0.81453368240E+01 -0.14746598977E+02  0.81147442780E+02  0.82877785487E+02  0.10566000000E+00 0. -1.
        994    1    1    2    0    0  0.52916831700E+01  0.97011226559E+01  0.21471962828E+01  0.17156970637E+03  0.17120000000E+03 0.  0.
        998    1    1    2    0    0  0.28536536540E+01  0.50454763214E+01  0.14167053572E+04  0.14167525081E+04  0.10000000000E+02 0. -1.
</event>
<event>
 5    1  0.1640179E-008  0.3820490E+03  0.7957747E-01  0.3442285E+00
         13   -1    0    0    0    0  0.00000000000E+00  0.00000000000E+00  0.14999999963E+04  0.15000000000E+04  0.10566000000E+00 0.  1.
        994   -1    0    0    0    0 -0.00000000000E+00 -0.00000000000E+00  0.11368683772E-12  0.17120000000E+03  0.17120000000E+03 0.  0.
         13    1    1    2    0    0 -0.51712949675E+01 -0.24865748283E+02  0.10443378267E+03  0.10747778308E+03  0.10566000000E+00 0.  1.
        994    1    1    2    0    0  0.47733758839E+01  0.12482390326E+02  0.36956287298E+01  0.17176056840E+03  0.17120000000E+03 0.  0.
        998    1    1    2    0    0  0.39791908364E+00  0.12383357957E+02  0.13918705849E+04  0.13919616485E+04  0.10000000000E+02 0.  1.
</event>
<event>
 5    1  0.1640179E-008  0.3790346E+03  0.7957747E-01  0.3455373E+00
         13   -1    0    0    0    0  0.00000000000E+00  0.00000000000E+00  0.14999999963E+04  0.15000000000E+04  0.10566000000E+00 0. -1.
        994   -1    0    0    0    0 -0.00000000000E+00 -0.00000000000E+00  0.11368683772E-12  0.17120000000E+03  0.17120000000E+03 0.  0.
         13    1    1    2    0    0 -0.29763450727E+02  0.29761266716E+02  0.23070318720E+03  0.23451133820E+03  0.10566000000E+00 0. -1.
        994    1    1    2    0    0 -0.76055751553E+01 -0.73940201656E+01  0.49986796660E+01  0.17160111627E+03  0.17120000000E+03 0.  0.
        998    1    1    2    0    0  0.37369025882E+02 -0.22367246551E+02  0.12642981294E+04  0.12650875455E+04  0.10000000000E+02 0. -1.
</event>
<event>
 5    1  0.1640179E-008  0.3861320E+03  0.7957747E-01  0.3424885E+00
         13   -1    0    0    0    0  0.00000000000E+00  0.00000000000E+00  0.14999999963E+04  0.15000000000E+04  0.10566000000E+00 0. -1.
        994   -1    0    0    0    0 -0.00000000000E+00 -0.00000000000E+00  0.11368683772E-12  0.17120000000E+03  0.17120000000E+03 0.  0.
         13    1    1    2    0    0 -0.77301305735E+02 -0.19551342313E+03  0.11914993808E+04  0.12099056889E+04  0.10566000000E+00 0. -1.
        994    1    1    2    0    0  0.74054213319E+02  0.20664489401E+03  0.17915814513E+03  0.33104866666E+03  0.17120000000E+03 0.  0.
        998    1    1    2    0    0  0.32470924154E+01 -0.11131470876E+02  0.12934247038E+03  0.13024564445E+03  0.10000000000E+02 0. -1.
</event>
<event>
 5    1  0.1640179E-008  0.3712128E+03  0.7957747E-01  0.3490336E+00
         13   -1    0    0    0    0  0.00000000000E+00  0.00000000000E+00  0.14999999963E+04  0.15000000000E+04  0.10566000000E+00 0.  1.
        994   -1    0    0    0    0 -0.00000000000E+00 -0.00000000000E+00  0.11368683772E-12  0.17120000000E+03  0.17120000000E+03 0.  0.
         13    1    1    2    0    0 -0.15273235574E+02  0.20875671635E+02  0.35976305068E+02  0.44309943370E+02  0.10566000000E+00 0.  1.
        994    1    1    2    0    0 -0.14610501234E+02 -0.22712369187E+02  0.11151840049E+02  0.17367533503E+03  0.17120000000E+03 0.  0.
        998    1    1    2    0    0  0.29883736808E+02  0.18366975519E+01  0.14528718512E+04  0.14532147216E+04  0.10000000000E+02 0.  1.
</event>
<event>
 5    1  0.1640179E-008  0.3740228E+03  0.7957747E-01  0.3477605E+00
         13   -1    0    0    0    0  0.00000000000E+00  0.00000000000E+00  0.14999999963E+04  0.15000000000E+04  0.10566000000E+00 0. -1.
        994   -1    0    0    0    0 -0.00000000000E+00 -0.00000000000E+00  0.11368683772E-12  0.17120000000E+03  0.17120000000E+03 0.  0.
         13    1    1    2    0    0 -0.18634277300E+02  0.26815671923E+02  0.66442432945E+02  0.74033266920E+02  0.10566000000E+00 0. -1.
        994    1    1    2    0    0  0.18133120524E+02 -0.38924688092E+02  0.13496194847E+02  0.17701844163E+03  0.17120000000E+03 0.  0.
        998    1    1    2    0    0  0.50115677551E+00  0.12109016169E+02  0.14200613685E+04  0.14201482914E+04  0.10000000000E+02 0. -1.
</event>
<event>
 5    1  0.1640179E-008  0.3692086E+03  0.7957747E-01  0.3499536E+00
         13   -1    0    0    0    0  0.00000000000E+00  0.00000000000E+00  0.14999999963E+04  0.15000000000E+04  0.10566000000E+00 0. -1.
        994   -1    0    0    0    0 -0.00000000000E+00 -0.00000000000E+00  0.11368683772E-12  0.17120000000E+03  0.17120000000E+03 0.  0.
         13    1    1    2    0    0 -0.49744093162E+02 -0.40529857691E+02  0.23761199357E+03  0.24612317002E+03  0.10566000000E+00 0. -1.
        994    1    1    2    0    0  0.12232874487E+02 -0.14604153472E+02  0.11787220408E+02  0.17265950041E+03  0.17120000000E+03 0.  0.
        998    1    1    2    0    0  0.37511218675E+02  0.55134011163E+02  0.12506007823E+04  0.12524173296E+04  0.10000000000E+02 0. -1.
</event>
<event>
 5    1  0.1640179E-008  0.3847692E+03  0.7957747E-01  0.3430652E+00
         13   -1    0    0    0    0  0.00000000000E+00  0.00000000000E+00  0.14999999963E+04  0.15000000000E+04  0.10566000000E+00 0. -1.
        994   -1    0    0    0    0 -0.00000000000E+00 -0.00000000000E+00  0.11368683772E-12  0.17120000000E+03  0.17120000000E+03 0.  0.
         13    1    1    2    0    0 -0.82591064906E+00 -0.12290108041E+02  0.41357346131E+02  0.43152869280E+02  0.10566000000E+00 0. -1.
        994    1    1    2    0    0 -0.21114070288E+02  0.19306239211E+02  0.44433013557E+01  0.17363098158E+03  0.17120000000E+03 0.  0.
        998    1    1    2    0    0  0.21939980937E+02 -0.70161311705E+01  0.14541993488E+04  0.14544161491E+04  0.10000000000E+02 0. -1.
</event>
<event>
 5    1  0.1640179E-008  0.3734122E+03  0.7957747E-01  0.3480354E+00
         13   -1    0    0    0    0  0.00000000000E+00  0.00000000000E+00  0.14999999963E+04  0.15000000000E+04  0.10566000000E+00 0.  1.
        994   -1    0    0    0    0 -0.00000000000E+00 -0.00000000000E+00  0.11368683772E-12  0.17120000000E+03  0.17120000000E+03 0.  0.
         13    1    1    2    0    0 -0.33078887200E+02  0.53406872359E+01  0.38001976469E+02  0.50664554652E+02  0.10566000000E+00 0.  1.
        994    1    1    2    0    0  0.32557424376E+02 -0.10740845761E+02  0.16924678935E+02  0.17541732071E+03  0.17120000000E+03 0.  0.
        998    1    1    2    0    0  0.52146282370E+00  0.54001585248E+01  0.14450733409E+04  0.14451181246E+04  0.10000000000E+02 0.  1.
</event>
<event>
 5    1  0.1640179E-008  0.3832407E+03  0.7957747E-01  0.3437168E+00
         13   -1    0    0    0    0  0.00000000000E+00  0.00000000000E+00  0.14999999963E+04  0.15000000000E+04  0.10566000000E+00 0. -1.
        994   -1    0    0    0    0 -0.00000000000E+00 -0.00000000000E+00  0.11368683772E-12  0.17120000000E+03  0.17120000000E+03 0.  0.
         13    1    1    2    0    0  0.28283634548E+02  0.56818608966E+01  0.15462031952E+03  0.15728859431E+03  0.10566000000E+00 0. -1.
        994    1    1    2    0    0 -0.25018616331E+02 -0.52769221128E+01  0.46714901995E+01  0.17316188926E+03  0.17120000000E+03 0.  0.
        998    1    1    2    0    0 -0.32650182169E+01 -0.40493878374E+00  0.13407081866E+04  0.13407495164E+04  0.10000000000E+02 0.  0.
</event>
<event>
 5    1  0.1640179E-008  0.3832405E+03  0.7957747E-01  0.3437169E+00
         13   -1    0    0    0    0  0.00000000000E+00  0.00000000000E+00  0.14999999963E+04  0.15000000000E+04  0.10566000000E+00 0. -1.
        994   -1    0    0    0    0 -0.00000000000E+00 -0.00000000000E+00  0.11368683772E-12  0.17120000000E+03  0.17120000000E+03 0.  0.
         13    1    1    2    0    0 -0.94624542548E+01 -0.19673326982E+02  0.10759948448E+03  0.10979179414E+03  0.10566000000E+00 0. -1.
        994    1    1    2    0    0 -0.69737192169E+01 -0.27907103392E+01  0.26928638920E+01  0.17138585805E+03  0.17120000000E+03 0.  0.
        998    1    1    2    0    0  0.16436173472E+02  0.22464037321E+02  0.13897076479E+04  0.13900223478E+04  0.10000000000E+02 0. -1.
</event>
<event>
 5    1  0.1640179E-008  0.3841120E+03  0.7957747E-01  0.3433447E+00
         13   -1    0    0    0    0  0.00000000000E+00  0.00000000000E+00  0.14999999963E+04  0.15000000000E+04  0.10566000000E+00 0. -1.
        994   -1    0    0    0    0 -0.00000000000E+00 -0.00000000000E+00  0.11368683772E-12  0.17120000000E+03  0.17120000000E+03 0.  0.
         13    1    1    2    0    0 -0.18099324517E+02 -0.61934267324E+01  0.10342755490E+03  0.10518181572E+03  0.10566000000E+00 0. -1.
        994    1    1    2    0    0 -0.79243994036E+01 -0.73219851995E+01  0.24556979869E+01  0.17155721502E+03  0.17120000000E+03 0.  0.
        998    1    1    2    0    0  0.26023723920E+02  0.13515411932E+02  0.13941167434E+04  0.13944609693E+04  0.10000000000E+02 0. -1.
</event>
<event>
 5    1  0.1640179E-008  0.3832393E+03  0.7957747E-01  0.3437174E+00
         13   -1    0    0    0    0  0.00000000000E+00  0.00000000000E+00  0.14999999963E+04  0.15000000000E+04  0.10566000000E+00 0.  1.
        994   -1    0    0    0    0 -0.00000000000E+00 -0.00000000000E+00  0.11368683772E-12  0.17120000000E+03  0.17120000000E+03 0.  0.
         13    1    1    2    0    0 -0.17434809702E+01 -0.15604484156E+02  0.47538620976E+02  0.50064671177E+02  0.10566000000E+00 0.  1.
        994    1    1    2    0    0  0.73265914960E+00  0.14631485053E+02  0.32169974887E+01  0.17185577156E+03  0.17120000000E+03 0.  0.
        998    1    1    2    0    0  0.10108218206E+01  0.97299910353E+00  0.14492443778E+04  0.14492795573E+04  0.10000000000E+02 0.  1.
</event>
<event>
 5    1  0.1987301E-008  0.3824339E+03  0.7957747E-01  0.3440629E+00
         13   -1    0    0    0    0  0.00000000000E+00  0.00000000000E+00  0.14999999963E+04  0.15000000000E+04  0.10566000000E+00 0.  1.
        994   -1    0    0    0    0 -0.00000000000E+00 -0.00000000000E+00  0.11368683772E-12  0.17120000000E+03  0.17120000000E+03 0.  0.
         13    1    1    2    0    0 -0.22981717370E+01 -0.10655001357E+02  0.19052144693E+02  0.21950080381E+02  0.10566000000E+00 0.  1.
        994    1    1    2    0    0  0.21107621146E+01  0.11605694232E+02  0.33711044526E+01  0.17163901596E+03  0.17120000000E+03 0.  0.
        998    1    1    2    0    0  0.18740962244E+00 -0.95069287433E+00  0.14775767471E+04  0.14776109037E+04  0.10000000000E+02 0.  1.
</event>
<event>
 5    1  0.1640179E-008  0.4449283E+03  0.7957747E-01  0.3209495E+00
         13   -1    0    0    0    0  0.00000000000E+00  0.00000000000E+00  0.14999999963E+04  0.15000000000E+04  0.10566000000E+00 0.  1.
        994   -1    0    0    0    0 -0.00000000000E+00 -0.00000000000E+00  0.11368683772E-12  0.17120000000E+03  0.17120000000E+03 0.  0.
         13    1    1    2    0    0  0.82280238046E+02  0.11756869815E+03  0.20349226576E+03  0.24900110391E+03  0.10566000000E+00 0.  1.
        994    1    1    2    0    0  0.35538347236E+02 -0.75953311504E+02  0.92871439722E+02  0.21205288012E+03  0.17120000000E+03 0.  0.
        998    1    1    2    0    0 -0.11781858528E+03 -0.41615386651E+02  0.12036362908E+04  0.12101460160E+04  0.10000000000E+02 0.  1.
</event>
<event>
 5    1  0.1640179E-008  0.3859374E+03  0.7957747E-01  0.3425706E+00
         13   -1    0    0    0    0  0.00000000000E+00  0.00000000000E+00  0.14999999963E+04  0.15000000000E+04  0.10566000000E+00 0. -1.
        994   -1    0    0    0    0 -0.00000000000E+00 -0.00000000000E+00  0.11368683772E-12  0.17120000000E+03  0.17120000000E+03 0.  0.
         13    1    1    2    0    0  0.10255212823E+02 -0.47385683693E+01  0.53952676612E+02  0.55122825561E+02  0.10566000000E+00 0. -1.
        994    1    1    2    0    0 -0.11508411805E+02  0.21760119148E+01  0.16153506818E+01  0.17160777351E+03  0.17120000000E+03 0.  0.
        998    1    1    2    0    0  0.12531989822E+01  0.25625564545E+01  0.14444319690E+04  0.14444694009E+04  0.10000000000E+02 0. -1.
</event>
<event>
 5    1  0.1640179E-008  0.3827256E+03  0.7957747E-01  0.3439376E+00
         13   -1    0    0    0    0  0.00000000000E+00  0.00000000000E+00  0.14999999963E+04  0.15000000000E+04  0.10566000000E+00 0.  1.
        994   -1    0    0    0    0 -0.00000000000E+00 -0.00000000000E+00  0.11368683772E-12  0.17120000000E+03  0.17120000000E+03 0.  0.
         13    1    1    2    0    0  0.21464851484E+02 -0.17368881717E+02  0.14097839981E+03  0.14365701611E+03  0.10566000000E+00 0.  1.
        994    1    1    2    0    0 -0.18039875648E+01  0.18498352897E+02  0.39088861943E+01  0.17225029121E+03  0.17120000000E+03 0.  0.
        998    1    1    2    0    0 -0.19660863919E+02 -0.11294711795E+01  0.13551127103E+04  0.13552926927E+04  0.10000000000E+02 0.  1.
</event>
<event>
 5    1  0.1640179E-008  0.3781518E+03  0.7957747E-01  0.3459246E+00
         13   -1    0    0    0    0  0.00000000000E+00  0.00000000000E+00  0.14999999963E+04  0.15000000000E+04  0.10566000000E+00 0.  1.
        994   -1    0    0    0    0 -0.00000000000E+00 -0.00000000000E+00  0.11368683772E-12  0.17120000000E+03  0.17120000000E+03 0.  0.
         13    1    1    2    0    0 -0.13075626724E+03  0.88916930344E+02  0.90228227657E+03  0.91603315426E+03  0.10566000000E+00 0.  1.
        994    1    1    2    0    0  0.16436022274E+03 -0.55602921566E+02  0.11409859704E+03  0.26913546320E+03  0.17120000000E+03 0.  0.
        998    1    1    2    0    0 -0.33603955498E+02 -0.33314008778E+02  0.48361912267E+03  0.48603138254E+03  0.10000000000E+02 0.  1.
</event>
<event>
 5    1  0.1640179E-008  0.3799248E+03  0.7957747E-01  0.3451486E+00
         13   -1    0    0    0    0  0.00000000000E+00  0.00000000000E+00  0.14999999963E+04  0.15000000000E+04  0.10566000000E+00 0. -1.
        994   -1    0    0    0    0 -0.00000000000E+00 -0.00000000000E+00  0.11368683772E-12  0.17120000000E+03  0.17120000000E+03 0.  0.
         13    1    1    2    0    0  0.23496853897E+01 -0.12662402868E+02  0.18034064886E+02  0.22160688802E+02  0.10566000000E+00 0. -1.
        994    1    1    2    0    0 -0.37927192077E+01  0.10468299827E+02  0.45857538373E+01  0.17162295639E+03  0.17120000000E+03 0.  0.
        998    1    1    2    0    0  0.14430338180E+01  0.21941030403E+01  0.14773801776E+04  0.14774163548E+04  0.10000000000E+02 0. -1.
</event>
<event>
 5    1  0.1640179E-008  0.2785865E+03  0.7957747E-01  0.4061842E+00
         13   -1    0    0    0    0  0.00000000000E+00  0.00000000000E+00  0.14999999963E+04  0.15000000000E+04  0.10566000000E+00 0.  1.
        994   -1    0    0    0    0 -0.00000000000E+00 -0.00000000000E+00  0.11368683772E-12  0.17120000000E+03  0.17120000000E+03 0.  0.
         13    1    1    2    0    0  0.16111669913E+03  0.67023235525E+02  0.52325730237E+03  0.55158763627E+03  0.10566000000E+00 0.  1.
        994    1    1    2    0    0 -0.14692201842E+03 -0.57032316268E+02  0.11849471600E+03  0.26113062309E+03  0.17120000000E+03 0.  0.
        998    1    1    2    0    0 -0.14194680707E+02 -0.99909192572E+01  0.85824797791E+03  0.85848174064E+03  0.10000000000E+02 0.  1.
</event>
<event>
 5    1  0.1640179E-008  0.3852541E+03  0.7957747E-01  0.3428595E+00
         13   -1    0    0    0    0  0.00000000000E+00  0.00000000000E+00  0.14999999963E+04  0.15000000000E+04  0.10566000000E+00 0. -1.
        994   -1    0    0    0    0 -0.00000000000E+00 -0.00000000000E+00  0.11368683772E-12  0.17120000000E+03  0.17120000000E+03 0.  0.
         13    1    1    2    0    0 -0.10209657633E+02  0.61168034960E+01  0.48727642413E+02  0.50160210258E+02  0.10566000000E+00 0. -1.
        994    1    1    2    0    0  0.16612458563E+01 -0.16149520859E+01  0.15216818583E+01  0.17122243814E+03  0.17120000000E+03 0.  0.
        998    1    1    2    0    0  0.85484117770E+01 -0.45018514101E+01  0.14497506720E+04  0.14498173516E+04  0.10000000000E+02 0. -1.
</event>
<event>
 5    1  0.1640179E-008  0.3864044E+03  0.7957747E-01  0.3423738E+00
         13   -1    0    0    0    0  0.00000000000E+00  0.00000000000E+00  0.14999999963E+04  0.15000000000E+04  0.10566000000E+00 0. -1.
        994   -1    0    0    0    0 -0.00000000000E+00 -0.00000000000E+00  0.11368683772E-12  0.17120000000E+03  0.17120000000E+03 0.  0.
         13    1    1    2    0    0  0.29840987727E+01 -0.10471338869E+02  0.65722199991E+02  0.66618109542E+02  0.10566000000E+00 0. -1.
        994    1    1    2    0    0 -0.84757979996E+01  0.32444018622E+01  0.12041523077E+01  0.17144461286E+03  0.17120000000E+03 0.  0.
        998    1    1    2    0    0  0.54916992269E+01  0.72269370067E+01  0.14330736440E+04  0.14331372776E+04  0.10000000000E+02 0. -1.
</event>
<event>
 5    1  0.1640179E-008  0.3739605E+03  0.7957747E-01  0.3477885E+00
         13   -1    0    0    0    0  0.00000000000E+00  0.00000000000E+00  0.14999999963E+04  0.15000000000E+04  0.10566000000E+00 0. -1.
        994   -1    0    0    0    0 -0.00000000000E+00 -0.00000000000E+00  0.11368683772E-12  0.17120000000E+03  0.17120000000E+03 0.  0.
         13    1    1    2    0    0 -0.49955531941E+02 -0.70759778350E+01  0.19145515708E+03  0.19799169925E+03  0.10566000000E+00 0. -1.
        994    1    1    2    0    0  0.13611978612E+02 -0.43818148412E+01  0.79113267508E+01  0.17197824093E+03  0.17120000000E+03 0.  0.
        998    1    1    2    0    0  0.36343553330E+02  0.11457792676E+02  0.13006335124E+04  0.13012300598E+04  0.10000000000E+02 0. -1.
</event>
<event>
 5    1  0.1640179E-008  0.3698284E+03  0.7957747E-01  0.3496680E+00
         13   -1    0    0    0    0  0.00000000000E+00  0.00000000000E+00  0.14999999963E+04  0.15000000000E+04  0.10566000000E+00 0. -1.
        994   -1    0    0    0    0 -0.00000000000E+00 -0.00000000000E+00  0.11368683772E-12  0.17120000000E+03  0.17120000000E+03 0.  0.
         13    1    1    2    0    0  0.33765757216E+02  0.17385717315E+02  0.87756051696E+02  0.95621782561E+02  0.10566000000E+00 0. -1.
        994    1    1    2    0    0  0.31679844840E+02 -0.63881671789E+01  0.12980746815E+02  0.17470649970E+03  0.17120000000E+03 0.  0.
        998    1    1    2    0    0 -0.65445602057E+02 -0.10997550136E+02  0.13992631978E+04  0.14008717177E+04  0.10000000000E+02 0. -1.
</event>
<event>
 5    1  0.1640179E-008  0.3822418E+03  0.7957747E-01  0.3441455E+00
         13   -1    0    0    0    0  0.00000000000E+00  0.00000000000E+00  0.14999999963E+04  0.15000000000E+04  0.10566000000E+00 0. -1.
        994   -1    0    0    0    0 -0.00000000000E+00 -0.00000000000E+00  0.11368683772E-12  0.17120000000E+03  0.17120000000E+03 0.  0.
         13    1    1    2    0    0  0.14927979641E+02 -0.37949377921E+00  0.37036061627E+02  0.39933314620E+02  0.10566000000E+00 0. -1.
        994    1    1    2    0    0 -0.27555124531E+01  0.13318303915E+01  0.30368326267E+01  0.17125428162E+03  0.17120000000E+03 0.  0.
        998    1    1    2    0    0 -0.12172467188E+02 -0.95233661232E+00  0.14599271020E+04  0.14600124038E+04  0.10000000000E+02 0. -1.
</event>
<event>
 5    1  0.1640179E-008  0.3757725E+03  0.7957747E-01  0.3469775E+00
         13   -1    0    0    0    0  0.00000000000E+00  0.00000000000E+00  0.14999999963E+04  0.15000000000E+04  0.10566000000E+00 0. -1.
        994   -1    0    0    0    0 -0.00000000000E+00 -0.00000000000E+00  0.11368683772E-12  0.17120000000E+03  0.17120000000E+03 0.  0.
         13    1    1    2    0    0 -0.43246002828E+02  0.80962876426E+02  0.54122590191E+03  0.54895418041E+03  0.10566000000E+00 0. -1.
        994    1    1    2    0    0  0.47441833809E+02 -0.56958443000E+02  0.25146339351E+02  0.18824656758E+03  0.17120000000E+03 0.  0.
        998    1    1    2    0    0 -0.41958309818E+01 -0.24004433426E+02  0.93362775501E+03  0.93399925201E+03  0.10000000000E+02 0. -1.
</event>
<event>
 5    1  0.1640179E-008  0.3836734E+03  0.7957747E-01  0.3435318E+00
         13   -1    0    0    0    0  0.00000000000E+00  0.00000000000E+00  0.14999999963E+04  0.15000000000E+04  0.10566000000E+00 0.  1.
        994   -1    0    0    0    0 -0.00000000000E+00 -0.00000000000E+00  0.11368683772E-12  0.17120000000E+03  0.17120000000E+03 0.  0.
         13    1    1    2    0    0  0.12012611711E+02 -0.67050338056E+01  0.42480125965E+02  0.44652352508E+02  0.10566000000E+00 0.  1.
        994    1    1    2    0    0 -0.44763296963E+01 -0.86230721646E+01  0.26020506183E+01  0.17149520567E+03  0.17120000000E+03 0.  0.
        998    1    1    2    0    0 -0.75362820146E+01  0.15328105970E+02  0.14549178197E+04  0.14550524418E+04  0.10000000000E+02 0.  1.
</event>
<event>
 5    1  0.1640179E-008  0.3849461E+03  0.7957747E-01  0.3429901E+00
         13   -1    0    0    0    0  0.00000000000E+00  0.00000000000E+00  0.14999999963E+04  0.15000000000E+04  0.10566000000E+00 0. -1.
        994   -1    0    0    0    0 -0.00000000000E+00 -0.00000000000E+00  0.11368683772E-12  0.17120000000E+03  0.17120000000E+03 0.  0.
         13    1    1    2    0    0  0.32426676293E+01 -0.95846047113E+01  0.30701064283E+02  0.32325625330E+02  0.10566000000E+00 0. -1.
        994    1    1    2    0    0 -0.40503638380E+01  0.54897807010E+01  0.18100022437E+01  0.17134543836E+03  0.17120000000E+03 0.  0.
        998    1    1    2    0    0  0.80769620877E+00  0.40948240103E+01  0.14674889298E+04  0.14675289363E+04  0.10000000000E+02 0. -1.
</event>
<event>
 5    1  0.1640179E-008  0.3832079E+03  0.7957747E-01  0.3437308E+00
         13   -1    0    0    0    0  0.00000000000E+00  0.00000000000E+00  0.14999999963E+04  0.15000000000E+04  0.10566000000E+00 0.  1.
        994   -1    0    0    0    0 -0.00000000000E+00 -0.00000000000E+00  0.11368683772E-12  0.17120000000E+03  0.17120000000E+03 0.  0.
         13    1    1    2    0    0 -0.20521421801E+02 -0.31720626826E+01  0.83876729194E+02  0.86408955547E+02  0.10566000000E+00 0.  1.
        994    1    1    2    0    0  0.14217216547E+02  0.59385782155E+01  0.33081474061E+01  0.17192376158E+03  0.17120000000E+03 0.  0.
        998    1    1    2    0    0  0.63042052538E+01 -0.27665155329E+01  0.14128151197E+04  0.14128672829E+04  0.10000000000E+02 0.  1.
</event>
<event>
 5    1  0.1640179E-008  0.3824218E+03  0.7957747E-01  0.3440681E+00
         13   -1    0    0    0    0  0.00000000000E+00  0.00000000000E+00  0.14999999963E+04  0.15000000000E+04  0.10566000000E+00 0. -1.
        994   -1    0    0    0    0 -0.00000000000E+00 -0.00000000000E+00  0.11368683772E-12  0.17120000000E+03  0.17120000000E+03 0.  0.
         13    1    1    2    0    0  0.13721093891E+02  0.22783925835E+02  0.13679414450E+03  0.13935574918E+03  0.10566000000E+00 0. -1.
        994    1    1    2    0    0 -0.28626032182E+01  0.36260586995E+01  0.29864044837E+01  0.17128835749E+03  0.17120000000E+03 0.  0.
        998    1    1    2    0    0 -0.10858490673E+02 -0.26409984535E+02  0.13602194473E+04  0.13605558933E+04  0.10000000000E+02 0. -1.
</event>
<event>
 5    1  0.1640179E-008  0.3751434E+03  0.7957747E-01  0.3472582E+00
         13   -1    0    0    0    0  0.00000000000E+00  0.00000000000E+00  0.14999999963E+04  0.15000000000E+04  0.10566000000E+00 0. -1.
        994   -1    0    0    0    0 -0.00000000000E+00 -0.00000000000E+00  0.11368683772E-12  0.17120000000E+03  0.17120000000E+03 0.  0.
         13    1    1    2    0    0  0.19553256151E+02 -0.20554809447E+02  0.56058895686E+02  0.62828663579E+02  0.10566000000E+00 0. -1.
        994    1    1    2    0    0 -0.21603802457E+02  0.21824716685E+02  0.98158205029E+01  0.17420916414E+03  0.17120000000E+03 0.  0.
        998    1    1    2    0    0  0.20505463065E+01 -0.12699072378E+01  0.14341252801E+04  0.14341621723E+04  0.10000000000E+02 0. -1.
</event>
<event>
 5    1  0.1640179E-008  0.3704529E+03  0.7957747E-01  0.3493812E+00
         13   -1    0    0    0    0  0.00000000000E+00  0.00000000000E+00  0.14999999963E+04  0.15000000000E+04  0.10566000000E+00 0. -1.
        994   -1    0    0    0    0 -0.00000000000E+00 -0.00000000000E+00  0.11368683772E-12  0.17120000000E+03  0.17120000000E+03 0.  0.
         13    1    1    2    0    0 -0.22495609433E+01  0.35400929602E+02  0.63924551114E+02  0.73107084064E+02  0.10566000000E+00 0. -1.
        994    1    1    2    0    0  0.52817267123E+01 -0.34292072956E+02  0.13199867470E+02  0.17517853580E+03  0.17120000000E+03 0.  0.
        998    1    1    2    0    0 -0.30321657690E+01 -0.11088566465E+01  0.14228755777E+04  0.14229143801E+04  0.10000000000E+02 0. -1.
</event>
<event>
 5    1  0.1640179E-008  0.3860785E+03  0.7957747E-01  0.3425111E+00
         13   -1    0    0    0    0  0.00000000000E+00  0.00000000000E+00  0.14999999963E+04  0.15000000000E+04  0.10566000000E+00 0.  1.
        994   -1    0    0    0    0 -0.00000000000E+00 -0.00000000000E+00  0.11368683772E-12  0.17120000000E+03  0.17120000000E+03 0.  0.
         13    1    1    2    0    0  0.46696895527E+01 -0.12454784869E+02  0.75099462829E+02  0.76268395472E+02  0.10566000000E+00 0.  1.
        994    1    1    2    0    0 -0.29197184090E+01  0.19480219912E+02  0.23682357704E+01  0.17234573468E+03  0.17120000000E+03 0.  0.
        998    1    1    2    0    0 -0.17499711437E+01 -0.70254350432E+01  0.14225322977E+04  0.14225858698E+04  0.10000000000E+02 0.  1.
</event>
<event>
 5    1  0.1640179E-008  0.3796204E+03  0.7957747E-01  0.3452813E+00
         13   -1    0    0    0    0  0.00000000000E+00  0.00000000000E+00  0.14999999963E+04  0.15000000000E+04  0.10566000000E+00 0.  1.
        994   -1    0    0    0    0 -0.00000000000E+00 -0.00000000000E+00  0.11368683772E-12  0.17120000000E+03  0.17120000000E+03 0.  0.
         13    1    1    2    0    0 -0.18006386212E+02  0.32781470111E+01  0.37487580821E+02  0.41716975826E+02  0.10566000000E+00 0.  1.
        994    1    1    2    0    0  0.88716803258E+01  0.55971522028E+00  0.45894017369E+01  0.17149204822E+03  0.17120000000E+03 0.  0.
        998    1    1    2    0    0  0.91347058863E+01 -0.38378622314E+01  0.14579230137E+04  0.14579909760E+04  0.10000000000E+02 0.  1.
</event>
<event>
 5    1  0.1640179E-008  0.3838806E+03  0.7957747E-01  0.3434434E+00
         13   -1    0    0    0    0  0.00000000000E+00  0.00000000000E+00  0.14999999963E+04  0.15000000000E+04  0.10566000000E+00 0.  1.
        994   -1    0    0    0    0 -0.00000000000E+00 -0.00000000000E+00  0.11368683772E-12  0.17120000000E+03  0.17120000000E+03 0.  0.
         13    1    1    2    0    0 -0.26040744084E+02  0.51656818740E+01  0.15412351534E+03  0.15639333031E+03  0.10566000000E+00 0.  1.
        994    1    1    2    0    0  0.17509005375E+02 -0.21654710940E+02  0.47507187991E+01  0.17351513221E+03  0.17120000000E+03 0.  0.
        998    1    1    2    0    0  0.85317387088E+01  0.16489029066E+02  0.13411257621E+04  0.13412915375E+04  0.10000000000E+02 0. -1.
</event>
<event>
 5    1  0.1640179E-008  0.3722617E+03  0.7957747E-01  0.3485561E+00
         13   -1    0    0    0    0  0.00000000000E+00  0.00000000000E+00  0.14999999963E+04  0.15000000000E+04  0.10566000000E+00 0.  1.
        994   -1    0    0    0    0 -0.00000000000E+00 -0.00000000000E+00  0.11368683772E-12  0.17120000000E+03  0.17120000000E+03 0.  0.
         13    1    1    2    0    0 -0.34710652652E+02 -0.52262509847E+01  0.90870283104E+02  0.97414386116E+02  0.10566000000E+00 0.  1.
        994    1    1    2    0    0 -0.31178448278E+02 -0.25611217474E+02  0.13697982556E+02  0.17642308472E+03  0.17120000000E+03 0.  0.
        998    1    1    2    0    0  0.65889100930E+02  0.30837468459E+02  0.13954317306E+04  0.13973625292E+04  0.10000000000E+02 0.  1.
</event>
<event>
 5    1  0.1640179E-008  0.3845685E+03  0.7957747E-01  0.3431504E+00
         13   -1    0    0    0    0  0.00000000000E+00  0.00000000000E+00  0.14999999963E+04  0.15000000000E+04  0.10566000000E+00 0. -1.
        994   -1    0    0    0    0 -0.00000000000E+00 -0.00000000000E+00  0.11368683772E-12  0.17120000000E+03  0.17120000000E+03 0.  0.
         13    1    1    2    0    0  0.13734806927E+01 -0.16940047600E+02  0.75827961861E+02  0.77709347095E+02  0.10566000000E+00 0. -1.
        994    1    1    2    0    0 -0.43329915388E+01  0.15354309806E+02  0.26832180875E+01  0.17196269742E+03  0.17120000000E+03 0.  0.
        998    1    1    2    0    0  0.29595108460E+01  0.15857377941E+01  0.14214888163E+04  0.14215279555E+04  0.10000000000E+02 0.  0.
</event>
<event>
 5    1  0.1640179E-008  0.3856839E+03  0.7957747E-01  0.3426777E+00
         13   -1    0    0    0    0  0.00000000000E+00  0.00000000000E+00  0.14999999963E+04  0.15000000000E+04  0.10566000000E+00 0.  1.
        994   -1    0    0    0    0 -0.00000000000E+00 -0.00000000000E+00  0.11368683772E-12  0.17120000000E+03  0.17120000000E+03 0.  0.
         13    1    1    2    0    0 -0.12000015816E+02  0.52599508027E+01  0.64911727566E+02  0.66220925708E+02  0.10566000000E+00 0.  1.
        994    1    1    2    0    0  0.14456145673E+02  0.14556627122E+00  0.19770738337E+01  0.17182069188E+03  0.17120000000E+03 0.  0.
        998    1    1    2    0    0 -0.24561298578E+01 -0.54055170739E+01  0.14331111949E+04  0.14331583824E+04  0.10000000000E+02 0.  1.
</event>
<event>
 5    1  0.1640179E-008  0.3844680E+03  0.7957747E-01  0.3431931E+00
         13   -1    0    0    0    0  0.00000000000E+00  0.00000000000E+00  0.14999999963E+04  0.15000000000E+04  0.10566000000E+00 0.  1.
        994   -1    0    0    0    0 -0.00000000000E+00 -0.00000000000E+00  0.11368683772E-12  0.17120000000E+03  0.17120000000E+03 0.  0.
         13    1    1    2    0    0 -0.22206265080E+02  0.64281793690E+00  0.12215890846E+03  0.12416256080E+03  0.10566000000E+00 0.  1.
        994    1    1    2    0    0  0.21389124788E+02 -0.60082669067E+01  0.35222259650E+01  0.17267148000E+03  0.17120000000E+03 0.  0.
        998    1    1    2    0    0  0.81714029167E+00  0.53654489698E+01  0.13743188619E+04  0.13743659592E+04  0.10000000000E+02 0.  1.
</event>
<event>
 5    1  0.1640179E-008  0.3740132E+03  0.7957747E-01  0.3477648E+00
         13   -1    0    0    0    0  0.00000000000E+00  0.00000000000E+00  0.14999999963E+04  0.15000000000E+04  0.10566000000E+00 0. -1.
        994   -1    0    0    0    0 -0.00000000000E+00 -0.00000000000E+00  0.11368683772E-12  0.17120000000E+03  0.17120000000E+03 0.  0.
         13    1    1    2    0    0 -0.18396434160E+02 -0.27574338998E+02  0.40174898324E+02  0.52084609823E+02  0.10566000000E+00 0. -1.
        994    1    1    2    0    0  0.14878775759E+02 -0.23940938353E+02  0.15899211306E+02  0.17423194718E+03  0.17120000000E+03 0.  0.
        998    1    1    2    0    0  0.35176584014E+01  0.51515277351E+02  0.14439258866E+04  0.14448834430E+04  0.10000000000E+02 0. -1.
</event>
<event>
 5    1  0.1640179E-008  0.3818068E+03  0.7957747E-01  0.3443329E+00
         13   -1    0    0    0    0  0.00000000000E+00  0.00000000000E+00  0.14999999963E+04  0.15000000000E+04  0.10566000000E+00 0.  1.
        994   -1    0    0    0    0 -0.00000000000E+00 -0.00000000000E+00  0.11368683772E-12  0.17120000000E+03  0.17120000000E+03 0.  0.
         13    1    1    2    0    0  0.37552826636E+01 -0.36865869566E+02  0.20701627558E+03  0.21030678545E+03  0.10566000000E+00 0.  1.
        994    1    1    2    0    0 -0.73524536288E+01  0.23633537616E+02  0.52622544852E+01  0.17305991447E+03  0.17120000000E+03 0.  0.
        998    1    1    2    0    0  0.35971709651E+01  0.13232331950E+02  0.12877214662E+04  0.12878333001E+04  0.10000000000E+02 0.  1.
</event>
<event>
 5    1  0.1640179E-008  0.3805499E+03  0.7957747E-01  0.3448768E+00
         13   -1    0    0    0    0  0.00000000000E+00  0.00000000000E+00  0.14999999963E+04  0.15000000000E+04  0.10566000000E+00 0. -1.
        994   -1    0    0    0    0 -0.00000000000E+00 -0.00000000000E+00  0.11368683772E-12  0.17120000000E+03  0.17120000000E+03 0.  0.
         13    1    1    2    0    0 -0.10442899950E+02  0.88574256139E+00  0.12383057957E+02  0.16223131253E+02  0.10566000000E+00 0. -1.
        994    1    1    2    0    0  0.13734362268E+02 -0.12824703692E+01  0.44910098403E+01  0.17181352277E+03  0.17120000000E+03 0.  0.
        998    1    1    2    0    0 -0.32914623183E+01  0.39672780777E+00  0.14831259285E+04  0.14831633460E+04  0.10000000000E+02 0. -1.
</event>
<event>
 5    1  0.1640179E-008  0.3838618E+03  0.7957747E-01  0.3434514E+00
         13   -1    0    0    0    0  0.00000000000E+00  0.00000000000E+00  0.14999999963E+04  0.15000000000E+04  0.10566000000E+00 0. -1.
        994   -1    0    0    0    0 -0.00000000000E+00 -0.00000000000E+00  0.11368683772E-12  0.17120000000E+03  0.17120000000E+03 0.  0.
         13    1    1    2    0    0 -0.71286033404E+01  0.76262846269E+01  0.24547907261E+02  0.26675609042E+02  0.10566000000E+00 0. -1.
        994    1    1    2    0    0  0.14567567385E+01 -0.18064675683E+01  0.22140922107E+01  0.17123004313E+03  0.17120000000E+03 0.  0.
        998    1    1    2    0    0  0.56718466019E+01 -0.58198170586E+01  0.14732379968E+04  0.14732943478E+04  0.10000000000E+02 0. -1.
</event>
<event>
 5    1  0.1640179E-008  0.3739887E+03  0.7957747E-01  0.3477758E+00
         13   -1    0    0    0    0  0.00000000000E+00  0.00000000000E+00  0.14999999963E+04  0.15000000000E+04  0.10566000000E+00 0. -1.
        994   -1    0    0    0    0 -0.00000000000E+00 -0.00000000000E+00  0.11368683772E-12  0.17120000000E+03  0.17120000000E+03 0.  0.
         13    1    1    2    0    0  0.32174466945E+01  0.16010408441E+02  0.15569945941E+02  0.22563677057E+02  0.10566000000E+00 0. -1.
        994    1    1    2    0    0 -0.59110277452E+01 -0.52204880056E+01  0.74111568843E+01  0.17154171210E+03  0.17120000000E+03 0.  0.
        998    1    1    2    0    0  0.26935810507E+01 -0.10789920435E+02  0.14770188935E+04  0.14770946108E+04  0.10000000000E+02 0. -1.
</event>
<event>
 5    1  0.4564054E-008  0.3863772E+03  0.7957747E-01  0.3423852E+00
         13   -1    0    0    0    0  0.00000000000E+00  0.00000000000E+00  0.14999999963E+04  0.15000000000E+04  0.10566000000E+00 0. -1.
        994   -1    0    0    0    0 -0.00000000000E+00 -0.00000000000E+00  0.11368683772E-12  0.17120000000E+03  0.17120000000E+03 0.  0.
         13    1    1    2    0    0 -0.60847215567E+01  0.83209664053E+01  0.60085735611E+02  0.60963670381E+02  0.10566000000E+00 0. -1.
        994    1    1    2    0    0  0.15860945322E+01  0.40847275297E+00  0.95669473941E+00  0.17121050730E+03  0.17120000000E+03 0.  0.
        998    1    1    2    0    0  0.44986270245E+01 -0.87294391583E+01  0.14389575659E+04  0.14390258223E+04  0.10000000000E+02 0. -1.
</event>
<event>
 5    1  0.1640179E-008  0.3833219E+03  0.7957747E-01  0.3436821E+00
         13   -1    0    0    0    0  0.00000000000E+00  0.00000000000E+00  0.14999999963E+04  0.15000000000E+04  0.10566000000E+00 0.  1.
        994   -1    0    0    0    0 -0.00000000000E+00 -0.00000000000E+00  0.11368683772E-12  0.17120000000E+03  0.17120000000E+03 0.  0.
         13    1    1    2    0    0  0.40775664026E+01  0.10312343329E+02  0.25266241651E+02  0.27592845158E+02  0.10566000000E+00 0.  1.
        994    1    1    2    0    0  0.16527299123E+01  0.58400232248E+01  0.25874129568E+01  0.17132709095E+03  0.17120000000E+03 0.  0.
        998    1    1    2    0    0 -0.57302963148E+01 -0.16152366553E+02  0.14721463417E+04  0.14722800639E+04  0.10000000000E+02 0.  1.
</event>
<event>
 5    1  0.1640179E-008  0.3854476E+03  0.7957747E-01  0.3427776E+00
         13   -1    0    0    0    0  0.00000000000E+00  0.00000000000E+00  0.14999999963E+04  0.15000000000E+04  0.10566000000E+00 0.  1.
        994   -1    0    0    0    0 -0.00000000000E+00 -0.00000000000E+00  0.11368683772E-12  0.17120000000E+03  0.17120000000E+03 0.  0.
         13    1    1    2    0    0  0.11275151853E+02  0.96282385228E+01  0.76689839139E+02  0.78110016115E+02  0.10566000000E+00 0.  1.
        994    1    1    2    0    0 -0.88824160455E+01 -0.92161344729E+01  0.19462775512E+01  0.17168885359E+03  0.17120000000E+03 0.  0.
        998    1    1    2    0    0 -0.23927358077E+01 -0.41210404995E+00  0.14213638796E+04  0.14214011303E+04  0.10000000000E+02 0.  1.
</event>
<event>
 5    1  0.1640179E-008  0.3766490E+03  0.7957747E-01  0.3465881E+00
         13   -1    0    0    0    0  0.00000000000E+00  0.00000000000E+00  0.14999999963E+04  0.15000000000E+04  0.10566000000E+00 0.  1.
        994   -1    0    0    0    0 -0.00000000000E+00 -0.00000000000E+00  0.11368683772E-12  0.17120000000E+03  0.17120000000E+03 0.  0.
         13    1    1    2    0    0  0.58462655192E+02 -0.18207636112E+01  0.31981663081E+03  0.32512134003E+03  0.10566000000E+00 0.  1.
        994    1    1    2    0    0 -0.27904681391E+02 -0.47544099601E+02  0.16177729621E+02  0.18058314314E+03  0.17120000000E+03 0.  0.
        998    1    1    2    0    0 -0.30557973801E+02  0.49364863212E+02  0.11640056358E+04  0.11654955168E+04  0.10000000000E+02 0.  1.
</event>
<event>
 5    1  0.1640179E-008  0.3827640E+03  0.7957747E-01  0.3439211E+00
         13   -1    0    0    0    0  0.00000000000E+00  0.00000000000E+00  0.14999999963E+04  0.15000000000E+04  0.10566000000E+00 0.  1.
        994   -1    0    0    0    0 -0.00000000000E+00 -0.00000000000E+00  0.11368683772E-12  0.17120000000E+03  0.17120000000E+03 0.  0.
         13    1    1    2    0    0  0.17452224821E+02 -0.15967555798E+02  0.11395372473E+03  0.11638301222E+03  0.10566000000E+00 0.  1.
        994    1    1    2    0    0  0.45239860990E+01  0.24415663429E+00  0.28123648898E+01  0.17128302735E+03  0.17120000000E+03 0.  0.
        998    1    1    2    0    0 -0.21976210920E+02  0.15723399164E+02  0.13832339067E+04  0.13835339604E+04  0.10000000000E+02 0.  1.
</event>
<event>
 5    1  0.1640179E-008  0.3774830E+03  0.7957747E-01  0.3462192E+00
         13   -1    0    0    0    0  0.00000000000E+00  0.00000000000E+00  0.14999999963E+04  0.15000000000E+04  0.10566000000E+00 0. -1.
        994   -1    0    0    0    0 -0.00000000000E+00 -0.00000000000E+00  0.11368683772E-12  0.17120000000E+03  0.17120000000E+03 0.  0.
         13    1    1    2    0    0 -0.30820266268E+02 -0.11484773833E+02  0.90358022466E+02  0.96158058585E+02  0.10566000000E+00 0. -1.
        994    1    1    2    0    0  0.36976507805E+02  0.12257506601E+02  0.10541758307E+02  0.17589223197E+03  0.17120000000E+03 0.  0.
        998    1    1    2    0    0 -0.61562415369E+01 -0.77273276780E+00  0.13991002155E+04  0.13991497094E+04  0.10000000000E+02 0. -1.
</event>
<event>
 5    1  0.1640179E-008  0.3832721E+03  0.7957747E-01  0.3437034E+00
         13   -1    0    0    0    0  0.00000000000E+00  0.00000000000E+00  0.14999999963E+04  0.15000000000E+04  0.10566000000E+00 0. -1.
        994   -1    0    0    0    0 -0.00000000000E+00 -0.00000000000E+00  0.11368683772E-12  0.17120000000E+03  0.17120000000E+03 0.  0.
         13    1    1    2    0    0  0.15464994489E+02  0.15181586067E+02  0.90924524508E+02  0.93471530056E+02  0.10566000000E+00 0. -1.
        994    1    1    2    0    0 -0.12440139326E+02 -0.13523555701E+02  0.36078899437E+01  0.17222108029E+03  0.17120000000E+03 0.  0.
        998    1    1    2    0    0 -0.30248551630E+01 -0.16580303665E+01  0.14054675818E+04  0.14055073897E+04  0.10000000000E+02 0.  0.
</event>
<event>
 5    1  0.1640179E-008  0.3813332E+03  0.7957747E-01  0.3445374E+00
         13   -1    0    0    0    0  0.00000000000E+00  0.00000000000E+00  0.14999999963E+04  0.15000000000E+04  0.10566000000E+00 0.  1.
        994   -1    0    0    0    0 -0.00000000000E+00 -0.00000000000E+00  0.11368683772E-12  0.17120000000E+03  0.17120000000E+03 0.  0.
         13    1    1    2    0    0 -0.13679418962E+02 -0.10878660347E+02  0.42336507339E+02  0.45802431942E+02  0.10566000000E+00 0.  1.
        994    1    1    2    0    0  0.15693938467E+02  0.42465789411E+01  0.43419247027E+01  0.17202507215E+03  0.17120000000E+03 0.  0.
        998    1    1    2    0    0 -0.20145195055E+01  0.66320814063E+01  0.14533215642E+04  0.14533724959E+04  0.10000000000E+02 0.  1.
</event>
<event>
 5    1  0.1640179E-008  0.3825832E+03  0.7957747E-01  0.3439987E+00
         13   -1    0    0    0    0  0.00000000000E+00  0.00000000000E+00  0.14999999963E+04  0.15000000000E+04  0.10566000000E+00 0.  1.
        994   -1    0    0    0    0 -0.00000000000E+00 -0.00000000000E+00  0.11368683772E-12  0.17120000000E+03  0.17120000000E+03 0.  0.
         13    1    1    2    0    0  0.15736205035E+02 -0.36923126479E+01  0.47027712824E+02  0.49728042985E+02  0.10566000000E+00 0.  1.
        994    1    1    2    0    0 -0.17899242248E+01 -0.22947090190E+01  0.28628909775E+01  0.17124866616E+03  0.17120000000E+03 0.  0.
        998    1    1    2    0    0 -0.13946280811E+02  0.59870216669E+01  0.14501093925E+04  0.14502232909E+04  0.10000000000E+02 0.  1.
</event>
<event>
 5    1  0.1640179E-008  0.3829030E+03  0.7957747E-01  0.3438615E+00
         13   -1    0    0    0    0  0.00000000000E+00  0.00000000000E+00  0.14999999963E+04  0.15000000000E+04  0.10566000000E+00 0.  1.
        994   -1    0    0    0    0 -0.00000000000E+00 -0.00000000000E+00  0.11368683772E-12  0.17120000000E+03  0.17120000000E+03 0.  0.
         13    1    1    2    0    0 -0.10287021430E+02  0.48291224428E+01  0.24016101682E+02  0.26569296896E+02  0.10566000000E+00 0.  1.
        994    1    1    2    0    0 -0.45926217349E+01 -0.27689361290E+01  0.27700807591E+01  0.17130637037E+03  0.17120000000E+03 0.  0.
        998    1    1    2    0    0  0.14879643165E+02 -0.20601863138E+01  0.14732138138E+04  0.14733243327E+04  0.10000000000E+02 0.  1.
</event>
<event>
 5    1  0.1640179E-008  0.3843819E+03  0.7957747E-01  0.3432298E+00
         13   -1    0    0    0    0  0.00000000000E+00  0.00000000000E+00  0.14999999963E+04  0.15000000000E+04  0.10566000000E+00 0. -1.
        994   -1    0    0    0    0 -0.00000000000E+00 -0.00000000000E+00  0.11368683772E-12  0.17120000000E+03  0.17120000000E+03 0.  0.
         13    1    1    2    0    0  0.12714287475E+02  0.16375772504E+01  0.43483771134E+02  0.45334140351E+02  0.10566000000E+00 0. -1.
        994    1    1    2    0    0 -0.20224992760E+01  0.24373940105E+01  0.19703731324E+01  0.17124063117E+03  0.17120000000E+03 0.  0.
        998    1    1    2    0    0 -0.10691788199E+02 -0.40749712609E+01  0.14545458520E+04  0.14546252285E+04  0.10000000000E+02 0. -1.
</event>
<event>
 5    1  0.1640179E-008  0.3842058E+03  0.7957747E-01  0.3433047E+00
         13   -1    0    0    0    0  0.00000000000E+00  0.00000000000E+00  0.14999999963E+04  0.15000000000E+04  0.10566000000E+00 0. -1.
        994   -1    0    0    0    0 -0.00000000000E+00 -0.00000000000E+00  0.11368683772E-12  0.17120000000E+03  0.17120000000E+03 0.  0.
         13    1    1    2    0    0  0.12440241622E+02 -0.36092074489E+01  0.42413447914E+02  0.44347465745E+02  0.10566000000E+00 0. -1.
        994    1    1    2    0    0 -0.12556479060E+01  0.93249446716E+00  0.20330102282E+01  0.17121921425E+03  0.17120000000E+03 0.  0.
        998    1    1    2    0    0 -0.11184593716E+02  0.26767129817E+01  0.14555535381E+04  0.14556333200E+04  0.10000000000E+02 0. -1.
</event>
<event>
 5    1  0.1640179E-008  0.3710411E+03  0.7957747E-01  0.3491120E+00
         13   -1    0    0    0    0  0.00000000000E+00  0.00000000000E+00  0.14999999963E+04  0.15000000000E+04  0.10566000000E+00 0.  1.
        994   -1    0    0    0    0 -0.00000000000E+00 -0.00000000000E+00  0.11368683772E-12  0.17120000000E+03  0.17120000000E+03 0.  0.
         13    1    1    2    0    0 -0.53438673960E+02 -0.81739433322E+01  0.16679961796E+03  0.17534146383E+03  0.10566000000E+00 0.  1.
        994    1    1    2    0    0  0.29133744486E+02  0.40435326025E+01  0.11712295056E+02  0.17410267970E+03  0.17120000000E+03 0.  0.
        998    1    1    2    0    0  0.24304929473E+02  0.41304107296E+01  0.13214880833E+04  0.13217558565E+04  0.10000000000E+02 0.  1.
</event>
<event>
 5    1  0.1640179E-008  0.3853906E+03  0.7957747E-01  0.3428017E+00
         13   -1    0    0    0    0  0.00000000000E+00  0.00000000000E+00  0.14999999963E+04  0.15000000000E+04  0.10566000000E+00 0.  1.
        994   -1    0    0    0    0 -0.00000000000E+00 -0.00000000000E+00  0.11368683772E-12  0.17120000000E+03  0.17120000000E+03 0.  0.
         13    1    1    2    0    0  0.14282053717E+02  0.68786157500E+01  0.92763688994E+02  0.94108477688E+02  0.10566000000E+00 0.  1.
        994    1    1    2    0    0 -0.49273017138E+01  0.20621043601E+01  0.15300498487E+01  0.17129013874E+03  0.17120000000E+03 0.  0.
        998    1    1    2    0    0 -0.93547520028E+01 -0.89407201102E+01  0.14057062574E+04  0.14058013836E+04  0.10000000000E+02 0.  1.
</event>
<event>
 5    1  0.1640179E-008  0.3710046E+03  0.7957747E-01  0.3491287E+00
         13   -1    0    0    0    0  0.00000000000E+00  0.00000000000E+00  0.14999999963E+04  0.15000000000E+04  0.10566000000E+00 0. -1.
        994   -1    0    0    0    0 -0.00000000000E+00 -0.00000000000E+00  0.11368683772E-12  0.17120000000E+03  0.17120000000E+03 0.  0.
         13    1    1    2    0    0  0.37111910349E+01 -0.23495623470E+02  0.28945670367E+02  0.37465721108E+02  0.10566000000E+00 0. -1.
        994    1    1    2    0    0 -0.47361203445E+01  0.13181661493E+02  0.94211919108E+01  0.17203018890E+03  0.17120000000E+03 0.  0.
        998    1    1    2    0    0  0.10249293096E+01  0.10313961977E+02  0.14616331340E+04  0.14617040900E+04  0.10000000000E+02 0. -1.
</event>
<event>
 5    1  0.1640179E-008  0.3820382E+03  0.7957747E-01  0.3442331E+00
         13   -1    0    0    0    0  0.00000000000E+00  0.00000000000E+00  0.14999999963E+04  0.15000000000E+04  0.10566000000E+00 0. -1.
        994   -1    0    0    0    0 -0.00000000000E+00 -0.00000000000E+00  0.11368683772E-12  0.17120000000E+03  0.17120000000E+03 0.  0.
         13    1    1    2    0    0 -0.83397254353E+01 -0.22671206069E+02  0.95779418866E+02  0.98778757065E+02  0.10566000000E+00 0. -1.
        994    1    1    2    0    0  0.88315847969E+01  0.69983981897E+01  0.35295329151E+01  0.17160673667E+03  0.17120000000E+03 0.  0.
        998    1    1    2    0    0 -0.49185936160E+00  0.15672807879E+02  0.14006910445E+04  0.14008145063E+04  0.10000000000E+02 0. -1.
</event>
<event>
 5    1  0.1640179E-008  0.3806537E+03  0.7957747E-01  0.3448317E+00
         13   -1    0    0    0    0  0.00000000000E+00  0.00000000000E+00  0.14999999963E+04  0.15000000000E+04  0.10566000000E+00 0. -1.
        994   -1    0    0    0    0 -0.00000000000E+00 -0.00000000000E+00  0.11368683772E-12  0.17120000000E+03  0.17120000000E+03 0.  0.
         13    1    1    2    0    0  0.50321434462E+02 -0.31518125794E+02  0.87282037344E+02  0.10556421850E+03  0.10566000000E+00 0. -1.
        994    1    1    2    0    0 -0.71419910662E+02  0.43829476720E+02  0.42659478595E+02  0.19532306004E+03  0.17120000000E+03 0.  0.
        998    1    1    2    0    0  0.21098476200E+02 -0.12311350925E+02  0.13700584803E+04  0.13703127215E+04  0.10000000000E+02 0. -1.
</event>
<event>
 5    1  0.1640179E-008  0.3696977E+03  0.7957747E-01  0.3497281E+00
         13   -1    0    0    0    0  0.00000000000E+00  0.00000000000E+00  0.14999999963E+04  0.15000000000E+04  0.10566000000E+00 0. -1.
        994   -1    0    0    0    0 -0.00000000000E+00 -0.00000000000E+00  0.11368683772E-12  0.17120000000E+03  0.17120000000E+03 0.  0.
         13    1    1    2    0    0  0.10214255007E+02  0.92777268573E+01  0.56865323806E+01  0.14924980252E+02  0.10566000000E+00 0. -1.
        994    1    1    2    0    0 -0.14559284500E+02 -0.10023723743E+02  0.10509355442E+02  0.17243066535E+03  0.17120000000E+03 0.  0.
        998    1    1    2    0    0  0.43450294929E+01  0.74599688569E+00  0.14838041085E+04  0.14838443544E+04  0.10000000000E+02 0. -1.
</event>
<event>
 5    1  0.1640179E-008  0.3835452E+03  0.7957747E-01  0.3435866E+00
         13   -1    0    0    0    0  0.00000000000E+00  0.00000000000E+00  0.14999999963E+04  0.15000000000E+04  0.10566000000E+00 0.  1.
        994   -1    0    0    0    0 -0.00000000000E+00 -0.00000000000E+00  0.11368683772E-12  0.17120000000E+03  0.17120000000E+03 0.  0.
         13    1    1    2    0    0  0.45724353185E+01  0.21144804685E+02  0.11627218650E+03  0.11826767287E+03  0.10566000000E+00 0.  1.
        994    1    1    2    0    0 -0.73379137118E+01  0.10280908455E+02  0.28815046410E+01  0.17168950208E+03  0.17120000000E+03 0.  0.
        998    1    1    2    0    0  0.27654783933E+01 -0.31425713140E+02  0.13808463051E+04  0.13812428250E+04  0.10000000000E+02 0.  1.
</event>
<event>
 5    1  0.1640179E-008  0.3807329E+03  0.7957747E-01  0.3447974E+00
         13   -1    0    0    0    0  0.00000000000E+00  0.00000000000E+00  0.14999999963E+04  0.15000000000E+04  0.10566000000E+00 0. -1.
        994   -1    0    0    0    0 -0.00000000000E+00 -0.00000000000E+00  0.11368683772E-12  0.17120000000E+03  0.17120000000E+03 0.  0.
         13    1    1    2    0    0  0.96504526869E+02 -0.30441783339E+02  0.46683791830E+03  0.47767926373E+03  0.10566000000E+00 0. -1.
        994    1    1    2    0    0  0.12220749300E+02  0.51621492380E+02  0.27026569675E+02  0.18125672583E+03  0.17120000000E+03 0.  0.
        998    1    1    2    0    0 -0.10872527617E+03 -0.21179709041E+02  0.10061355083E+04  0.10122640104E+04  0.10000000000E+02 0. -1.
</event>
<event>
 5    1  0.1640179E-008  0.3852523E+03  0.7957747E-01  0.3428603E+00
         13   -1    0    0    0    0  0.00000000000E+00  0.00000000000E+00  0.14999999963E+04  0.15000000000E+04  0.10566000000E+00 0. -1.
        994   -1    0    0    0    0 -0.00000000000E+00 -0.00000000000E+00  0.11368683772E-12  0.17120000000E+03  0.17120000000E+03 0.  0.
         13    1    1    2    0    0 -0.31062117041E+00  0.11636587909E+02  0.43118763953E+02  0.44662575301E+02  0.10566000000E+00 0. -1.
        994    1    1    2    0    0 -0.12838371820E+02 -0.16524926732E+02  0.29451764276E+01  0.17249930742E+03  0.17120000000E+03 0.  0.
        998    1    1    2    0    0  0.13148992991E+02  0.48883388233E+01  0.14539360559E+04  0.14540381173E+04  0.10000000000E+02 0. -1.
</event>
<event>
 5    1  0.1640179E-008  0.3817834E+03  0.7957747E-01  0.3443430E+00
         13   -1    0    0    0    0  0.00000000000E+00  0.00000000000E+00  0.14999999963E+04  0.15000000000E+04  0.10566000000E+00 0.  1.
        994   -1    0    0    0    0 -0.00000000000E+00 -0.00000000000E+00  0.11368683772E-12  0.17120000000E+03  0.17120000000E+03 0.  0.
         13    1    1    2    0    0  0.40980946133E+02  0.28929694728E+02  0.27468746557E+03  0.27923033518E+03  0.10566000000E+00 0.  1.
        994    1    1    2    0    0 -0.29745534776E+02 -0.80051238999E+02  0.27864079100E+02  0.19333609236E+03  0.17120000000E+03 0.  0.
        998    1    1    2    0    0 -0.11235411357E+02  0.51121544271E+02  0.11974484516E+04  0.11986335725E+04  0.10000000000E+02 0.  1.
</event>
<event>
 5    1  0.1640179E-008  0.3851362E+03  0.7957747E-01  0.3429095E+00
         13   -1    0    0    0    0  0.00000000000E+00  0.00000000000E+00  0.14999999963E+04  0.15000000000E+04  0.10566000000E+00 0.  1.
        994   -1    0    0    0    0 -0.00000000000E+00 -0.00000000000E+00  0.11368683772E-12  0.17120000000E+03  0.17120000000E+03 0.  0.
         13    1    1    2    0    0  0.92093878892E+01 -0.11434562941E+02  0.72009891116E+02  0.73491480033E+02  0.10566000000E+00 0.  1.
        994    1    1    2    0    0 -0.60198429416E+00  0.41341958806E+01  0.16199190182E+01  0.17125862927E+03  0.17120000000E+03 0.  0.
        998    1    1    2    0    0 -0.86074035951E+01  0.73003670601E+01  0.14263701861E+04  0.14264498907E+04  0.10000000000E+02 0.  1.
</event>
<event>
 5    1  0.1640179E-008  0.3704445E+03  0.7957747E-01  0.3493850E+00
         13   -1    0    0    0    0  0.00000000000E+00  0.00000000000E+00  0.14999999963E+04  0.15000000000E+04  0.10566000000E+00 0.  1.
        994   -1    0    0    0    0 -0.00000000000E+00 -0.00000000000E+00  0.11368683772E-12  0.17120000000E+03  0.17120000000E+03 0.  0.
         13    1    1    2    0    0 -0.24901739093E+02  0.28576694740E+02  0.58497299802E+02  0.69704155832E+02  0.10566000000E+00 0.  1.
        994    1    1    2    0    0  0.30341850379E+02 -0.19664085601E+02  0.15765359594E+02  0.17568520345E+03  0.17120000000E+03 0.  0.
        998    1    1    2    0    0 -0.54401112861E+01 -0.89126091392E+01  0.14257373369E+04  0.14258106407E+04  0.10000000000E+02 0.  1.
</event>
<event>
 5    1  0.1640179E-008  0.3811482E+03  0.7957747E-01  0.3446174E+00
         13   -1    0    0    0    0  0.00000000000E+00  0.00000000000E+00  0.14999999963E+04  0.15000000000E+04  0.10566000000E+00 0.  1.
        994   -1    0    0    0    0 -0.00000000000E+00 -0.00000000000E+00  0.11368683772E-12  0.17120000000E+03  0.17120000000E+03 0.  0.
         13    1    1    2    0    0  0.26573639315E+02  0.16199345136E+02  0.13158081622E+03  0.13521131407E+03  0.10566000000E+00 0.  1.
        994    1    1    2    0    0 -0.19548412432E+02 -0.11494690394E+02  0.52691809755E+01  0.17277578709E+03  0.17120000000E+03 0.  0.
        998    1    1    2    0    0 -0.70252268833E+01 -0.47046547418E+01  0.13631499991E+04  0.13632128988E+04  0.10000000000E+02 0.  1.
</event>
<event>
 5    1  0.1640179E-008  0.3994137E+03  0.7957747E-01  0.3370752E+00
         13   -1    0    0    0    0  0.00000000000E+00  0.00000000000E+00  0.14999999963E+04  0.15000000000E+04  0.10566000000E+00 0.  1.
        994   -1    0    0    0    0 -0.00000000000E+00 -0.00000000000E+00  0.11368683772E-12  0.17120000000E+03  0.17120000000E+03 0.  0.
         13    1    1    2    0    0 -0.10624239694E+03  0.91928348467E+01  0.22377734502E+03  0.24788760846E+03  0.10566000000E+00 0.  1.
        994    1    1    2    0    0  0.42992891816E+02  0.26090990065E+02  0.37370917196E+02  0.18230511227E+03  0.17120000000E+03 0.  0.
        998    1    1    2    0    0  0.63249505125E+02 -0.35283824911E+02  0.12388517341E+04  0.12410072793E+04  0.10000000000E+02 0.  1.
</event>
<event>
 5    1  0.1640179E-008  0.3836068E+03  0.7957747E-01  0.3435602E+00
         13   -1    0    0    0    0  0.00000000000E+00  0.00000000000E+00  0.14999999963E+04  0.15000000000E+04  0.10566000000E+00 0.  1.
        994   -1    0    0    0    0 -0.00000000000E+00 -0.00000000000E+00  0.11368683772E-12  0.17120000000E+03  0.17120000000E+03 0.  0.
         13    1    1    2    0    0 -0.26259324552E+01 -0.19005266968E+02  0.81207188939E+02  0.83442881021E+02  0.10566000000E+00 0.  1.
        994    1    1    2    0    0 -0.25512227299E+01  0.73706076730E+01  0.25244117861E+01  0.17139617046E+03  0.17120000000E+03 0.  0.
        998    1    1    2    0    0  0.51771551851E+01  0.11634659295E+02  0.14162683956E+04  0.14163609485E+04  0.10000000000E+02 0.  1.
</event>
<event>
 5    1  0.1640179E-008  0.3858465E+03  0.7957747E-01  0.3426090E+00
         13   -1    0    0    0    0  0.00000000000E+00  0.00000000000E+00  0.14999999963E+04  0.15000000000E+04  0.10566000000E+00 0. -1.
        994   -1    0    0    0    0 -0.00000000000E+00 -0.00000000000E+00  0.11368683772E-12  0.17120000000E+03  0.17120000000E+03 0.  0.
         13    1    1    2    0    0  0.83369301072E+01  0.93824831772E+01  0.67030251703E+02  0.68195316566E+02  0.10566000000E+00 0. -1.
        994    1    1    2    0    0 -0.83420705026E+01 -0.18015248641E+00  0.14388203677E+01  0.17140925529E+03  0.17120000000E+03 0.  0.
        998    1    1    2    0    0  0.51403954667E-02 -0.92023306908E+01  0.14315309242E+04  0.14315954281E+04  0.10000000000E+02 0. -1.
</event>
<event>
 5    1  0.1640179E-008  0.4364656E+03  0.7957747E-01  0.3236988E+00
         13   -1    0    0    0    0  0.00000000000E+00  0.00000000000E+00  0.14999999963E+04  0.15000000000E+04  0.10566000000E+00 0.  1.
        994   -1    0    0    0    0 -0.00000000000E+00 -0.00000000000E+00  0.11368683772E-12  0.17120000000E+03  0.17120000000E+03 0.  0.
         13    1    1    2    0    0  0.21340396211E+02 -0.28290614170E+02 -0.83837026535E+01  0.36415230259E+02  0.10566000000E+00 0.  1.
        994    1    1    2    0    0 -0.60211547936E+02 -0.90939650064E+01  0.69016676665E+02  0.19437302375E+03  0.17120000000E+03 0.  0.
        998    1    1    2    0    0  0.38871151725E+02  0.37384579177E+02  0.14393670223E+04  0.14404117460E+04  0.10000000000E+02 0.  1.
</event>
<event>
 5    1  0.1640179E-008  0.3804791E+03  0.7957747E-01  0.3449075E+00
         13   -1    0    0    0    0  0.00000000000E+00  0.00000000000E+00  0.14999999963E+04  0.15000000000E+04  0.10566000000E+00 0. -1.
        994   -1    0    0    0    0 -0.00000000000E+00 -0.00000000000E+00  0.11368683772E-12  0.17120000000E+03  0.17120000000E+03 0.  0.
         13    1    1    2    0    0 -0.18303872870E+02  0.29047636706E+02  0.15050695002E+03  0.15437341134E+03  0.10566000000E+00 0. -1.
        994    1    1    2    0    0  0.27785892770E+02 -0.65116049469E+01  0.66146106926E+01  0.17368837011E+03  0.17120000000E+03 0.  0.
        998    1    1    2    0    0 -0.94820198998E+01 -0.22536031759E+02  0.13428784356E+04  0.13431382186E+04  0.10000000000E+02 0. -1.
</event>
<event>
 5    1  0.1640179E-008  0.3842694E+03  0.7957747E-01  0.3432777E+00
         13   -1    0    0    0    0  0.00000000000E+00  0.00000000000E+00  0.14999999963E+04  0.15000000000E+04  0.10566000000E+00 0.  1.
        994   -1    0    0    0    0 -0.00000000000E+00 -0.00000000000E+00  0.11368683772E-12  0.17120000000E+03  0.17120000000E+03 0.  0.
         13    1    1    2    0    0  0.92413355092E+01  0.14324745401E+02  0.78116690820E+02  0.79955169699E+02  0.10566000000E+00 0.  1.
        994    1    1    2    0    0 -0.16283675524E+02  0.10520220126E+02  0.32332109596E+01  0.17232448106E+03  0.17120000000E+03 0.  0.
        998    1    1    2    0    0  0.70423400152E+01 -0.24844965527E+02  0.14186500945E+04  0.14189203492E+04  0.10000000000E+02 0.  1.
</event>
<event>
 5    1  0.1640179E-008  0.3860133E+03  0.7957747E-01  0.3425386E+00
         13   -1    0    0    0    0  0.00000000000E+00  0.00000000000E+00  0.14999999963E+04  0.15000000000E+04  0.10566000000E+00 0.  1.
        994   -1    0    0    0    0 -0.00000000000E+00 -0.00000000000E+00  0.11368683772E-12  0.17120000000E+03  0.17120000000E+03 0.  0.
         13    1    1    2    0    0  0.92761685508E+01 -0.71082687474E+01  0.61476719671E+02  0.62577735762E+02  0.10566000000E+00 0.  1.
        994    1    1    2    0    0 -0.60662761695E+01  0.41778548091E+01  0.13057272206E+01  0.17136335402E+03  0.17120000000E+03 0.  0.
        998    1    1    2    0    0 -0.32098923814E+01  0.29304139383E+01  0.14372175494E+04  0.14372589102E+04  0.10000000000E+02 0.  1.
</event>
<event>
 5    1  0.1640179E-008  0.3753135E+03  0.7957747E-01  0.3471822E+00
         13   -1    0    0    0    0  0.00000000000E+00  0.00000000000E+00  0.14999999963E+04  0.15000000000E+04  0.10566000000E+00 0. -1.
        994   -1    0    0    0    0 -0.00000000000E+00 -0.00000000000E+00  0.11368683772E-12  0.17120000000E+03  0.17120000000E+03 0.  0.
         13    1    1    2    0    0  0.96148809582E+01 -0.33996594000E+02  0.89483576735E+02  0.96205696343E+02  0.10566000000E+00 0. -1.
        994    1    1    2    0    0 -0.16697962401E+01  0.33260853222E+02  0.10293063305E+02  0.17471250593E+03  0.17120000000E+03 0.  0.
        998    1    1    2    0    0 -0.79450847180E+01  0.73574077845E+00  0.14002233562E+04  0.14002817977E+04  0.10000000000E+02 0. -1.
</event>
<event>
 5    1  0.1640179E-008  0.3779467E+03  0.7957747E-01  0.3460148E+00
         13   -1    0    0    0    0  0.00000000000E+00  0.00000000000E+00  0.14999999963E+04  0.15000000000E+04  0.10566000000E+00 0.  1.
        994   -1    0    0    0    0 -0.00000000000E+00 -0.00000000000E+00  0.11368683772E-12  0.17120000000E+03  0.17120000000E+03 0.  0.
         13    1    1    2    0    0  0.54286937222E+02 -0.18971018684E+03  0.11205478341E+04  0.11377892978E+04  0.10566000000E+00 0.  1.
        994    1    1    2    0    0 -0.28721853292E+02  0.18831707980E+03  0.13903007762E+03  0.29142249378E+03  0.17120000000E+03 0.  0.
        998    1    1    2    0    0 -0.25565083930E+02  0.13931070382E+01  0.24042208460E+03  0.24198820845E+03  0.10000000000E+02 0.  1.
</event>
<event>
 5    1  0.1640179E-008  0.3851360E+03  0.7957747E-01  0.3429096E+00
         13   -1    0    0    0    0  0.00000000000E+00  0.00000000000E+00  0.14999999963E+04  0.15000000000E+04  0.10566000000E+00 0.  1.
        994   -1    0    0    0    0 -0.00000000000E+00 -0.00000000000E+00  0.11368683772E-12  0.17120000000E+03  0.17120000000E+03 0.  0.
         13    1    1    2    0    0 -0.17863945657E+02  0.24093486775E+00  0.96512156999E+02  0.98151852844E+02  0.10566000000E+00 0.  1.
        994    1    1    2    0    0  0.18883439505E+02 -0.59525103067E+00  0.27368515098E+01  0.17226104890E+03  0.17120000000E+03 0.  0.
        998    1    1    2    0    0 -0.10194938484E+01  0.35431616292E+00  0.14007509878E+04  0.14007870983E+04  0.10000000000E+02 0.  1.
</event>
<event>
 5    1  0.1878688E-008  0.3853086E+03  0.7957747E-01  0.3428365E+00
         13   -1    0    0    0    0  0.00000000000E+00  0.00000000000E+00  0.14999999963E+04  0.15000000000E+04  0.10566000000E+00 0.  1.
        994   -1    0    0    0    0 -0.00000000000E+00 -0.00000000000E+00  0.11368683772E-12  0.17120000000E+03  0.17120000000E+03 0.  0.
         13    1    1    2    0    0 -0.24426893237E+01  0.97730701064E+01  0.34203481861E+02  0.35656261244E+02  0.10566000000E+00 0.  1.
        994    1    1    2    0    0  0.28666566502E+01 -0.69563004187E+01  0.16630120122E+01  0.17137331602E+03  0.17120000000E+03 0.  0.
        998    1    1    2    0    0 -0.42396732654E+00 -0.28167696877E+01  0.14641335024E+04  0.14641704227E+04  0.10000000000E+02 0.  0.
</event>
<event>
 5    1  0.1640179E-008  0.3763186E+03  0.7957747E-01  0.3467346E+00
         13   -1    0    0    0    0  0.00000000000E+00  0.00000000000E+00  0.14999999963E+04  0.15000000000E+04  0.10566000000E+00 0.  1.
        994   -1    0    0    0    0 -0.00000000000E+00 -0.00000000000E+00  0.11368683772E-12  0.17120000000E+03  0.17120000000E+03 0.  0.
         13    1    1    2    0    0 -0.81413111189E+01  0.77301969712E+01  0.77965569156E+01  0.13668736435E+02  0.10566000000E+00 0.  1.
        994    1    1    2    0    0 -0.55782835270E+00 -0.10056759420E+02  0.63465381738E+01  0.17161342642E+03  0.17120000000E+03 0.  0.
        998    1    1    2    0    0  0.86991394716E+01  0.23265624484E+01  0.14858569012E+04  0.14859178371E+04  0.10000000000E+02 0.  1.
</event>
<event>
 5    1  0.1640179E-008  0.3740875E+03  0.7957747E-01  0.3477314E+00
         13   -1    0    0    0    0  0.00000000000E+00  0.00000000000E+00  0.14999999963E+04  0.15000000000E+04  0.10566000000E+00 0. -1.
        994   -1    0    0    0    0 -0.00000000000E+00 -0.00000000000E+00  0.11368683772E-12  0.17120000000E+03  0.17120000000E+03 0.  0.
         13    1    1    2    0    0  0.23712496793E+02 -0.67973417738E+02  0.19677589920E+03  0.20953146230E+03  0.10566000000E+00 0. -1.
        994    1    1    2    0    0 -0.16060331720E+02  0.36653520516E+02  0.18818119842E+02  0.17681905004E+03  0.17120000000E+03 0.  0.
        998    1    1    2    0    0 -0.76521650724E+01  0.31319897221E+02  0.12844059772E+04  0.12848494877E+04  0.10000000000E+02 0. -1.
</event>
<event>
 5    1  0.1640179E-008  0.3837399E+03  0.7957747E-01  0.3435034E+00
         13   -1    0    0    0    0  0.00000000000E+00  0.00000000000E+00  0.14999999963E+04  0.15000000000E+04  0.10566000000E+00 0. -1.
        994   -1    0    0    0    0 -0.00000000000E+00 -0.00000000000E+00  0.11368683772E-12  0.17120000000E+03  0.17120000000E+03 0.  0.
         13    1    1    2    0    0 -0.83452221380E+01  0.11252426273E+02  0.44639264138E+02  0.46786054507E+02  0.10566000000E+00 0. -1.
        994    1    1    2    0    0  0.30246276258E+01  0.13884720740E+01  0.22936251442E+01  0.17124770639E+03  0.17120000000E+03 0.  0.
        998    1    1    2    0    0  0.53205945122E+01 -0.12640898347E+02  0.14530671070E+04  0.14531662391E+04  0.10000000000E+02 0. -1.
</event>
<event>
 5    1  0.1640179E-008  0.3852645E+03  0.7957747E-01  0.3428551E+00
         13   -1    0    0    0    0  0.00000000000E+00  0.00000000000E+00  0.14999999963E+04  0.15000000000E+04  0.10566000000E+00 0.  1.
        994   -1    0    0    0    0 -0.00000000000E+00 -0.00000000000E+00  0.11368683772E-12  0.17120000000E+03  0.17120000000E+03 0.  0.
         13    1    1    2    0    0 -0.17330025601E+01 -0.11691103286E+02  0.47650024354E+02  0.49094003492E+02  0.10566000000E+00 0.  1.
        994    1    1    2    0    0  0.22389793726E+02  0.14424614149E+01  0.31546398982E+01  0.17269271933E+03  0.17120000000E+03 0.  0.
        998    1    1    2    0    0 -0.20656791165E+02  0.10248641871E+02  0.14491953320E+04  0.14494132772E+04  0.10000000000E+02 0.  1.
</event>
<event>
 5    1  0.1640179E-008  0.3798447E+03  0.7957747E-01  0.3451835E+00
         13   -1    0    0    0    0  0.00000000000E+00  0.00000000000E+00  0.14999999963E+04  0.15000000000E+04  0.10566000000E+00 0. -1.
        994   -1    0    0    0    0 -0.00000000000E+00 -0.00000000000E+00  0.11368683772E-12  0.17120000000E+03  0.17120000000E+03 0.  0.
         13    1    1    2    0    0 -0.10174806409E+02 -0.79423288532E+01  0.17713607275E+02  0.21917808280E+02  0.10566000000E+00 0. -1.
        994    1    1    2    0    0  0.14482513024E+02  0.62942061065E+01  0.50460065147E+01  0.17200076278E+03  0.17120000000E+03 0.  0.
        998    1    1    2    0    0 -0.43077066149E+01  0.16481227467E+01  0.14772403825E+04  0.14772814289E+04  0.10000000000E+02 0. -1.
</event>
<event>
 5    1  0.1640179E-008  0.3811294E+03  0.7957747E-01  0.3446255E+00
         13   -1    0    0    0    0  0.00000000000E+00  0.00000000000E+00  0.14999999963E+04  0.15000000000E+04  0.10566000000E+00 0.  1.
        994   -1    0    0    0    0 -0.00000000000E+00 -0.00000000000E+00  0.11368683772E-12  0.17120000000E+03  0.17120000000E+03 0.  0.
         13    1    1    2    0    0  0.34661724826E+02 -0.22160525169E+02  0.21717328992E+03  0.22103568278E+03  0.10566000000E+00 0.  1.
        994    1    1    2    0    0 -0.39304811652E+02  0.27204384624E+01  0.87512343616E+01  0.17589284553E+03  0.17120000000E+03 0.  0.
        998    1    1    2    0    0  0.46430868260E+01  0.19440086707E+02  0.12740754720E+04  0.12742714717E+04  0.10000000000E+02 0. -1.
</event>
<event>
 5    1  0.1640179E-008  0.3847661E+03  0.7957747E-01  0.3430665E+00
         13   -1    0    0    0    0  0.00000000000E+00  0.00000000000E+00  0.14999999963E+04  0.15000000000E+04  0.10566000000E+00 0.  1.
        994   -1    0    0    0    0 -0.00000000000E+00 -0.00000000000E+00  0.11368683772E-12  0.17120000000E+03  0.17120000000E+03 0.  0.
         13    1    1    2    0    0 -0.18079473939E+01  0.13813626582E+02  0.60400949025E+02  0.61986859578E+02  0.10566000000E+00 0.  1.
        994    1    1    2    0    0  0.75238328097E+01  0.60027993823E+01  0.20512446647E+01  0.17148262088E+03  0.17120000000E+03 0.  0.
        998    1    1    2    0    0 -0.57158854158E+01 -0.19816425964E+02  0.14375478026E+04  0.14377305195E+04  0.10000000000E+02 0.  1.
</event>
<event>
 5    1  0.1640179E-008  0.3779261E+03  0.7957747E-01  0.3460239E+00
         13   -1    0    0    0    0  0.00000000000E+00  0.00000000000E+00  0.14999999963E+04  0.15000000000E+04  0.10566000000E+00 0.  1.
        994   -1    0    0    0    0 -0.00000000000E+00 -0.00000000000E+00  0.11368683772E-12  0.17120000000E+03  0.17120000000E+03 0.  0.
         13    1    1    2    0    0  0.69117069233E+02 -0.31849208788E+02  0.22146249254E+03  0.23417341465E+03  0.10566000000E+00 0.  1.
        994    1    1    2    0    0  0.78974008695E+00  0.23067922703E+02  0.17110887246E+02  0.17359428334E+03  0.17120000000E+03 0.  0.
        998    1    1    2    0    0 -0.69906809320E+02  0.87812860853E+01  0.12614266165E+04  0.12634323020E+04  0.10000000000E+02 0.  1.
</event>
<event>
 5    1  0.1640179E-008  0.3858509E+03  0.7957747E-01  0.3426071E+00
         13   -1    0    0    0    0  0.00000000000E+00  0.00000000000E+00  0.14999999963E+04  0.15000000000E+04  0.10566000000E+00 0. -1.
        994   -1    0    0    0    0 -0.00000000000E+00 -0.00000000000E+00  0.11368683772E-12  0.17120000000E+03  0.17120000000E+03 0.  0.
         13    1    1    2    0    0 -0.10374411076E+03  0.35649821006E+02  0.35325121181E+03  0.36989211949E+03  0.10566000000E+00 0. -1.
        994    1    1    2    0    0  0.39469901481E+02 -0.11011776607E+01  0.25374393046E+02  0.17751728236E+03  0.17120000000E+03 0.  0.
        998    1    1    2    0    0  0.64274209276E+02 -0.34548643346E+02  0.11213743914E+04  0.11237905981E+04  0.10000000000E+02 0. -1.
</event>
<event>
 5    1  0.1640179E-008  0.3704559E+03  0.7957747E-01  0.3493798E+00
         13   -1    0    0    0    0  0.00000000000E+00  0.00000000000E+00  0.14999999963E+04  0.15000000000E+04  0.10566000000E+00 0.  1.
        994   -1    0    0    0    0 -0.00000000000E+00 -0.00000000000E+00  0.11368683772E-12  0.17120000000E+03  0.17120000000E+03 0.  0.
         13    1    1    2    0    0 -0.11936479934E+03  0.41021879344E+02  0.62273908921E+03  0.63540123883E+03  0.10566000000E+00 0.  1.
        994    1    1    2    0    0  0.10339169575E+03 -0.28404686270E+02  0.49834351748E+02  0.20806146103E+03  0.17120000000E+03 0.  0.
        998    1    1    2    0    0  0.15973103584E+02 -0.12617193074E+02  0.82742655532E+03  0.82773730014E+03  0.10000000000E+02 0.  1.
</event>
<event>
 5    1  0.1640179E-008  0.3825209E+03  0.7957747E-01  0.3440255E+00
         13   -1    0    0    0    0  0.00000000000E+00  0.00000000000E+00  0.14999999963E+04  0.15000000000E+04  0.10566000000E+00 0.  1.
        994   -1    0    0    0    0 -0.00000000000E+00 -0.00000000000E+00  0.11368683772E-12  0.17120000000E+03  0.17120000000E+03 0.  0.
         13    1    1    2    0    0 -0.12906679177E+02  0.18693712817E+01  0.27753199053E+02  0.30664770309E+02  0.10566000000E+00 0.  1.
        994    1    1    2    0    0  0.19075241205E+02  0.46313660953E+01  0.41444669295E+01  0.17237149122E+03  0.17120000000E+03 0.  0.
        998    1    1    2    0    0 -0.61685620271E+01 -0.65007373770E+01  0.14681023303E+04  0.14681637385E+04  0.10000000000E+02 0.  1.
</event>
<event>
 5    1  0.1640179E-008  0.3799596E+03  0.7957747E-01  0.3451334E+00
         13   -1    0    0    0    0  0.00000000000E+00  0.00000000000E+00  0.14999999963E+04  0.15000000000E+04  0.10566000000E+00 0. -1.
        994   -1    0    0    0    0 -0.00000000000E+00 -0.00000000000E+00  0.11368683772E-12  0.17120000000E+03  0.17120000000E+03 0.  0.
         13    1    1    2    0    0  0.67947291601E+00 -0.13273868678E+02  0.19463929325E+02  0.23569322900E+02  0.10566000000E+00 0. -1.
        994    1    1    2    0    0  0.16904608035E+01  0.10707186532E+02  0.45464640305E+01  0.17160306476E+03  0.17120000000E+03 0.  0.
        998    1    1    2    0    0 -0.23699337195E+01  0.25666821467E+01  0.14759896029E+04  0.14760276123E+04  0.10000000000E+02 0. -1.
</event>
<event>
 5    1  0.1640179E-008  0.3833238E+03  0.7957747E-01  0.3436812E+00
         13   -1    0    0    0    0  0.00000000000E+00  0.00000000000E+00  0.14999999963E+04  0.15000000000E+04  0.10566000000E+00 0.  1.
        994   -1    0    0    0    0 -0.00000000000E+00 -0.00000000000E+00  0.11368683772E-12  0.17120000000E+03  0.17120000000E+03 0.  0.
         13    1    1    2    0    0 -0.20077472148E+02  0.91728388952E+01  0.98462358828E+02  0.10090635823E+03  0.10566000000E+00 0.  1.
        994    1    1    2    0    0  0.13700067943E+02 -0.21312458038E+01  0.31005139997E+01  0.17178849571E+03  0.17120000000E+03 0.  0.
        998    1    1    2    0    0  0.63774042053E+01 -0.70415930914E+01  0.13984371235E+04  0.13985051461E+04  0.10000000000E+02 0.  1.
</event>
<event>
 5    1  0.1640179E-008  0.3860036E+03  0.7957747E-01  0.3425427E+00
         13   -1    0    0    0    0  0.00000000000E+00  0.00000000000E+00  0.14999999963E+04  0.15000000000E+04  0.10566000000E+00 0. -1.
        994   -1    0    0    0    0 -0.00000000000E+00 -0.00000000000E+00  0.11368683772E-12  0.17120000000E+03  0.17120000000E+03 0.  0.
         13    1    1    2    0    0  0.76428690107E+01 -0.73617988010E+01  0.53252247992E+02  0.54299379449E+02  0.10566000000E+00 0. -1.
        994    1    1    2    0    0 -0.57514031077E+01 -0.74204947074E+01  0.14216753448E+01  0.17146312589E+03  0.17120000000E+03 0.  0.
        998    1    1    2    0    0 -0.18914659030E+01  0.14782293508E+02  0.14453260729E+04  0.14454374947E+04  0.10000000000E+02 0. -1.
</event>
<event>
 5    1  0.1640179E-008  0.3819199E+03  0.7957747E-01  0.3442841E+00
         13   -1    0    0    0    0  0.00000000000E+00  0.00000000000E+00  0.14999999963E+04  0.15000000000E+04  0.10566000000E+00 0. -1.
        994   -1    0    0    0    0 -0.00000000000E+00 -0.00000000000E+00  0.11368683772E-12  0.17120000000E+03  0.17120000000E+03 0.  0.
         13    1    1    2    0    0 -0.13611613152E+02 -0.29399155141E+02  0.19057015563E+03  0.19330437584E+03  0.10566000000E+00 0. -1.
        994    1    1    2    0    0 -0.10550568769E+02  0.68041085517E+01  0.36908490983E+01  0.17169936739E+03  0.17120000000E+03 0.  0.
        998    1    1    2    0    0  0.24162181920E+02  0.22595046589E+02  0.13057389915E+04  0.13061962568E+04  0.10000000000E+02 0. -1.
</event>
<event>
 5    1  0.1640179E-008  0.3861487E+03  0.7957747E-01  0.3424815E+00
         13   -1    0    0    0    0  0.00000000000E+00  0.00000000000E+00  0.14999999963E+04  0.15000000000E+04  0.10566000000E+00 0. -1.
        994   -1    0    0    0    0 -0.00000000000E+00 -0.00000000000E+00  0.11368683772E-12  0.17120000000E+03  0.17120000000E+03 0.  0.
         13    1    1    2    0    0  0.78450536282E+01  0.79693683608E+01  0.64700350542E+02  0.65659745833E+02  0.10566000000E+00 0. -1.
        994    1    1    2    0    0  0.58484238180E+01 -0.22933612160E+01  0.11902114524E+01  0.17131935142E+03  0.17120000000E+03 0.  0.
        998    1    1    2    0    0 -0.13693477446E+02 -0.56760071448E+01  0.14341094343E+04  0.14342209027E+04  0.10000000000E+02 0. -1.
</event>
<event>
 5    1  0.1640179E-008  0.3685785E+03  0.7957747E-01  0.3502450E+00
         13   -1    0    0    0    0  0.00000000000E+00  0.00000000000E+00  0.14999999963E+04  0.15000000000E+04  0.10566000000E+00 0.  1.
        994   -1    0    0    0    0 -0.00000000000E+00 -0.00000000000E+00  0.11368683772E-12  0.17120000000E+03  0.17120000000E+03 0.  0.
         13    1    1    2    0    0 -0.13727986187E+03 -0.27295915396E+03  0.10174565333E+04  0.10623418793E+04  0.10566000000E+00 0.  1.
        994    1    1    2    0    0  0.15285491322E+03  0.23735241925E+03  0.41530793156E+03  0.53055717264E+03  0.17120000000E+03 0.  0.
        998    1    1    2    0    0 -0.15575051354E+02  0.35606734717E+02  0.67235531406E+02  0.78300948048E+02  0.10000000000E+02 0.  1.
</event>
<event>
 5    1  0.1640179E-008  0.3797689E+03  0.7957747E-01  0.3452166E+00
         13   -1    0    0    0    0  0.00000000000E+00  0.00000000000E+00  0.14999999963E+04  0.15000000000E+04  0.10566000000E+00 0.  1.
        994   -1    0    0    0    0 -0.00000000000E+00 -0.00000000000E+00  0.11368683772E-12  0.17120000000E+03  0.17120000000E+03 0.  0.
         13    1    1    2    0    0 -0.11198439108E+02  0.54073451453E+01  0.16902000451E+02  0.20984117882E+02  0.10566000000E+00 0.  1.
        994    1    1    2    0    0 -0.50967329030E+01 -0.26035301021E+01  0.43594640472E+01  0.17135110149E+03  0.17120000000E+03 0.  0.
        998    1    1    2    0    0  0.16295172011E+02 -0.28038150432E+01  0.14787385318E+04  0.14788647806E+04  0.10000000000E+02 0.  1.
</event>
<event>
 5    1  0.1640179E-008  0.3859434E+03  0.7957747E-01  0.3425681E+00
         13   -1    0    0    0    0  0.00000000000E+00  0.00000000000E+00  0.14999999963E+04  0.15000000000E+04  0.10566000000E+00 0. -1.
        994   -1    0    0    0    0 -0.00000000000E+00 -0.00000000000E+00  0.11368683772E-12  0.17120000000E+03  0.17120000000E+03 0.  0.
         13    1    1    2    0    0 -0.11147105152E+02  0.17055154784E+01  0.55540888994E+02  0.56674229158E+02  0.10566000000E+00 0. -1.
        994    1    1    2    0    0  0.73887149757E+01  0.24901328903E+01  0.13618478574E+01  0.17138287108E+03  0.17120000000E+03 0.  0.
        998    1    1    2    0    0  0.37583901766E+01 -0.41956483687E+01  0.14430972594E+04  0.14431428998E+04  0.10000000000E+02 0. -1.
</event>
<event>
 5    1  0.1640179E-008  0.3855756E+03  0.7957747E-01  0.3427235E+00
         13   -1    0    0    0    0  0.00000000000E+00  0.00000000000E+00  0.14999999963E+04  0.15000000000E+04  0.10566000000E+00 0.  1.
        994   -1    0    0    0    0 -0.00000000000E+00 -0.00000000000E+00  0.11368683772E-12  0.17120000000E+03  0.17120000000E+03 0.  0.
         13    1    1    2    0    0 -0.47922818625E+01  0.10473540848E+02  0.55977415705E+02  0.57150181595E+02  0.10566000000E+00 0.  1.
        994    1    1    2    0    0 -0.81619611908E+01  0.79160316116E+01  0.17691092210E+01  0.17158627834E+03  0.17120000000E+03 0.  0.
        998    1    1    2    0    0  0.12954243053E+02 -0.18389572460E+02  0.14422534714E+04  0.14424635401E+04  0.10000000000E+02 0.  1.
</event>
<event>
 5    1  0.1640179E-008  0.2968959E+03  0.7957747E-01  0.3918431E+00
         13   -1    0    0    0    0  0.00000000000E+00  0.00000000000E+00  0.14999999963E+04  0.15000000000E+04  0.10566000000E+00 0. -1.
        994   -1    0    0    0    0 -0.00000000000E+00 -0.00000000000E+00  0.11368683772E-12  0.17120000000E+03  0.17120000000E+03 0.  0.
         13    1    1    2    0    0 -0.10182630910E+03  0.12875491671E+03  0.70673779481E+03  0.72555134041E+03  0.10566000000E+00 0. -1.
        994    1    1    2    0    0  0.87798779135E+02 -0.85974177897E+02  0.71678323906E+02  0.22259246843E+03  0.17120000000E+03 0.  0.
        998    1    1    2    0    0  0.14027529969E+02 -0.42780738815E+02  0.72158387756E+03  0.72305619116E+03  0.10000000000E+02 0. -1.
</event>
<event>
 5    1  0.1640179E-008  0.3688493E+03  0.7957747E-01  0.3501196E+00
         13   -1    0    0    0    0  0.00000000000E+00  0.00000000000E+00  0.14999999963E+04  0.15000000000E+04  0.10566000000E+00 0.  1.
        994   -1    0    0    0    0 -0.00000000000E+00 -0.00000000000E+00  0.11368683772E-12  0.17120000000E+03  0.17120000000E+03 0.  0.
         13    1    1    2    0    0 -0.31966309537E+02  0.35659333137E+02  0.10712468794E+03  0.11734199127E+03  0.10566000000E+00 0.  1.
        994    1    1    2    0    0  0.55079322721E+01 -0.36505297626E+02  0.15092376627E+02  0.17578450985E+03  0.17120000000E+03 0.  0.
        998    1    1    2    0    0  0.26458377265E+02  0.84596448948E+00  0.13777829317E+04  0.13780734989E+04  0.10000000000E+02 0.  1.
</event>
<event>
 5    1  0.1640179E-008  0.3854551E+03  0.7957747E-01  0.3427744E+00
         13   -1    0    0    0    0  0.00000000000E+00  0.00000000000E+00  0.14999999963E+04  0.15000000000E+04  0.10566000000E+00 0.  1.
        994   -1    0    0    0    0 -0.00000000000E+00 -0.00000000000E+00  0.11368683772E-12  0.17120000000E+03  0.17120000000E+03 0.  0.
         13    1    1    2    0    0 -0.15955675171E+01 -0.10812392464E+02  0.44374239482E+02  0.45700524725E+02  0.10566000000E+00 0.  1.
        994    1    1    2    0    0 -0.34903131589E+01  0.94789788202E+00  0.14473304870E+01  0.17124431541E+03  0.17120000000E+03 0.  0.
        998    1    1    2    0    0  0.50858806760E+01  0.98644945822E+01  0.14541784263E+04  0.14542551599E+04  0.10000000000E+02 0.  1.
</event>
<event>
 5    1  0.1640179E-008  0.3842997E+03  0.7957747E-01  0.3432648E+00
         13   -1    0    0    0    0  0.00000000000E+00  0.00000000000E+00  0.14999999963E+04  0.15000000000E+04  0.10566000000E+00 0.  1.
        994   -1    0    0    0    0 -0.00000000000E+00 -0.00000000000E+00  0.11368683772E-12  0.17120000000E+03  0.17120000000E+03 0.  0.
         13    1    1    2    0    0  0.85380741542E+01  0.69973595779E+01  0.29785187968E+02  0.31765237881E+02  0.10566000000E+00 0.  1.
        994    1    1    2    0    0 -0.32298854156E+01 -0.14826233776E+02  0.27375424963E+01  0.17189294199E+03  0.17120000000E+03 0.  0.
        998    1    1    2    0    0 -0.53081887385E+01  0.78288741979E+01  0.14674772658E+04  0.14675418201E+04  0.10000000000E+02 0.  1.
</event>
<event>
 5    1  0.1640179E-008  0.3699132E+03  0.7957747E-01  0.3496290E+00
         13   -1    0    0    0    0  0.00000000000E+00  0.00000000000E+00  0.14999999963E+04  0.15000000000E+04  0.10566000000E+00 0. -1.
        994   -1    0    0    0    0 -0.00000000000E+00 -0.00000000000E+00  0.11368683772E-12  0.17120000000E+03  0.17120000000E+03 0.  0.
         13    1    1    2    0    0  0.27397950724E+02  0.23637855089E+02  0.65529370074E+02  0.74856565533E+02  0.10566000000E+00 0. -1.
        994    1    1    2    0    0 -0.27195248379E+02 -0.14092751752E+02  0.12566243744E+02  0.17437183737E+03  0.17120000000E+03 0.  0.
        998    1    1    2    0    0 -0.20270234455E+00 -0.95451033372E+01  0.14219043825E+04  0.14219715971E+04  0.10000000000E+02 0. -1.
</event>
<event>
 5    1  0.1640179E-008  0.3848286E+03  0.7957747E-01  0.3430399E+00
         13   -1    0    0    0    0  0.00000000000E+00  0.00000000000E+00  0.14999999963E+04  0.15000000000E+04  0.10566000000E+00 0.  1.
        994   -1    0    0    0    0 -0.00000000000E+00 -0.00000000000E+00  0.11368683772E-12  0.17120000000E+03  0.17120000000E+03 0.  0.
         13    1    1    2    0    0 -0.52271070922E+01 -0.15264569085E+02  0.90314097963E+02  0.91744085219E+02  0.10566000000E+00 0.  1.
        994    1    1    2    0    0  0.13017644327E+02 -0.17368074595E+02  0.32669649289E+01  0.17260133875E+03  0.17120000000E+03 0.  0.
        998    1    1    2    0    0 -0.77905372352E+01  0.32632643680E+02  0.14064189334E+04  0.14068545760E+04  0.10000000000E+02 0.  1.
</event>
<event>
 5    1  0.1640179E-008  0.3850553E+03  0.7957747E-01  0.3429438E+00
         13   -1    0    0    0    0  0.00000000000E+00  0.00000000000E+00  0.14999999963E+04  0.15000000000E+04  0.10566000000E+00 0. -1.
        994   -1    0    0    0    0 -0.00000000000E+00 -0.00000000000E+00  0.11368683772E-12  0.17120000000E+03  0.17120000000E+03 0.  0.
         13    1    1    2    0    0 -0.14533905457E+02 -0.38117066594E+01  0.69162151374E+02  0.70775545651E+02  0.10566000000E+00 0. -1.
        994    1    1    2    0    0  0.11663815539E+02  0.59189924903E+01  0.21653983887E+01  0.17171257384E+03  0.17120000000E+03 0.  0.
        998    1    1    2    0    0  0.28700899179E+01 -0.21072858310E+01  0.14286724465E+04  0.14287118805E+04  0.10000000000E+02 0. -1.
</event>
<event>
 5    1  0.1640179E-008  0.3828709E+03  0.7957747E-01  0.3438752E+00
         13   -1    0    0    0    0  0.00000000000E+00  0.00000000000E+00  0.14999999963E+04  0.15000000000E+04  0.10566000000E+00 0. -1.
        994   -1    0    0    0    0 -0.00000000000E+00 -0.00000000000E+00  0.11368683772E-12  0.17120000000E+03  0.17120000000E+03 0.  0.
         13    1    1    2    0    0 -0.13326064409E+02 -0.17916392698E+02  0.98841365719E+02  0.10133216597E+03  0.10566000000E+00 0. -1.
        994    1    1    2    0    0  0.63977281786E+01 -0.19561492633E+01  0.28391046321E+01  0.17135418863E+03  0.17120000000E+03 0.  0.
        998    1    1    2    0    0  0.69283362304E+01  0.19872541961E+02  0.13983195259E+04  0.13985136454E+04  0.10000000000E+02 0. -1.
</event>
<event>
 5    1  0.1640179E-008  0.3818874E+03  0.7957747E-01  0.3442981E+00
         13   -1    0    0    0    0  0.00000000000E+00  0.00000000000E+00  0.14999999963E+04  0.15000000000E+04  0.10566000000E+00 0. -1.
        994   -1    0    0    0    0 -0.00000000000E+00 -0.00000000000E+00  0.11368683772E-12  0.17120000000E+03  0.17120000000E+03 0.  0.
         13    1    1    2    0    0  0.15776512510E+01  0.38965210189E+02  0.36310623019E+02  0.53284604687E+02  0.10566000000E+00 0. -1.
        994    1    1    2    0    0 -0.50257276204E+01 -0.37062136611E+02  0.22489057587E+02  0.17667500564E+03  0.17120000000E+03 0.  0.
        998    1    1    2    0    0  0.34480763693E+01 -0.19030735774E+01  0.14412003157E+04  0.14412403897E+04  0.10000000000E+02 0. -1.
</event>
<event>
 5    1  0.1640179E-008  0.3815447E+03  0.7957747E-01  0.3444460E+00
         13   -1    0    0    0    0  0.00000000000E+00  0.00000000000E+00  0.14999999963E+04  0.15000000000E+04  0.10566000000E+00 0.  1.
        994   -1    0    0    0    0 -0.00000000000E+00 -0.00000000000E+00  0.11368683772E-12  0.17120000000E+03  0.17120000000E+03 0.  0.
         13    1    1    2    0    0 -0.21665727772E+01  0.18606474061E+02  0.49484891709E+02  0.52911818964E+02  0.10566000000E+00 0.  1.
        994    1    1    2    0    0 -0.21894599491E+02 -0.23147473845E+02  0.67391785933E+01  0.17427000763E+03  0.17120000000E+03 0.  0.
        998    1    1    2    0    0  0.24061172268E+02  0.45409997837E+01  0.14437759260E+04  0.14440181734E+04  0.10000000000E+02 0.  1.
</event>
<event>
 5    1  0.1640179E-008  0.3781559E+03  0.7957747E-01  0.3459228E+00
         13   -1    0    0    0    0  0.00000000000E+00  0.00000000000E+00  0.14999999963E+04  0.15000000000E+04  0.10566000000E+00 0.  1.
        994   -1    0    0    0    0 -0.00000000000E+00 -0.00000000000E+00  0.11368683772E-12  0.17120000000E+03  0.17120000000E+03 0.  0.
         13    1    1    2    0    0  0.38262068292E+02  0.36617800686E+02  0.22622806680E+03  0.23234456862E+03  0.10566000000E+00 0.  1.
        994    1    1    2    0    0 -0.39806815356E+02 -0.42574896989E+02  0.16579491102E+02  0.18160816041E+03  0.17120000000E+03 0.  0.
        998    1    1    2    0    0  0.15447470648E+01  0.59570963031E+01  0.12571924384E+04  0.12572472710E+04  0.10000000000E+02 0.  1.
</event>
<event>
 5    1  0.1640179E-008  0.3840501E+03  0.7957747E-01  0.3433711E+00
         13   -1    0    0    0    0  0.00000000000E+00  0.00000000000E+00  0.14999999963E+04  0.15000000000E+04  0.10566000000E+00 0.  1.
        994   -1    0    0    0    0 -0.00000000000E+00 -0.00000000000E+00  0.11368683772E-12  0.17120000000E+03  0.17120000000E+03 0.  0.
         13    1    1    2    0    0  0.10255046802E+02 -0.10783189927E+02  0.50566724719E+02  0.52710985409E+02  0.10566000000E+00 0.  1.
        994    1    1    2    0    0 -0.17183449779E+02  0.62370200705E+01  0.32056106489E+01  0.17220304093E+03  0.17120000000E+03 0.  0.
        998    1    1    2    0    0  0.69284029766E+01  0.45461698564E+01  0.14462276609E+04  0.14462859737E+04  0.10000000000E+02 0.  1.
</event>
<event>
 5    1  0.1640179E-008  0.3812579E+03  0.7957747E-01  0.3445700E+00
         13   -1    0    0    0    0  0.00000000000E+00  0.00000000000E+00  0.14999999963E+04  0.15000000000E+04  0.10566000000E+00 0. -1.
        994   -1    0    0    0    0 -0.00000000000E+00 -0.00000000000E+00  0.11368683772E-12  0.17120000000E+03  0.17120000000E+03 0.  0.
         13    1    1    2    0    0  0.31399547098E+02  0.75017524278E+01  0.15119153261E+03  0.15459980124E+03  0.10566000000E+00 0. -1.
        994    1    1    2    0    0 -0.22818734109E+02  0.23424298738E+02  0.70678009605E+01  0.17443848832E+03  0.17120000000E+03 0.  0.
        998    1    1    2    0    0 -0.85808129893E+01 -0.30926051166E+02  0.13417406627E+04  0.13421617104E+04  0.10000000000E+02 0. -1.
</event>
<event>
 5    1  0.1640179E-008  0.3834311E+03  0.7957747E-01  0.3436353E+00
         13   -1    0    0    0    0  0.00000000000E+00  0.00000000000E+00  0.14999999963E+04  0.15000000000E+04  0.10566000000E+00 0. -1.
        994   -1    0    0    0    0 -0.00000000000E+00 -0.00000000000E+00  0.11368683772E-12  0.17120000000E+03  0.17120000000E+03 0.  0.
         13    1    1    2    0    0 -0.11269959322E+02 -0.14550245658E+02  0.67287146257E+02  0.69758819137E+02  0.10566000000E+00 0. -1.
        994    1    1    2    0    0  0.63428837706E+01  0.18182082678E+02  0.36377661202E+01  0.17231800152E+03  0.17120000000E+03 0.  0.
        998    1    1    2    0    0  0.49270755514E+01 -0.36318370205E+01  0.14290750839E+04  0.14291231793E+04  0.10000000000E+02 0. -1.
</event>
<event>
 5    1  0.1640179E-008  0.3854713E+03  0.7957747E-01  0.3427676E+00
         13   -1    0    0    0    0  0.00000000000E+00  0.00000000000E+00  0.14999999963E+04  0.15000000000E+04  0.10566000000E+00 0.  1.
        994   -1    0    0    0    0 -0.00000000000E+00 -0.00000000000E+00  0.11368683772E-12  0.17120000000E+03  0.17120000000E+03 0.  0.
         13    1    1    2    0    0 -0.57870695567E+01 -0.11209749274E+02  0.56417780928E+02  0.57811121955E+02  0.10566000000E+00 0.  1.
        994    1    1    2    0    0 -0.21456322434E+01  0.13252581684E+02  0.19883838673E+01  0.17173709072E+03  0.17120000000E+03 0.  0.
        998    1    1    2    0    0  0.79327018001E+01 -0.20428324099E+01  0.14415938315E+04  0.14416517873E+04  0.10000000000E+02 0.  1.
</event>
<event>
 5    1  0.1640179E-008  0.2616268E+03  0.7957747E-01  0.4214835E+00
         13   -1    0    0    0    0  0.00000000000E+00  0.00000000000E+00  0.14999999963E+04  0.15000000000E+04  0.10566000000E+00 0.  1.
        994   -1    0    0    0    0 -0.00000000000E+00 -0.00000000000E+00  0.11368683772E-12  0.17120000000E+03  0.17120000000E+03 0.  0.
         13    1    1    2    0    0  0.15834725433E+03 -0.19567085861E+01  0.50724238906E+03  0.53138736726E+03  0.10566000000E+00 0.  1.
        994    1    1    2    0    0 -0.83362707892E+02 -0.19331629701E+02  0.55520084352E+02  0.19928615792E+03  0.17120000000E+03 0.  0.
        998    1    1    2    0    0 -0.74984546443E+02  0.21288338287E+02  0.93723752287E+03  0.94052647481E+03  0.10000000000E+02 0.  1.
</event>
<event>
 5    1  0.1640179E-008  0.3818000E+03  0.7957747E-01  0.3443358E+00
         13   -1    0    0    0    0  0.00000000000E+00  0.00000000000E+00  0.14999999963E+04  0.15000000000E+04  0.10566000000E+00 0.  1.
        994   -1    0    0    0    0 -0.00000000000E+00 -0.00000000000E+00  0.11368683772E-12  0.17120000000E+03  0.17120000000E+03 0.  0.
         13    1    1    2    0    0 -0.29800893915E+02  0.99600686317E+01  0.14162477718E+03  0.14506855249E+03  0.10566000000E+00 0.  1.
        994    1    1    2    0    0  0.31826359421E+02  0.31448578213E+01  0.66336435079E+01  0.17428784384E+03  0.17120000000E+03 0.  0.
        998    1    1    2    0    0 -0.20254655064E+01 -0.13104926453E+02  0.13517415756E+04  0.13518436037E+04  0.10000000000E+02 0.  1.
</event>
<event>
 5    1  0.2876217E-008  0.3857863E+03  0.7957747E-01  0.3426344E+00
         13   -1    0    0    0    0  0.00000000000E+00  0.00000000000E+00  0.14999999963E+04  0.15000000000E+04  0.10566000000E+00 0.  1.
        994   -1    0    0    0    0 -0.00000000000E+00 -0.00000000000E+00  0.11368683772E-12  0.17120000000E+03  0.17120000000E+03 0.  0.
         13    1    1    2    0    0  0.59727320260E+01  0.97193451994E+01  0.51188063105E+02  0.52443952630E+02  0.10566000000E+00 0.  1.
        994    1    1    2    0    0 -0.63656185477E+01 -0.11149848717E+02  0.17811898819E+01  0.17168999057E+03  0.17120000000E+03 0.  0.
        998    1    1    2    0    0  0.39288652172E+00  0.14305035179E+01  0.14470307433E+04  0.14470660568E+04  0.10000000000E+02 0.  1.
</event>
<event>
 5    1  0.1640179E-008  0.3845443E+03  0.7957747E-01  0.3431607E+00
         13   -1    0    0    0    0  0.00000000000E+00  0.00000000000E+00  0.14999999963E+04  0.15000000000E+04  0.10566000000E+00 0. -1.
        994   -1    0    0    0    0 -0.00000000000E+00 -0.00000000000E+00  0.11368683772E-12  0.17120000000E+03  0.17120000000E+03 0.  0.
         13    1    1    2    0    0 -0.11154998800E+02  0.83667495302E+00  0.35244298791E+02  0.36977098109E+02  0.10566000000E+00 0. -1.
        994    1    1    2    0    0 -0.47181951292E+01  0.11614016300E+01  0.19343203191E+01  0.17127986401E+03  0.17120000000E+03 0.  0.
        998    1    1    2    0    0  0.15873193929E+02 -0.19980765831E+01  0.14628213772E+04  0.14629430379E+04  0.10000000000E+02 0. -1.
</event>
<event>
 5    1  0.1640179E-008  0.3696940E+03  0.7957747E-01  0.3497299E+00
         13   -1    0    0    0    0  0.00000000000E+00  0.00000000000E+00  0.14999999963E+04  0.15000000000E+04  0.10566000000E+00 0. -1.
        994   -1    0    0    0    0 -0.00000000000E+00 -0.00000000000E+00  0.11368683772E-12  0.17120000000E+03  0.17120000000E+03 0.  0.
         13    1    1    2    0    0 -0.43469524068E+00  0.25200422241E+02  0.24905138088E+02  0.35433420782E+02  0.10566000000E+00 0. -1.
        994    1    1    2    0    0  0.40215700223E+01 -0.19376458192E+02  0.12145867810E+02  0.17276742246E+03  0.17120000000E+03 0.  0.
        998    1    1    2    0    0 -0.35868747816E+01 -0.58239640487E+01  0.14629489904E+04  0.14629991568E+04  0.10000000000E+02 0. -1.
</event>
<event>
 5    1  0.1640179E-008  0.3853779E+03  0.7957747E-01  0.3428071E+00
         13   -1    0    0    0    0  0.00000000000E+00  0.00000000000E+00  0.14999999963E+04  0.15000000000E+04  0.10566000000E+00 0. -1.
        994   -1    0    0    0    0 -0.00000000000E+00 -0.00000000000E+00  0.11368683772E-12  0.17120000000E+03  0.17120000000E+03 0.  0.
         13    1    1    2    0    0  0.70530480828E+01  0.10226946556E+02  0.55154776307E+02  0.56536682221E+02  0.10566000000E+00 0. -1.
        994    1    1    2    0    0 -0.15863907890E-01 -0.47411382498E+01  0.15164750607E+01  0.17127235136E+03  0.17120000000E+03 0.  0.
        998    1    1    2    0    0 -0.70371841749E+01 -0.54858083059E+01  0.14433287449E+04  0.14433909664E+04  0.10000000000E+02 0. -1.
</event>
<event>
 5    1  0.1640179E-008  0.3822884E+03  0.7957747E-01  0.3441255E+00
         13   -1    0    0    0    0  0.00000000000E+00  0.00000000000E+00  0.14999999963E+04  0.15000000000E+04  0.10566000000E+00 0. -1.
        994   -1    0    0    0    0 -0.00000000000E+00 -0.00000000000E+00  0.11368683772E-12  0.17120000000E+03  0.17120000000E+03 0.  0.
         13    1    1    2    0    0  0.21179122029E+02  0.14443998018E+02  0.12840092445E+03  0.13093507113E+03  0.10566000000E+00 0. -1.
        994    1    1    2    0    0  0.16557432742E+02 -0.11483077143E+02  0.43306544456E+01  0.17243608731E+03  0.17120000000E+03 0.  0.
        998    1    1    2    0    0 -0.37736554771E+02 -0.29609208747E+01  0.13672684174E+04  0.13678288416E+04  0.10000000000E+02 0. -1.
</event>
<event>
 5    1  0.1640179E-008  0.3823532E+03  0.7957747E-01  0.3440976E+00
         13   -1    0    0    0    0  0.00000000000E+00  0.00000000000E+00  0.14999999963E+04  0.15000000000E+04  0.10566000000E+00 0.  1.
        994   -1    0    0    0    0 -0.00000000000E+00 -0.00000000000E+00  0.11368683772E-12  0.17120000000E+03  0.17120000000E+03 0.  0.
         13    1    1    2    0    0 -0.86152871953E+01 -0.23496622718E+02  0.10980101924E+03  0.11261700334E+03  0.10566000000E+00 0.  1.
        994    1    1    2    0    0  0.93253512390E+01  0.57757679345E+01  0.33491598277E+01  0.17158373624E+03  0.17120000000E+03 0.  0.
        998    1    1    2    0    0 -0.71006404370E+00  0.17720854784E+02  0.13868498172E+04  0.13869992604E+04  0.10000000000E+02 0.  1.
</event>
<event>
 5    1  0.1640179E-008  0.3818738E+03  0.7957747E-01  0.3443040E+00
         13   -1    0    0    0    0  0.00000000000E+00  0.00000000000E+00  0.14999999963E+04  0.15000000000E+04  0.10566000000E+00 0. -1.
        994   -1    0    0    0    0 -0.00000000000E+00 -0.00000000000E+00  0.11368683772E-12  0.17120000000E+03  0.17120000000E+03 0.  0.
         13    1    1    2    0    0  0.78810643589E+00  0.10537350023E+02  0.16118927697E+02  0.19274020115E+02  0.10566000000E+00 0. -1.
        994    1    1    2    0    0 -0.13174782294E+01 -0.91505771447E+01  0.34742393750E+01  0.17148463240E+03  0.17120000000E+03 0.  0.
        998    1    1    2    0    0  0.52937179350E+00 -0.13867728784E+01  0.14804068292E+04  0.14804413475E+04  0.10000000000E+02 0. -1.
</event>
<event>
 5    1  0.1640179E-008  0.3862729E+03  0.7957747E-01  0.3424291E+00
         13   -1    0    0    0    0  0.00000000000E+00  0.00000000000E+00  0.14999999963E+04  0.15000000000E+04  0.10566000000E+00 0.  1.
        994   -1    0    0    0    0 -0.00000000000E+00 -0.00000000000E+00  0.11368683772E-12  0.17120000000E+03  0.17120000000E+03 0.  0.
         13    1    1    2    0    0  0.22074303509E+02  0.41766258216E+01  0.39206036334E+01  0.22805731200E+02  0.10566000000E+00 0.  1.
        994    1    1    2    0    0 -0.24757135344E+02 -0.65569473191E+01  0.22252896406E+02  0.17452948378E+03  0.17120000000E+03 0.  0.
        998    1    1    2    0    0  0.26828318348E+01  0.23803214975E+01  0.14738264962E+04  0.14738647850E+04  0.10000000000E+02 0.  1.
</event>
<event>
 5    1  0.1640179E-008  0.3790654E+03  0.7957747E-01  0.3455238E+00
         13   -1    0    0    0    0  0.00000000000E+00  0.00000000000E+00  0.14999999963E+04  0.15000000000E+04  0.10566000000E+00 0. -1.
        994   -1    0    0    0    0 -0.00000000000E+00 -0.00000000000E+00  0.11368683772E-12  0.17120000000E+03  0.17120000000E+03 0.  0.
         13    1    1    2    0    0 -0.12820008979E+02  0.18034710064E+02  0.51467178362E+02  0.56022183195E+02  0.10566000000E+00 0. -1.
        994    1    1    2    0    0  0.15490961634E+02 -0.63001536810E+01  0.55439816989E+01  0.17210414743E+03  0.17120000000E+03 0.  0.
        998    1    1    2    0    0 -0.26709526549E+01 -0.11734556383E+02  0.14429888362E+04  0.14430736694E+04  0.10000000000E+02 0. -1.
</event>
<event>
 5    1  0.1640179E-008  0.3837393E+03  0.7957747E-01  0.3435037E+00
         13   -1    0    0    0    0  0.00000000000E+00  0.00000000000E+00  0.14999999963E+04  0.15000000000E+04  0.10566000000E+00 0.  1.
        994   -1    0    0    0    0 -0.00000000000E+00 -0.00000000000E+00  0.11368683772E-12  0.17120000000E+03  0.17120000000E+03 0.  0.
         13    1    1    2    0    0 -0.78401150492E+01 -0.15370716209E+02  0.67754046900E+02  0.69916724438E+02  0.10566000000E+00 0.  1.
        994    1    1    2    0    0  0.78398745577E+01  0.15840604184E+01  0.24686224575E+01  0.17140451271E+03  0.17120000000E+03 0.  0.
        998    1    1    2    0    0  0.24049152420E-03  0.13786655790E+02  0.14297773269E+04  0.14298787629E+04  0.10000000000E+02 0.  1.
</event>
<event>
 5    1  0.1640179E-008  0.3832632E+03  0.7957747E-01  0.3437072E+00
         13   -1    0    0    0    0  0.00000000000E+00  0.00000000000E+00  0.14999999963E+04  0.15000000000E+04  0.10566000000E+00 0. -1.
        994   -1    0    0    0    0 -0.00000000000E+00 -0.00000000000E+00  0.11368683772E-12  0.17120000000E+03  0.17120000000E+03 0.  0.
         13    1    1    2    0    0  0.12981380098E+02  0.10474293363E+02  0.59064756963E+02  0.61374943827E+02  0.10566000000E+00 0. -1.
        994    1    1    2    0    0  0.32371163385E+01  0.78696167163E+00  0.25315734430E+01  0.17125112290E+03  0.17120000000E+03 0.  0.
        998    1    1    2    0    0 -0.16218496436E+02 -0.11261255034E+02  0.14384036659E+04  0.14385739333E+04  0.10000000000E+02 0. -1.
</event>
<event>
 5    1  0.1640179E-008  0.3838569E+03  0.7957747E-01  0.3434535E+00
         13   -1    0    0    0    0  0.00000000000E+00  0.00000000000E+00  0.14999999963E+04  0.15000000000E+04  0.10566000000E+00 0. -1.
        994   -1    0    0    0    0 -0.00000000000E+00 -0.00000000000E+00  0.11368683772E-12  0.17120000000E+03  0.17120000000E+03 0.  0.
         13    1    1    2    0    0 -0.94503893350E+01  0.70162479539E+01  0.31437617287E+02  0.33568922214E+02  0.10566000000E+00 0. -1.
        994    1    1    2    0    0  0.25895779509E+01 -0.23781744864E+01  0.22395282465E+01  0.17125074340E+03  0.17120000000E+03 0.  0.
        998    1    1    2    0    0  0.68608113841E+01 -0.46380734675E+01  0.14663228507E+04  0.14663803344E+04  0.10000000000E+02 0. -1.
</event>
<event>
 5    1  0.1640179E-008  0.3724816E+03  0.7957747E-01  0.3484563E+00
         13   -1    0    0    0    0  0.00000000000E+00  0.00000000000E+00  0.14999999963E+04  0.15000000000E+04  0.10566000000E+00 0.  1.
        994   -1    0    0    0    0 -0.00000000000E+00 -0.00000000000E+00  0.11368683772E-12  0.17120000000E+03  0.17120000000E+03 0.  0.
         13    1    1    2    0    0 -0.54193940071E+02  0.12457920935E+02  0.17222113149E+03  0.18097599904E+03  0.10566000000E+00 0.  1.
        994    1    1    2    0    0  0.51031650979E+02 -0.15835826843E+02  0.17829793822E+02  0.18022858919E+03  0.17120000000E+03 0.  0.
        998    1    1    2    0    0  0.31622890918E+01  0.33779059074E+01  0.13099490710E+04  0.13099954118E+04  0.10000000000E+02 0.  1.
</event>
<event>
 5    1  0.1640179E-008  0.3792528E+03  0.7957747E-01  0.3454418E+00
         13   -1    0    0    0    0  0.00000000000E+00  0.00000000000E+00  0.14999999963E+04  0.15000000000E+04  0.10566000000E+00 0.  1.
        994   -1    0    0    0    0 -0.00000000000E+00 -0.00000000000E+00  0.11368683772E-12  0.17120000000E+03  0.17120000000E+03 0.  0.
         13    1    1    2    0    0  0.88317054284E+01  0.15537211959E+02  0.34726994755E+02  0.39056104581E+02  0.10566000000E+00 0.  1.
        994    1    1    2    0    0  0.79678680727E+01 -0.65214467732E+01  0.48661553953E+01  0.17157836594E+03  0.17120000000E+03 0.  0.
        998    1    1    2    0    0 -0.16799573501E+02 -0.90157651858E+01  0.14604068461E+04  0.14605655295E+04  0.10000000000E+02 0.  1.
</event>
<event>
 5    1  0.1640179E-008  0.3854754E+03  0.7957747E-01  0.3427658E+00
         13   -1    0    0    0    0  0.00000000000E+00  0.00000000000E+00  0.14999999963E+04  0.15000000000E+04  0.10566000000E+00 0.  1.
        994   -1    0    0    0    0 -0.00000000000E+00 -0.00000000000E+00  0.11368683772E-12  0.17120000000E+03  0.17120000000E+03 0.  0.
         13    1    1    2    0    0  0.12108971391E+02 -0.93274796117E+01  0.83335778965E+02  0.84725983522E+02  0.10566000000E+00 0.  1.
        994    1    1    2    0    0 -0.77348388881E+01  0.84204219961E+01  0.18236671279E+01  0.17159107495E+03  0.17120000000E+03 0.  0.
        998    1    1    2    0    0 -0.43741325034E+01  0.90705761562E+00  0.14148405502E+04  0.14148829415E+04  0.10000000000E+02 0.  1.
</event>
<event>
 5    1  0.1640179E-008  0.3754354E+03  0.7957747E-01  0.3471278E+00
         13   -1    0    0    0    0  0.00000000000E+00  0.00000000000E+00  0.14999999963E+04  0.15000000000E+04  0.10566000000E+00 0.  1.
        994   -1    0    0    0    0 -0.00000000000E+00 -0.00000000000E+00  0.11368683772E-12  0.17120000000E+03  0.17120000000E+03 0.  0.
         13    1    1    2    0    0  0.45342739450E+02 -0.12203364611E+02  0.19876803679E+03  0.20423914841E+03  0.10566000000E+00 0.  1.
        994    1    1    2    0    0  0.27200346682E+01  0.13853008500E+02  0.71320714067E+01  0.17192908676E+03  0.17120000000E+03 0.  0.
        998    1    1    2    0    0 -0.48062774118E+02 -0.16496438889E+01  0.12940998881E+04  0.12950317648E+04  0.10000000000E+02 0.  1.
</event>
<event>
 5    1  0.1640179E-008  0.3850128E+03  0.7957747E-01  0.3429618E+00
         13   -1    0    0    0    0  0.00000000000E+00  0.00000000000E+00  0.14999999963E+04  0.15000000000E+04  0.10566000000E+00 0. -1.
        994   -1    0    0    0    0 -0.00000000000E+00 -0.00000000000E+00  0.11368683772E-12  0.17120000000E+03  0.17120000000E+03 0.  0.
         13    1    1    2    0    0 -0.52432971305E+01  0.10691420712E+02  0.46381506845E+02  0.47885843241E+02  0.10566000000E+00 0. -1.
        994    1    1    2    0    0  0.53881263065E+01  0.64405763769E+01  0.18557190279E+01  0.17141585872E+03  0.17120000000E+03 0.  0.
        998    1    1    2    0    0 -0.14482917603E+00 -0.17131997089E+02  0.14517627704E+04  0.14518982980E+04  0.10000000000E+02 0. -1.
</event>
<event>
 5    1  0.1640179E-008  0.3731000E+03  0.7957747E-01  0.3481764E+00
         13   -1    0    0    0    0  0.00000000000E+00  0.00000000000E+00  0.14999999963E+04  0.15000000000E+04  0.10566000000E+00 0. -1.
        994   -1    0    0    0    0 -0.00000000000E+00 -0.00000000000E+00  0.11368683772E-12  0.17120000000E+03  0.17120000000E+03 0.  0.
         13    1    1    2    0    0  0.18863824217E+03  0.19499871592E+02  0.10216564981E+04  0.10391085808E+04  0.10566000000E+00 0. -1.
        994    1    1    2    0    0 -0.17376824506E+03  0.78959951759E+01  0.11948388803E+03  0.27174176939E+03  0.17120000000E+03 0.  0.
        998    1    1    2    0    0 -0.14869997111E+02 -0.27395866768E+02  0.35885961012E+03  0.36034964979E+03  0.10000000000E+02 0. -1.
</event>
<event>
 5    1  0.1640179E-008  0.3839865E+03  0.7957747E-01  0.3433982E+00
         13   -1    0    0    0    0  0.00000000000E+00  0.00000000000E+00  0.14999999963E+04  0.15000000000E+04  0.10566000000E+00 0.  1.
        994   -1    0    0    0    0 -0.00000000000E+00 -0.00000000000E+00  0.11368683772E-12  0.17120000000E+03  0.17120000000E+03 0.  0.
         13    1    1    2    0    0  0.10425139581E+02  0.25433947287E+01  0.26327273508E+02  0.28430421848E+02  0.10566000000E+00 0.  1.
        994    1    1    2    0    0 -0.74263284300E+01 -0.16648674347E+01  0.23253017539E+01  0.17138485687E+03  0.17120000000E+03 0.  0.
        998    1    1    2    0    0 -0.29988111511E+01 -0.87852729391E+00  0.14713474210E+04  0.14713847213E+04  0.10000000000E+02 0.  1.
</event>
<event>
 5    1  0.1640179E-008  0.3852375E+03  0.7957747E-01  0.3428666E+00
         13   -1    0    0    0    0  0.00000000000E+00  0.00000000000E+00  0.14999999963E+04  0.15000000000E+04  0.10566000000E+00 0. -1.
        994   -1    0    0    0    0 -0.00000000000E+00 -0.00000000000E+00  0.11368683772E-12  0.17120000000E+03  0.17120000000E+03 0.  0.
         13    1    1    2    0    0 -0.42444476502E+01 -0.17366424181E+02  0.87000068463E+02  0.88817966096E+02  0.10566000000E+00 0. -1.
        994    1    1    2    0    0  0.12473568566E+02  0.36462941243E+02  0.64079213057E+01  0.17560079001E+03  0.17120000000E+03 0.  0.
        998    1    1    2    0    0 -0.82291209156E+01 -0.19096517062E+02  0.14065920065E+04  0.14067812439E+04  0.10000000000E+02 0. -1.
</event>
<event>
 5    1  0.1640179E-008  0.3839411E+03  0.7957747E-01  0.3434176E+00
         13   -1    0    0    0    0  0.00000000000E+00  0.00000000000E+00  0.14999999963E+04  0.15000000000E+04  0.10566000000E+00 0.  1.
        994   -1    0    0    0    0 -0.00000000000E+00 -0.00000000000E+00  0.11368683772E-12  0.17120000000E+03  0.17120000000E+03 0.  0.
         13    1    1    2    0    0  0.18949128804E+02  0.15713652982E+01  0.90821304190E+02  0.92790404300E+02  0.10566000000E+00 0.  1.
        994    1    1    2    0    0 -0.58217925880E+00  0.13273266309E+02  0.27395078463E+01  0.17173661064E+03  0.17120000000E+03 0.  0.
        998    1    1    2    0    0 -0.18366949545E+02 -0.14844631608E+02  0.14064391842E+04  0.14066729851E+04  0.10000000000E+02 0.  1.
</event>
<event>
 5    1  0.1640179E-008  0.3687954E+03  0.7957747E-01  0.3501445E+00
         13   -1    0    0    0    0  0.00000000000E+00  0.00000000000E+00  0.14999999963E+04  0.15000000000E+04  0.10566000000E+00 0.  1.
        994   -1    0    0    0    0 -0.00000000000E+00 -0.00000000000E+00  0.11368683772E-12  0.17120000000E+03  0.17120000000E+03 0.  0.
         13    1    1    2    0    0 -0.32333377064E+02 -0.74940352563E+02  0.35772813598E+03  0.36692088269E+03  0.10566000000E+00 0.  1.
        994    1    1    2    0    0  0.92323962719E+01  0.30360776245E+02  0.13817041057E+02  0.17466357519E+03  0.17120000000E+03 0.  0.
        998    1    1    2    0    0  0.23100980792E+02  0.44579576318E+02  0.11284548192E+04  0.11296155421E+04  0.10000000000E+02 0.  1.
</event>
<event>
 5    1  0.1640179E-008  0.3780994E+03  0.7957747E-01  0.3459476E+00
         13   -1    0    0    0    0  0.00000000000E+00  0.00000000000E+00  0.14999999963E+04  0.15000000000E+04  0.10566000000E+00 0. -1.
        994   -1    0    0    0    0 -0.00000000000E+00 -0.00000000000E+00  0.11368683772E-12  0.17120000000E+03  0.17120000000E+03 0.  0.
         13    1    1    2    0    0 -0.56155221300E+01 -0.13485281793E+02 -0.56603491271E+00  0.14619113290E+02  0.10566000000E+00 0. -1.
        994    1    1    2    0    0  0.19189376618E+02  0.54917523231E+02  0.27567329118E+02  0.18290315516E+03  0.17120000000E+03 0.  0.
        998    1    1    2    0    0 -0.13573854488E+02 -0.41432241438E+02  0.14729987021E+04  0.14736777316E+04  0.10000000000E+02 0. -1.
</event>
<event>
 5    1  0.1640179E-008  0.3857181E+03  0.7957747E-01  0.3426632E+00
         13   -1    0    0    0    0  0.00000000000E+00  0.00000000000E+00  0.14999999963E+04  0.15000000000E+04  0.10566000000E+00 0.  1.
        994   -1    0    0    0    0 -0.00000000000E+00 -0.00000000000E+00  0.11368683772E-12  0.17120000000E+03  0.17120000000E+03 0.  0.
         13    1    1    2    0    0  0.58802403738E+01 -0.11598455267E+02  0.60282055329E+02  0.61668782622E+02  0.10566000000E+00 0.  1.
        994    1    1    2    0    0  0.97072257560E+00  0.27731684188E+02  0.38044558024E+01  0.17347594212E+03  0.17120000000E+03 0.  0.
        998    1    1    2    0    0 -0.68509629494E+01 -0.16133228920E+02  0.14359134851E+04  0.14360552753E+04  0.10000000000E+02 0.  1.
</event>
<event>
 5    1  0.1640179E-008  0.3796766E+03  0.7957747E-01  0.3452568E+00
         13   -1    0    0    0    0  0.00000000000E+00  0.00000000000E+00  0.14999999963E+04  0.15000000000E+04  0.10566000000E+00 0.  1.
        994   -1    0    0    0    0 -0.00000000000E+00 -0.00000000000E+00  0.11368683772E-12  0.17120000000E+03  0.17120000000E+03 0.  0.
         13    1    1    2    0    0 -0.32587299398E+02  0.50237182448E+02  0.21215655578E+03  0.22044528098E+03  0.10566000000E+00 0.  1.
        994    1    1    2    0    0  0.64812713700E+02 -0.11517044448E+03  0.65150167481E+02  0.22587364490E+03  0.17120000000E+03 0.  0.
        998    1    1    2    0    0 -0.32225414302E+02  0.64933262032E+02  0.12226932730E+04  0.12248810741E+04  0.10000000000E+02 0.  1.
</event>
<event>
 5    1  0.1640179E-008  0.3838497E+03  0.7957747E-01  0.3434566E+00
         13   -1    0    0    0    0  0.00000000000E+00  0.00000000000E+00  0.14999999963E+04  0.15000000000E+04  0.10566000000E+00 0.  1.
        994   -1    0    0    0    0 -0.00000000000E+00 -0.00000000000E+00  0.11368683772E-12  0.17120000000E+03  0.17120000000E+03 0.  0.
         13    1    1    2    0    0  0.87735405823E+01 -0.77896452056E+01  0.30999948905E+02  0.33146064366E+02  0.10566000000E+00 0.  1.
        994    1    1    2    0    0 -0.58245904207E+01  0.79337764705E+00  0.23164045523E+01  0.17131655212E+03  0.17120000000E+03 0.  0.
        998    1    1    2    0    0 -0.29489501616E+01  0.69962675585E+01  0.14666836428E+04  0.14667373835E+04  0.10000000000E+02 0.  1.
</event>
<event>
 5    1  0.1640179E-008  0.3782642E+03  0.7957747E-01  0.3458751E+00
         13   -1    0    0    0    0  0.00000000000E+00  0.00000000000E+00  0.14999999963E+04  0.15000000000E+04  0.10566000000E+00 0. -1.
        994   -1    0    0    0    0 -0.00000000000E+00 -0.00000000000E+00  0.11368683772E-12  0.17120000000E+03  0.17120000000E+03 0.  0.
         13    1    1    2    0    0 -0.12450762975E+02  0.33854017136E+01  0.14572951219E+02  0.19464442317E+02  0.10566000000E+00 0. -1.
        994    1    1    2    0    0  0.55919256009E+01  0.19018124892E+01  0.51292273125E+01  0.17137863197E+03  0.17120000000E+03 0.  0.
        998    1    1    2    0    0  0.68588373745E+01 -0.52872142028E+01  0.14802978177E+04  0.14803569257E+04  0.10000000000E+02 0. -1.
</event>
<event>
 5    1  0.1640179E-008  0.3705884E+03  0.7957747E-01  0.3493191E+00
         13   -1    0    0    0    0  0.00000000000E+00  0.00000000000E+00  0.14999999963E+04  0.15000000000E+04  0.10566000000E+00 0.  1.
        994   -1    0    0    0    0 -0.00000000000E+00 -0.00000000000E+00  0.11368683772E-12  0.17120000000E+03  0.17120000000E+03 0.  0.
         13    1    1    2    0    0  0.66459907936E+01  0.18243060569E+02  0.16871860775E+02  0.25722544637E+02  0.10566000000E+00 0.  1.
        994    1    1    2    0    0 -0.85523344037E+01 -0.19387666248E+02  0.10512762765E+02  0.17282645112E+03  0.17120000000E+03 0.  0.
        998    1    1    2    0    0  0.19063436101E+01  0.11446056795E+01  0.14726153727E+04  0.14726510042E+04  0.10000000000E+02 0.  1.
</event>
<event>
 5    1  0.1640179E-008  0.3838920E+03  0.7957747E-01  0.3434385E+00
         13   -1    0    0    0    0  0.00000000000E+00  0.00000000000E+00  0.14999999963E+04  0.15000000000E+04  0.10566000000E+00 0.  1.
        994   -1    0    0    0    0 -0.00000000000E+00 -0.00000000000E+00  0.11368683772E-12  0.17120000000E+03  0.17120000000E+03 0.  0.
         13    1    1    2    0    0  0.10578792032E+02  0.72948763287E+00  0.24871769042E+02  0.27038103713E+02  0.10566000000E+00 0.  1.
        994    1    1    2    0    0 -0.10007508780E+02  0.12550272478E+01  0.25170396233E+01  0.17151530781E+03  0.17120000000E+03 0.  0.
        998    1    1    2    0    0 -0.57128325185E+00 -0.19845148807E+01  0.14726111876E+04  0.14726465885E+04  0.10000000000E+02 0.  1.
</event>
<event>
 5    1  0.1640179E-008  0.3855371E+03  0.7957747E-01  0.3427398E+00
         13   -1    0    0    0    0  0.00000000000E+00  0.00000000000E+00  0.14999999963E+04  0.15000000000E+04  0.10566000000E+00 0. -1.
        994   -1    0    0    0    0 -0.00000000000E+00 -0.00000000000E+00  0.11368683772E-12  0.17120000000E+03  0.17120000000E+03 0.  0.
         13    1    1    2    0    0  0.98634759095E+01  0.42950213158E+01  0.43292690240E+02  0.44609455919E+02  0.10566000000E+00 0. -1.
        994    1    1    2    0    0 -0.45764021282E+01 -0.58199382754E+00  0.14336045083E+01  0.17126814472E+03  0.17120000000E+03 0.  0.
        998    1    1    2    0    0 -0.52870737813E+01 -0.37130274883E+01  0.14552737015E+04  0.14553223994E+04  0.10000000000E+02 0. -1.
</event>
<event>
 5    1  0.1640179E-008  0.3853251E+03  0.7957747E-01  0.3428295E+00
         13   -1    0    0    0    0  0.00000000000E+00  0.00000000000E+00  0.14999999963E+04  0.15000000000E+04  0.10566000000E+00 0.  1.
        994   -1    0    0    0    0 -0.00000000000E+00 -0.00000000000E+00  0.11368683772E-12  0.17120000000E+03  0.17120000000E+03 0.  0.
         13    1    1    2    0    0  0.12510842701E+02  0.44986007986E+01 -0.43341973671E+01  0.13984099009E+02  0.10566000000E+00 0.  1.
        994    1    1    2    0    0 -0.20074413686E+02 -0.72133501511E+01  0.20966939067E+02  0.17379317317E+03  0.17120000000E+03 0.  0.
        998    1    1    2    0    0  0.75635709847E+01  0.27147493525E+01  0.14833672546E+04  0.14834227278E+04  0.10000000000E+02 0.  1.
</event>
<event>
 5    1  0.1640179E-008  0.3829550E+03  0.7957747E-01  0.3438392E+00
         13   -1    0    0    0    0  0.00000000000E+00  0.00000000000E+00  0.14999999963E+04  0.15000000000E+04  0.10566000000E+00 0.  1.
        994   -1    0    0    0    0 -0.00000000000E+00 -0.00000000000E+00  0.11368683772E-12  0.17120000000E+03  0.17120000000E+03 0.  0.
         13    1    1    2    0    0 -0.19365314847E+02  0.11379108737E+02  0.90781530506E+02  0.93518965883E+02  0.10566000000E+00 0.  1.
        994    1    1    2    0    0  0.19558301945E+02 -0.76356093109E+01  0.41096322412E+01  0.17253161676E+03  0.17120000000E+03 0.  0.
        998    1    1    2    0    0 -0.19298709806E+00 -0.37434994258E+01  0.14051088335E+04  0.14051494174E+04  0.10000000000E+02 0.  1.
</event>
<event>
 5    1  0.1640179E-008  0.3851698E+03  0.7957747E-01  0.3428952E+00
         13   -1    0    0    0    0  0.00000000000E+00  0.00000000000E+00  0.14999999963E+04  0.15000000000E+04  0.10566000000E+00 0.  1.
        994   -1    0    0    0    0 -0.00000000000E+00 -0.00000000000E+00  0.11368683772E-12  0.17120000000E+03  0.17120000000E+03 0.  0.
         13    1    1    2    0    0 -0.78834329407E+01 -0.99597717059E+01  0.55875749705E+02  0.57301449689E+02  0.10566000000E+00 0.  1.
        994    1    1    2    0    0  0.46630127452E+00 -0.36252248213E+01  0.15897821122E+01  0.17124639295E+03  0.17120000000E+03 0.  0.
        998    1    1    2    0    0  0.74171316662E+01  0.13584996527E+02  0.14425344645E+04  0.14426521574E+04  0.10000000000E+02 0.  1.
</event>
<event>
 5    1  0.1640179E-008  0.3852955E+03  0.7957747E-01  0.3428420E+00
         13   -1    0    0    0    0  0.00000000000E+00  0.00000000000E+00  0.14999999963E+04  0.15000000000E+04  0.10566000000E+00 0. -1.
        994   -1    0    0    0    0 -0.00000000000E+00 -0.00000000000E+00  0.11368683772E-12  0.17120000000E+03  0.17120000000E+03 0.  0.
         13    1    1    2    0    0 -0.55052895319E+01  0.13831700569E+02  0.85318065244E+02  0.86607202787E+02  0.10566000000E+00 0. -1.
        994    1    1    2    0    0 -0.50951545777E+00  0.72787492244E+01  0.16584445413E+01  0.17136344486E+03  0.17120000000E+03 0.  0.
        998    1    1    2    0    0  0.60148049897E+01 -0.21110449794E+02  0.14130234865E+04  0.14132293524E+04  0.10000000000E+02 0. -1.
</event>
<event>
 5    1  0.1640179E-008  0.3700381E+03  0.7957747E-01  0.3495716E+00
         13   -1    0    0    0    0  0.00000000000E+00  0.00000000000E+00  0.14999999963E+04  0.15000000000E+04  0.10566000000E+00 0. -1.
        994   -1    0    0    0    0 -0.00000000000E+00 -0.00000000000E+00  0.11368683772E-12  0.17120000000E+03  0.17120000000E+03 0.  0.
         13    1    1    2    0    0  0.47063882737E+02  0.13565697128E+01  0.11489230632E+03  0.12416562550E+03  0.10566000000E+00 0. -1.
        994    1    1    2    0    0 -0.32852779741E+02 -0.13478230894E+01  0.12995978825E+02  0.17481263464E+03  0.17120000000E+03 0.  0.
        998    1    1    2    0    0 -0.14211102997E+02 -0.87466233636E-02  0.13721117111E+04  0.13722217399E+04  0.10000000000E+02 0. -1.
</event>
<event>
 5    1  0.1640179E-008  0.3836784E+03  0.7957747E-01  0.3435297E+00
         13   -1    0    0    0    0  0.00000000000E+00  0.00000000000E+00  0.14999999963E+04  0.15000000000E+04  0.10566000000E+00 0. -1.
        994   -1    0    0    0    0 -0.00000000000E+00 -0.00000000000E+00  0.11368683772E-12  0.17120000000E+03  0.17120000000E+03 0.  0.
         13    1    1    2    0    0 -0.15630731316E+02 -0.68034502690E+00  0.53875380506E+02  0.56101251497E+02  0.10566000000E+00 0. -1.
        994    1    1    2    0    0  0.68317574418E+01 -0.15549600184E+01  0.24498703938E+01  0.17136082596E+03  0.17120000000E+03 0.  0.
        998    1    1    2    0    0  0.87989738744E+01  0.22353050453E+01  0.14436747454E+04  0.14437379225E+04  0.10000000000E+02 0. -1.
</event>
<event>
 5    1  0.1640179E-008  0.3795623E+03  0.7957747E-01  0.3453067E+00
         13   -1    0    0    0    0  0.00000000000E+00  0.00000000000E+00  0.14999999963E+04  0.15000000000E+04  0.10566000000E+00 0.  1.
        994   -1    0    0    0    0 -0.00000000000E+00 -0.00000000000E+00  0.11368683772E-12  0.17120000000E+03  0.17120000000E+03 0.  0.
         13    1    1    2    0    0 -0.33780266793E+02  0.21797533337E+02  0.20115392777E+03  0.20513203724E+03  0.10566000000E+00 0.  1.
        994    1    1    2    0    0  0.23656396323E+01 -0.17461413759E+02  0.53944067532E+01  0.17218895680E+03  0.17120000000E+03 0.  0.
        998    1    1    2    0    0  0.31414627160E+02 -0.43361195784E+01  0.12934516618E+04  0.12938790060E+04  0.10000000000E+02 0.  1.
</event>
<event>
 5    1  0.1640179E-008  0.3794040E+03  0.7957747E-01  0.3453758E+00
         13   -1    0    0    0    0  0.00000000000E+00  0.00000000000E+00  0.14999999963E+04  0.15000000000E+04  0.10566000000E+00 0. -1.
        994   -1    0    0    0    0 -0.00000000000E+00 -0.00000000000E+00  0.11368683772E-12  0.17120000000E+03  0.17120000000E+03 0.  0.
         13    1    1    2    0    0  0.17088051321E+01  0.10227174575E+02  0.10057047050E+02  0.14445430910E+02  0.10566000000E+00 0. -1.
        994    1    1    2    0    0 -0.43434682623E+01 -0.10958067741E+02  0.48998208226E+01  0.17167525509E+03  0.17120000000E+03 0.  0.
        998    1    1    2    0    0  0.26346631301E+01  0.73089316687E+00  0.14850431284E+04  0.14850793140E+04  0.10000000000E+02 0. -1.
</event>
<event>
 5    1  0.1640179E-008  0.3794116E+03  0.7957747E-01  0.3453724E+00
         13   -1    0    0    0    0  0.00000000000E+00  0.00000000000E+00  0.14999999963E+04  0.15000000000E+04  0.10566000000E+00 0. -1.
        994   -1    0    0    0    0 -0.00000000000E+00 -0.00000000000E+00  0.11368683772E-12  0.17120000000E+03  0.17120000000E+03 0.  0.
         13    1    1    2    0    0 -0.12065782524E+02  0.33081890880E+02  0.12867549545E+03  0.13340685479E+03  0.10566000000E+00 0. -1.
        994    1    1    2    0    0  0.43009111438E+02 -0.21465872396E+02  0.12208734259E+02  0.17823877394E+03  0.17120000000E+03 0.  0.
        998    1    1    2    0    0 -0.30943328913E+02 -0.11616018484E+02  0.13591157666E+04  0.13595543713E+04  0.10000000000E+02 0. -1.
</event>
<event>
 5    1  0.1640179E-008  0.3841900E+03  0.7957747E-01  0.3433115E+00
         13   -1    0    0    0    0  0.00000000000E+00  0.00000000000E+00  0.14999999963E+04  0.15000000000E+04  0.10566000000E+00 0. -1.
        994   -1    0    0    0    0 -0.00000000000E+00 -0.00000000000E+00  0.11368683772E-12  0.17120000000E+03  0.17120000000E+03 0.  0.
         13    1    1    2    0    0  0.15513271549E+02  0.42873506893E+00  0.61046062286E+02  0.62987921799E+02  0.10566000000E+00 0. -1.
        994    1    1    2    0    0 -0.37911098013E+01  0.32182951267E+01  0.21143571077E+01  0.17128526044E+03  0.17120000000E+03 0.  0.
        998    1    1    2    0    0 -0.11722161748E+02 -0.36470301956E+01  0.14368395769E+04  0.14369268178E+04  0.10000000000E+02 0. -1.
</event>
<event>
 5    1  0.1640179E-008  0.3734051E+03  0.7957747E-01  0.3480386E+00
         13   -1    0    0    0    0  0.00000000000E+00  0.00000000000E+00  0.14999999963E+04  0.15000000000E+04  0.10566000000E+00 0.  1.
        994   -1    0    0    0    0 -0.00000000000E+00 -0.00000000000E+00  0.11368683772E-12  0.17120000000E+03  0.17120000000E+03 0.  0.
         13    1    1    2    0    0 -0.43906546680E+02 -0.94516663550E+02  0.51016180469E+03  0.52069786120E+03  0.10566000000E+00 0.  1.
        994    1    1    2    0    0  0.33578292554E+02  0.90264716312E+02  0.39894423048E+02  0.20044008015E+03  0.17120000000E+03 0.  0.
        998    1    1    2    0    0  0.10328254126E+02  0.42519472380E+01  0.94994376854E+03  0.95006205864E+03  0.10000000000E+02 0.  1.
</event>
<event>
 5    1  0.1640179E-008  0.3730950E+03  0.7957747E-01  0.3481787E+00
         13   -1    0    0    0    0  0.00000000000E+00  0.00000000000E+00  0.14999999963E+04  0.15000000000E+04  0.10566000000E+00 0.  1.
        994   -1    0    0    0    0 -0.00000000000E+00 -0.00000000000E+00  0.11368683772E-12  0.17120000000E+03  0.17120000000E+03 0.  0.
         13    1    1    2    0    0 -0.34208760682E+01  0.51275303203E+02  0.20330501582E+03  0.20969930790E+03  0.10566000000E+00 0.  1.
        994    1    1    2    0    0 -0.12145343854E+02 -0.15389572033E+00  0.81651615864E+01  0.17182445380E+03  0.17120000000E+03 0.  0.
        998    1    1    2    0    0  0.15566219922E+02 -0.51121407483E+02  0.12885298189E+04  0.12896762383E+04  0.10000000000E+02 0.  1.
</event>
<event>
 5    1  0.1640179E-008  0.3818334E+03  0.7957747E-01  0.3443214E+00
         13   -1    0    0    0    0  0.00000000000E+00  0.00000000000E+00  0.14999999963E+04  0.15000000000E+04  0.10566000000E+00 0. -1.
        994   -1    0    0    0    0 -0.00000000000E+00 -0.00000000000E+00  0.11368683772E-12  0.17120000000E+03  0.17120000000E+03 0.  0.
         13    1    1    2    0    0  0.12849229543E+02  0.53604373648E+01  0.30109108765E+02  0.33172376811E+02  0.10566000000E+00 0. -1.
        994    1    1    2    0    0  0.98745512545E+00  0.22776250812E+01  0.32309879995E+01  0.17124848007E+03  0.17120000000E+03 0.  0.
        998    1    1    2    0    0 -0.13836684669E+02 -0.76380624459E+01  0.14666598995E+04  0.14667791431E+04  0.10000000000E+02 0. -1.
</event>
<event>
 5    1  0.1640179E-008  0.3836406E+03  0.7957747E-01  0.3435458E+00
         13   -1    0    0    0    0  0.00000000000E+00  0.00000000000E+00  0.14999999963E+04  0.15000000000E+04  0.10566000000E+00 0.  1.
        994   -1    0    0    0    0 -0.00000000000E+00 -0.00000000000E+00  0.11368683772E-12  0.17120000000E+03  0.17120000000E+03 0.  0.
         13    1    1    2    0    0  0.72501369911E+01  0.13732124421E+02  0.49756002442E+02  0.52122995602E+02  0.10566000000E+00 0.  1.
        994    1    1    2    0    0  0.24413567224E+01 -0.22074919742E+02  0.39375818185E+01  0.17267949170E+03  0.17120000000E+03 0.  0.
        998    1    1    2    0    0 -0.96914937135E+01  0.83427953209E+01  0.14463064120E+04  0.14463975127E+04  0.10000000000E+02 0.  1.
</event>
<event>
 5    1  0.1640179E-008  0.3780699E+03  0.7957747E-01  0.3459606E+00
         13   -1    0    0    0    0  0.00000000000E+00  0.00000000000E+00  0.14999999963E+04  0.15000000000E+04  0.10566000000E+00 0.  1.
        994   -1    0    0    0    0 -0.00000000000E+00 -0.00000000000E+00  0.11368683772E-12  0.17120000000E+03  0.17120000000E+03 0.  0.
         13    1    1    2    0    0  0.25076459923E+02 -0.96999227577E+00  0.13797190768E+02  0.28638145268E+02  0.10566000000E+00 0.  1.
        994    1    1    2    0    0 -0.27763956038E+02  0.22449120532E+01  0.18067694716E+02  0.17438967423E+03  0.17120000000E+03 0.  0.
        998    1    1    2    0    0  0.26874961149E+01 -0.12749197774E+01  0.14681351108E+04  0.14681721805E+04  0.10000000000E+02 0.  1.
</event>
<event>
 5    1  0.1640179E-008  0.3818019E+03  0.7957747E-01  0.3443350E+00
         13   -1    0    0    0    0  0.00000000000E+00  0.00000000000E+00  0.14999999963E+04  0.15000000000E+04  0.10566000000E+00 0. -1.
        994   -1    0    0    0    0 -0.00000000000E+00 -0.00000000000E+00  0.11368683772E-12  0.17120000000E+03  0.17120000000E+03 0.  0.
         13    1    1    2    0    0 -0.13129233766E+02 -0.19714759695E+01  0.25650729616E+02  0.28883119476E+02  0.10566000000E+00 0. -1.
        994    1    1    2    0    0  0.12202039678E+02  0.15847665817E+02  0.45567955493E+01  0.17242459996E+03  0.17120000000E+03 0.  0.
        998    1    1    2    0    0  0.92719408832E+00 -0.13876189848E+02  0.14697924711E+04  0.14698922806E+04  0.10000000000E+02 0. -1.
</event>
<event>
 5    1  0.1640179E-008  0.3779668E+03  0.7957747E-01  0.3460060E+00
         13   -1    0    0    0    0  0.00000000000E+00  0.00000000000E+00  0.14999999963E+04  0.15000000000E+04  0.10566000000E+00 0.  1.
        994   -1    0    0    0    0 -0.00000000000E+00 -0.00000000000E+00  0.11368683772E-12  0.17120000000E+03  0.17120000000E+03 0.  0.
         13    1    1    2    0    0  0.60667933324E+02 -0.63454339975E+02  0.48585704149E+03  0.49372474855E+03  0.10566000000E+00 0.  1.
        994    1    1    2    0    0 -0.49529941895E+02  0.78097915901E+02  0.34509388233E+02  0.19761790781E+03  0.17120000000E+03 0.  0.
        998    1    1    2    0    0 -0.11137991429E+02 -0.14643575926E+02  0.97963356655E+03  0.97985734364E+03  0.10000000000E+02 0.  1.
</event>
<event>
 5    1  0.1640179E-008  0.3855275E+03  0.7957747E-01  0.3427438E+00
         13   -1    0    0    0    0  0.00000000000E+00  0.00000000000E+00  0.14999999963E+04  0.15000000000E+04  0.10566000000E+00 0. -1.
        994   -1    0    0    0    0 -0.00000000000E+00 -0.00000000000E+00  0.11368683772E-12  0.17120000000E+03  0.17120000000E+03 0.  0.
         13    1    1    2    0    0 -0.70275678163E+01  0.14791052610E+02  0.95425908370E+02  0.96820850539E+02  0.10566000000E+00 0. -1.
        994    1    1    2    0    0  0.68829698247E+01 -0.12597189930E+02  0.20452545767E+01  0.17181294344E+03  0.17120000000E+03 0.  0.
        998    1    1    2    0    0  0.14459799158E+00 -0.21938626797E+01  0.14025288333E+04  0.14025662060E+04  0.10000000000E+02 0. -1.
</event>
<event>
 5    1  0.1640179E-008  0.3776508E+03  0.7957747E-01  0.3461452E+00
         13   -1    0    0    0    0  0.00000000000E+00  0.00000000000E+00  0.14999999963E+04  0.15000000000E+04  0.10566000000E+00 0.  1.
        994   -1    0    0    0    0 -0.00000000000E+00 -0.00000000000E+00  0.11368683772E-12  0.17120000000E+03  0.17120000000E+03 0.  0.
         13    1    1    2    0    0  0.13741634544E+02 -0.54292415759E+01  0.18079046588E+02  0.23348924463E+02  0.10566000000E+00 0.  1.
        994    1    1    2    0    0 -0.14300387909E+02  0.60428332743E+00  0.60142672879E+01  0.17190252373E+03  0.17120000000E+03 0.  0.
        998    1    1    2    0    0  0.55875336525E+00  0.48249582485E+01  0.14759066824E+04  0.14759485518E+04  0.10000000000E+02 0.  1.
</event>
<event>
 5    1  0.1640179E-008  0.3831730E+03  0.7957747E-01  0.3437458E+00
         13   -1    0    0    0    0  0.00000000000E+00  0.00000000000E+00  0.14999999963E+04  0.15000000000E+04  0.10566000000E+00 0. -1.
        994   -1    0    0    0    0 -0.00000000000E+00 -0.00000000000E+00  0.11368683772E-12  0.17120000000E+03  0.17120000000E+03 0.  0.
         13    1    1    2    0    0  0.17953365038E+02 -0.45541998053E+01  0.67100073652E+02  0.69609590576E+02  0.10566000000E+00 0. -1.
        994    1    1    2    0    0 -0.11412943930E+02  0.45111722425E+00  0.29716446189E+01  0.17160632118E+03  0.17120000000E+03 0.  0.
        998    1    1    2    0    0 -0.65404211086E+01  0.41030825810E+01  0.14299282780E+04  0.14299840882E+04  0.10000000000E+02 0. -1.
</event>
<event>
 5    1  0.1640179E-008  0.3819610E+03  0.7957747E-01  0.3442664E+00
         13   -1    0    0    0    0  0.00000000000E+00  0.00000000000E+00  0.14999999963E+04  0.15000000000E+04  0.10566000000E+00 0.  1.
        994   -1    0    0    0    0 -0.00000000000E+00 -0.00000000000E+00  0.11368683772E-12  0.17120000000E+03  0.17120000000E+03 0.  0.
         13    1    1    2    0    0 -0.28747241551E+02  0.46105864734E+01  0.12286336980E+03  0.12626591071E+03  0.10566000000E+00 0.  1.
        994    1    1    2    0    0  0.30968151974E+02 -0.11943890266E+01  0.63431091227E+01  0.17409804145E+03  0.17120000000E+03 0.  0.
        998    1    1    2    0    0 -0.22209104231E+01 -0.34161974468E+01  0.13707935174E+04  0.13708360478E+04  0.10000000000E+02 0.  1.
</event>
<event>
 5    1  0.1640179E-008  0.3119325E+03  0.7957747E-01  0.3814350E+00
         13   -1    0    0    0    0  0.00000000000E+00  0.00000000000E+00  0.14999999963E+04  0.15000000000E+04  0.10566000000E+00 0.  1.
        994   -1    0    0    0    0 -0.00000000000E+00 -0.00000000000E+00  0.11368683772E-12  0.17120000000E+03  0.17120000000E+03 0.  0.
         13    1    1    2    0    0 -0.38525426267E+01  0.25411330794E+03  0.61742590510E+03  0.66768493678E+03  0.10566000000E+00 0.  1.
        994    1    1    2    0    0  0.45916350848E+02 -0.22056316441E+03  0.27869369982E+03  0.39715996663E+03  0.17120000000E+03 0.  0.
        998    1    1    2    0    0 -0.42063808221E+02 -0.33550143530E+02  0.60388039136E+03  0.60635509659E+03  0.10000000000E+02 0.  1.
</event>
<event>
 5    1  0.1640179E-008  0.3805185E+03  0.7957747E-01  0.3448904E+00
         13   -1    0    0    0    0  0.00000000000E+00  0.00000000000E+00  0.14999999963E+04  0.15000000000E+04  0.10566000000E+00 0.  1.
        994   -1    0    0    0    0 -0.00000000000E+00 -0.00000000000E+00  0.11368683772E-12  0.17120000000E+03  0.17120000000E+03 0.  0.
         13    1    1    2    0    0  0.34520128314E+02 -0.19719935153E+02  0.19909580375E+03  0.20302626760E+03  0.10566000000E+00 0.  1.
        994    1    1    2    0    0 -0.19871594060E+02  0.16475139705E+02  0.60984325079E+01  0.17324243521E+03  0.17120000000E+03 0.  0.
        998    1    1    2    0    0 -0.14648534253E+02  0.32447954485E+01  0.12948057600E+04  0.12949312972E+04  0.10000000000E+02 0.  1.
</event>
<event>
 5    1  0.1640179E-008  0.3848305E+03  0.7957747E-01  0.3430391E+00
         13   -1    0    0    0    0  0.00000000000E+00  0.00000000000E+00  0.14999999963E+04  0.15000000000E+04  0.10566000000E+00 0. -1.
        994   -1    0    0    0    0 -0.00000000000E+00 -0.00000000000E+00  0.11368683772E-12  0.17120000000E+03  0.17120000000E+03 0.  0.
         13    1    1    2    0    0  0.41551020666E+01 -0.16149682813E+02  0.88519064148E+02  0.90076151172E+02  0.10566000000E+00 0. -1.
        994    1    1    2    0    0  0.89164706523E+01  0.11490428036E+01  0.19803057671E+01  0.17144732532E+03  0.17120000000E+03 0.  0.
        998    1    1    2    0    0 -0.13071572719E+02  0.15000640009E+02  0.14095006264E+04  0.14096765235E+04  0.10000000000E+02 0. -1.
</event>
<event>
 5    1  0.1640179E-008  0.3708876E+03  0.7957747E-01  0.3491822E+00
         13   -1    0    0    0    0  0.00000000000E+00  0.00000000000E+00  0.14999999963E+04  0.15000000000E+04  0.10566000000E+00 0. -1.
        994   -1    0    0    0    0 -0.00000000000E+00 -0.00000000000E+00  0.11368683772E-12  0.17120000000E+03  0.17120000000E+03 0.  0.
         13    1    1    2    0    0 -0.29824337750E+02 -0.14125518264E+02  0.56592461412E+02  0.65511367267E+02  0.10566000000E+00 0. -1.
        994    1    1    2    0    0  0.30171617627E+02  0.12270054903E+02  0.12471607185E+02  0.17471651823E+03  0.17120000000E+03 0.  0.
        998    1    1    2    0    0 -0.34727987682E+00  0.18554633615E+01  0.14309359277E+04  0.14309721145E+04  0.10000000000E+02 0. -1.
</event>
<event>
 5    1  0.1640179E-008  0.3759071E+03  0.7957747E-01  0.3469176E+00
         13   -1    0    0    0    0  0.00000000000E+00  0.00000000000E+00  0.14999999963E+04  0.15000000000E+04  0.10566000000E+00 0. -1.
        994   -1    0    0    0    0 -0.00000000000E+00 -0.00000000000E+00  0.11368683772E-12  0.17120000000E+03  0.17120000000E+03 0.  0.
         13    1    1    2    0    0 -0.17635810529E+03 -0.72378925838E+02  0.63353738119E+03  0.66159694281E+03  0.10566000000E+00 0. -1.
        994    1    1    2    0    0  0.21968181722E+03  0.10472107685E+03  0.24423316772E+03  0.38494919790E+03  0.17120000000E+03 0.  0.
        998    1    1    2    0    0 -0.43323711927E+02 -0.32342151008E+02  0.62222944737E+03  0.62465385928E+03  0.10000000000E+02 0. -1.
</event>
<event>
 5    1  0.1640179E-008  0.3844409E+03  0.7957747E-01  0.3432047E+00
         13   -1    0    0    0    0  0.00000000000E+00  0.00000000000E+00  0.14999999963E+04  0.15000000000E+04  0.10566000000E+00 0.  1.
        994   -1    0    0    0    0 -0.00000000000E+00 -0.00000000000E+00  0.11368683772E-12  0.17120000000E+03  0.17120000000E+03 0.  0.
         13    1    1    2    0    0  0.13328364878E+02 -0.16299246434E+02  0.11861275494E+03  0.12046703924E+03  0.10566000000E+00 0.  1.
        994    1    1    2    0    0 -0.14464986590E+02  0.16441637638E+01  0.26065286678E+01  0.17183763588E+03  0.17120000000E+03 0.  0.
        998    1    1    2    0    0  0.11366217125E+01  0.14655082670E+02  0.13787807127E+04  0.13788953249E+04  0.10000000000E+02 0.  1.
</event>
<event>
 5    1  0.1640179E-008  0.3830329E+03  0.7957747E-01  0.3438058E+00
         13   -1    0    0    0    0  0.00000000000E+00  0.00000000000E+00  0.14999999963E+04  0.15000000000E+04  0.10566000000E+00 0.  1.
        994   -1    0    0    0    0 -0.00000000000E+00 -0.00000000000E+00  0.11368683772E-12  0.17120000000E+03  0.17120000000E+03 0.  0.
         13    1    1    2    0    0  0.71150560697E+01  0.21625725735E+02  0.89849336847E+02  0.92688783206E+02  0.10566000000E+00 0.  1.
        994    1    1    2    0    0 -0.88059493170E+01 -0.28539980183E+02  0.55680844168E+01  0.17387500906E+03  0.17120000000E+03 0.  0.
        998    1    1    2    0    0  0.16908932474E+01  0.69142544482E+01  0.14045825750E+04  0.14046362077E+04  0.10000000000E+02 0.  1.
</event>
<event>
 5    1  0.1640179E-008  0.3814996E+03  0.7957747E-01  0.3444655E+00
         13   -1    0    0    0    0  0.00000000000E+00  0.00000000000E+00  0.14999999963E+04  0.15000000000E+04  0.10566000000E+00 0. -1.
        994   -1    0    0    0    0 -0.00000000000E+00 -0.00000000000E+00  0.11368683772E-12  0.17120000000E+03  0.17120000000E+03 0.  0.
         13    1    1    2    0    0  0.30733896452E+02 -0.78035725865E+01  0.16331459737E+03  0.16636447041E+03  0.10566000000E+00 0. -1.
        994    1    1    2    0    0 -0.53458903029E+01 -0.44378100910E+00  0.34738186059E+01  0.17131924264E+03  0.17120000000E+03 0.  0.
        998    1    1    2    0    0 -0.25388006150E+02  0.82473535956E+01  0.13332115803E+04  0.13335162869E+04  0.10000000000E+02 0. -1.
</event>
<event>
 5    1  0.1640179E-008  0.3846212E+03  0.7957747E-01  0.3431280E+00
         13   -1    0    0    0    0  0.00000000000E+00  0.00000000000E+00  0.14999999963E+04  0.15000000000E+04  0.10566000000E+00 0. -1.
        994   -1    0    0    0    0 -0.00000000000E+00 -0.00000000000E+00  0.11368683772E-12  0.17120000000E+03  0.17120000000E+03 0.  0.
         13    1    1    2    0    0  0.21570384691E+01  0.16445571756E+02  0.73610075780E+02  0.75455709298E+02  0.10566000000E+00 0. -1.
        994    1    1    2    0    0  0.41682391163E+01 -0.15455949556E+02  0.26625518536E+01  0.17196740905E+03  0.17120000000E+03 0.  0.
        998    1    1    2    0    0 -0.63252775854E+01 -0.98962219942E+00  0.14237273686E+04  0.14237768816E+04  0.10000000000E+02 0. -1.
</event>
<event>
 5    1  0.1640179E-008  0.3806096E+03  0.7957747E-01  0.3448508E+00
         13   -1    0    0    0    0  0.00000000000E+00  0.00000000000E+00  0.14999999963E+04  0.15000000000E+04  0.10566000000E+00 0.  1.
        994   -1    0    0    0    0 -0.00000000000E+00 -0.00000000000E+00  0.11368683772E-12  0.17120000000E+03  0.17120000000E+03 0.  0.
         13    1    1    2    0    0  0.43897737145E+02  0.13077623934E+02  0.25121360655E+03  0.25535528750E+03  0.10566000000E+00 0.  1.
        994    1    1    2    0    0 -0.31697795859E+02 -0.19603031779E+02  0.84737249383E+01  0.17541457503E+03  0.17120000000E+03 0.  0.
        998    1    1    2    0    0 -0.12199941286E+02  0.65254078447E+01  0.12403126648E+04  0.12404301375E+04  0.10000000000E+02 0.  0.
</event>
<event>
 5    1  0.1640179E-008  0.3778266E+03  0.7957747E-01  0.3460677E+00
         13   -1    0    0    0    0  0.00000000000E+00  0.00000000000E+00  0.14999999963E+04  0.15000000000E+04  0.10566000000E+00 0.  1.
        994   -1    0    0    0    0 -0.00000000000E+00 -0.00000000000E+00  0.11368683772E-12  0.17120000000E+03  0.17120000000E+03 0.  0.
         13    1    1    2    0    0 -0.29551380849E+02  0.27631044999E+02  0.17272177094E+03  0.17739667437E+03  0.10566000000E+00 0.  1.
        994    1    1    2    0    0 -0.26880864248E+01 -0.11593510260E+02  0.57113440451E+01  0.17170816736E+03  0.17120000000E+03 0.  0.
        998    1    1    2    0    0  0.32239467274E+02 -0.16037534739E+02  0.13215668813E+04  0.13220951583E+04  0.10000000000E+02 0.  1.
</event>
<event>
 5    1  0.1640179E-008  0.3818832E+03  0.7957747E-01  0.3442999E+00
         13   -1    0    0    0    0  0.00000000000E+00  0.00000000000E+00  0.14999999963E+04  0.15000000000E+04  0.10566000000E+00 0. -1.
        994   -1    0    0    0    0 -0.00000000000E+00 -0.00000000000E+00  0.11368683772E-12  0.17120000000E+03  0.17120000000E+03 0.  0.
         13    1    1    2    0    0  0.77628268715E+01  0.18379797792E+02  0.68328380604E+02  0.71181860104E+02  0.10566000000E+00 0. -1.
        994    1    1    2    0    0  0.29792717678E+02 -0.33481376953E+01  0.61773540457E+01  0.17391496703E+03  0.17120000000E+03 0.  0.
        998    1    1    2    0    0 -0.37555544550E+02 -0.15031660097E+02  0.14254942616E+04  0.14261031729E+04  0.10000000000E+02 0. -1.
</event>
<event>
 5    1  0.1640179E-008  0.3698235E+03  0.7957747E-01  0.3496702E+00
         13   -1    0    0    0    0  0.00000000000E+00  0.00000000000E+00  0.14999999963E+04  0.15000000000E+04  0.10566000000E+00 0. -1.
        994   -1    0    0    0    0 -0.00000000000E+00 -0.00000000000E+00  0.11368683772E-12  0.17120000000E+03  0.17120000000E+03 0.  0.
         13    1    1    2    0    0  0.43687960371E+01  0.26689285294E+02  0.34251808394E+02  0.43641744587E+02  0.10566000000E+00 0. -1.
        994    1    1    2    0    0 -0.17339425474E+01 -0.30219258241E+02  0.12537772369E+02  0.17430675793E+03  0.17120000000E+03 0.  0.
        998    1    1    2    0    0 -0.26348534897E+01  0.35299729469E+01  0.14532104155E+04  0.14532514975E+04  0.10000000000E+02 0. -1.
</event>
<event>
 5    1  0.1640179E-008  0.3703431E+03  0.7957747E-01  0.3494316E+00
         13   -1    0    0    0    0  0.00000000000E+00  0.00000000000E+00  0.14999999963E+04  0.15000000000E+04  0.10566000000E+00 0.  1.
        994   -1    0    0    0    0 -0.00000000000E+00 -0.00000000000E+00  0.11368683772E-12  0.17120000000E+03  0.17120000000E+03 0.  0.
         13    1    1    2    0    0  0.68487036498E+01 -0.45089904940E+02  0.89099995777E+02  0.10009407915E+03  0.10566000000E+00 0.  1.
        994    1    1    2    0    0  0.79309902862E+01  0.32592547816E+02  0.15068868439E+02  0.17510478456E+03  0.17120000000E+03 0.  0.
        998    1    1    2    0    0 -0.14779693936E+02  0.12497357124E+02  0.13958311321E+04  0.13960011363E+04  0.10000000000E+02 0.  1.
</event>
<event>
 5    1  0.1640179E-008  0.3711952E+03  0.7957747E-01  0.3490416E+00
         13   -1    0    0    0    0  0.00000000000E+00  0.00000000000E+00  0.14999999963E+04  0.15000000000E+04  0.10566000000E+00 0.  1.
        994   -1    0    0    0    0 -0.00000000000E+00 -0.00000000000E+00  0.11368683772E-12  0.17120000000E+03  0.17120000000E+03 0.  0.
         13    1    1    2    0    0  0.70604758389E+02  0.19133344443E+02  0.20061165822E+03  0.21353258616E+03  0.10566000000E+00 0.  1.
        994    1    1    2    0    0 -0.11818648026E+03 -0.34236604435E+02  0.62735184985E+02  0.21996666255E+03  0.17120000000E+03 0.  0.
        998    1    1    2    0    0  0.47581721869E+02  0.15103259992E+02  0.12366531531E+04  0.12377007513E+04  0.10000000000E+02 0.  1.
</event>
<event>
 5    1  0.1640179E-008  0.3820324E+03  0.7957747E-01  0.3442357E+00
         13   -1    0    0    0    0  0.00000000000E+00  0.00000000000E+00  0.14999999963E+04  0.15000000000E+04  0.10566000000E+00 0. -1.
        994   -1    0    0    0    0 -0.00000000000E+00 -0.00000000000E+00  0.11368683772E-12  0.17120000000E+03  0.17120000000E+03 0.  0.
         13    1    1    2    0    0 -0.22009478388E+02  0.11749675429E+02  0.10703337138E+03  0.10990280144E+03  0.10566000000E+00 0. -1.
        994    1    1    2    0    0  0.26007671576E+01 -0.68836242603E+00  0.31347522393E+01  0.17124983067E+03  0.17120000000E+03 0.  0.
        998    1    1    2    0    0  0.19408711231E+02 -0.11061313002E+02  0.13898318727E+04  0.13900473679E+04  0.10000000000E+02 0. -1.
</event>
<event>
 5    1  0.1640179E-008  0.3775085E+03  0.7957747E-01  0.3462080E+00
         13   -1    0    0    0    0  0.00000000000E+00  0.00000000000E+00  0.14999999963E+04  0.15000000000E+04  0.10566000000E+00 0.  1.
        994   -1    0    0    0    0 -0.00000000000E+00 -0.00000000000E+00  0.11368683772E-12  0.17120000000E+03  0.17120000000E+03 0.  0.
         13    1    1    2    0    0 -0.13811316290E+02 -0.26913697698E+00  0.15707480292E+02  0.20917958637E+02  0.10566000000E+00 0.  1.
        994    1    1    2    0    0 -0.17862873815E+00 -0.47109341306E+01  0.54711028663E+01  0.17135226224E+03  0.17120000000E+03 0.  0.
        998    1    1    2    0    0  0.13989945028E+02  0.49800711076E+01  0.14788214131E+04  0.14789297791E+04  0.10000000000E+02 0.  1.
</event>
<event>
 5    1  0.1640179E-008  0.3838616E+03  0.7957747E-01  0.3434515E+00
         13   -1    0    0    0    0  0.00000000000E+00  0.00000000000E+00  0.14999999963E+04  0.15000000000E+04  0.10566000000E+00 0. -1.
        994   -1    0    0    0    0 -0.00000000000E+00 -0.00000000000E+00  0.11368683772E-12  0.17120000000E+03  0.17120000000E+03 0.  0.
         13    1    1    2    0    0 -0.11585890285E+02  0.56999084587E+01  0.34137091919E+02  0.36497589220E+02  0.10566000000E+00 0. -1.
        994    1    1    2    0    0  0.33815789893E+02 -0.13263645259E+01  0.59859301053E+01  0.17461540095E+03  0.17120000000E+03 0.  0.
        998    1    1    2    0    0 -0.22229899607E+02 -0.43735439328E+01  0.14598769743E+04  0.14600870098E+04  0.10000000000E+02 0. -1.
</event>
<event>
 5    1  0.1640179E-008  0.3704950E+03  0.7957747E-01  0.3493619E+00
         13   -1    0    0    0    0  0.00000000000E+00  0.00000000000E+00  0.14999999963E+04  0.15000000000E+04  0.10566000000E+00 0. -1.
        994   -1    0    0    0    0 -0.00000000000E+00 -0.00000000000E+00  0.11368683772E-12  0.17120000000E+03  0.17120000000E+03 0.  0.
         13    1    1    2    0    0  0.16763890234E+00  0.75553336301E+02  0.25758697815E+03  0.26843881464E+03  0.10566000000E+00 0. -1.
        994    1    1    2    0    0 -0.11670389675E+02 -0.76988587345E+02  0.30241023574E+02  0.19049251976E+03  0.17120000000E+03 0.  0.
        998    1    1    2    0    0  0.11502750773E+02  0.14352510440E+01  0.12121719945E+04  0.12122686656E+04  0.10000000000E+02 0. -1.
</event>
<event>
 5    1  0.1640179E-008  0.3718956E+03  0.7957747E-01  0.3487224E+00
         13   -1    0    0    0    0  0.00000000000E+00  0.00000000000E+00  0.14999999963E+04  0.15000000000E+04  0.10566000000E+00 0. -1.
        994   -1    0    0    0    0 -0.00000000000E+00 -0.00000000000E+00  0.11368683772E-12  0.17120000000E+03  0.17120000000E+03 0.  0.
         13    1    1    2    0    0  0.19010721068E+02  0.96200135114E+02  0.30169293981E+03  0.31722943528E+03  0.10566000000E+00 0. -1.
        994    1    1    2    0    0 -0.76726963025E+02 -0.94186208541E+02  0.65865255414E+02  0.22001304644E+03  0.17120000000E+03 0.  0.
        998    1    1    2    0    0  0.57716241957E+02 -0.20139265724E+01  0.11324418011E+04  0.11339575183E+04  0.10000000000E+02 0. -1.
</event>
<event>
 5    1  0.1640179E-008  0.3839661E+03  0.7957747E-01  0.3434069E+00
         13   -1    0    0    0    0  0.00000000000E+00  0.00000000000E+00  0.14999999963E+04  0.15000000000E+04  0.10566000000E+00 0.  1.
        994   -1    0    0    0    0 -0.00000000000E+00 -0.00000000000E+00  0.11368683772E-12  0.17120000000E+03  0.17120000000E+03 0.  0.
         13    1    1    2    0    0  0.10434691217E+02 -0.11300445465E+02  0.51982084896E+02  0.54210065142E+02  0.10566000000E+00 0.  1.
        994    1    1    2    0    0 -0.48726604282E+01  0.23365961802E+02  0.40264767402E+01  0.17290275737E+03  0.17120000000E+03 0.  0.
        998    1    1    2    0    0 -0.55620307886E+01 -0.12065516337E+02  0.14439914346E+04  0.14440871775E+04  0.10000000000E+02 0.  1.
</event>
<event>
 5    1  0.1640179E-008  0.3857630E+03  0.7957747E-01  0.3426443E+00
         13   -1    0    0    0    0  0.00000000000E+00  0.00000000000E+00  0.14999999963E+04  0.15000000000E+04  0.10566000000E+00 0.  1.
        994   -1    0    0    0    0 -0.00000000000E+00 -0.00000000000E+00  0.11368683772E-12  0.17120000000E+03  0.17120000000E+03 0.  0.
         13    1    1    2    0    0 -0.62461270725E+01 -0.10303317083E+02  0.58230384782E+02  0.59463949769E+02  0.10566000000E+00 0.  1.
        994    1    1    2    0    0  0.44047056994E+01  0.74348075156E+01  0.14968072250E+01  0.17142449716E+03  0.17120000000E+03 0.  0.
        998    1    1    2    0    0  0.18414213731E+01  0.28685095672E+01  0.14402728043E+04  0.14403115531E+04  0.10000000000E+02 0.  1.
</event>
<event>
 5    1  0.1640179E-008  0.3827095E+03  0.7957747E-01  0.3439445E+00
         13   -1    0    0    0    0  0.00000000000E+00  0.00000000000E+00  0.14999999963E+04  0.15000000000E+04  0.10566000000E+00 0.  1.
        994   -1    0    0    0    0 -0.00000000000E+00 -0.00000000000E+00  0.11368683772E-12  0.17120000000E+03  0.17120000000E+03 0.  0.
         13    1    1    2    0    0 -0.35449395805E+01 -0.23521105872E+02  0.11727456091E+03  0.11966262081E+03  0.10566000000E+00 0.  1.
        994    1    1    2    0    0 -0.43000815898E+01 -0.63064385482E+01  0.29646638457E+01  0.17139571494E+03  0.17120000000E+03 0.  0.
        998    1    1    2    0    0  0.78450211703E+01  0.29827544420E+02  0.13797607715E+04  0.13801416643E+04  0.10000000000E+02 0.  1.
</event>
<event>
 5    1  0.1640179E-008  0.3789977E+03  0.7957747E-01  0.3455534E+00
         13   -1    0    0    0    0  0.00000000000E+00  0.00000000000E+00  0.14999999963E+04  0.15000000000E+04  0.10566000000E+00 0.  1.
        994   -1    0    0    0    0 -0.00000000000E+00 -0.00000000000E+00  0.11368683772E-12  0.17120000000E+03  0.17120000000E+03 0.  0.
         13    1    1    2    0    0 -0.53226703427E+01 -0.12574796977E+03  0.35344282596E+03  0.37518358853E+03  0.10566000000E+00 0.  1.
        994    1    1    2    0    0  0.15845684519E+02  0.13149506043E+03  0.82184436388E+02  0.23152917358E+03  0.17120000000E+03 0.  0.
        998    1    1    2    0    0 -0.10523014176E+02 -0.57470906586E+01  0.10643727339E+04  0.10644872379E+04  0.10000000000E+02 0. -1.
</event>
<event>
 5    1  0.1640179E-008  0.3854462E+03  0.7957747E-01  0.3427782E+00
         13   -1    0    0    0    0  0.00000000000E+00  0.00000000000E+00  0.14999999963E+04  0.15000000000E+04  0.10566000000E+00 0.  1.
        994   -1    0    0    0    0 -0.00000000000E+00 -0.00000000000E+00  0.11368683772E-12  0.17120000000E+03  0.17120000000E+03 0.  0.
         13    1    1    2    0    0 -0.59215417379E+01  0.10073694851E+02  0.48312325901E+02  0.49705492478E+02  0.10566000000E+00 0.  1.
        994    1    1    2    0    0  0.27446219013E+01 -0.88198785506E+01  0.16889972409E+01  0.17145732973E+03  0.17120000000E+03 0.  0.
        998    1    1    2    0    0  0.31769198366E+01 -0.12538163007E+01  0.14499986731E+04  0.14500371778E+04  0.10000000000E+02 0.  1.
</event>
<event>
 5    1  0.1640179E-008  0.3842533E+03  0.7957747E-01  0.3432845E+00
         13   -1    0    0    0    0  0.00000000000E+00  0.00000000000E+00  0.14999999963E+04  0.15000000000E+04  0.10566000000E+00 0.  1.
        994   -1    0    0    0    0 -0.00000000000E+00 -0.00000000000E+00  0.11368683772E-12  0.17120000000E+03  0.17120000000E+03 0.  0.
         13    1    1    2    0    0  0.19056854518E+01 -0.14621224018E+02  0.54822580771E+02  0.56770928786E+02  0.10566000000E+00 0.  1.
        994    1    1    2    0    0 -0.37630831910E+01  0.63369680100E+01  0.21804054505E+01  0.17137243689E+03  0.17120000000E+03 0.  0.
        998    1    1    2    0    0  0.18573977391E+01  0.82842560076E+01  0.14429970101E+04  0.14430566343E+04  0.10000000000E+02 0.  1.
</event>
<event>
 5    1  0.1640179E-008  0.3779484E+03  0.7957747E-01  0.3460140E+00
         13   -1    0    0    0    0  0.00000000000E+00  0.00000000000E+00  0.14999999963E+04  0.15000000000E+04  0.10566000000E+00 0.  1.
        994   -1    0    0    0    0 -0.00000000000E+00 -0.00000000000E+00  0.11368683772E-12  0.17120000000E+03  0.17120000000E+03 0.  0.
         13    1    1    2    0    0  0.75449275046E+02  0.51899353989E+02  0.35149477546E+03  0.36322819878E+03  0.10566000000E+00 0.  1.
        994    1    1    2    0    0  0.16593813613E+02 -0.49565695690E+02  0.25096853596E+02  0.18075233028E+03  0.17120000000E+03 0.  0.
        998    1    1    2    0    0 -0.92043088659E+02 -0.23336582987E+01  0.11234083672E+04  0.11272194709E+04  0.10000000000E+02 0.  1.
</event>
<event>
 5    1  0.1640179E-008  0.3777747E+03  0.7957747E-01  0.3460905E+00
         13   -1    0    0    0    0  0.00000000000E+00  0.00000000000E+00  0.14999999963E+04  0.15000000000E+04  0.10566000000E+00 0. -1.
        994   -1    0    0    0    0 -0.00000000000E+00 -0.00000000000E+00  0.11368683772E-12  0.17120000000E+03  0.17120000000E+03 0.  0.
         13    1    1    2    0    0  0.99297036622E+01  0.49099242617E+02  0.20009493210E+03  0.20627003577E+03  0.10566000000E+00 0. -1.
        994    1    1    2    0    0 -0.46006760427E+02 -0.48087666338E+02  0.20324478140E+02  0.18480143417E+03  0.17120000000E+03 0.  0.
        998    1    1    2    0    0  0.36077056765E+02 -0.10115762788E+01  0.12795805860E+04  0.12801285301E+04  0.10000000000E+02 0. -1.
</event>
<event>
 5    1  0.1640179E-008  0.3709876E+03  0.7957747E-01  0.3491364E+00
         13   -1    0    0    0    0  0.00000000000E+00  0.00000000000E+00  0.14999999963E+04  0.15000000000E+04  0.10566000000E+00 0. -1.
        994   -1    0    0    0    0 -0.00000000000E+00 -0.00000000000E+00  0.11368683772E-12  0.17120000000E+03  0.17120000000E+03 0.  0.
         13    1    1    2    0    0 -0.46870520066E+01 -0.31757565434E+02  0.60639022260E+02  0.68612051445E+02  0.10566000000E+00 0. -1.
        994    1    1    2    0    0  0.46643787969E+01 -0.79989719071E+01  0.90492664242E+01  0.17168887327E+03  0.17120000000E+03 0.  0.
        998    1    1    2    0    0  0.22673209738E-01  0.39756537341E+02  0.14303117076E+04  0.14308990753E+04  0.10000000000E+02 0. -1.
</event>
<event>
 5    1  0.1640179E-008  0.3838428E+03  0.7957747E-01  0.3434595E+00
         13   -1    0    0    0    0  0.00000000000E+00  0.00000000000E+00  0.14999999963E+04  0.15000000000E+04  0.10566000000E+00 0.  1.
        994   -1    0    0    0    0 -0.00000000000E+00 -0.00000000000E+00  0.11368683772E-12  0.17120000000E+03  0.17120000000E+03 0.  0.
         13    1    1    2    0    0 -0.14080053532E+02 -0.30434061152E+00  0.43960237977E+02  0.46161176520E+02  0.10566000000E+00 0.  1.
        994    1    1    2    0    0  0.11616901335E+02  0.11644822365E+01  0.26558653814E+01  0.17161818679E+03  0.17120000000E+03 0.  0.
        998    1    1    2    0    0  0.24631521971E+01 -0.86014162497E+00  0.14533838929E+04  0.14534206367E+04  0.10000000000E+02 0.  1.
</event>
<event>
 5    1  0.1640179E-008  0.3846757E+03  0.7957747E-01  0.3431049E+00
         13   -1    0    0    0    0  0.00000000000E+00  0.00000000000E+00  0.14999999963E+04  0.15000000000E+04  0.10566000000E+00 0. -1.
        994   -1    0    0    0    0 -0.00000000000E+00 -0.00000000000E+00  0.11368683772E-12  0.17120000000E+03  0.17120000000E+03 0.  0.
         13    1    1    2    0    0  0.15440400761E+02 -0.38615506581E+01  0.79485295448E+02  0.81063190818E+02  0.10566000000E+00 0. -1.
        994    1    1    2    0    0  0.88246575280E+01  0.68005580116E+01  0.21999643639E+01  0.17157622799E+03  0.17120000000E+03 0.  0.
        998    1    1    2    0    0 -0.24265058289E+02 -0.29390073536E+01  0.14183147365E+04  0.14185605812E+04  0.10000000000E+02 0. -1.
</event>
<event>
 5    1  0.1640179E-008  0.3831639E+03  0.7957747E-01  0.3437497E+00
         13   -1    0    0    0    0  0.00000000000E+00  0.00000000000E+00  0.14999999963E+04  0.15000000000E+04  0.10566000000E+00 0.  1.
        994   -1    0    0    0    0 -0.00000000000E+00 -0.00000000000E+00  0.11368683772E-12  0.17120000000E+03  0.17120000000E+03 0.  0.
         13    1    1    2    0    0  0.11423040018E+02 -0.42216418364E+01  0.29266353559E+02  0.31699191121E+02  0.10566000000E+00 0.  1.
        994    1    1    2    0    0  0.25089523251E+01  0.39637899156E+01  0.26172722456E+01  0.17128425668E+03  0.17120000000E+03 0.  0.
        998    1    1    2    0    0 -0.13931992343E+02  0.25785192082E+00  0.14681163705E+04  0.14682165522E+04  0.10000000000E+02 0.  1.
</event>
<event>
 5    1  0.1640179E-008  0.3811412E+03  0.7957747E-01  0.3446204E+00
         13   -1    0    0    0    0  0.00000000000E+00  0.00000000000E+00  0.14999999963E+04  0.15000000000E+04  0.10566000000E+00 0. -1.
        994   -1    0    0    0    0 -0.00000000000E+00 -0.00000000000E+00  0.11368683772E-12  0.17120000000E+03  0.17120000000E+03 0.  0.
         13    1    1    2    0    0 -0.34752077547E+02 -0.12737709925E+02  0.18305140516E+03  0.18675594834E+03  0.10566000000E+00 0. -1.
        994    1    1    2    0    0  0.15973059604E+02  0.40799379080E+02  0.99781138362E+01  0.17699923933E+03  0.17120000000E+03 0.  0.
        998    1    1    2    0    0  0.18779017943E+02 -0.28061669155E+02  0.13069704773E+04  0.13074448123E+04  0.10000000000E+02 0. -1.
</event>
<event>
 5    1  0.1640179E-008  0.3623942E+03  0.7957747E-01  0.3531593E+00
         13   -1    0    0    0    0  0.00000000000E+00  0.00000000000E+00  0.14999999963E+04  0.15000000000E+04  0.10566000000E+00 0. -1.
        994   -1    0    0    0    0 -0.00000000000E+00 -0.00000000000E+00  0.11368683772E-12  0.17120000000E+03  0.17120000000E+03 0.  0.
         13    1    1    2    0    0 -0.19635795583E+03 -0.61307819939E+02  0.11544778012E+04  0.11726611191E+04  0.10566000000E+00 0. -1.
        994    1    1    2    0    0  0.18929874511E+03  0.29876187771E+02  0.14472055518E+03  0.29492385557E+03  0.17120000000E+03 0.  0.
        998    1    1    2    0    0  0.70592107219E+01  0.31431632168E+02  0.20080163991E+03  0.20361502535E+03  0.10000000000E+02 0.  1.
</event>
<event>
 5    1  0.1640179E-008  0.3845263E+03  0.7957747E-01  0.3431684E+00
         13   -1    0    0    0    0  0.00000000000E+00  0.00000000000E+00  0.14999999963E+04  0.15000000000E+04  0.10566000000E+00 0.  1.
        994   -1    0    0    0    0 -0.00000000000E+00 -0.00000000000E+00  0.11368683772E-12  0.17120000000E+03  0.17120000000E+03 0.  0.
         13    1    1    2    0    0 -0.13637854174E+02  0.14772295309E+02  0.11033425290E+03  0.11215110477E+03  0.10566000000E+00 0.  1.
        994    1    1    2    0    0  0.99313151864E+01 -0.45382788394E+01  0.22583004374E+01  0.17156272007E+03  0.17120000000E+03 0.  0.
        998    1    1    2    0    0  0.37065389876E+01 -0.10234016470E+02  0.13874074429E+04  0.13874861752E+04  0.10000000000E+02 0.  1.
</event>
<event>
 5    1  0.1640179E-008  0.3776575E+03  0.7957747E-01  0.3461422E+00
         13   -1    0    0    0    0  0.00000000000E+00  0.00000000000E+00  0.14999999963E+04  0.15000000000E+04  0.10566000000E+00 0. -1.
        994   -1    0    0    0    0 -0.00000000000E+00 -0.00000000000E+00  0.11368683772E-12  0.17120000000E+03  0.17120000000E+03 0.  0.
         13    1    1    2    0    0 -0.21153791953E+02  0.11326185209E+02  0.10637441725E+02  0.26247508755E+02  0.10566000000E+00 0. -1.
        994    1    1    2    0    0  0.88319608625E+02  0.19718423526E+03  0.20897467352E+03  0.34592171090E+03  0.17120000000E+03 0.  0.
        998    1    1    2    0    0 -0.67165816672E+02 -0.20851042047E+03  0.12803878810E+04  0.12990307803E+04  0.10000000000E+02 0. -1.
</event>
<event>
 5    1  0.1640179E-008  0.3759279E+03  0.7957747E-01  0.3469083E+00
         13   -1    0    0    0    0  0.00000000000E+00  0.00000000000E+00  0.14999999963E+04  0.15000000000E+04  0.10566000000E+00 0. -1.
        994   -1    0    0    0    0 -0.00000000000E+00 -0.00000000000E+00  0.11368683772E-12  0.17120000000E+03  0.17120000000E+03 0.  0.
         13    1    1    2    0    0  0.33176873929E+02  0.13858972444E+02  0.11091595418E+03  0.11659818239E+03  0.10566000000E+00 0. -1.
        994    1    1    2    0    0  0.30033896149E+01 -0.17141140243E+02  0.72298504649E+01  0.17223399715E+03  0.17120000000E+03 0.  0.
        998    1    1    2    0    0 -0.36180263544E+02  0.32821677992E+01  0.13818541916E+04  0.13823678205E+04  0.10000000000E+02 0. -1.
</event>
<event>
 5    1  0.1640179E-008  0.3852917E+03  0.7957747E-01  0.3428436E+00
         13   -1    0    0    0    0  0.00000000000E+00  0.00000000000E+00  0.14999999963E+04  0.15000000000E+04  0.10566000000E+00 0.  1.
        994   -1    0    0    0    0 -0.00000000000E+00 -0.00000000000E+00  0.11368683772E-12  0.17120000000E+03  0.17120000000E+03 0.  0.
         13    1    1    2    0    0 -0.42594522114E+01 -0.14594292432E+02  0.79844261701E+02  0.81278863152E+02  0.10566000000E+00 0.  1.
        994    1    1    2    0    0  0.21928952842E+02  0.13835959858E+01  0.30732296357E+01  0.17263162529E+03  0.17120000000E+03 0.  0.
        998    1    1    2    0    0 -0.17669500630E+02  0.13210696446E+02  0.14170825049E+04  0.14172895116E+04  0.10000000000E+02 0.  1.
</event>
<event>
 5    1  0.1640179E-008  0.3763152E+03  0.7957747E-01  0.3467361E+00
         13   -1    0    0    0    0  0.00000000000E+00  0.00000000000E+00  0.14999999963E+04  0.15000000000E+04  0.10566000000E+00 0.  1.
        994   -1    0    0    0    0 -0.00000000000E+00 -0.00000000000E+00  0.11368683772E-12  0.17120000000E+03  0.17120000000E+03 0.  0.
         13    1    1    2    0    0  0.27374002373E+01 -0.21779690779E+02  0.36965733068E+02  0.42992149002E+02  0.10566000000E+00 0.  1.
        994    1    1    2    0    0 -0.68237615652E+01  0.20860932987E+02  0.76368839308E+01  0.17277009071E+03  0.17120000000E+03 0.  0.
        998    1    1    2    0    0  0.40863613278E+01  0.91875779174E+00  0.14553973793E+04  0.14554377603E+04  0.10000000000E+02 0.  1.
</event>
<event>
 5    1  0.1640179E-008  0.3751849E+03  0.7957747E-01  0.3472396E+00
         13   -1    0    0    0    0  0.00000000000E+00  0.00000000000E+00  0.14999999963E+04  0.15000000000E+04  0.10566000000E+00 0.  1.
        994   -1    0    0    0    0 -0.00000000000E+00 -0.00000000000E+00  0.11368683772E-12  0.17120000000E+03  0.17120000000E+03 0.  0.
         13    1    1    2    0    0 -0.25243271511E+02 -0.16772733085E+02  0.62886342679E+02  0.69808671318E+02  0.10566000000E+00 0.  1.
        994    1    1    2    0    0  0.36185707186E+02  0.15632564531E+02  0.11880437310E+02  0.17608057039E+03  0.17120000000E+03 0.  0.
        998    1    1    2    0    0 -0.10942435675E+02  0.11401685536E+01  0.14252332163E+04  0.14253107583E+04  0.10000000000E+02 0.  1.
</event>
<event>
 5    1  0.1640179E-008  0.3751517E+03  0.7957747E-01  0.3472544E+00
         13   -1    0    0    0    0  0.00000000000E+00  0.00000000000E+00  0.14999999963E+04  0.15000000000E+04  0.10566000000E+00 0.  1.
        994   -1    0    0    0    0 -0.00000000000E+00 -0.00000000000E+00  0.11368683772E-12  0.17120000000E+03  0.17120000000E+03 0.  0.
         13    1    1    2    0    0 -0.85479496046E+01 -0.61655877115E+01 -0.24023820612E+01  0.10810389349E+02  0.10566000000E+00 0.  1.
        994    1    1    2    0    0  0.15410943415E+02  0.10235157287E+02  0.14908640202E+02  0.17284086084E+03  0.17120000000E+03 0.  0.
        998    1    1    2    0    0 -0.68629938103E+01 -0.40695695754E+01  0.14874937381E+04  0.14875487498E+04  0.10000000000E+02 0.  1.
</event>
<event>
 5    1  0.1640179E-008  0.3838908E+03  0.7957747E-01  0.3434390E+00
         13   -1    0    0    0    0  0.00000000000E+00  0.00000000000E+00  0.14999999963E+04  0.15000000000E+04  0.10566000000E+00 0. -1.
        994   -1    0    0    0    0 -0.00000000000E+00 -0.00000000000E+00  0.11368683772E-12  0.17120000000E+03  0.17120000000E+03 0.  0.
         13    1    1    2    0    0  0.10036780032E+02 -0.22918615791E+01  0.24271287698E+02  0.26364676244E+02  0.10566000000E+00 0. -1.
        994    1    1    2    0    0  0.57373655885E-01 -0.27365699124E+01  0.22065665888E+01  0.17123609737E+03  0.17120000000E+03 0.  0.
        998    1    1    2    0    0 -0.10094153688E+02  0.50284314915E+01  0.14735221420E+04  0.14735992264E+04  0.10000000000E+02 0. -1.
</event>
<event>
 5    1  0.1640179E-008  0.3714385E+03  0.7957747E-01  0.3489306E+00
         13   -1    0    0    0    0  0.00000000000E+00  0.00000000000E+00  0.14999999963E+04  0.15000000000E+04  0.10566000000E+00 0.  1.
        994   -1    0    0    0    0 -0.00000000000E+00 -0.00000000000E+00  0.11368683772E-12  0.17120000000E+03  0.17120000000E+03 0.  0.
         13    1    1    2    0    0  0.11407155592E+03  0.11651287907E+03  0.55485130237E+03  0.57831440390E+03  0.10566000000E+00 0.  1.
        994    1    1    2    0    0 -0.12445024996E+03 -0.12649989426E+03  0.13225940704E+03  0.27980721705E+03  0.17120000000E+03 0.  0.
        998    1    1    2    0    0  0.10378694041E+02  0.99870151946E+01  0.81288928687E+03  0.81307837905E+03  0.10000000000E+02 0.  1.
</event>
<event>
 5    1  0.1640179E-008  0.3842096E+03  0.7957747E-01  0.3433031E+00
         13   -1    0    0    0    0  0.00000000000E+00  0.00000000000E+00  0.14999999963E+04  0.15000000000E+04  0.10566000000E+00 0. -1.
        994   -1    0    0    0    0 -0.00000000000E+00 -0.00000000000E+00  0.11368683772E-12  0.17120000000E+03  0.17120000000E+03 0.  0.
         13    1    1    2    0    0  0.58004354124E+00  0.12070556281E+02  0.35905012925E+02  0.37884243382E+02  0.10566000000E+00 0. -1.
        994    1    1    2    0    0  0.28022263343E+01 -0.64916014090E+01  0.21879001002E+01  0.17135991441E+03  0.17120000000E+03 0.  0.
        998    1    1    2    0    0 -0.33822698755E+01 -0.55789548716E+01  0.14619070833E+04  0.14619558422E+04  0.10000000000E+02 0. -1.
</event>
<event>
 5    1  0.1640179E-008  0.3828731E+03  0.7957747E-01  0.3438743E+00
         13   -1    0    0    0    0  0.00000000000E+00  0.00000000000E+00  0.14999999963E+04  0.15000000000E+04  0.10566000000E+00 0. -1.
        994   -1    0    0    0    0 -0.00000000000E+00 -0.00000000000E+00  0.11368683772E-12  0.17120000000E+03  0.17120000000E+03 0.  0.
         13    1    1    2    0    0  0.27442849388E+01 -0.16097323768E+02  0.48772278122E+02  0.51433463908E+02  0.10566000000E+00 0. -1.
        994    1    1    2    0    0 -0.46616871063E+00  0.10697642872E+02  0.30695644130E+01  0.17156199784E+03  0.17120000000E+03 0.  0.
        998    1    1    2    0    0 -0.22781162282E+01  0.53996808961E+01  0.14481581537E+04  0.14482045383E+04  0.10000000000E+02 0. -1.
</event>
<event>
 5    1  0.1640179E-008  0.3854007E+03  0.7957747E-01  0.3427975E+00
         13   -1    0    0    0    0  0.00000000000E+00  0.00000000000E+00  0.14999999963E+04  0.15000000000E+04  0.10566000000E+00 0.  1.
        994   -1    0    0    0    0 -0.00000000000E+00 -0.00000000000E+00  0.11368683772E-12  0.17120000000E+03  0.17120000000E+03 0.  0.
         13    1    1    2    0    0  0.10202453443E+02  0.41073787632E-01  0.34441513592E+02  0.35921035144E+02  0.10566000000E+00 0.  1.
        994    1    1    2    0    0 -0.18030991102E+02  0.39099098392E+01  0.25501565213E+01  0.17221018359E+03  0.17120000000E+03 0.  0.
        998    1    1    2    0    0  0.78285376588E+01 -0.39509836269E+01  0.14630083262E+04  0.14630687813E+04  0.10000000000E+02 0.  1.
</event>
<event>
 5    1  0.1640179E-008  0.3859498E+03  0.7957747E-01  0.3425654E+00
         13   -1    0    0    0    0  0.00000000000E+00  0.00000000000E+00  0.14999999963E+04  0.15000000000E+04  0.10566000000E+00 0. -1.
        994   -1    0    0    0    0 -0.00000000000E+00 -0.00000000000E+00  0.11368683772E-12  0.17120000000E+03  0.17120000000E+03 0.  0.
         13    1    1    2    0    0 -0.13713976943E+02 -0.10017947914E+03  0.34370989966E+03  0.35827434668E+03  0.10566000000E+00 0. -1.
        994    1    1    2    0    0  0.19984695024E+02  0.42573509881E+01  0.21182762677E+02  0.17371143459E+03  0.17120000000E+03 0.  0.
        998    1    1    2    0    0 -0.62707180807E+01  0.95922128155E+02  0.11351073339E+04  0.11392142187E+04  0.10000000000E+02 0. -1.
</event>
<event>
 5    1  0.1640179E-008  0.3732499E+03  0.7957747E-01  0.3481087E+00
         13   -1    0    0    0    0  0.00000000000E+00  0.00000000000E+00  0.14999999963E+04  0.15000000000E+04  0.10566000000E+00 0. -1.
        994   -1    0    0    0    0 -0.00000000000E+00 -0.00000000000E+00  0.11368683772E-12  0.17120000000E+03  0.17120000000E+03 0.  0.
         13    1    1    2    0    0 -0.19694351071E+02  0.17368401738E+02  0.22411003880E+02  0.34522356553E+02  0.10566000000E+00 0. -1.
        994    1    1    2    0    0  0.15395820174E+02  0.26080312141E+01  0.13530377483E+02  0.17244229244E+03  0.17120000000E+03 0.  0.
        998    1    1    2    0    0  0.42985308971E+01 -0.19976432952E+02  0.14640586149E+04  0.14642353510E+04  0.10000000000E+02 0. -1.
</event>
<event>
 5    1  0.1640179E-008  0.3706069E+03  0.7957747E-01  0.3493106E+00
         13   -1    0    0    0    0  0.00000000000E+00  0.00000000000E+00  0.14999999963E+04  0.15000000000E+04  0.10566000000E+00 0.  1.
        994   -1    0    0    0    0 -0.00000000000E+00 -0.00000000000E+00  0.11368683772E-12  0.17120000000E+03  0.17120000000E+03 0.  0.
         13    1    1    2    0    0 -0.67907470633E+01  0.46846991704E+02  0.77033795315E+02  0.90415549891E+02  0.10566000000E+00 0.  1.
        994    1    1    2    0    0  0.13521931318E+02 -0.95127777024E+02  0.44345915129E+02  0.20126633294E+03  0.17120000000E+03 0.  0.
        998    1    1    2    0    0 -0.67311842543E+01  0.48280785320E+02  0.13786202858E+04  0.13795181172E+04  0.10000000000E+02 0.  1.
</event>
<event>
 5    1  0.1640179E-008  0.3775878E+03  0.7957747E-01  0.3461730E+00
         13   -1    0    0    0    0  0.00000000000E+00  0.00000000000E+00  0.14999999963E+04  0.15000000000E+04  0.10566000000E+00 0. -1.
        994   -1    0    0    0    0 -0.00000000000E+00 -0.00000000000E+00  0.11368683772E-12  0.17120000000E+03  0.17120000000E+03 0.  0.
         13    1    1    2    0    0  0.23021425685E+02  0.46741512353E+02  0.25051004816E+03  0.25587115979E+03  0.10566000000E+00 0. -1.
        994    1    1    2    0    0  0.46304157842E+01 -0.36839286753E+02  0.10015402474E+02  0.17546601405E+03  0.17120000000E+03 0.  0.
        998    1    1    2    0    0 -0.27651841469E+02 -0.99022255999E+01  0.12394745456E+04  0.12398628262E+04  0.10000000000E+02 0. -1.
</event>
<event>
 5    1  0.1640179E-008  0.3829395E+03  0.7957747E-01  0.3438458E+00
         13   -1    0    0    0    0  0.00000000000E+00  0.00000000000E+00  0.14999999963E+04  0.15000000000E+04  0.10566000000E+00 0. -1.
        994   -1    0    0    0    0 -0.00000000000E+00 -0.00000000000E+00  0.11368683772E-12  0.17120000000E+03  0.17120000000E+03 0.  0.
         13    1    1    2    0    0  0.12899670196E+02 -0.23991297400E+02  0.12890975678E+03  0.13175629169E+03  0.10566000000E+00 0. -1.
        994    1    1    2    0    0 -0.11854354504E+02  0.24255293958E+02  0.50733625768E+01  0.17338980366E+03  0.17120000000E+03 0.  0.
        998    1    1    2    0    0 -0.10453156926E+01 -0.26399655704E+00  0.13660168769E+04  0.13660539046E+04  0.10000000000E+02 0. -1.
</event>
<event>
 5    1  0.1640179E-008  0.3833860E+03  0.7957747E-01  0.3436546E+00
         13   -1    0    0    0    0  0.00000000000E+00  0.00000000000E+00  0.14999999963E+04  0.15000000000E+04  0.10566000000E+00 0.  1.
        994   -1    0    0    0    0 -0.00000000000E+00 -0.00000000000E+00  0.11368683772E-12  0.17120000000E+03  0.17120000000E+03 0.  0.
         13    1    1    2    0    0 -0.70862804692E+01 -0.98363856798E+01  0.28860554044E+02  0.31303555675E+02  0.10566000000E+00 0.  1.
        994    1    1    2    0    0  0.18605301320E+01  0.15264336992E+02  0.32156856265E+01  0.17191928976E+03  0.17120000000E+03 0.  0.
        998    1    1    2    0    0  0.52257503371E+01 -0.54279513123E+01  0.14679237566E+04  0.14679771546E+04  0.10000000000E+02 0.  1.
</event>
<event>
 5    1  0.1640179E-008  0.3850759E+03  0.7957747E-01  0.3429350E+00
         13   -1    0    0    0    0  0.00000000000E+00  0.00000000000E+00  0.14999999963E+04  0.15000000000E+04  0.10566000000E+00 0. -1.
        994   -1    0    0    0    0 -0.00000000000E+00 -0.00000000000E+00  0.11368683772E-12  0.17120000000E+03  0.17120000000E+03 0.  0.
         13    1    1    2    0    0 -0.11443004016E+02  0.60567754353E+01  0.54847655980E+02  0.56355154158E+02  0.10566000000E+00 0. -1.
        994    1    1    2    0    0  0.89078930913E+00 -0.19325584319E+01  0.16073581225E+01  0.17122076944E+03  0.17120000000E+03 0.  0.
        998    1    1    2    0    0  0.10552214707E+02 -0.41242170034E+01  0.14435449822E+04  0.14436240764E+04  0.10000000000E+02 0. -1.
</event>
<event>
 5    1  0.1640179E-008  0.3841822E+03  0.7957747E-01  0.3433148E+00
         13   -1    0    0    0    0  0.00000000000E+00  0.00000000000E+00  0.14999999963E+04  0.15000000000E+04  0.10566000000E+00 0. -1.
        994   -1    0    0    0    0 -0.00000000000E+00 -0.00000000000E+00  0.11368683772E-12  0.17120000000E+03  0.17120000000E+03 0.  0.
         13    1    1    2    0    0  0.35956231213E+01 -0.12743572523E+02  0.46349377799E+02  0.48203766789E+02  0.10566000000E+00 0. -1.
        994    1    1    2    0    0 -0.75014385829E+01 -0.10566772065E+02  0.25906022385E+01  0.17170928767E+03  0.17120000000E+03 0.  0.
        998    1    1    2    0    0  0.39058154616E+01  0.23310344588E+02  0.14510600162E+04  0.14512869455E+04  0.10000000000E+02 0. -1.
</event>
<event>
 5    1  0.1640179E-008  0.3744107E+03  0.7957747E-01  0.3475862E+00
         13   -1    0    0    0    0  0.00000000000E+00  0.00000000000E+00  0.14999999963E+04  0.15000000000E+04  0.10566000000E+00 0. -1.
        994   -1    0    0    0    0 -0.00000000000E+00 -0.00000000000E+00  0.11368683772E-12  0.17120000000E+03  0.17120000000E+03 0.  0.
         13    1    1    2    0    0  0.11180394124E+02  0.86550452231E+01  0.11906509567E+02  0.18484781705E+02  0.10566000000E+00 0. -1.
        994    1    1    2    0    0  0.13140725842E+02  0.10920310693E+02  0.79765704226E+01  0.17223529701E+03  0.17120000000E+03 0.  0.
        998    1    1    2    0    0 -0.24321119966E+02 -0.19575355916E+02  0.14801169163E+04  0.14804799213E+04  0.10000000000E+02 0. -1.
</event>
<event>
 5    1  0.1640179E-008  0.3729011E+03  0.7957747E-01  0.3482663E+00
         13   -1    0    0    0    0  0.00000000000E+00  0.00000000000E+00  0.14999999963E+04  0.15000000000E+04  0.10566000000E+00 0. -1.
        994   -1    0    0    0    0 -0.00000000000E+00 -0.00000000000E+00  0.11368683772E-12  0.17120000000E+03  0.17120000000E+03 0.  0.
         13    1    1    2    0    0  0.14553404645E+02 -0.26420550614E+02  0.28064784412E+02  0.41200611277E+02  0.10566000000E+00 0. -1.
        994    1    1    2    0    0 -0.61904269255E+02  0.39715848097E+02  0.31841312809E+02  0.18903120468E+03  0.17120000000E+03 0.  0.
        998    1    1    2    0    0  0.47350864610E+02 -0.13295297483E+02  0.14400938991E+04  0.14409681840E+04  0.10000000000E+02 0. -1.
</event>
<event>
 5    1  0.1640179E-008  0.3838087E+03  0.7957747E-01  0.3434740E+00
         13   -1    0    0    0    0  0.00000000000E+00  0.00000000000E+00  0.14999999963E+04  0.15000000000E+04  0.10566000000E+00 0. -1.
        994   -1    0    0    0    0 -0.00000000000E+00 -0.00000000000E+00  0.11368683772E-12  0.17120000000E+03  0.17120000000E+03 0.  0.
         13    1    1    2    0    0  0.12295360011E+02 -0.28789337020E+01  0.35976770796E+02  0.38128773099E+02  0.10566000000E+00 0. -1.
        994    1    1    2    0    0 -0.28422842113E+01  0.43728320446E+01  0.23125667831E+01  0.17129503263E+03  0.17120000000E+03 0.  0.
        998    1    1    2    0    0 -0.94530757993E+01 -0.14938983426E+01  0.14617106587E+04  0.14617761943E+04  0.10000000000E+02 0. -1.
</event>
<event>
 5    1  0.1640179E-008  0.3699164E+03  0.7957747E-01  0.3496275E+00
         13   -1    0    0    0    0  0.00000000000E+00  0.00000000000E+00  0.14999999963E+04  0.15000000000E+04  0.10566000000E+00 0. -1.
        994   -1    0    0    0    0 -0.00000000000E+00 -0.00000000000E+00  0.11368683772E-12  0.17120000000E+03  0.17120000000E+03 0.  0.
         13    1    1    2    0    0 -0.21246895157E+02 -0.10800021565E+02  0.25973584102E+02  0.35252081566E+02  0.10566000000E+00 0. -1.
        994    1    1    2    0    0  0.24727021328E+02  0.10635950139E+02  0.11822820640E+02  0.17370598178E+03  0.17120000000E+03 0.  0.
        998    1    1    2    0    0 -0.34801261704E+01  0.16407142571E+00  0.14622035915E+04  0.14622419367E+04  0.10000000000E+02 0. -1.
</event>
<event>
 5    1  0.1640179E-008  0.3808025E+03  0.7957747E-01  0.3447672E+00
         13   -1    0    0    0    0  0.00000000000E+00  0.00000000000E+00  0.14999999963E+04  0.15000000000E+04  0.10566000000E+00 0.  1.
        994   -1    0    0    0    0 -0.00000000000E+00 -0.00000000000E+00  0.11368683772E-12  0.17120000000E+03  0.17120000000E+03 0.  0.
         13    1    1    2    0    0 -0.13312256976E+02 -0.33101163024E+02  0.17992949796E+03  0.18343265407E+03  0.10566000000E+00 0.  1.
        994    1    1    2    0    0  0.35057048148E+01  0.12224967675E+02  0.42680503497E+01  0.17172476832E+03  0.17120000000E+03 0.  0.
        998    1    1    2    0    0  0.98065521616E+01  0.20876195349E+02  0.13158024480E+04  0.13160425776E+04  0.10000000000E+02 0.  1.
</event>
<event>
 5    1  0.1640179E-008  0.3840777E+03  0.7957747E-01  0.3433593E+00
         13   -1    0    0    0    0  0.00000000000E+00  0.00000000000E+00  0.14999999963E+04  0.15000000000E+04  0.10566000000E+00 0.  1.
        994   -1    0    0    0    0 -0.00000000000E+00 -0.00000000000E+00  0.11368683772E-12  0.17120000000E+03  0.17120000000E+03 0.  0.
         13    1    1    2    0    0 -0.11683082825E+02 -0.58818542880E+00  0.32476622327E+02  0.34519306891E+02  0.10566000000E+00 0.  1.
        994    1    1    2    0    0  0.58330550068E+01  0.28610036876E+01  0.22279615781E+01  0.17133771822E+03  0.17120000000E+03 0.  0.
        998    1    1    2    0    0  0.58500278183E+01 -0.22728182588E+01  0.14652954124E+04  0.14653429749E+04  0.10000000000E+02 0.  1.
</event>
<event>
 5    1  0.1640179E-008  0.3816491E+03  0.7957747E-01  0.3444009E+00
         13   -1    0    0    0    0  0.00000000000E+00  0.00000000000E+00  0.14999999963E+04  0.15000000000E+04  0.10566000000E+00 0. -1.
        994   -1    0    0    0    0 -0.00000000000E+00 -0.00000000000E+00  0.11368683772E-12  0.17120000000E+03  0.17120000000E+03 0.  0.
         13    1    1    2    0    0 -0.19338401068E+02  0.40649369203E+02  0.24421499946E+03  0.24832906011E+03  0.10566000000E+00 0. -1.
        994    1    1    2    0    0  0.33469717242E+02 -0.41129917461E+02  0.12708978583E+02  0.17967428925E+03  0.17120000000E+03 0.  0.
        998    1    1    2    0    0 -0.14131316175E+02  0.48054825728E+00  0.12430760182E+04  0.12431966506E+04  0.10000000000E+02 0. -1.
</event>
<event>
 5    1  0.1640179E-008  0.3847774E+03  0.7957747E-01  0.3430617E+00
         13   -1    0    0    0    0  0.00000000000E+00  0.00000000000E+00  0.14999999963E+04  0.15000000000E+04  0.10566000000E+00 0.  1.
        994   -1    0    0    0    0 -0.00000000000E+00 -0.00000000000E+00  0.11368683772E-12  0.17120000000E+03  0.17120000000E+03 0.  0.
         13    1    1    2    0    0 -0.38141642554E+01 -0.12191174736E+02  0.47558668395E+02  0.49244397589E+02  0.10566000000E+00 0.  1.
        994    1    1    2    0    0  0.67291977631E+00  0.51198217854E+01  0.18284488005E+01  0.17128761958E+03  0.17120000000E+03 0.  0.
        998    1    1    2    0    0  0.31412444791E+01  0.70713529508E+01  0.14506128791E+04  0.14506679828E+04  0.10000000000E+02 0.  1.
</event>
<event>
 5    1  0.1640179E-008  0.3809893E+03  0.7957747E-01  0.3446862E+00
         13   -1    0    0    0    0  0.00000000000E+00  0.00000000000E+00  0.14999999963E+04  0.15000000000E+04  0.10566000000E+00 0. -1.
        994   -1    0    0    0    0 -0.00000000000E+00 -0.00000000000E+00  0.11368683772E-12  0.17120000000E+03  0.17120000000E+03 0.  0.
         13    1    1    2    0    0  0.21088599766E+02 -0.34836002888E+00  0.61606940993E+02  0.65117407330E+02  0.10566000000E+00 0. -1.
        994    1    1    2    0    0 -0.71712939661E+01 -0.27274146804E+01  0.38307651826E+01  0.17141464643E+03  0.17120000000E+03 0.  0.
        998    1    1    2    0    0 -0.13917305800E+02  0.30757747092E+01  0.14345622901E+04  0.14346679462E+04  0.10000000000E+02 0. -1.
</event>
<event>
 5    1  0.1640179E-008  0.3834446E+03  0.7957747E-01  0.3436296E+00
         13   -1    0    0    0    0  0.00000000000E+00  0.00000000000E+00  0.14999999963E+04  0.15000000000E+04  0.10566000000E+00 0. -1.
        994   -1    0    0    0    0 -0.00000000000E+00 -0.00000000000E+00  0.11368683772E-12  0.17120000000E+03  0.17120000000E+03 0.  0.
         13    1    1    2    0    0 -0.12710466322E+02  0.19727528104E+02  0.14118684226E+03  0.14312395645E+03  0.10566000000E+00 0. -1.
        994    1    1    2    0    0  0.53755198587E+01  0.17244408446E+02  0.34834942869E+01  0.17218548304E+03  0.17120000000E+03 0.  0.
        998    1    1    2    0    0  0.73349464630E+01 -0.36971936550E+02  0.13553296597E+04  0.13558905605E+04  0.10000000000E+02 0. -1.
</event>
<event>
 5    1  0.1640179E-008  0.3975070E+03  0.7957747E-01  0.3378301E+00
         13   -1    0    0    0    0  0.00000000000E+00  0.00000000000E+00  0.14999999963E+04  0.15000000000E+04  0.10566000000E+00 0.  1.
        994   -1    0    0    0    0 -0.00000000000E+00 -0.00000000000E+00  0.11368683772E-12  0.17120000000E+03  0.17120000000E+03 0.  0.
         13    1    1    2    0    0 -0.40805773405E+02 -0.34742964286E+02  0.42684592643E+02  0.68514015527E+02  0.10566000000E+00 0.  1.
        994    1    1    2    0    0  0.47627076467E+02  0.41674825861E+02  0.41988264233E+02  0.18729010614E+03  0.17120000000E+03 0.  0.
        998    1    1    2    0    0 -0.68213030614E+01 -0.69318615751E+01  0.14153271394E+04  0.14153958783E+04  0.10000000000E+02 0.  1.
</event>
<event>
 5    1  0.1640179E-008  0.3898015E+03  0.7957747E-01  0.3409560E+00
         13   -1    0    0    0    0  0.00000000000E+00  0.00000000000E+00  0.14999999963E+04  0.15000000000E+04  0.10566000000E+00 0. -1.
        994   -1    0    0    0    0 -0.00000000000E+00 -0.00000000000E+00  0.11368683772E-12  0.17120000000E+03  0.17120000000E+03 0.  0.
         13    1    1    2    0    0 -0.16660113465E+01  0.27613931806E+02  0.80367295726E+01  0.28808071956E+02  0.10566000000E+00 0. -1.
        994    1    1    2    0    0  0.13577590281E+02 -0.30112674568E+02  0.25931306014E+02  0.17627534359E+03  0.17120000000E+03 0.  0.
        998    1    1    2    0    0 -0.11911578935E+02  0.24987427621E+01  0.14660319607E+04  0.14661165844E+04  0.10000000000E+02 0. -1.
</event>
<event>
 5    1  0.1640179E-008  0.3702226E+03  0.7957747E-01  0.3494868E+00
         13   -1    0    0    0    0  0.00000000000E+00  0.00000000000E+00  0.14999999963E+04  0.15000000000E+04  0.10566000000E+00 0.  1.
        994   -1    0    0    0    0 -0.00000000000E+00 -0.00000000000E+00  0.11368683772E-12  0.17120000000E+03  0.17120000000E+03 0.  0.
         13    1    1    2    0    0  0.12281977133E+02  0.49867336376E+02  0.15597017039E+03  0.16420811008E+03  0.10566000000E+00 0.  1.
        994    1    1    2    0    0  0.15390195779E+01 -0.99391254828E+01  0.95023255477E+01  0.17175822830E+03  0.17120000000E+03 0.  0.
        998    1    1    2    0    0 -0.13820996711E+02 -0.39928210893E+02  0.13345275003E+04  0.13352336616E+04  0.10000000000E+02 0.  1.
</event>
<event>
 5    1  0.1640179E-008  0.3823771E+03  0.7957747E-01  0.3440873E+00
         13   -1    0    0    0    0  0.00000000000E+00  0.00000000000E+00  0.14999999963E+04  0.15000000000E+04  0.10566000000E+00 0.  1.
        994   -1    0    0    0    0 -0.00000000000E+00 -0.00000000000E+00  0.11368683772E-12  0.17120000000E+03  0.17120000000E+03 0.  0.
         13    1    1    2    0    0 -0.33673734946E+01  0.13034142505E+02  0.30779383267E+02  0.33594786403E+02  0.10566000000E+00 0.  1.
        994    1    1    2    0    0 -0.19971576890E+01 -0.35142498453E+00  0.29516097823E+01  0.17123744958E+03  0.17120000000E+03 0.  0.
        998    1    1    2    0    0  0.53645311836E+01 -0.12682717521E+02  0.14662690032E+04  0.14663677640E+04  0.10000000000E+02 0.  1.
</event>
<event>
 5    1  0.1640179E-008  0.3687503E+03  0.7957747E-01  0.3501654E+00
         13   -1    0    0    0    0  0.00000000000E+00  0.00000000000E+00  0.14999999963E+04  0.15000000000E+04  0.10566000000E+00 0. -1.
        994   -1    0    0    0    0 -0.00000000000E+00 -0.00000000000E+00  0.11368683772E-12  0.17120000000E+03  0.17120000000E+03 0.  0.
         13    1    1    2    0    0  0.85517028113E+02  0.31733630058E+02  0.32665993109E+03  0.33915616922E+03  0.10566000000E+00 0. -1.
        994    1    1    2    0    0 -0.79508998768E+02 -0.43524780435E+02  0.39024227549E+02  0.19760672492E+03  0.17120000000E+03 0.  0.
        998    1    1    2    0    0 -0.60080293446E+01  0.11791150377E+02  0.11343158376E+04  0.11344371059E+04  0.10000000000E+02 0. -1.
</event>
<event>
 5    1  0.1640179E-008  0.3801871E+03  0.7957747E-01  0.3450344E+00
         13   -1    0    0    0    0  0.00000000000E+00  0.00000000000E+00  0.14999999963E+04  0.15000000000E+04  0.10566000000E+00 0.  1.
        994   -1    0    0    0    0 -0.00000000000E+00 -0.00000000000E+00  0.11368683772E-12  0.17120000000E+03  0.17120000000E+03 0.  0.
         13    1    1    2    0    0 -0.11142036257E+01 -0.53784271691E+02  0.28299470598E+03  0.28806250035E+03  0.10566000000E+00 0.  1.
        994    1    1    2    0    0  0.20579213614E+02  0.57362918859E+02  0.16548003859E+02  0.18247543650E+03  0.17120000000E+03 0.  0.
        998    1    1    2    0    0 -0.19465009988E+02 -0.35786471680E+01  0.12004572864E+04  0.12006620632E+04  0.10000000000E+02 0.  1.
</event>
<event>
 5    1  0.1640179E-008  0.3715916E+03  0.7957747E-01  0.3488608E+00
         13   -1    0    0    0    0  0.00000000000E+00  0.00000000000E+00  0.14999999963E+04  0.15000000000E+04  0.10566000000E+00 0. -1.
        994   -1    0    0    0    0 -0.00000000000E+00 -0.00000000000E+00  0.11368683772E-12  0.17120000000E+03  0.17120000000E+03 0.  0.
         13    1    1    2    0    0  0.36602738932E+02 -0.20317560878E+02  0.72419279035E+02  0.83648830938E+02  0.10566000000E+00 0. -1.
        994    1    1    2    0    0 -0.96151515351E+01  0.17739347761E+02  0.13215482717E+02  0.17289078802E+03  0.17120000000E+03 0.  0.
        998    1    1    2    0    0 -0.26987587397E+02  0.25782131167E+01  0.14143652345E+04  0.14146603810E+04  0.10000000000E+02 0. -1.
</event>
<event>
 5    1  0.1640179E-008  0.3911851E+03  0.7957747E-01  0.3403857E+00
         13   -1    0    0    0    0  0.00000000000E+00  0.00000000000E+00  0.14999999963E+04  0.15000000000E+04  0.10566000000E+00 0. -1.
        994   -1    0    0    0    0 -0.00000000000E+00 -0.00000000000E+00  0.11368683772E-12  0.17120000000E+03  0.17120000000E+03 0.  0.
         13    1    1    2    0    0  0.10311893108E+03  0.11191243595E+02  0.26555602807E+03  0.28509432315E+03  0.10566000000E+00 0. -1.
        994    1    1    2    0    0 -0.34747991006E+02  0.30916546297E+01  0.27225083070E+02  0.17682654313E+03  0.17120000000E+03 0.  0.
        998    1    1    2    0    0 -0.68370940076E+02 -0.14282898225E+02  0.12072188851E+04  0.12092791337E+04  0.10000000000E+02 0. -1.
</event>
<event>
 5    1  0.1640179E-008  0.3825853E+03  0.7957747E-01  0.3439978E+00
         13   -1    0    0    0    0  0.00000000000E+00  0.00000000000E+00  0.14999999963E+04  0.15000000000E+04  0.10566000000E+00 0. -1.
        994   -1    0    0    0    0 -0.00000000000E+00 -0.00000000000E+00  0.11368683772E-12  0.17120000000E+03  0.17120000000E+03 0.  0.
         13    1    1    2    0    0  0.13447515783E+02  0.11198355836E+02  0.54300486671E+02  0.57050792027E+02  0.10566000000E+00 0. -1.
        994    1    1    2    0    0 -0.51072962972E+01 -0.43171190927E+01  0.29819861028E+01  0.17135651208E+03  0.17120000000E+03 0.  0.
        998    1    1    2    0    0 -0.83402194862E+01 -0.68812367435E+01  0.14427175235E+04  0.14427926959E+04  0.10000000000E+02 0. -1.
</event>
<event>
 5    1  0.1640179E-008  0.3855092E+03  0.7957747E-01  0.3427516E+00
         13   -1    0    0    0    0  0.00000000000E+00  0.00000000000E+00  0.14999999963E+04  0.15000000000E+04  0.10566000000E+00 0. -1.
        994   -1    0    0    0    0 -0.00000000000E+00 -0.00000000000E+00  0.11368683772E-12  0.17120000000E+03  0.17120000000E+03 0.  0.
         13    1    1    2    0    0 -0.80377432637E+01 -0.90696270018E+01  0.41262602823E+02  0.43005546229E+02  0.10566000000E+00 0. -1.
        994    1    1    2    0    0  0.26589618910E+02  0.53060357959E+02  0.13029049287E+02  0.18166344031E+03  0.17120000000E+03 0.  0.
        998    1    1    2    0    0 -0.18551875646E+02 -0.43990730957E+02  0.14457083442E+04  0.14465310135E+04  0.10000000000E+02 0. -1.
</event>
<event>
 5    1  0.1640179E-008  0.3831098E+03  0.7957747E-01  0.3437728E+00
         13   -1    0    0    0    0  0.00000000000E+00  0.00000000000E+00  0.14999999963E+04  0.15000000000E+04  0.10566000000E+00 0. -1.
        994   -1    0    0    0    0 -0.00000000000E+00 -0.00000000000E+00  0.11368683772E-12  0.17120000000E+03  0.17120000000E+03 0.  0.
         13    1    1    2    0    0  0.22096831521E+02 -0.16505506017E+02  0.13853723535E+03  0.14125607398E+03  0.10566000000E+00 0. -1.
        994    1    1    2    0    0 -0.18135144575E+02  0.16969849587E+02  0.46152969645E+01  0.17305374954E+03  0.17120000000E+03 0.  0.
        998    1    1    2    0    0 -0.39616869457E+01 -0.46434357053E+00  0.13568474640E+04  0.13568901765E+04  0.10000000000E+02 0. -1.
</event>
<event>
 5    1  0.1640179E-008  0.3707949E+03  0.7957747E-01  0.3492246E+00
         13   -1    0    0    0    0  0.00000000000E+00  0.00000000000E+00  0.14999999963E+04  0.15000000000E+04  0.10566000000E+00 0.  1.
        994   -1    0    0    0    0 -0.00000000000E+00 -0.00000000000E+00  0.11368683772E-12  0.17120000000E+03  0.17120000000E+03 0.  0.
         13    1    1    2    0    0 -0.52431094048E+02 -0.10926850643E+03  0.46214445068E+03  0.47777204876E+03  0.10566000000E+00 0.  1.
        994    1    1    2    0    0  0.42850080632E+02  0.10478549900E+03  0.57750929007E+02  0.21321524338E+03  0.17120000000E+03 0.  0.
        998    1    1    2    0    0  0.95810134159E+01  0.44830074284E+01  0.98010461660E+03  0.98021270786E+03  0.10000000000E+02 0.  1.
</event>
<event>
 5    1  0.1640179E-008  0.3832426E+03  0.7957747E-01  0.3437160E+00
         13   -1    0    0    0    0  0.00000000000E+00  0.00000000000E+00  0.14999999963E+04  0.15000000000E+04  0.10566000000E+00 0.  1.
        994   -1    0    0    0    0 -0.00000000000E+00 -0.00000000000E+00  0.11368683772E-12  0.17120000000E+03  0.17120000000E+03 0.  0.
         13    1    1    2    0    0 -0.17614527973E+02  0.25147879556E+02  0.13114642076E+03  0.13469254725E+03  0.10566000000E+00 0.  1.
        994    1    1    2    0    0  0.45131886354E+02 -0.53294551001E+02  0.18807202908E+02  0.18585033552E+03  0.17120000000E+03 0.  0.
        998    1    1    2    0    0 -0.27517358381E+02  0.28146671446E+02  0.13500463726E+04  0.13506571172E+04  0.10000000000E+02 0.  1.
</event>
<event>
 5    1  0.1640179E-008  0.3840994E+03  0.7957747E-01  0.3433501E+00
         13   -1    0    0    0    0  0.00000000000E+00  0.00000000000E+00  0.14999999963E+04  0.15000000000E+04  0.10566000000E+00 0. -1.
        994   -1    0    0    0    0 -0.00000000000E+00 -0.00000000000E+00  0.11368683772E-12  0.17120000000E+03  0.17120000000E+03 0.  0.
         13    1    1    2    0    0  0.15267427994E+02  0.16475750192E+01  0.54046863913E+02  0.56186150641E+02  0.10566000000E+00 0. -1.
        994    1    1    2    0    0 -0.18084670055E+02 -0.15410378839E+01  0.31652187263E+01  0.17218852662E+03  0.17120000000E+03 0.  0.
        998    1    1    2    0    0  0.28172420612E+01 -0.10653713540E+00  0.14427879136E+04  0.14428253227E+04  0.10000000000E+02 0.  0.
</event>
<event>
 5    1  0.1640179E-008  0.3715500E+03  0.7957747E-01  0.3488798E+00
         13   -1    0    0    0    0  0.00000000000E+00  0.00000000000E+00  0.14999999963E+04  0.15000000000E+04  0.10566000000E+00 0.  1.
        994   -1    0    0    0    0 -0.00000000000E+00 -0.00000000000E+00  0.11368683772E-12  0.17120000000E+03  0.17120000000E+03 0.  0.
         13    1    1    2    0    0 -0.61630664185E+02  0.24238653269E+02  0.20188122590E+03  0.21246621288E+03  0.10566000000E+00 0.  1.
        994    1    1    2    0    0  0.24536699401E+02  0.97232590367E+01  0.14213168856E+02  0.17380461890E+03  0.17120000000E+03 0.  0.
        998    1    1    2    0    0  0.37093964785E+02 -0.33961912305E+02  0.12839056015E+04  0.12849291682E+04  0.10000000000E+02 0.  1.
</event>
<event>
 5    1  0.1640179E-008  0.3804001E+03  0.7957747E-01  0.3449418E+00
         13   -1    0    0    0    0  0.00000000000E+00  0.00000000000E+00  0.14999999963E+04  0.15000000000E+04  0.10566000000E+00 0. -1.
        994   -1    0    0    0    0 -0.00000000000E+00 -0.00000000000E+00  0.11368683772E-12  0.17120000000E+03  0.17120000000E+03 0.  0.
         13    1    1    2    0    0  0.25857322752E+02  0.63186818804E+01  0.84843515514E+02  0.88921089565E+02  0.10566000000E+00 0. -1.
        994    1    1    2    0    0 -0.21936196536E+02 -0.19215662907E+02  0.67757037968E+01  0.17379812594E+03  0.17120000000E+03 0.  0.
        998    1    1    2    0    0 -0.39211262161E+01  0.12896981027E+02  0.14083807770E+04  0.14084807845E+04  0.10000000000E+02 0. -1.
</event>
<event>
 5    1  0.1640179E-008  0.3613636E+03  0.7957747E-01  0.3536549E+00
         13   -1    0    0    0    0  0.00000000000E+00  0.00000000000E+00  0.14999999963E+04  0.15000000000E+04  0.10566000000E+00 0. -1.
        994   -1    0    0    0    0 -0.00000000000E+00 -0.00000000000E+00  0.11368683772E-12  0.17120000000E+03  0.17120000000E+03 0.  0.
         13    1    1    2    0    0 -0.22575899865E+03 -0.85740580533E+02  0.10813309991E+04  0.11079690038E+04  0.10566000000E+00 0. -1.
        994    1    1    2    0    0  0.21134575151E+03  0.13606283659E+03  0.27508018528E+03  0.41007154317E+03  0.17120000000E+03 0.  0.
        998    1    1    2    0    0  0.14413247141E+02 -0.50322256057E+02  0.14358881190E+03  0.15315945302E+03  0.10000000000E+02 0. -1.
</event>
<event>
 5    1  0.1640179E-008  0.3849954E+03  0.7957747E-01  0.3429692E+00
         13   -1    0    0    0    0  0.00000000000E+00  0.00000000000E+00  0.14999999963E+04  0.15000000000E+04  0.10566000000E+00 0.  1.
        994   -1    0    0    0    0 -0.00000000000E+00 -0.00000000000E+00  0.11368683772E-12  0.17120000000E+03  0.17120000000E+03 0.  0.
         13    1    1    2    0    0  0.12486725956E+02 -0.13727505068E+02  0.10807739579E+03  0.10965900494E+03  0.10566000000E+00 0.  1.
        994    1    1    2    0    0 -0.51882785085E+01  0.72941244704E+01  0.18959489255E+01  0.17144432656E+03  0.17120000000E+03 0.  0.
        998    1    1    2    0    0 -0.72984474479E+01  0.64333805973E+01  0.13900266516E+04  0.13900966685E+04  0.10000000000E+02 0.  0.
</event>
<event>
 5    1  0.1640179E-008  0.3856324E+03  0.7957747E-01  0.3426995E+00
         13   -1    0    0    0    0  0.00000000000E+00  0.00000000000E+00  0.14999999963E+04  0.15000000000E+04  0.10566000000E+00 0.  1.
        994   -1    0    0    0    0 -0.00000000000E+00 -0.00000000000E+00  0.11368683772E-12  0.17120000000E+03  0.17120000000E+03 0.  0.
         13    1    1    2    0    0 -0.14089536326E+02 -0.17762545528E+01  0.83949728808E+02  0.85142458533E+02  0.10566000000E+00 0.  1.
        994    1    1    2    0    0 -0.12350582896E+01  0.18845356891E+00  0.13216134650E+01  0.17120965962E+03  0.17120000000E+03 0.  0.
        998    1    1    2    0    0  0.15324594616E+02  0.15878009839E+01  0.14147286540E+04  0.14148478819E+04  0.10000000000E+02 0.  1.
</event>
<event>
 5    1  0.1640179E-008  0.3849663E+03  0.7957747E-01  0.3429815E+00
         13   -1    0    0    0    0  0.00000000000E+00  0.00000000000E+00  0.14999999963E+04  0.15000000000E+04  0.10566000000E+00 0.  1.
        994   -1    0    0    0    0 -0.00000000000E+00 -0.00000000000E+00  0.11368683772E-12  0.17120000000E+03  0.17120000000E+03 0.  0.
         13    1    1    2    0    0 -0.10138220127E+02  0.10887341860E+02  0.72523486286E+02  0.74033674414E+02  0.10566000000E+00 0.  1.
        994    1    1    2    0    0 -0.31448603901E+00  0.18068703666E+01  0.16579201708E+01  0.17121785065E+03  0.17120000000E+03 0.  0.
        998    1    1    2    0    0  0.10452706166E+02 -0.12694212226E+02  0.14258185898E+04  0.14259484749E+04  0.10000000000E+02 0.  1.
</event>
<event>
 5    1  0.1640179E-008  0.3845553E+03  0.7957747E-01  0.3431560E+00
         13   -1    0    0    0    0  0.00000000000E+00  0.00000000000E+00  0.14999999963E+04  0.15000000000E+04  0.10566000000E+00 0.  1.
        994   -1    0    0    0    0 -0.00000000000E+00 -0.00000000000E+00  0.11368683772E-12  0.17120000000E+03  0.17120000000E+03 0.  0.
         13    1    1    2    0    0  0.33834576564E+02 -0.10748447894E+03  0.32583492631E+03  0.34476963635E+03  0.10566000000E+00 0.  1.
        994    1    1    2    0    0 -0.95043304802E+02  0.48193295596E+02  0.62016671363E+02  0.21097708656E+03  0.17120000000E+03 0.  0.
        998    1    1    2    0    0  0.61208728238E+02  0.59291183340E+02  0.11121483986E+04  0.11154532771E+04  0.10000000000E+02 0.  1.
</event>
<event>
 5    1  0.1640179E-008  0.3704044E+03  0.7957747E-01  0.3494035E+00
         13   -1    0    0    0    0  0.00000000000E+00  0.00000000000E+00  0.14999999963E+04  0.15000000000E+04  0.10566000000E+00 0. -1.
        994   -1    0    0    0    0 -0.00000000000E+00 -0.00000000000E+00  0.11368683772E-12  0.17120000000E+03  0.17120000000E+03 0.  0.
         13    1    1    2    0    0 -0.18399704586E+02  0.19929472142E+01  0.15133314028E+02  0.23907097795E+02  0.10566000000E+00 0. -1.
        994    1    1    2    0    0  0.90482324843E+01  0.70132121849E+01  0.95104944735E+01  0.17184570161E+03  0.17120000000E+03 0.  0.
        998    1    1    2    0    0  0.93514721014E+01 -0.90061593992E+01  0.14753561878E+04  0.14754472006E+04  0.10000000000E+02 0. -1.
</event>
<event>
 5    1  0.1640179E-008  0.3772066E+03  0.7957747E-01  0.3463413E+00
         13   -1    0    0    0    0  0.00000000000E+00  0.00000000000E+00  0.14999999963E+04  0.15000000000E+04  0.10566000000E+00 0. -1.
        994   -1    0    0    0    0 -0.00000000000E+00 -0.00000000000E+00  0.11368683772E-12  0.17120000000E+03  0.17120000000E+03 0.  0.
         13    1    1    2    0    0  0.33466597115E+02 -0.22212453387E+02  0.13354557074E+03  0.13945550128E+03  0.10566000000E+00 0. -1.
        994    1    1    2    0    0 -0.29672158987E+02  0.23235515735E+02  0.10357272659E+02  0.17560478156E+03  0.17120000000E+03 0.  0.
        998    1    1    2    0    0 -0.37944381281E+01 -0.10230623479E+01  0.13560971529E+04  0.13561397172E+04  0.10000000000E+02 0. -1.
</event>
<event>
 5    1  0.1640179E-008  0.3750084E+03  0.7957747E-01  0.3473185E+00
         13   -1    0    0    0    0  0.00000000000E+00  0.00000000000E+00  0.14999999963E+04  0.15000000000E+04  0.10566000000E+00 0.  1.
        994   -1    0    0    0    0 -0.00000000000E+00 -0.00000000000E+00  0.11368683772E-12  0.17120000000E+03  0.17120000000E+03 0.  0.
         13    1    1    2    0    0  0.11328714174E+00 -0.11307636560E+03  0.56518994198E+03  0.57639045704E+03  0.10566000000E+00 0.  1.
        994    1    1    2    0    0  0.44221914759E+00  0.11457457118E+03  0.52693464136E+02  0.21263482565E+03  0.17120000000E+03 0.  0.
        998    1    1    2    0    0 -0.55550628933E+00 -0.14982055829E+01  0.88211659017E+03  0.88217471731E+03  0.10000000000E+02 0.  1.
</event>
<event>
 5    1  0.1640179E-008  0.3059069E+03  0.7957747E-01  0.3854731E+00
         13   -1    0    0    0    0  0.00000000000E+00  0.00000000000E+00  0.14999999963E+04  0.15000000000E+04  0.10566000000E+00 0. -1.
        994   -1    0    0    0    0 -0.00000000000E+00 -0.00000000000E+00  0.11368683772E-12  0.17120000000E+03  0.17120000000E+03 0.  0.
         13    1    1    2    0    0 -0.19088147620E+03  0.93014459937E+02  0.69298401824E+03  0.72478568447E+03  0.10566000000E+00 0. -1.
        994    1    1    2    0    0  0.17180970273E+03 -0.48154999971E+02  0.15358894145E+03  0.29109531241E+03  0.17120000000E+03 0.  0.
        998    1    1    2    0    0  0.19071773472E+02 -0.44859459966E+02  0.65342703659E+03  0.65531900311E+03  0.10000000000E+02 0. -1.
</event>
<event>
 5    1  0.1640179E-008  0.3816009E+03  0.7957747E-01  0.3444218E+00
         13   -1    0    0    0    0  0.00000000000E+00  0.00000000000E+00  0.14999999963E+04  0.15000000000E+04  0.10566000000E+00 0.  1.
        994   -1    0    0    0    0 -0.00000000000E+00 -0.00000000000E+00  0.11368683772E-12  0.17120000000E+03  0.17120000000E+03 0.  0.
         13    1    1    2    0    0 -0.17454892205E+02  0.18711719278E+02  0.10325505113E+03  0.10637865598E+03  0.10566000000E+00 0.  1.
        994    1    1    2    0    0  0.19616461171E+01 -0.56315203306E+01  0.34454905522E+01  0.17133847636E+03  0.17120000000E+03 0.  0.
        998    1    1    2    0    0  0.15493246088E+02 -0.13080198947E+02  0.13932994546E+04  0.13934828677E+04  0.10000000000E+02 0.  1.
</event>
<event>
 5    1  0.1640179E-008  0.3851019E+03  0.7957747E-01  0.3429240E+00
         13   -1    0    0    0    0  0.00000000000E+00  0.00000000000E+00  0.14999999963E+04  0.15000000000E+04  0.10566000000E+00 0.  1.
        994   -1    0    0    0    0 -0.00000000000E+00 -0.00000000000E+00  0.11368683772E-12  0.17120000000E+03  0.17120000000E+03 0.  0.
         13    1    1    2    0    0  0.13168053236E+02  0.85611874215E+01  0.75505993457E+02  0.77122355826E+02  0.10566000000E+00 0.  1.
        994    1    1    2    0    0 -0.11678069679E+02 -0.10194112097E+02  0.23699410216E+01  0.17191670615E+03  0.17120000000E+03 0.  0.
        998    1    1    2    0    0 -0.14899835565E+01  0.16329246750E+01  0.14221240618E+04  0.14221609380E+04  0.10000000000E+02 0.  1.
</event>
<event>
 5    1  0.1640179E-008  0.3860041E+03  0.7957747E-01  0.3425425E+00
         13   -1    0    0    0    0  0.00000000000E+00  0.00000000000E+00  0.14999999963E+04  0.15000000000E+04  0.10566000000E+00 0.  1.
        994   -1    0    0    0    0 -0.00000000000E+00 -0.00000000000E+00  0.11368683772E-12  0.17120000000E+03  0.17120000000E+03 0.  0.
         13    1    1    2    0    0 -0.10059807799E+02 -0.76947595026E+01  0.73420069830E+02  0.74504542644E+02  0.10566000000E+00 0.  1.
        994    1    1    2    0    0  0.23845847214E+01  0.57222010613E+01  0.12583995867E+01  0.17131682170E+03  0.17120000000E+03 0.  0.
        998    1    1    2    0    0  0.76752230773E+01  0.19725584412E+01  0.14253215269E+04  0.14253786357E+04  0.10000000000E+02 0.  1.
</event>
<event>
 5    1  0.1640179E-008  0.3860948E+03  0.7957747E-01  0.3425042E+00
         13   -1    0    0    0    0  0.00000000000E+00  0.00000000000E+00  0.14999999963E+04  0.15000000000E+04  0.10566000000E+00 0. -1.
        994   -1    0    0    0    0 -0.00000000000E+00 -0.00000000000E+00  0.11368683772E-12  0.17120000000E+03  0.17120000000E+03 0.  0.
         13    1    1    2    0    0  0.11001066963E+02 -0.28540451438E+01  0.59957309260E+02  0.61025069813E+02  0.10566000000E+00 0. -1.
        994    1    1    2    0    0 -0.80153712518E+01  0.13944528442E+01  0.13045166472E+01  0.17139816930E+03  0.17120000000E+03 0.  0.
        998    1    1    2    0    0 -0.29856957116E+01  0.14595922996E+01  0.14387381704E+04  0.14387767609E+04  0.10000000000E+02 0. -1.
</event>
<event>
 5    1  0.1640179E-008  0.3818000E+03  0.7957747E-01  0.3443358E+00
         13   -1    0    0    0    0  0.00000000000E+00  0.00000000000E+00  0.14999999963E+04  0.15000000000E+04  0.10566000000E+00 0.  1.
        994   -1    0    0    0    0 -0.00000000000E+00 -0.00000000000E+00  0.11368683772E-12  0.17120000000E+03  0.17120000000E+03 0.  0.
         13    1    1    2    0    0  0.39208994538E+01 -0.11014933349E+02  0.19693831563E+02  0.22903283058E+02  0.10566000000E+00 0.  1.
        994    1    1    2    0    0 -0.53024626477E+01  0.10508572034E+02  0.36878187160E+01  0.17164377706E+03  0.17120000000E+03 0.  0.
        998    1    1    2    0    0  0.13815631939E+01  0.50636131454E+00  0.14766183460E+04  0.14766529399E+04  0.10000000000E+02 0.  1.
</event>
<event>
 5    1  0.1640179E-008  0.3754409E+03  0.7957747E-01  0.3471253E+00
         13   -1    0    0    0    0  0.00000000000E+00  0.00000000000E+00  0.14999999963E+04  0.15000000000E+04  0.10566000000E+00 0.  1.
        994   -1    0    0    0    0 -0.00000000000E+00 -0.00000000000E+00  0.11368683772E-12  0.17120000000E+03  0.17120000000E+03 0.  0.
         13    1    1    2    0    0 -0.37292388415E+02 -0.16810160069E+02  0.12710151792E+03  0.13352194852E+03  0.10566000000E+00 0.  1.
        994    1    1    2    0    0  0.24578914584E+02  0.64375733209E+01  0.86467434070E+01  0.17329100255E+03  0.17120000000E+03 0.  0.
        998    1    1    2    0    0  0.12713473831E+02  0.10372586748E+02  0.13642517350E+04  0.13643870489E+04  0.10000000000E+02 0.  1.
</event>
<event>
 5    1  0.1640179E-008  0.3844212E+03  0.7957747E-01  0.3432131E+00
         13   -1    0    0    0    0  0.00000000000E+00  0.00000000000E+00  0.14999999963E+04  0.15000000000E+04  0.10566000000E+00 0.  1.
        994   -1    0    0    0    0 -0.00000000000E+00 -0.00000000000E+00  0.11368683772E-12  0.17120000000E+03  0.17120000000E+03 0.  0.
         13    1    1    2    0    0 -0.92703374090E+01  0.84424538217E+01  0.40082500942E+02  0.41998002667E+02  0.10566000000E+00 0.  1.
        994    1    1    2    0    0  0.75989543139E+01 -0.84731303335E+01  0.23446862419E+01  0.17159392646E+03  0.17120000000E+03 0.  0.
        998    1    1    2    0    0  0.16713830951E+01  0.30676511844E-01  0.14575728091E+04  0.14576080709E+04  0.10000000000E+02 0.  0.
</event>
<event>
 5    1  0.1640179E-008  0.3701621E+03  0.7957747E-01  0.3495146E+00
         13   -1    0    0    0    0  0.00000000000E+00  0.00000000000E+00  0.14999999963E+04  0.15000000000E+04  0.10566000000E+00 0.  1.
        994   -1    0    0    0    0 -0.00000000000E+00 -0.00000000000E+00  0.11368683772E-12  0.17120000000E+03  0.17120000000E+03 0.  0.
         13    1    1    2    0    0  0.53571356998E+02 -0.56012799009E+02  0.27722444515E+03  0.28785539442E+03  0.10566000000E+00 0.  1.
        994    1    1    2    0    0 -0.45212811007E+02  0.53728043256E+02  0.26422524514E+02  0.18691840657E+03  0.17120000000E+03 0.  0.
        998    1    1    2    0    0 -0.83585459902E+01  0.22847557532E+01  0.11963530266E+04  0.11964261990E+04  0.10000000000E+02 0.  1.
</event>
<event>
 5    1  0.1640179E-008  0.3858418E+03  0.7957747E-01  0.3426110E+00
         13   -1    0    0    0    0  0.00000000000E+00  0.00000000000E+00  0.14999999963E+04  0.15000000000E+04  0.10566000000E+00 0. -1.
        994   -1    0    0    0    0 -0.00000000000E+00 -0.00000000000E+00  0.11368683772E-12  0.17120000000E+03  0.17120000000E+03 0.  0.
         13    1    1    2    0    0 -0.57294097634E+00  0.12307585493E+02  0.63849102157E+02  0.65027101522E+02  0.10566000000E+00 0. -1.
        994    1    1    2    0    0  0.48299127633E+01 -0.65459614610E+01  0.14298601887E+01  0.17139913118E+03  0.17120000000E+03 0.  0.
        998    1    1    2    0    0 -0.42569717870E+01 -0.57616240323E+01  0.14347210339E+04  0.14347737673E+04  0.10000000000E+02 0. -1.
</event>
<event>
 5    1  0.1640179E-008  0.3749011E+03  0.7957747E-01  0.3473665E+00
         13   -1    0    0    0    0  0.00000000000E+00  0.00000000000E+00  0.14999999963E+04  0.15000000000E+04  0.10566000000E+00 0. -1.
        994   -1    0    0    0    0 -0.00000000000E+00 -0.00000000000E+00  0.11368683772E-12  0.17120000000E+03  0.17120000000E+03 0.  0.
         13    1    1    2    0    0  0.25131321910E+02 -0.45908845069E+02  0.25342840595E+03  0.25877630012E+03  0.10566000000E+00 0. -1.
        994    1    1    2    0    0  0.95613639968E+01  0.25503561600E+01  0.70625466794E+01  0.17163112644E+03  0.17120000000E+03 0.  0.
        998    1    1    2    0    0 -0.34692685907E+02  0.43358488909E+02  0.12395090436E+04  0.12407925734E+04  0.10000000000E+02 0. -1.
</event>
<event>
 5    1  0.1640179E-008  0.3783521E+03  0.7957747E-01  0.3458366E+00
         13   -1    0    0    0    0  0.00000000000E+00  0.00000000000E+00  0.14999999963E+04  0.15000000000E+04  0.10566000000E+00 0. -1.
        994   -1    0    0    0    0 -0.00000000000E+00 -0.00000000000E+00  0.11368683772E-12  0.17120000000E+03  0.17120000000E+03 0.  0.
         13    1    1    2    0    0  0.35111438457E+02  0.10207723983E+03  0.60559620551E+03  0.61514173269E+03  0.10566000000E+00 0. -1.
        994    1    1    2    0    0 -0.34534963105E+01 -0.12564782649E+03  0.60053531195E+02  0.22071513212E+03  0.17120000000E+03 0.  0.
        998    1    1    2    0    0 -0.31657942147E+02  0.23570586661E+02  0.83435025957E+03  0.83534313519E+03  0.10000000000E+02 0. -1.
</event>
<event>
 5    1  0.1640179E-008  0.3813593E+03  0.7957747E-01  0.3445261E+00
         13   -1    0    0    0    0  0.00000000000E+00  0.00000000000E+00  0.14999999963E+04  0.15000000000E+04  0.10566000000E+00 0.  1.
        994   -1    0    0    0    0 -0.00000000000E+00 -0.00000000000E+00  0.11368683772E-12  0.17120000000E+03  0.17120000000E+03 0.  0.
         13    1    1    2    0    0 -0.57585413767E+01  0.11614024126E+02  0.22814192669E+02  0.26240139221E+02  0.10566000000E+00 0.  1.
        994    1    1    2    0    0  0.10602575530E+02 -0.77812448263E+01  0.40243919551E+01  0.17175155926E+03  0.17120000000E+03 0.  0.
        998    1    1    2    0    0 -0.48440341529E+01 -0.38327792996E+01  0.14731614117E+04  0.14732083015E+04  0.10000000000E+02 0.  1.
</event>
<event>
 5    1  0.1640179E-008  0.3822154E+03  0.7957747E-01  0.3441568E+00
         13   -1    0    0    0    0  0.00000000000E+00  0.00000000000E+00  0.14999999963E+04  0.15000000000E+04  0.10566000000E+00 0. -1.
        994   -1    0    0    0    0 -0.00000000000E+00 -0.00000000000E+00  0.11368683772E-12  0.17120000000E+03  0.17120000000E+03 0.  0.
         13    1    1    2    0    0  0.15081607084E+02 -0.11929776939E+02  0.58646056057E+02  0.61718275293E+02  0.10566000000E+00 0. -1.
        994    1    1    2    0    0 -0.13007369662E+02  0.13182568429E+02  0.41579976977E+01  0.17224894984E+03  0.17120000000E+03 0.  0.
        998    1    1    2    0    0 -0.20742374216E+01 -0.12527914905E+01  0.14371959425E+04  0.14372327749E+04  0.10000000000E+02 0. -1.
</event>
<event>
 5    1  0.1640179E-008  0.3811035E+03  0.7957747E-01  0.3446368E+00
         13   -1    0    0    0    0  0.00000000000E+00  0.00000000000E+00  0.14999999963E+04  0.15000000000E+04  0.10566000000E+00 0. -1.
        994   -1    0    0    0    0 -0.00000000000E+00 -0.00000000000E+00  0.11368683772E-12  0.17120000000E+03  0.17120000000E+03 0.  0.
         13    1    1    2    0    0 -0.15475017354E+02  0.11003118459E+02  0.49538777659E+02  0.53053241502E+02  0.10566000000E+00 0. -1.
        994    1    1    2    0    0  0.78968172949E+01 -0.65528835351E+01  0.39279538896E+01  0.17155223353E+03  0.17120000000E+03 0.  0.
        998    1    1    2    0    0  0.75782000592E+01 -0.44502349237E+01  0.14465332647E+04  0.14465945250E+04  0.10000000000E+02 0. -1.
</event>
<event>
 5    1  0.1640179E-008  0.3858270E+03  0.7957747E-01  0.3426172E+00
         13   -1    0    0    0    0  0.00000000000E+00  0.00000000000E+00  0.14999999963E+04  0.15000000000E+04  0.10566000000E+00 0. -1.
        994   -1    0    0    0    0 -0.00000000000E+00 -0.00000000000E+00  0.11368683772E-12  0.17120000000E+03  0.17120000000E+03 0.  0.
         13    1    1    2    0    0  0.10080801864E+02  0.15503011917E+01  0.41409929089E+02  0.42647618822E+02  0.10566000000E+00 0. -1.
        994    1    1    2    0    0 -0.12058910569E+02 -0.95675510157E+01  0.19976759640E+01  0.17190225730E+03  0.17120000000E+03 0.  0.
        998    1    1    2    0    0  0.19781087046E+01  0.80172498240E+01  0.14565923912E+04  0.14566501239E+04  0.10000000000E+02 0. -1.
</event>
<event>
 5    1  0.1640179E-008  0.3849254E+03  0.7957747E-01  0.3429989E+00
         13   -1    0    0    0    0  0.00000000000E+00  0.00000000000E+00  0.14999999963E+04  0.15000000000E+04  0.10566000000E+00 0. -1.
        994   -1    0    0    0    0 -0.00000000000E+00 -0.00000000000E+00  0.11368683772E-12  0.17120000000E+03  0.17120000000E+03 0.  0.
         13    1    1    2    0    0  0.14862448349E+02  0.82230027963E+01  0.94141818625E+02  0.95661922017E+02  0.10566000000E+00 0. -1.
        994    1    1    2    0    0 -0.37506341027E+01  0.66920194316E+01  0.18607901166E+01  0.17138189204E+03  0.17120000000E+03 0.  0.
        998    1    1    2    0    0 -0.11111814247E+02 -0.14915022228E+02  0.14039973875E+04  0.14041561859E+04  0.10000000000E+02 0. -1.
</event>
<event>
 5    1  0.1640179E-008  0.3849463E+03  0.7957747E-01  0.3429900E+00
         13   -1    0    0    0    0  0.00000000000E+00  0.00000000000E+00  0.14999999963E+04  0.15000000000E+04  0.10566000000E+00 0.  1.
        994   -1    0    0    0    0 -0.00000000000E+00 -0.00000000000E+00  0.11368683772E-12  0.17120000000E+03  0.17120000000E+03 0.  0.
         13    1    1    2    0    0  0.78117079780E+01  0.15965826254E+02  0.87394643703E+02  0.89183884764E+02  0.10566000000E+00 0.  1.
        994    1    1    2    0    0 -0.69584034692E+01 -0.22900542887E+02  0.35433144108E+01  0.17290127044E+03  0.17120000000E+03 0.  0.
        998    1    1    2    0    0 -0.85330450878E+00  0.69347166330E+01  0.14090620382E+04  0.14091148448E+04  0.10000000000E+02 0.  1.
</event>
<event>
 5    1  0.1640179E-008  0.3712295E+03  0.7957747E-01  0.3490259E+00
         13   -1    0    0    0    0  0.00000000000E+00  0.00000000000E+00  0.14999999963E+04  0.15000000000E+04  0.10566000000E+00 0. -1.
        994   -1    0    0    0    0 -0.00000000000E+00 -0.00000000000E+00  0.11368683772E-12  0.17120000000E+03  0.17120000000E+03 0.  0.
         13    1    1    2    0    0 -0.10367519717E+02 -0.87438287202E+02  0.32107440411E+03  0.33292900696E+03  0.10566000000E+00 0. -1.
        994    1    1    2    0    0  0.59187310220E+02  0.95277677408E+02  0.53276173310E+02  0.21149175905E+03  0.17120000000E+03 0.  0.
        998    1    1    2    0    0 -0.48819790504E+02 -0.78393902069E+01  0.11256494189E+04  0.11267792340E+04  0.10000000000E+02 0. -1.
</event>
<event>
 5    1  0.1640179E-008  0.3722502E+03  0.7957747E-01  0.3485613E+00
         13   -1    0    0    0    0  0.00000000000E+00  0.00000000000E+00  0.14999999963E+04  0.15000000000E+04  0.10566000000E+00 0. -1.
        994   -1    0    0    0    0 -0.00000000000E+00 -0.00000000000E+00  0.11368683772E-12  0.17120000000E+03  0.17120000000E+03 0.  0.
         13    1    1    2    0    0  0.42924870921E+02  0.78924605883E+02  0.34366414582E+03  0.35521358961E+03  0.10566000000E+00 0. -1.
        994    1    1    2    0    0 -0.39690251433E+02 -0.30750761729E+02  0.21070241312E+02  0.17965055100E+03  0.17120000000E+03 0.  0.
        998    1    1    2    0    0 -0.32346194886E+01 -0.48173844154E+02  0.11352656091E+04  0.11363358594E+04  0.10000000000E+02 0. -1.
</event>
<event>
 5    1  0.1640179E-008  0.3823367E+03  0.7957747E-01  0.3441047E+00
         13   -1    0    0    0    0  0.00000000000E+00  0.00000000000E+00  0.14999999963E+04  0.15000000000E+04  0.10566000000E+00 0. -1.
        994   -1    0    0    0    0 -0.00000000000E+00 -0.00000000000E+00  0.11368683772E-12  0.17120000000E+03  0.17120000000E+03 0.  0.
         13    1    1    2    0    0  0.25729124766E+02 -0.96885893948E+01  0.16008427607E+03  0.16242796322E+03  0.10566000000E+00 0. -1.
        994    1    1    2    0    0  0.10069180728E+02 -0.94540076395E+01  0.35913245948E+01  0.17179378415E+03  0.17120000000E+03 0.  0.
        998    1    1    2    0    0 -0.35798305493E+02  0.19142597034E+02  0.13363243956E+04  0.13369782526E+04  0.10000000000E+02 0. -1.
</event>
<event>
 5    1  0.1640179E-008  0.3751383E+03  0.7957747E-01  0.3472604E+00
         13   -1    0    0    0    0  0.00000000000E+00  0.00000000000E+00  0.14999999963E+04  0.15000000000E+04  0.10566000000E+00 0.  1.
        994   -1    0    0    0    0 -0.00000000000E+00 -0.00000000000E+00  0.11368683772E-12  0.17120000000E+03  0.17120000000E+03 0.  0.
         13    1    1    2    0    0 -0.60846552800E+02 -0.31930262812E+02  0.27884654711E+03  0.28718853158E+03  0.10566000000E+00 0.  1.
        994    1    1    2    0    0  0.64650982163E+02  0.35404741253E+02  0.25297674108E+02  0.18810278444E+03  0.17120000000E+03 0.  0.
        998    1    1    2    0    0 -0.38044293630E+01 -0.34744784408E+01  0.11958557751E+04  0.11959086840E+04  0.10000000000E+02 0.  1.
</event>
<event>
 5    1  0.1640179E-008  0.3837683E+03  0.7957747E-01  0.3434913E+00
         13   -1    0    0    0    0  0.00000000000E+00  0.00000000000E+00  0.14999999963E+04  0.15000000000E+04  0.10566000000E+00 0. -1.
        994   -1    0    0    0    0 -0.00000000000E+00 -0.00000000000E+00  0.11368683772E-12  0.17120000000E+03  0.17120000000E+03 0.  0.
         13    1    1    2    0    0  0.21175060610E+01  0.23161771088E+02  0.12850403022E+03  0.13059191560E+03  0.10566000000E+00 0. -1.
        994    1    1    2    0    0 -0.12739807693E+02 -0.46720105285E+01  0.28511007551E+01  0.17176058674E+03  0.17120000000E+03 0.  0.
        998    1    1    2    0    0  0.10622301632E+02 -0.18489760560E+02  0.13686448653E+04  0.13688474977E+04  0.10000000000E+02 0. -1.
</event>
<event>
 5    1  0.1640179E-008  0.3702587E+03  0.7957747E-01  0.3494703E+00
         13   -1    0    0    0    0  0.00000000000E+00  0.00000000000E+00  0.14999999963E+04  0.15000000000E+04  0.10566000000E+00 0.  1.
        994   -1    0    0    0    0 -0.00000000000E+00 -0.00000000000E+00  0.11368683772E-12  0.17120000000E+03  0.17120000000E+03 0.  0.
         13    1    1    2    0    0 -0.75792322429E+02 -0.24424417833E+02  0.24070310069E+03  0.25353307905E+03  0.10566000000E+00 0.  1.
        994    1    1    2    0    0  0.67645870084E+02  0.41897393757E+02  0.33571846893E+02  0.19174948304E+03  0.17120000000E+03 0.  0.
        998    1    1    2    0    0  0.81464523451E+01 -0.17472975923E+02  0.12257250487E+04  0.12259174379E+04  0.10000000000E+02 0.  1.
</event>
<event>
 5    1  0.2298174E-008  0.3839087E+03  0.7957747E-01  0.3434314E+00
         13   -1    0    0    0    0  0.00000000000E+00  0.00000000000E+00  0.14999999963E+04  0.15000000000E+04  0.10566000000E+00 0.  1.
        994   -1    0    0    0    0 -0.00000000000E+00 -0.00000000000E+00  0.11368683772E-12  0.17120000000E+03  0.17120000000E+03 0.  0.
         13    1    1    2    0    0  0.87761645277E+01  0.49800722250E+01  0.22446257561E+02  0.24610319496E+02  0.10566000000E+00 0.  1.
        994    1    1    2    0    0 -0.10169419331E+02 -0.38268907772E+01  0.25626668705E+01  0.17156360175E+03  0.17120000000E+03 0.  0.
        998    1    1    2    0    0  0.13932548035E+01 -0.11531814478E+01  0.14749910718E+04  0.14750260788E+04  0.10000000000E+02 0.  1.
</event>
<event>
 5    1  0.1640179E-008  0.4312304E+03  0.7957747E-01  0.3254520E+00
         13   -1    0    0    0    0  0.00000000000E+00  0.00000000000E+00  0.14999999963E+04  0.15000000000E+04  0.10566000000E+00 0. -1.
        994   -1    0    0    0    0 -0.00000000000E+00 -0.00000000000E+00  0.11368683772E-12  0.17120000000E+03  0.17120000000E+03 0.  0.
         13    1    1    2    0    0  0.27493152178E+02 -0.83739838323E+02  0.12449063417E+03  0.15253249850E+03  0.10566000000E+00 0. -1.
        994    1    1    2    0    0  0.69310368847E+02 -0.16895333832E+03  0.22452465971E+03  0.33625871078E+03  0.17120000000E+03 0.  0.
        998    1    1    2    0    0 -0.96803521025E+02  0.25269317664E+03  0.11509847024E+04  0.11824087907E+04  0.10000000000E+02 0. -1.
</event>
<event>
 5    1  0.1640179E-008  0.3738349E+03  0.7957747E-01  0.3478450E+00
         13   -1    0    0    0    0  0.00000000000E+00  0.00000000000E+00  0.14999999963E+04  0.15000000000E+04  0.10566000000E+00 0.  1.
        994   -1    0    0    0    0 -0.00000000000E+00 -0.00000000000E+00  0.11368683772E-12  0.17120000000E+03  0.17120000000E+03 0.  0.
         13    1    1    2    0    0 -0.10050347456E+02  0.51104241259E+01  0.53888196103E+01  0.12497058036E+02  0.10566000000E+00 0.  1.
        994    1    1    2    0    0  0.58155970290E+01 -0.60345275718E+01  0.75179745740E+01  0.17156980105E+03  0.17120000000E+03 0.  0.
        998    1    1    2    0    0  0.42347504272E+01  0.92410344594E+00  0.14870932021E+04  0.14871331409E+04  0.10000000000E+02 0.  1.
</event>
<event>
 5    1  0.1640179E-008  0.3843294E+03  0.7957747E-01  0.3432521E+00
         13   -1    0    0    0    0  0.00000000000E+00  0.00000000000E+00  0.14999999963E+04  0.15000000000E+04  0.10566000000E+00 0. -1.
        994   -1    0    0    0    0 -0.00000000000E+00 -0.00000000000E+00  0.11368683772E-12  0.17120000000E+03  0.17120000000E+03 0.  0.
         13    1    1    2    0    0 -0.55715970078E+01  0.11249234871E+02  0.40167167604E+02  0.42083256715E+02  0.10566000000E+00 0. -1.
        994    1    1    2    0    0 -0.49665537491E+00 -0.70519056866E+01  0.21281702126E+01  0.17135911166E+03  0.17120000000E+03 0.  0.
        998    1    1    2    0    0  0.60682523827E+01 -0.41973291839E+01  0.14577046585E+04  0.14577576316E+04  0.10000000000E+02 0. -1.
</event>
<event>
 5    1  0.1640179E-008  0.3857064E+03  0.7957747E-01  0.3426682E+00
         13   -1    0    0    0    0  0.00000000000E+00  0.00000000000E+00  0.14999999963E+04  0.15000000000E+04  0.10566000000E+00 0.  1.
        994   -1    0    0    0    0 -0.00000000000E+00 -0.00000000000E+00  0.11368683772E-12  0.17120000000E+03  0.17120000000E+03 0.  0.
         13    1    1    2    0    0  0.11574286020E+02 -0.84909434044E+00  0.56311634667E+02  0.57495186068E+02  0.10566000000E+00 0.  1.
        994    1    1    2    0    0  0.14037081913E+01  0.20380070706E+01  0.12999032072E+01  0.17122281862E+03  0.17120000000E+03 0.  0.
        998    1    1    2    0    0 -0.12977994211E+02 -0.11889127301E+01  0.14423884584E+04  0.14424819953E+04  0.10000000000E+02 0.  1.
</event>
<event>
 5    1  0.1640179E-008  0.3756886E+03  0.7957747E-01  0.3470149E+00
         13   -1    0    0    0    0  0.00000000000E+00  0.00000000000E+00  0.14999999963E+04  0.15000000000E+04  0.10566000000E+00 0. -1.
        994   -1    0    0    0    0 -0.00000000000E+00 -0.00000000000E+00  0.11368683772E-12  0.17120000000E+03  0.17120000000E+03 0.  0.
         13    1    1    2    0    0  0.18790575923E+01  0.19090868807E+02  0.26354015618E+02  0.32596586209E+02  0.10566000000E+00 0. -1.
        994    1    1    2    0    0 -0.39541466454E+01 -0.14354339623E+02  0.70776827874E+01  0.17199190660E+03  0.17120000000E+03 0.  0.
        998    1    1    2    0    0  0.20750890531E+01 -0.47365291846E+01  0.14665682979E+04  0.14666115072E+04  0.10000000000E+02 0. -1.
</event>
<event>
 5    1  0.1640179E-008  0.3856697E+03  0.7957747E-01  0.3426837E+00
         13   -1    0    0    0    0  0.00000000000E+00  0.00000000000E+00  0.14999999963E+04  0.15000000000E+04  0.10566000000E+00 0. -1.
        994   -1    0    0    0    0 -0.00000000000E+00 -0.00000000000E+00  0.11368683772E-12  0.17120000000E+03  0.17120000000E+03 0.  0.
         13    1    1    2    0    0  0.24213958281E+01 -0.11493197245E+02  0.52609312054E+02  0.53904615939E+02  0.10566000000E+00 0. -1.
        994    1    1    2    0    0 -0.10068411867E+02  0.87205203216E+01  0.18804563771E+01  0.17172768125E+03  0.17120000000E+03 0.  0.
        998    1    1    2    0    0  0.76470160387E+01  0.27726769235E+01  0.14455102278E+04  0.14455677028E+04  0.10000000000E+02 0. -1.
</event>
<event>
 5    1  0.1640179E-008  0.3738685E+03  0.7957747E-01  0.3478299E+00
         13   -1    0    0    0    0  0.00000000000E+00  0.00000000000E+00  0.14999999963E+04  0.15000000000E+04  0.10566000000E+00 0. -1.
        994   -1    0    0    0    0 -0.00000000000E+00 -0.00000000000E+00  0.11368683772E-12  0.17120000000E+03  0.17120000000E+03 0.  0.
         13    1    1    2    0    0 -0.44957673913E+02 -0.84673755144E+02  0.41273079774E+03  0.42371872725E+03  0.10566000000E+00 0. -1.
        994    1    1    2    0    0 -0.25859532393E+02  0.54259547157E+02  0.25915955465E+02  0.18328636234E+03  0.17120000000E+03 0.  0.
        998    1    1    2    0    0  0.70817206306E+02  0.30414207987E+02  0.10613532431E+04  0.10641949104E+04  0.10000000000E+02 0. -1.
</event>
<event>
 5    1  0.1640179E-008  0.3711644E+03  0.7957747E-01  0.3490557E+00
         13   -1    0    0    0    0  0.00000000000E+00  0.00000000000E+00  0.14999999963E+04  0.15000000000E+04  0.10566000000E+00 0. -1.
        994   -1    0    0    0    0 -0.00000000000E+00 -0.00000000000E+00  0.11368683772E-12  0.17120000000E+03  0.17120000000E+03 0.  0.
         13    1    1    2    0    0  0.70980841127E+02 -0.64257120266E+01  0.26563618462E+03  0.27503120428E+03  0.10566000000E+00 0. -1.
        994    1    1    2    0    0 -0.53386541407E+02  0.56141791874E+02  0.29624479556E+02  0.19023425924E+03  0.17120000000E+03 0.  0.
        998    1    1    2    0    0 -0.17594299720E+02 -0.49716079848E+02  0.12047393321E+04  0.12059345365E+04  0.10000000000E+02 0. -1.
</event>
<event>
 5    1  0.1640179E-008  0.3710411E+03  0.7957747E-01  0.3491120E+00
         13   -1    0    0    0    0  0.00000000000E+00  0.00000000000E+00  0.14999999963E+04  0.15000000000E+04  0.10566000000E+00 0.  1.
        994   -1    0    0    0    0 -0.00000000000E+00 -0.00000000000E+00  0.11368683772E-12  0.17120000000E+03  0.17120000000E+03 0.  0.
         13    1    1    2    0    0  0.17031909641E+02  0.70467245583E+01  0.15714478388E+02  0.24221855174E+02  0.10566000000E+00 0.  1.
        994    1    1    2    0    0 -0.10243959067E+02 -0.67692936907E+01  0.92454859547E+01  0.17188857160E+03  0.17120000000E+03 0.  0.
        998    1    1    2    0    0 -0.67879505739E+01 -0.27743086760E+00  0.14750400319E+04  0.14750895732E+04  0.10000000000E+02 0.  1.
</event>
<event>
 5    1  0.1640179E-008  0.3818939E+03  0.7957747E-01  0.3442953E+00
         13   -1    0    0    0    0  0.00000000000E+00  0.00000000000E+00  0.14999999963E+04  0.15000000000E+04  0.10566000000E+00 0. -1.
        994   -1    0    0    0    0 -0.00000000000E+00 -0.00000000000E+00  0.11368683772E-12  0.17120000000E+03  0.17120000000E+03 0.  0.
         13    1    1    2    0    0  0.65626048155E+01  0.22948723876E+02  0.88366864724E+02  0.91533740527E+02  0.10566000000E+00 0. -1.
        994    1    1    2    0    0 -0.19172801038E+02 -0.10534698282E+02  0.47716901651E+01  0.17265800067E+03  0.17120000000E+03 0.  0.
        998    1    1    2    0    0  0.12610196223E+02 -0.12414025594E+02  0.14068614414E+04  0.14070082588E+04  0.10000000000E+02 0. -1.
</event>
<event>
 5    1  0.1640179E-008  0.3766864E+03  0.7957747E-01  0.3465715E+00
         13   -1    0    0    0    0  0.00000000000E+00  0.00000000000E+00  0.14999999963E+04  0.15000000000E+04  0.10566000000E+00 0.  1.
        994   -1    0    0    0    0 -0.00000000000E+00 -0.00000000000E+00  0.11368683772E-12  0.17120000000E+03  0.17120000000E+03 0.  0.
         13    1    1    2    0    0 -0.20664088061E+02 -0.48877387411E+02  0.31315011652E+03  0.31761456228E+03  0.10566000000E+00 0.  1.
        994    1    1    2    0    0 -0.38036775774E+01  0.11977013392E+01  0.58690402780E+01  0.17134698155E+03  0.17120000000E+03 0.  0.
        998    1    1    2    0    0  0.24467765638E+02  0.47679686071E+02  0.11809808395E+04  0.11822384562E+04  0.10000000000E+02 0.  1.
</event>
<event>
 5    1  0.1640179E-008  0.3851246E+03  0.7957747E-01  0.3429144E+00
         13   -1    0    0    0    0  0.00000000000E+00  0.00000000000E+00  0.14999999963E+04  0.15000000000E+04  0.10566000000E+00 0.  1.
        994   -1    0    0    0    0 -0.00000000000E+00 -0.00000000000E+00  0.11368683772E-12  0.17120000000E+03  0.17120000000E+03 0.  0.
         13    1    1    2    0    0 -0.11710961832E+02  0.63491882034E+00  0.44039720795E+02  0.45574750912E+02  0.10566000000E+00 0.  1.
        994    1    1    2    0    0  0.72312114686E+01  0.47951071654E+01  0.18157943658E+01  0.17142934574E+03  0.17120000000E+03 0.  0.
        998    1    1    2    0    0  0.44797503638E+01 -0.54300259857E+01  0.14541444811E+04  0.14541959033E+04  0.10000000000E+02 0.  1.
</event>
<event>
 5    1  0.1640179E-008  0.3746677E+03  0.7957747E-01  0.3474710E+00
         13   -1    0    0    0    0  0.00000000000E+00  0.00000000000E+00  0.14999999963E+04  0.15000000000E+04  0.10566000000E+00 0.  1.
        994   -1    0    0    0    0 -0.00000000000E+00 -0.00000000000E+00  0.11368683772E-12  0.17120000000E+03  0.17120000000E+03 0.  0.
         13    1    1    2    0    0  0.21288957714E+02 -0.16021617186E+02  0.49412192280E+02  0.56138114038E+02  0.10566000000E+00 0.  1.
        994    1    1    2    0    0 -0.64908388778E+01  0.17786031333E+02  0.80702790262E+01  0.17243272109E+03  0.17120000000E+03 0.  0.
        998    1    1    2    0    0 -0.14798118836E+02 -0.17644141466E+01  0.14425175250E+04  0.14426291649E+04  0.10000000000E+02 0.  1.
</event>
<event>
 5    1  0.1640179E-008  0.3807887E+03  0.7957747E-01  0.3447732E+00
         13   -1    0    0    0    0  0.00000000000E+00  0.00000000000E+00  0.14999999963E+04  0.15000000000E+04  0.10566000000E+00 0.  1.
        994   -1    0    0    0    0 -0.00000000000E+00 -0.00000000000E+00  0.11368683772E-12  0.17120000000E+03  0.17120000000E+03 0.  0.
         13    1    1    2    0    0 -0.23971139934E+02  0.98454227387E+01  0.14154597500E+02  0.29528150858E+02  0.10566000000E+00 0.  1.
        994    1    1    2    0    0 -0.41871247231E+02 -0.40543331308E+02  0.29211360311E+02  0.18319308565E+03  0.17120000000E+03 0.  0.
        998    1    1    2    0    0  0.65842387166E+02  0.30697908569E+02  0.14566340385E+04  0.14584787635E+04  0.10000000000E+02 0.  1.
</event>
<event>
 5    1  0.1640179E-008  0.3831555E+03  0.7957747E-01  0.3437533E+00
         13   -1    0    0    0    0  0.00000000000E+00  0.00000000000E+00  0.14999999963E+04  0.15000000000E+04  0.10566000000E+00 0.  1.
        994   -1    0    0    0    0 -0.00000000000E+00 -0.00000000000E+00  0.11368683772E-12  0.17120000000E+03  0.17120000000E+03 0.  0.
         13    1    1    2    0    0  0.10903927428E+02  0.32275915234E+01  0.24617718104E+02  0.27117451744E+02  0.10566000000E+00 0.  1.
        994    1    1    2    0    0 -0.59589499925E+01 -0.17286273325E+01  0.26760415770E+01  0.17133329634E+03  0.17120000000E+03 0.  0.
        998    1    1    2    0    0 -0.49449774351E+01 -0.14989641909E+01  0.14727062366E+04  0.14727492519E+04  0.10000000000E+02 0.  1.
</event>
<event>
 5    1  0.1640179E-008  0.3856768E+03  0.7957747E-01  0.3426807E+00
         13   -1    0    0    0    0  0.00000000000E+00  0.00000000000E+00  0.14999999963E+04  0.15000000000E+04  0.10566000000E+00 0.  1.
        994   -1    0    0    0    0 -0.00000000000E+00 -0.00000000000E+00  0.11368683772E-12  0.17120000000E+03  0.17120000000E+03 0.  0.
         13    1    1    2    0    0  0.13709259181E+02  0.38235963053E+01  0.84480701691E+02  0.85671254212E+02  0.10566000000E+00 0.  1.
        994    1    1    2    0    0 -0.99617620225E-01 -0.26096722423E+01  0.13168904471E+01  0.17122498215E+03  0.17120000000E+03 0.  0.
        998    1    1    2    0    0 -0.13609641561E+02 -0.12139240630E+01  0.14142024041E+04  0.14143037636E+04  0.10000000000E+02 0.  1.
</event>
<event>
 5    1  0.1640179E-008  0.3813215E+03  0.7957747E-01  0.3445424E+00
         13   -1    0    0    0    0  0.00000000000E+00  0.00000000000E+00  0.14999999963E+04  0.15000000000E+04  0.10566000000E+00 0. -1.
        994   -1    0    0    0    0 -0.00000000000E+00 -0.00000000000E+00  0.11368683772E-12  0.17120000000E+03  0.17120000000E+03 0.  0.
         13    1    1    2    0    0 -0.11460415304E+02  0.49324406110E+02  0.29201840765E+03  0.29637644934E+03  0.10566000000E+00 0. -1.
        994    1    1    2    0    0  0.27707451986E+01 -0.54150179152E+02  0.13315264585E+02  0.18007402701E+03  0.17120000000E+03 0.  0.
        998    1    1    2    0    0  0.86896701056E+01  0.48257730419E+01  0.11946663240E+04  0.11947495236E+04  0.10000000000E+02 0. -1.
</event>
<event>
 5    1  0.1640179E-008  0.3825312E+03  0.7957747E-01  0.3440211E+00
         13   -1    0    0    0    0  0.00000000000E+00  0.00000000000E+00  0.14999999963E+04  0.15000000000E+04  0.10566000000E+00 0.  1.
        994   -1    0    0    0    0 -0.00000000000E+00 -0.00000000000E+00  0.11368683772E-12  0.17120000000E+03  0.17120000000E+03 0.  0.
         13    1    1    2    0    0  0.16136779588E+02  0.14126505491E+02  0.74186671324E+02  0.77224524466E+02  0.10566000000E+00 0.  1.
        994    1    1    2    0    0 -0.10737890679E+02 -0.28877603535E+02  0.60140462658E+01  0.17405409227E+03  0.17120000000E+03 0.  0.
        998    1    1    2    0    0 -0.53988889090E+01  0.14751098044E+02  0.14197992787E+04  0.14199213833E+04  0.10000000000E+02 0.  1.
</event>
<event>
 5    1  0.1640179E-008  0.3727992E+03  0.7957747E-01  0.3483124E+00
         13   -1    0    0    0    0  0.00000000000E+00  0.00000000000E+00  0.14999999963E+04  0.15000000000E+04  0.10566000000E+00 0. -1.
        994   -1    0    0    0    0 -0.00000000000E+00 -0.00000000000E+00  0.11368683772E-12  0.17120000000E+03  0.17120000000E+03 0.  0.
         13    1    1    2    0    0 -0.25629514540E+02  0.14799440811E+01  0.22964593134E+02  0.34444824748E+02  0.10566000000E+00 0. -1.
        994    1    1    2    0    0 -0.14116411498E+02  0.57757124496E+02  0.25014888788E+02  0.18294901794E+03  0.17120000000E+03 0.  0.
        998    1    1    2    0    0  0.39745926039E+02 -0.59237068577E+02  0.14520205144E+04  0.14538061573E+04  0.10000000000E+02 0. -1.
</event>
<event>
 5    1  0.1640179E-008  0.3850426E+03  0.7957747E-01  0.3429491E+00
         13   -1    0    0    0    0  0.00000000000E+00  0.00000000000E+00  0.14999999963E+04  0.15000000000E+04  0.10566000000E+00 0.  1.
        994   -1    0    0    0    0 -0.00000000000E+00 -0.00000000000E+00  0.11368683772E-12  0.17120000000E+03  0.17120000000E+03 0.  0.
         13    1    1    2    0    0  0.13030541989E+02 -0.12957163145E+02  0.10978347821E+03  0.11131085460E+03  0.10566000000E+00 0.  1.
        994    1    1    2    0    0 -0.11397899286E+02 -0.21712881835E+01  0.20517837459E+01  0.17160500114E+03  0.17120000000E+03 0.  0.
        998    1    1    2    0    0 -0.16326427034E+01  0.15128451328E+02  0.13881647343E+04  0.13882841443E+04  0.10000000000E+02 0.  1.
</event>
<event>
 5    1  0.1640179E-008  0.3851519E+03  0.7957747E-01  0.3429028E+00
         13   -1    0    0    0    0  0.00000000000E+00  0.00000000000E+00  0.14999999963E+04  0.15000000000E+04  0.10566000000E+00 0. -1.
        994   -1    0    0    0    0 -0.00000000000E+00 -0.00000000000E+00  0.11368683772E-12  0.17120000000E+03  0.17120000000E+03 0.  0.
         13    1    1    2    0    0  0.66573649219E+01  0.81876707931E+01  0.35914045020E+02  0.37432449218E+02  0.10566000000E+00 0. -1.
        994    1    1    2    0    0 -0.75147956047E+01 -0.16235559026E+01  0.17490423327E+01  0.17138146701E+03  0.17120000000E+03 0.  0.
        998    1    1    2    0    0  0.85743068284E+00 -0.65641148905E+01  0.14623369089E+04  0.14623860838E+04  0.10000000000E+02 0. -1.
</event>
<event>
 5    1  0.1640179E-008  0.3793374E+03  0.7957747E-01  0.3454048E+00
         13   -1    0    0    0    0  0.00000000000E+00  0.00000000000E+00  0.14999999963E+04  0.15000000000E+04  0.10566000000E+00 0. -1.
        994   -1    0    0    0    0 -0.00000000000E+00 -0.00000000000E+00  0.11368683772E-12  0.17120000000E+03  0.17120000000E+03 0.  0.
         13    1    1    2    0    0  0.90724300193E+01 -0.34438669198E+02  0.15317427724E+03  0.15725997995E+03  0.10566000000E+00 0. -1.
        994    1    1    2    0    0 -0.12986286005E+02  0.40316474529E+01  0.50876639345E+01  0.17181449918E+03  0.17120000000E+03 0.  0.
        998    1    1    2    0    0  0.39138559859E+01  0.30407021745E+02  0.13417380551E+04  0.13421255209E+04  0.10000000000E+02 0. -1.
</event>
<event>
 5    1  0.1640179E-008  0.3776055E+03  0.7957747E-01  0.3461652E+00
         13   -1    0    0    0    0  0.00000000000E+00  0.00000000000E+00  0.14999999963E+04  0.15000000000E+04  0.10566000000E+00 0.  1.
        994   -1    0    0    0    0 -0.00000000000E+00 -0.00000000000E+00  0.11368683772E-12  0.17120000000E+03  0.17120000000E+03 0.  0.
         13    1    1    2    0    0  0.82792174715E+01  0.16151319028E+02  0.28338052583E+02  0.33652146091E+02  0.10566000000E+00 0.  1.
        994    1    1    2    0    0 -0.81588633877E+01 -0.13620625823E+02  0.61966928960E+01  0.17204629465E+03  0.17120000000E+03 0.  0.
        998    1    1    2    0    0 -0.12035408382E+00 -0.25306932052E+01  0.14654652508E+04  0.14655015593E+04  0.10000000000E+02 0.  1.
</event>
<event>
 5    1  0.1640179E-008  0.3854946E+03  0.7957747E-01  0.3427577E+00
         13   -1    0    0    0    0  0.00000000000E+00  0.00000000000E+00  0.14999999963E+04  0.15000000000E+04  0.10566000000E+00 0.  1.
        994   -1    0    0    0    0 -0.00000000000E+00 -0.00000000000E+00  0.11368683772E-12  0.17120000000E+03  0.17120000000E+03 0.  0.
         13    1    1    2    0    0 -0.92238767451E+01  0.69681661093E+01  0.45353313254E+02  0.46803519401E+02  0.10566000000E+00 0.  1.
        994    1    1    2    0    0  0.76380245542E+01 -0.22344218590E+02  0.32177531767E+01  0.17285079537E+03  0.17120000000E+03 0.  0.
        998    1    1    2    0    0  0.15858521910E+01  0.15376052481E+02  0.14514289298E+04  0.14515456852E+04  0.10000000000E+02 0.  1.
</event>
<event>
 5    1  0.1640179E-008  0.3705539E+03  0.7957747E-01  0.3493349E+00
         13   -1    0    0    0    0  0.00000000000E+00  0.00000000000E+00  0.14999999963E+04  0.15000000000E+04  0.10566000000E+00 0. -1.
        994   -1    0    0    0    0 -0.00000000000E+00 -0.00000000000E+00  0.11368683772E-12  0.17120000000E+03  0.17120000000E+03 0.  0.
         13    1    1    2    0    0  0.39919433386E+02  0.26206357133E+02  0.11083138929E+03  0.12068115981E+03  0.10566000000E+00 0. -1.
        994    1    1    2    0    0 -0.77205258467E+01  0.19544175682E+02  0.12780256478E+02  0.17295767193E+03  0.17120000000E+03 0.  0.
        998    1    1    2    0    0 -0.32198907539E+02 -0.45750532815E+02  0.13763883505E+04  0.13775611683E+04  0.10000000000E+02 0. -1.
</event>
<event>
 5    1  0.1640179E-008  0.3833704E+03  0.7957747E-01  0.3436613E+00
         13   -1    0    0    0    0  0.00000000000E+00  0.00000000000E+00  0.14999999963E+04  0.15000000000E+04  0.10566000000E+00 0. -1.
        994   -1    0    0    0    0 -0.00000000000E+00 -0.00000000000E+00  0.11368683772E-12  0.17120000000E+03  0.17120000000E+03 0.  0.
         13    1    1    2    0    0  0.32149291761E+02  0.83680070838E+01  0.15592211388E+03  0.15942182179E+03  0.10566000000E+00 0. -1.
        994    1    1    2    0    0 -0.75725227971E+02  0.15870078600E+02  0.22490507039E+02  0.18921266462E+03  0.17120000000E+03 0.  0.
        998    1    1    2    0    0  0.43575936210E+02 -0.24238085684E+02  0.13215873754E+04  0.13225655136E+04  0.10000000000E+02 0. -1.
</event>
<event>
 5    1  0.1640179E-008  0.3829460E+03  0.7957747E-01  0.3438430E+00
         13   -1    0    0    0    0  0.00000000000E+00  0.00000000000E+00  0.14999999963E+04  0.15000000000E+04  0.10566000000E+00 0. -1.
        994   -1    0    0    0    0 -0.00000000000E+00 -0.00000000000E+00  0.11368683772E-12  0.17120000000E+03  0.17120000000E+03 0.  0.
         13    1    1    2    0    0  0.91409942613E+01  0.26290065947E+02  0.13135456814E+03  0.13427121463E+03  0.10566000000E+00 0. -1.
        994    1    1    2    0    0 -0.96435344168E+01 -0.29333287027E+02  0.58163196166E+01  0.17405949861E+03  0.17120000000E+03 0.  0.
        998    1    1    2    0    0  0.50254015547E+00  0.30432210803E+01  0.13628291085E+04  0.13628692868E+04  0.10000000000E+02 0.  0.
</event>
<event>
 5    1  0.1640179E-008  0.3720449E+03  0.7957747E-01  0.3486545E+00
         13   -1    0    0    0    0  0.00000000000E+00  0.00000000000E+00  0.14999999963E+04  0.15000000000E+04  0.10566000000E+00 0. -1.
        994   -1    0    0    0    0 -0.00000000000E+00 -0.00000000000E+00  0.11368683772E-12  0.17120000000E+03  0.17120000000E+03 0.  0.
         13    1    1    2    0    0  0.44535284841E+02  0.90475439751E+02  0.55645903594E+03  0.56552264910E+03  0.10566000000E+00 0. -1.
        994    1    1    2    0    0 -0.33264115101E+02 -0.60144776471E+02  0.24601936771E+02  0.18611445614E+03  0.17120000000E+03 0.  0.
        998    1    1    2    0    0 -0.11271169740E+02 -0.30330663281E+02  0.91893902357E+03  0.91956289477E+03  0.10000000000E+02 0. -1.
</event>
<event>
 5    1  0.1640179E-008  0.3841845E+03  0.7957747E-01  0.3433138E+00
         13   -1    0    0    0    0  0.00000000000E+00  0.00000000000E+00  0.14999999963E+04  0.15000000000E+04  0.10566000000E+00 0. -1.
        994   -1    0    0    0    0 -0.00000000000E+00 -0.00000000000E+00  0.11368683772E-12  0.17120000000E+03  0.17120000000E+03 0.  0.
         13    1    1    2    0    0  0.88766062014E+01 -0.18943484211E+02  0.10239537905E+03  0.10451064323E+03  0.10566000000E+00 0. -1.
        994    1    1    2    0    0 -0.71338529801E+01  0.18179868111E+02  0.32942043412E+01  0.17234178613E+03  0.17120000000E+03 0.  0.
        998    1    1    2    0    0 -0.17427532213E+01  0.76361609990E+00  0.13943104129E+04  0.13943475706E+04  0.10000000000E+02 0.  0.
</event>
<event>
 5    1  0.1640179E-008  0.2759151E+03  0.7957747E-01  0.4084535E+00
         13   -1    0    0    0    0  0.00000000000E+00  0.00000000000E+00  0.14999999963E+04  0.15000000000E+04  0.10566000000E+00 0. -1.
        994   -1    0    0    0    0 -0.00000000000E+00 -0.00000000000E+00  0.11368683772E-12  0.17120000000E+03  0.17120000000E+03 0.  0.
         13    1    1    2    0    0  0.63586997490E+02 -0.22039449165E+03  0.94978728397E+03  0.97709412758E+03  0.10566000000E+00 0. -1.
        994    1    1    2    0    0 -0.11950037057E+02  0.23869930129E+02  0.99984098310E+02  0.20004708662E+03  0.17120000000E+03 0.  0.
        998    1    1    2    0    0 -0.51636960432E+02  0.19652456152E+03  0.45022861400E+03  0.49405878580E+03  0.10000000000E+02 0.  1.
</event>
<event>
 5    1  0.1640179E-008  0.3825302E+03  0.7957747E-01  0.3440215E+00
         13   -1    0    0    0    0  0.00000000000E+00  0.00000000000E+00  0.14999999963E+04  0.15000000000E+04  0.10566000000E+00 0. -1.
        994   -1    0    0    0    0 -0.00000000000E+00 -0.00000000000E+00  0.11368683772E-12  0.17120000000E+03  0.17120000000E+03 0.  0.
         13    1    1    2    0    0  0.54234208859E+00 -0.15707176973E+02  0.42847552519E+02  0.45639165903E+02  0.10566000000E+00 0. -1.
        994    1    1    2    0    0 -0.27822310762E+01  0.67276157093E+01  0.30370811480E+01  0.17138163695E+03  0.17120000000E+03 0.  0.
        998    1    1    2    0    0  0.22398889877E+01  0.89795612634E+01  0.14541153626E+04  0.14541791971E+04  0.10000000000E+02 0. -1.
</event>
<event>
 5    1  0.3006134E-008  0.3855681E+03  0.7957747E-01  0.3427266E+00
         13   -1    0    0    0    0  0.00000000000E+00  0.00000000000E+00  0.14999999963E+04  0.15000000000E+04  0.10566000000E+00 0. -1.
        994   -1    0    0    0    0 -0.00000000000E+00 -0.00000000000E+00  0.11368683772E-12  0.17120000000E+03  0.17120000000E+03 0.  0.
         13    1    1    2    0    0  0.13960380348E+02  0.36066932820E+01  0.73011410264E+02  0.74421620841E+02  0.10566000000E+00 0. -1.
        994    1    1    2    0    0 -0.17276541565E+02 -0.41460446045E+01  0.23852525046E+01  0.17213598695E+03  0.17120000000E+03 0.  0.
        998    1    1    2    0    0  0.33161612168E+01  0.53935132249E+00  0.14246033335E+04  0.14246423922E+04  0.10000000000E+02 0. -1.
</event>
<event>
 5    1  0.1640179E-008  0.3712447E+03  0.7957747E-01  0.3490190E+00
         13   -1    0    0    0    0  0.00000000000E+00  0.00000000000E+00  0.14999999963E+04  0.15000000000E+04  0.10566000000E+00 0.  1.
        994   -1    0    0    0    0 -0.00000000000E+00 -0.00000000000E+00  0.11368683772E-12  0.17120000000E+03  0.17120000000E+03 0.  0.
         13    1    1    2    0    0 -0.19953913107E+02 -0.79206472879E+01  0.22765358064E+02  0.31291660128E+02  0.10566000000E+00 0.  1.
        994    1    1    2    0    0  0.96106061389E+01  0.31524691380E+02  0.12368655415E+02  0.17478155954E+03  0.17120000000E+03 0.  0.
        998    1    1    2    0    0  0.10343306968E+02 -0.23604044092E+02  0.14648659828E+04  0.14651267803E+04  0.10000000000E+02 0.  1.
</event>
<event>
 5    1  0.1640179E-008  0.3857824E+03  0.7957747E-01  0.3426361E+00
         13   -1    0    0    0    0  0.00000000000E+00  0.00000000000E+00  0.14999999963E+04  0.15000000000E+04  0.10566000000E+00 0.  1.
        994   -1    0    0    0    0 -0.00000000000E+00 -0.00000000000E+00  0.11368683772E-12  0.17120000000E+03  0.17120000000E+03 0.  0.
         13    1    1    2    0    0  0.83702184188E+01  0.68719825416E+01  0.46507528455E+02  0.47751922133E+02  0.10566000000E+00 0.  1.
        994    1    1    2    0    0 -0.70864099257E+01 -0.88218543232E+01  0.16623061480E+01  0.17158160036E+03  0.17120000000E+03 0.  0.
        998    1    1    2    0    0 -0.12838084931E+01  0.19498717816E+01  0.14518301617E+04  0.14518664775E+04  0.10000000000E+02 0.  1.
</event>
<event>
 5    1  0.1640179E-008  0.3760423E+03  0.7957747E-01  0.3468574E+00
         13   -1    0    0    0    0  0.00000000000E+00  0.00000000000E+00  0.14999999963E+04  0.15000000000E+04  0.10566000000E+00 0.  1.
        994   -1    0    0    0    0 -0.00000000000E+00 -0.00000000000E+00  0.11368683772E-12  0.17120000000E+03  0.17120000000E+03 0.  0.
         13    1    1    2    0    0 -0.28025725802E+02 -0.24789000631E+02  0.12288855688E+03  0.12845833735E+03  0.10566000000E+00 0.  1.
        994    1    1    2    0    0  0.21626558318E+02 -0.19026527981E+02  0.89600790518E+01  0.17383739474E+03  0.17120000000E+03 0.  0.
        998    1    1    2    0    0  0.63991674837E+01  0.43815528612E+02  0.13681513603E+04  0.13689042679E+04  0.10000000000E+02 0.  1.
</event>
<event>
 5    1  0.1640179E-008  0.3837963E+03  0.7957747E-01  0.3434793E+00
         13   -1    0    0    0    0  0.00000000000E+00  0.00000000000E+00  0.14999999963E+04  0.15000000000E+04  0.10566000000E+00 0. -1.
        994   -1    0    0    0    0 -0.00000000000E+00 -0.00000000000E+00  0.11368683772E-12  0.17120000000E+03  0.17120000000E+03 0.  0.
         13    1    1    2    0    0  0.12526901681E+02 -0.19103044238E+02  0.12149483760E+03  0.12362385002E+03  0.10566000000E+00 0. -1.
        994    1    1    2    0    0 -0.13279040131E+02  0.17410589550E+01  0.28213316936E+01  0.17174622006E+03  0.17120000000E+03 0.  0.
        998    1    1    2    0    0  0.75213844938E+00  0.17361985283E+02  0.13756838270E+04  0.13758299299E+04  0.10000000000E+02 0. -1.
</event>
<event>
 5    1  0.1640179E-008  0.3836050E+03  0.7957747E-01  0.3435610E+00
         13   -1    0    0    0    0  0.00000000000E+00  0.00000000000E+00  0.14999999963E+04  0.15000000000E+04  0.10566000000E+00 0. -1.
        994   -1    0    0    0    0 -0.00000000000E+00 -0.00000000000E+00  0.11368683772E-12  0.17120000000E+03  0.17120000000E+03 0.  0.
         13    1    1    2    0    0 -0.96252733975E+01  0.53769902258E+01  0.25967133011E+02  0.28211009778E+02  0.10566000000E+00 0. -1.
        994    1    1    2    0    0  0.18542895545E+01  0.41017828382E+00  0.23362124054E+01  0.17122647145E+03  0.17120000000E+03 0.  0.
        998    1    1    2    0    0  0.77709838430E+01 -0.57871685096E+01  0.14716966509E+04  0.14717625188E+04  0.10000000000E+02 0. -1.
</event>
<event>
 5    1  0.1640179E-008  0.2738144E+03  0.7957747E-01  0.4102731E+00
         13   -1    0    0    0    0  0.00000000000E+00  0.00000000000E+00  0.14999999963E+04  0.15000000000E+04  0.10566000000E+00 0.  1.
        994   -1    0    0    0    0 -0.00000000000E+00 -0.00000000000E+00  0.11368683772E-12  0.17120000000E+03  0.17120000000E+03 0.  0.
         13    1    1    2    0    0  0.17451794987E+03 -0.11762649765E+03  0.31066342118E+03  0.37523896413E+03  0.10566000000E+00 0.  1.
        994    1    1    2    0    0 -0.19000562301E+03  0.99441878336E+02  0.30124060929E+03  0.40748763003E+03  0.17120000000E+03 0.  0.
        998    1    1    2    0    0  0.15487673140E+02  0.18184619317E+02  0.88809596581E+03  0.88847340584E+03  0.10000000000E+02 0.  1.
</event>
<event>
 5    1  0.1640179E-008  0.3849050E+03  0.7957747E-01  0.3430075E+00
         13   -1    0    0    0    0  0.00000000000E+00  0.00000000000E+00  0.14999999963E+04  0.15000000000E+04  0.10566000000E+00 0. -1.
        994   -1    0    0    0    0 -0.00000000000E+00 -0.00000000000E+00  0.11368683772E-12  0.17120000000E+03  0.17120000000E+03 0.  0.
         13    1    1    2    0    0  0.26764230584E+01 -0.14802697132E+02  0.71752460223E+02  0.73312412284E+02  0.10566000000E+00 0. -1.
        994    1    1    2    0    0 -0.17885542943E+01  0.18049224461E+00  0.16879666146E+01  0.17121775824E+03  0.17120000000E+03 0.  0.
        998    1    1    2    0    0 -0.88786876411E+00  0.14622204887E+02  0.14265595694E+04  0.14266698295E+04  0.10000000000E+02 0. -1.
</event>
<event>
 5    1  0.1640179E-008  0.1999512E+03  0.7957747E-01  0.5040446E+00
         13   -1    0    0    0    0  0.00000000000E+00  0.00000000000E+00  0.14999999963E+04  0.15000000000E+04  0.10566000000E+00 0.  1.
        994   -1    0    0    0    0 -0.00000000000E+00 -0.00000000000E+00  0.11368683772E-12  0.17120000000E+03  0.17120000000E+03 0.  0.
         13    1    1    2    0    0 -0.10887607880E+03 -0.89438606137E+02  0.18231511175E+03  0.23041717805E+03  0.10566000000E+00 0.  1.
        994    1    1    2    0    0 -0.22644862835E+02  0.43177138150E+02  0.79876006466E+02  0.19510682069E+03  0.17120000000E+03 0.  0.
        998    1    1    2    0    0  0.13152094163E+03  0.46261467987E+02  0.12378088781E+04  0.12456760013E+04  0.10000000000E+02 0.  1.
</event>
<event>
 5    1  0.1640179E-008  0.3851478E+03  0.7957747E-01  0.3429046E+00
         13   -1    0    0    0    0  0.00000000000E+00  0.00000000000E+00  0.14999999963E+04  0.15000000000E+04  0.10566000000E+00 0. -1.
        994   -1    0    0    0    0 -0.00000000000E+00 -0.00000000000E+00  0.11368683772E-12  0.17120000000E+03  0.17120000000E+03 0.  0.
         13    1    1    2    0    0  0.60263664085E+01  0.86511605620E+01  0.36259051370E+02  0.37760953926E+02  0.10566000000E+00 0. -1.
        994    1    1    2    0    0  0.25082358514E+01 -0.59061159036E+01  0.16921470478E+01  0.17132856392E+03  0.17120000000E+03 0.  0.
        998    1    1    2    0    0 -0.85346022599E+01 -0.27450446584E+01  0.14620487979E+04  0.14621104822E+04  0.10000000000E+02 0. -1.
</event>
<event>
 5    1  0.1640179E-008  0.3853235E+03  0.7957747E-01  0.3428301E+00
         13   -1    0    0    0    0  0.00000000000E+00  0.00000000000E+00  0.14999999963E+04  0.15000000000E+04  0.10566000000E+00 0. -1.
        994   -1    0    0    0    0 -0.00000000000E+00 -0.00000000000E+00  0.11368683772E-12  0.17120000000E+03  0.17120000000E+03 0.  0.
         13    1    1    2    0    0 -0.17199450068E+02 -0.27649235402E+01  0.95612063068E+02  0.97186128912E+02  0.10566000000E+00 0. -1.
        994    1    1    2    0    0  0.19654532127E+02  0.12245982053E+02  0.32333222667E+01  0.17278934887E+03  0.17120000000E+03 0.  0.
        998    1    1    2    0    0 -0.24550820594E+01 -0.94810585125E+01  0.14011546109E+04  0.14012245222E+04  0.10000000000E+02 0. -1.
</event>
<event>
 5    1  0.1640179E-008  0.3841219E+03  0.7957747E-01  0.3433405E+00
         13   -1    0    0    0    0  0.00000000000E+00  0.00000000000E+00  0.14999999963E+04  0.15000000000E+04  0.10566000000E+00 0. -1.
        994   -1    0    0    0    0 -0.00000000000E+00 -0.00000000000E+00  0.11368683772E-12  0.17120000000E+03  0.17120000000E+03 0.  0.
         13    1    1    2    0    0 -0.13933347416E+02  0.21003398485E+02  0.10946411679E+03  0.11232846900E+03  0.10566000000E+00 0. -1.
        994    1    1    2    0    0  0.31500019592E+02 -0.55759364968E+02  0.15712431611E+02  0.18346029141E+03  0.17120000000E+03 0.  0.
        998    1    1    2    0    0 -0.17566672175E+02  0.34755966483E+02  0.13748234479E+04  0.13754112396E+04  0.10000000000E+02 0. -1.
</event>
<event>
 5    1  0.1640179E-008  0.3710489E+03  0.7957747E-01  0.3491084E+00
         13   -1    0    0    0    0  0.00000000000E+00  0.00000000000E+00  0.14999999963E+04  0.15000000000E+04  0.10566000000E+00 0.  1.
        994   -1    0    0    0    0 -0.00000000000E+00 -0.00000000000E+00  0.11368683772E-12  0.17120000000E+03  0.17120000000E+03 0.  0.
         13    1    1    2    0    0 -0.56991405182E+02  0.72540752114E+02  0.34137667630E+03  0.35362158767E+03  0.10566000000E+00 0.  1.
        994    1    1    2    0    0  0.38691006638E+02 -0.10222131073E+03  0.51077389496E+02  0.20943860695E+03  0.17120000000E+03 0.  0.
        998    1    1    2    0    0  0.18300398543E+02  0.29680558612E+02  0.11075459305E+04  0.11081398054E+04  0.10000000000E+02 0.  1.
</event>
<event>
 5    1  0.1640179E-008  0.3845382E+03  0.7957747E-01  0.3431633E+00
         13   -1    0    0    0    0  0.00000000000E+00  0.00000000000E+00  0.14999999963E+04  0.15000000000E+04  0.10566000000E+00 0.  1.
        994   -1    0    0    0    0 -0.00000000000E+00 -0.00000000000E+00  0.11368683772E-12  0.17120000000E+03  0.17120000000E+03 0.  0.
         13    1    1    2    0    0  0.10006299313E+02 -0.98088211174E+01  0.54380356336E+02  0.56156685416E+02  0.10566000000E+00 0.  1.
        994    1    1    2    0    0 -0.11381974493E+00  0.42464034161E+01  0.19190092666E+01  0.17126344471E+03  0.17120000000E+03 0.  0.
        998    1    1    2    0    0 -0.98924795680E+01  0.55624177013E+01  0.14437006307E+04  0.14437798699E+04  0.10000000000E+02 0.  1.
</event>
<event>
 5    1  0.1640179E-008  0.3793611E+03  0.7957747E-01  0.3453945E+00
         13   -1    0    0    0    0  0.00000000000E+00  0.00000000000E+00  0.14999999963E+04  0.15000000000E+04  0.10566000000E+00 0.  1.
        994   -1    0    0    0    0 -0.00000000000E+00 -0.00000000000E+00  0.11368683772E-12  0.17120000000E+03  0.17120000000E+03 0.  0.
         13    1    1    2    0    0  0.16605024870E+02  0.49520469640E+01  0.32841664142E+02  0.37132676818E+02  0.10566000000E+00 0.  1.
        994    1    1    2    0    0 -0.11202703121E+02  0.29081654181E+02  0.77164917879E+01  0.17418446375E+03  0.17120000000E+03 0.  0.
        998    1    1    2    0    0 -0.54023217492E+01 -0.34033701145E+02  0.14594418403E+04  0.14598828594E+04  0.10000000000E+02 0.  1.
</event>
<event>
 5    1  0.1640179E-008  0.3740491E+03  0.7957747E-01  0.3477487E+00
         13   -1    0    0    0    0  0.00000000000E+00  0.00000000000E+00  0.14999999963E+04  0.15000000000E+04  0.10566000000E+00 0. -1.
        994   -1    0    0    0    0 -0.00000000000E+00 -0.00000000000E+00  0.11368683772E-12  0.17120000000E+03  0.17120000000E+03 0.  0.
         13    1    1    2    0    0 -0.17025881913E+02 -0.34187740806E+02  0.97805840252E+02  0.10499845631E+03  0.10566000000E+00 0. -1.
        994    1    1    2    0    0 -0.26794515253E+02  0.44225403799E+02  0.16341346011E+02  0.17958371858E+03  0.17120000000E+03 0.  0.
        998    1    1    2    0    0  0.43820397166E+02 -0.10037662993E+02  0.13858528100E+04  0.13866178251E+04  0.10000000000E+02 0. -1.
</event>
<event>
 5    1  0.1640179E-008  0.3805296E+03  0.7957747E-01  0.3448856E+00
         13   -1    0    0    0    0  0.00000000000E+00  0.00000000000E+00  0.14999999963E+04  0.15000000000E+04  0.10566000000E+00 0.  1.
        994   -1    0    0    0    0 -0.00000000000E+00 -0.00000000000E+00  0.11368683772E-12  0.17120000000E+03  0.17120000000E+03 0.  0.
         13    1    1    2    0    0 -0.11378662598E+02 -0.72271368252E+01  0.22093515010E+02  0.25881268105E+02  0.10566000000E+00 0.  1.
        994    1    1    2    0    0  0.77122390784E+01  0.24632539683E+00  0.40647645636E+01  0.17142199864E+03  0.17120000000E+03 0.  0.
        998    1    1    2    0    0  0.36664235195E+01  0.69808114283E+01  0.14738417167E+04  0.14738967333E+04  0.10000000000E+02 0.  1.
</event>
<event>
 5    1  0.2192196E-008  0.3860155E+03  0.7957747E-01  0.3425377E+00
         13   -1    0    0    0    0  0.00000000000E+00  0.00000000000E+00  0.14999999963E+04  0.15000000000E+04  0.10566000000E+00 0.  1.
        994   -1    0    0    0    0 -0.00000000000E+00 -0.00000000000E+00  0.11368683772E-12  0.17120000000E+03  0.17120000000E+03 0.  0.
         13    1    1    2    0    0  0.47011919012E+01  0.91470371425E+01  0.45719131585E+02  0.46861707723E+02  0.10566000000E+00 0.  1.
        994    1    1    2    0    0 -0.86879672807E+01 -0.10112286856E+02  0.17096088308E+01  0.17172682342E+03  0.17120000000E+03 0.  0.
        998    1    1    2    0    0  0.39867753795E+01  0.96524971387E+00  0.14525712559E+04  0.14526114689E+04  0.10000000000E+02 0.  1.
</event>
<event>
 5    1  0.1640179E-008  0.3757242E+03  0.7957747E-01  0.3469990E+00
         13   -1    0    0    0    0  0.00000000000E+00  0.00000000000E+00  0.14999999963E+04  0.15000000000E+04  0.10566000000E+00 0.  1.
        994   -1    0    0    0    0 -0.00000000000E+00 -0.00000000000E+00  0.11368683772E-12  0.17120000000E+03  0.17120000000E+03 0.  0.
         13    1    1    2    0    0 -0.46713497369E+02 -0.15722066184E+02  0.17677206706E+03  0.18351487421E+03  0.10566000000E+00 0.  1.
        994    1    1    2    0    0  0.41195711292E+02  0.88687423483E+01  0.12352563637E+02  0.17674209190E+03  0.17120000000E+03 0.  0.
        998    1    1    2    0    0  0.55177860778E+01  0.68533238357E+01  0.13108753656E+04  0.13109430339E+04  0.10000000000E+02 0.  0.
</event>
<event>
 5    1  0.1640179E-008  0.3836066E+03  0.7957747E-01  0.3435604E+00
         13   -1    0    0    0    0  0.00000000000E+00  0.00000000000E+00  0.14999999963E+04  0.15000000000E+04  0.10566000000E+00 0. -1.
        994   -1    0    0    0    0 -0.00000000000E+00 -0.00000000000E+00  0.11368683772E-12  0.17120000000E+03  0.17120000000E+03 0.  0.
         13    1    1    2    0    0  0.14101786288E+01 -0.10037526228E+02  0.21562909286E+02  0.23826681630E+02  0.10566000000E+00 0. -1.
        994    1    1    2    0    0 -0.45043663163E+01  0.29965266306E+01  0.24202365062E+01  0.17130255699E+03  0.17120000000E+03 0.  0.
        998    1    1    2    0    0  0.30941876876E+01  0.70409995979E+01  0.14760168505E+04  0.14760707614E+04  0.10000000000E+02 0. -1.
</event>
<event>
 5    1  0.1640179E-008  0.3799280E+03  0.7957747E-01  0.3451472E+00
         13   -1    0    0    0    0  0.00000000000E+00  0.00000000000E+00  0.14999999963E+04  0.15000000000E+04  0.10566000000E+00 0. -1.
        994   -1    0    0    0    0 -0.00000000000E+00 -0.00000000000E+00  0.11368683772E-12  0.17120000000E+03  0.17120000000E+03 0.  0.
         13    1    1    2    0    0  0.21406609614E+03 -0.26467026527E+02  0.10170165295E+04  0.10396381243E+04  0.10566000000E+00 0. -1.
        994    1    1    2    0    0 -0.21711960343E+03  0.34737556026E+02  0.18772496967E+03  0.33600256581E+03  0.17120000000E+03 0.  0.
        998    1    1    2    0    0  0.30535072896E+01 -0.82705294988E+01  0.29525849706E+03  0.29555930987E+03  0.10000000000E+02 0. -1.
</event>
<event>
 5    1  0.1640179E-008  0.3931014E+03  0.7957747E-01  0.3396023E+00
         13   -1    0    0    0    0  0.00000000000E+00  0.00000000000E+00  0.14999999963E+04  0.15000000000E+04  0.10566000000E+00 0. -1.
        994   -1    0    0    0    0 -0.00000000000E+00 -0.00000000000E+00  0.11368683772E-12  0.17120000000E+03  0.17120000000E+03 0.  0.
         13    1    1    2    0    0 -0.45753746815E+02 -0.10091023934E+03  0.23447835453E+03  0.25933837290E+03  0.10566000000E+00 0. -1.
        994    1    1    2    0    0 -0.24846744703E+02  0.10752140688E+03  0.71763513805E+02  0.21595753188E+03  0.17120000000E+03 0.  0.
        998    1    1    2    0    0  0.70600491518E+02 -0.66111675410E+01  0.11937581279E+04  0.11959040952E+04  0.10000000000E+02 0. -1.
</event>
<event>
 5    1  0.1640179E-008  0.3793618E+03  0.7957747E-01  0.3453942E+00
         13   -1    0    0    0    0  0.00000000000E+00  0.00000000000E+00  0.14999999963E+04  0.15000000000E+04  0.10566000000E+00 0. -1.
        994   -1    0    0    0    0 -0.00000000000E+00 -0.00000000000E+00  0.11368683772E-12  0.17120000000E+03  0.17120000000E+03 0.  0.
         13    1    1    2    0    0 -0.10930278694E+02 -0.97902957483E+01  0.22086418294E+02  0.26516823344E+02  0.10566000000E+00 0. -1.
        994    1    1    2    0    0  0.10692607497E+02  0.89788025158E+01  0.51089767385E+01  0.17184438423E+03  0.17120000000E+03 0.  0.
        998    1    1    2    0    0  0.23767119744E+00  0.81149323260E+00  0.14728046012E+04  0.14728387924E+04  0.10000000000E+02 0. -1.
</event>
<event>
 5    1  0.1640179E-008  0.3848447E+03  0.7957747E-01  0.3430331E+00
         13   -1    0    0    0    0  0.00000000000E+00  0.00000000000E+00  0.14999999963E+04  0.15000000000E+04  0.10566000000E+00 0. -1.
        994   -1    0    0    0    0 -0.00000000000E+00 -0.00000000000E+00  0.11368683772E-12  0.17120000000E+03  0.17120000000E+03 0.  0.
         13    1    1    2    0    0  0.10223630677E+02 -0.32694190379E+01  0.33217174831E+02  0.34908503160E+02  0.10566000000E+00 0. -1.
        994    1    1    2    0    0 -0.72451283416E+01  0.71221749108E+01  0.20469579058E+01  0.17151340267E+03  0.17120000000E+03 0.  0.
        998    1    1    2    0    0 -0.29785023352E+01 -0.38527558729E+01  0.14647358635E+04  0.14647780942E+04  0.10000000000E+02 0. -1.
</event>
<event>
 5    1  0.1640179E-008  0.3844563E+03  0.7957747E-01  0.3431981E+00
         13   -1    0    0    0    0  0.00000000000E+00  0.00000000000E+00  0.14999999963E+04  0.15000000000E+04  0.10566000000E+00 0.  1.
        994   -1    0    0    0    0 -0.00000000000E+00 -0.00000000000E+00  0.11368683772E-12  0.17120000000E+03  0.17120000000E+03 0.  0.
         13    1    1    2    0    0 -0.83966975025E+01 -0.13607895343E+02  0.66087939229E+02  0.67994898487E+02  0.10566000000E+00 0.  1.
        994    1    1    2    0    0  0.17200895728E+02  0.46527538579E+01  0.29470625574E+01  0.17215006277E+03  0.17120000000E+03 0.  0.
        998    1    1    2    0    0 -0.88041982254E+01  0.89551414849E+01  0.14309649945E+04  0.14310550387E+04  0.10000000000E+02 0.  1.
</event>
<event>
 5    1  0.1640179E-008  0.3849334E+03  0.7957747E-01  0.3429955E+00
         13   -1    0    0    0    0  0.00000000000E+00  0.00000000000E+00  0.14999999963E+04  0.15000000000E+04  0.10566000000E+00 0.  1.
        994   -1    0    0    0    0 -0.00000000000E+00 -0.00000000000E+00  0.11368683772E-12  0.17120000000E+03  0.17120000000E+03 0.  0.
         13    1    1    2    0    0 -0.12240908399E+01 -0.10004131547E+02  0.31070929338E+02  0.32664887270E+02  0.10566000000E+00 0.  1.
        994    1    1    2    0    0  0.12460989303E+01  0.95038846444E+00  0.16712933769E+01  0.17121532999E+03  0.17120000000E+03 0.  0.
        998    1    1    2    0    0 -0.22008090381E-01  0.90537430822E+01  0.14672577736E+04  0.14673197827E+04  0.10000000000E+02 0.  1.
</event>
<event>
 5    1  0.1640179E-008  0.3861141E+03  0.7957747E-01  0.3424961E+00
         13   -1    0    0    0    0  0.00000000000E+00  0.00000000000E+00  0.14999999963E+04  0.15000000000E+04  0.10566000000E+00 0.  1.
        994   -1    0    0    0    0 -0.00000000000E+00 -0.00000000000E+00  0.11368683772E-12  0.17120000000E+03  0.17120000000E+03 0.  0.
         13    1    1    2    0    0 -0.96150043296E+01 -0.31175873406E+01  0.55189951342E+02  0.56108016827E+02  0.10566000000E+00 0.  1.
        994    1    1    2    0    0 -0.12244904571E+02 -0.15418842642E+01  0.15772791218E+01  0.17165151588E+03  0.17120000000E+03 0.  0.
        998    1    1    2    0    0  0.21859908901E+02  0.46594716048E+01  0.14432327658E+04  0.14434404673E+04  0.10000000000E+02 0.  1.
</event>
<event>
 5    1  0.1640179E-008  0.3801369E+03  0.7957747E-01  0.3450562E+00
         13   -1    0    0    0    0  0.00000000000E+00  0.00000000000E+00  0.14999999963E+04  0.15000000000E+04  0.10566000000E+00 0.  1.
        994   -1    0    0    0    0 -0.00000000000E+00 -0.00000000000E+00  0.11368683772E-12  0.17120000000E+03  0.17120000000E+03 0.  0.
         13    1    1    2    0    0 -0.95154769193E+00  0.11725624017E+02  0.15237425413E+02  0.19250610350E+02  0.10566000000E+00 0.  1.
        994    1    1    2    0    0  0.38110522123E+01 -0.94630146887E+01  0.44118662766E+01  0.17156041889E+03  0.17120000000E+03 0.  0.
        998    1    1    2    0    0 -0.28595045204E+01 -0.22626093286E+01  0.14803507046E+04  0.14803889708E+04  0.10000000000E+02 0.  1.
</event>
<event>
 5    1  0.1640179E-008  0.3851970E+03  0.7957747E-01  0.3428837E+00
         13   -1    0    0    0    0  0.00000000000E+00  0.00000000000E+00  0.14999999963E+04  0.15000000000E+04  0.10566000000E+00 0. -1.
        994   -1    0    0    0    0 -0.00000000000E+00 -0.00000000000E+00  0.11368683772E-12  0.17120000000E+03  0.17120000000E+03 0.  0.
         13    1    1    2    0    0 -0.26419080649E+01 -0.12894607932E+02  0.55372958459E+02  0.56915958083E+02  0.10566000000E+00 0. -1.
        994    1    1    2    0    0 -0.12331031280E+01  0.12994019387E+02  0.20924550656E+01  0.17170959045E+03  0.17120000000E+03 0.  0.
        998    1    1    2    0    0  0.38750111929E+01 -0.99411455229E-01  0.14425345828E+04  0.14425744515E+04  0.10000000000E+02 0. -1.
</event>
<event>
 5    1  0.1640179E-008  0.3802558E+03  0.7957747E-01  0.3450046E+00
         13   -1    0    0    0    0  0.00000000000E+00  0.00000000000E+00  0.14999999963E+04  0.15000000000E+04  0.10566000000E+00 0.  1.
        994   -1    0    0    0    0 -0.00000000000E+00 -0.00000000000E+00  0.11368683772E-12  0.17120000000E+03  0.17120000000E+03 0.  0.
         13    1    1    2    0    0 -0.44293446772E+01  0.34057005391E+02  0.18608185511E+03  0.18922464606E+03  0.10566000000E+00 0.  1.
        994    1    1    2    0    0 -0.11821864993E+00  0.12296186861E+02  0.45093102255E+01  0.17170027392E+03  0.17120000000E+03 0.  0.
        998    1    1    2    0    0  0.45475633272E+01 -0.46353192252E+02  0.13094088309E+04  0.13102750800E+04  0.10000000000E+02 0.  1.
</event>
<event>
 5    1  0.1640179E-008  0.3791866E+03  0.7957747E-01  0.3454708E+00
         13   -1    0    0    0    0  0.00000000000E+00  0.00000000000E+00  0.14999999963E+04  0.15000000000E+04  0.10566000000E+00 0. -1.
        994   -1    0    0    0    0 -0.00000000000E+00 -0.00000000000E+00  0.11368683772E-12  0.17120000000E+03  0.17120000000E+03 0.  0.
         13    1    1    2    0    0 -0.49981476646E+00 -0.14675821898E+02  0.21991765179E+02  0.26443873826E+02  0.10566000000E+00 0. -1.
        994    1    1    2    0    0 -0.67197727890E+00  0.75512404079E+01  0.47369627817E+01  0.17143322782E+03  0.17120000000E+03 0.  0.
        998    1    1    2    0    0  0.11717920454E+01  0.71245814899E+01  0.14732712683E+04  0.14733228984E+04  0.10000000000E+02 0. -1.
</event>
<event>
 5    1  0.1640179E-008  0.3806458E+03  0.7957747E-01  0.3448352E+00
         13   -1    0    0    0    0  0.00000000000E+00  0.00000000000E+00  0.14999999963E+04  0.15000000000E+04  0.10566000000E+00 0. -1.
        994   -1    0    0    0    0 -0.00000000000E+00 -0.00000000000E+00  0.11368683772E-12  0.17120000000E+03  0.17120000000E+03 0.  0.
         13    1    1    2    0    0  0.93469135834E+01 -0.76091942080E+01  0.17767034302E+02  0.21469590168E+02  0.10566000000E+00 0. -1.
        994    1    1    2    0    0  0.34679602319E+01  0.81518902142E+01  0.40693687349E+01  0.17147734493E+03  0.17120000000E+03 0.  0.
        998    1    1    2    0    0 -0.12814873815E+02 -0.54269600615E+00  0.14781635932E+04  0.14782530649E+04  0.10000000000E+02 0. -1.
</event>
<event>
 5    1  0.1640179E-008  0.3735085E+03  0.7957747E-01  0.3479920E+00
         13   -1    0    0    0    0  0.00000000000E+00  0.00000000000E+00  0.14999999963E+04  0.15000000000E+04  0.10566000000E+00 0. -1.
        994   -1    0    0    0    0 -0.00000000000E+00 -0.00000000000E+00  0.11368683772E-12  0.17120000000E+03  0.17120000000E+03 0.  0.
         13    1    1    2    0    0 -0.22070665193E+02 -0.11825504631E+02  0.39969614920E+02  0.47165009305E+02  0.10566000000E+00 0. -1.
        994    1    1    2    0    0  0.78797587595E+01  0.49900374968E+01  0.77438992510E+01  0.17162866616E+03  0.17120000000E+03 0.  0.
        998    1    1    2    0    0  0.14190906434E+02  0.68354671340E+01  0.14522864821E+04  0.14524063245E+04  0.10000000000E+02 0. -1.
</event>
<event>
 5    1  0.1640179E-008  0.3815874E+03  0.7957747E-01  0.3444276E+00
         13   -1    0    0    0    0  0.00000000000E+00  0.00000000000E+00  0.14999999963E+04  0.15000000000E+04  0.10566000000E+00 0. -1.
        994   -1    0    0    0    0 -0.00000000000E+00 -0.00000000000E+00  0.11368683772E-12  0.17120000000E+03  0.17120000000E+03 0.  0.
         13    1    1    2    0    0 -0.31289262215E+02 -0.81733990298E+01  0.16008786329E+03  0.16332163825E+03  0.10566000000E+00 0. -1.
        994    1    1    2    0    0  0.97652824619E+01  0.25825796121E+02  0.58732171898E+01  0.17351157646E+03  0.17120000000E+03 0.  0.
        998    1    1    2    0    0  0.21523979753E+02 -0.17652397091E+02  0.13340389158E+04  0.13343667853E+04  0.10000000000E+02 0. -1.
</event>
<event>
 5    1  0.1640179E-008  0.3849275E+03  0.7957747E-01  0.3429980E+00
         13   -1    0    0    0    0  0.00000000000E+00  0.00000000000E+00  0.14999999963E+04  0.15000000000E+04  0.10566000000E+00 0.  1.
        994   -1    0    0    0    0 -0.00000000000E+00 -0.00000000000E+00  0.11368683772E-12  0.17120000000E+03  0.17120000000E+03 0.  0.
         13    1    1    2    0    0 -0.11942458822E+02 -0.14719341954E+02  0.99829568637E+02  0.10161316494E+03  0.10566000000E+00 0.  1.
        994    1    1    2    0    0  0.14724620336E+02  0.16528928092E+02  0.32796814500E+01  0.17265635296E+03  0.17120000000E+03 0.  0.
        998    1    1    2    0    0 -0.27821615137E+01 -0.18095861376E+01  0.13968907462E+04  0.13969304821E+04  0.10000000000E+02 0.  1.
</event>
<event>
 5    1  0.1640179E-008  0.3780708E+03  0.7957747E-01  0.3459602E+00
         13   -1    0    0    0    0  0.00000000000E+00  0.00000000000E+00  0.14999999963E+04  0.15000000000E+04  0.10566000000E+00 0. -1.
        994   -1    0    0    0    0 -0.00000000000E+00 -0.00000000000E+00  0.11368683772E-12  0.17120000000E+03  0.17120000000E+03 0.  0.
         13    1    1    2    0    0  0.23290353215E+02 -0.54057374220E+02  0.33232246270E+03  0.33749499351E+03  0.10566000000E+00 0. -1.
        994    1    1    2    0    0 -0.70264219316E+01  0.35301930115E+02  0.94814062964E+01  0.17519969732E+03  0.17120000000E+03 0.  0.
        998    1    1    2    0    0 -0.16263931283E+02  0.18755444104E+02  0.11581961273E+04  0.11585053092E+04  0.10000000000E+02 0. -1.
</event>
<event>
 5    1  0.1640179E-008  0.3800148E+03  0.7957747E-01  0.3451094E+00
         13   -1    0    0    0    0  0.00000000000E+00  0.00000000000E+00  0.14999999963E+04  0.15000000000E+04  0.10566000000E+00 0. -1.
        994   -1    0    0    0    0 -0.00000000000E+00 -0.00000000000E+00  0.11368683772E-12  0.17120000000E+03  0.17120000000E+03 0.  0.
         13    1    1    2    0    0 -0.11498036752E+02  0.30508805620E+02  0.12030702113E+03  0.12464663079E+03  0.10566000000E+00 0. -1.
        994    1    1    2    0    0  0.12543768327E+02 -0.27039242240E+02  0.71013015609E+01  0.17392048536E+03  0.17120000000E+03 0.  0.
        998    1    1    2    0    0 -0.10457315747E+01 -0.34695633801E+01  0.13725916736E+04  0.13726328839E+04  0.10000000000E+02 0. -1.
</event>
<event>
 5    1  0.1640179E-008  0.3835093E+03  0.7957747E-01  0.3436019E+00
         13   -1    0    0    0    0  0.00000000000E+00  0.00000000000E+00  0.14999999963E+04  0.15000000000E+04  0.10566000000E+00 0. -1.
        994   -1    0    0    0    0 -0.00000000000E+00 -0.00000000000E+00  0.11368683772E-12  0.17120000000E+03  0.17120000000E+03 0.  0.
         13    1    1    2    0    0 -0.16718252093E+02  0.14494577993E+02  0.10004656780E+03  0.10246423589E+03  0.10566000000E+00 0. -1.
        994    1    1    2    0    0  0.66347729531E+01 -0.19448308606E+02  0.37686710347E+01  0.17246999681E+03  0.17120000000E+03 0.  0.
        998    1    1    2    0    0  0.10083479140E+02  0.49537306125E+01  0.13961847574E+04  0.13962657673E+04  0.10000000000E+02 0. -1.
</event>
<event>
 5    1  0.1640179E-008  0.3780940E+03  0.7957747E-01  0.3459500E+00
         13   -1    0    0    0    0  0.00000000000E+00  0.00000000000E+00  0.14999999963E+04  0.15000000000E+04  0.10566000000E+00 0. -1.
        994   -1    0    0    0    0 -0.00000000000E+00 -0.00000000000E+00  0.11368683772E-12  0.17120000000E+03  0.17120000000E+03 0.  0.
         13    1    1    2    0    0  0.19301716381E+02 -0.73273803385E+01  0.41121914804E+02  0.46013800094E+02  0.10566000000E+00 0. -1.
        994    1    1    2    0    0  0.13979610674E+01  0.13660894821E+02  0.57330272615E+01  0.17184551767E+03  0.17120000000E+03 0.  0.
        998    1    1    2    0    0 -0.20699677449E+02 -0.63335144822E+01  0.14531450542E+04  0.14533406822E+04  0.10000000000E+02 0. -1.
</event>
<event>
 5    1  0.1640179E-008  0.3855379E+03  0.7957747E-01  0.3427394E+00
         13   -1    0    0    0    0  0.00000000000E+00  0.00000000000E+00  0.14999999963E+04  0.15000000000E+04  0.10566000000E+00 0. -1.
        994   -1    0    0    0    0 -0.00000000000E+00 -0.00000000000E+00  0.11368683772E-12  0.17120000000E+03  0.17120000000E+03 0.  0.
         13    1    1    2    0    0 -0.10996822369E+02 -0.50251236754E+01  0.52255708802E+02  0.53636295888E+02  0.10566000000E+00 0. -1.
        994    1    1    2    0    0  0.93364697751E+01  0.11168571706E+02  0.20592867965E+01  0.17183011181E+03  0.17120000000E+03 0.  0.
        998    1    1    2    0    0  0.16603525935E+01 -0.61434480309E+01  0.14456850007E+04  0.14457335923E+04  0.10000000000E+02 0. -1.
</event>
<event>
 5    1  0.1640179E-008  0.3785004E+03  0.7957747E-01  0.3457714E+00
         13   -1    0    0    0    0  0.00000000000E+00  0.00000000000E+00  0.14999999963E+04  0.15000000000E+04  0.10566000000E+00 0. -1.
        994   -1    0    0    0    0 -0.00000000000E+00 -0.00000000000E+00  0.11368683772E-12  0.17120000000E+03  0.17120000000E+03 0.  0.
         13    1    1    2    0    0  0.20219273029E+02 -0.21170613506E+02  0.86078785095E+02  0.90920747277E+02  0.10566000000E+00 0. -1.
        994    1    1    2    0    0 -0.20814562319E+02  0.43596727849E+01  0.64129223405E+01  0.17263492788E+03  0.17120000000E+03 0.  0.
        998    1    1    2    0    0  0.59528928970E+00  0.16810940722E+02  0.14075082888E+04  0.14076443248E+04  0.10000000000E+02 0. -1.
</event>
<event>
 5    1  0.1640179E-008  0.3836349E+03  0.7957747E-01  0.3435483E+00
         13   -1    0    0    0    0  0.00000000000E+00  0.00000000000E+00  0.14999999963E+04  0.15000000000E+04  0.10566000000E+00 0. -1.
        994   -1    0    0    0    0 -0.00000000000E+00 -0.00000000000E+00  0.11368683772E-12  0.17120000000E+03  0.17120000000E+03 0.  0.
         13    1    1    2    0    0 -0.64814935257E+01 -0.88786508509E+01  0.26223612121E+02  0.28434647808E+02  0.10566000000E+00 0. -1.
        994    1    1    2    0    0  0.42750370860E+01 -0.43995471378E+01  0.24337386220E+01  0.17132715792E+03  0.17120000000E+03 0.  0.
        998    1    1    2    0    0  0.22064564398E+01  0.13278197989E+02  0.14713426455E+04  0.14714381943E+04  0.10000000000E+02 0. -1.
</event>
<event>
 5    1  0.1640179E-008  0.3061817E+03  0.7957747E-01  0.3852852E+00
         13   -1    0    0    0    0  0.00000000000E+00  0.00000000000E+00  0.14999999963E+04  0.15000000000E+04  0.10566000000E+00 0. -1.
        994   -1    0    0    0    0 -0.00000000000E+00 -0.00000000000E+00  0.11368683772E-12  0.17120000000E+03  0.17120000000E+03 0.  0.
         13    1    1    2    0    0 -0.72829198025E+02  0.16438829345E+03  0.72522584092E+03  0.74718146029E+03  0.10566000000E+00 0. -1.
        994    1    1    2    0    0  0.64576575494E+02 -0.14513375652E+03  0.10880832350E+03  0.25764827313E+03  0.17120000000E+03 0.  0.
        998    1    1    2    0    0  0.82526225303E+01 -0.19254536927E+02  0.66596583186E+03  0.66637026658E+03  0.10000000000E+02 0. -1.
</event>
<event>
 5    1  0.1640179E-008  0.3728320E+03  0.7957747E-01  0.3482976E+00
         13   -1    0    0    0    0  0.00000000000E+00  0.00000000000E+00  0.14999999963E+04  0.15000000000E+04  0.10566000000E+00 0.  1.
        994   -1    0    0    0    0 -0.00000000000E+00 -0.00000000000E+00  0.11368683772E-12  0.17120000000E+03  0.17120000000E+03 0.  0.
         13    1    1    2    0    0  0.19113717567E+02 -0.25909074479E+02  0.61089618940E+02  0.69054811896E+02  0.10566000000E+00 0.  1.
        994    1    1    2    0    0 -0.13931382321E+02  0.30650575973E+02  0.11687696461E+02  0.17487019034E+03  0.17120000000E+03 0.  0.
        998    1    1    2    0    0 -0.51823352458E+01 -0.47415014942E+01  0.14272226809E+04  0.14272749978E+04  0.10000000000E+02 0.  1.
</event>
<event>
 5    1  0.1640179E-008  0.3789488E+03  0.7957747E-01  0.3455749E+00
         13   -1    0    0    0    0  0.00000000000E+00  0.00000000000E+00  0.14999999963E+04  0.15000000000E+04  0.10566000000E+00 0.  1.
        994   -1    0    0    0    0 -0.00000000000E+00 -0.00000000000E+00  0.11368683772E-12  0.17120000000E+03  0.17120000000E+03 0.  0.
         13    1    1    2    0    0 -0.10246861458E+02 -0.39238306649E+01  0.10855729988E+02  0.15435435026E+02  0.10566000000E+00 0.  1.
        994    1    1    2    0    0  0.67993170317E+01  0.20595411876E+01  0.48340817856E+01  0.17141552079E+03  0.17120000000E+03 0.  0.
        998    1    1    2    0    0  0.34475444258E+01  0.18642894773E+01  0.14843101845E+04  0.14843490442E+04  0.10000000000E+02 0.  1.
</event>
<event>
 5    1  0.1640179E-008  0.3782327E+03  0.7957747E-01  0.3458890E+00
         13   -1    0    0    0    0  0.00000000000E+00  0.00000000000E+00  0.14999999963E+04  0.15000000000E+04  0.10566000000E+00 0. -1.
        994   -1    0    0    0    0 -0.00000000000E+00 -0.00000000000E+00  0.11368683772E-12  0.17120000000E+03  0.17120000000E+03 0.  0.
         13    1    1    2    0    0  0.73937575399E+01  0.53286430897E+02  0.31769158811E+03  0.32221431950E+03  0.10566000000E+00 0. -1.
        994    1    1    2    0    0 -0.44731771849E+02 -0.16459647350E+02  0.12705469298E+02  0.17816486846E+03  0.17120000000E+03 0.  0.
        998    1    1    2    0    0  0.37338014309E+02 -0.36826783547E+02  0.11696029389E+04  0.11708208120E+04  0.10000000000E+02 0. -1.
</event>
<event>
 5    1  0.1640179E-008  0.3837926E+03  0.7957747E-01  0.3434809E+00
         13   -1    0    0    0    0  0.00000000000E+00  0.00000000000E+00  0.14999999963E+04  0.15000000000E+04  0.10566000000E+00 0.  1.
        994   -1    0    0    0    0 -0.00000000000E+00 -0.00000000000E+00  0.11368683772E-12  0.17120000000E+03  0.17120000000E+03 0.  0.
         13    1    1    2    0    0 -0.25029791282E+02  0.16599390341E+02  0.15816237052E+03  0.16098874750E+03  0.10566000000E+00 0.  1.
        994    1    1    2    0    0  0.33692968939E+02 -0.35065003909E+02  0.10077695043E+02  0.17825759617E+03  0.17120000000E+03 0.  0.
        998    1    1    2    0    0 -0.86631776562E+01  0.18465613568E+02  0.13317599307E+04  0.13319536563E+04  0.10000000000E+02 0.  1.
</event>
<event>
 5    1  0.1640179E-008  0.3694548E+03  0.7957747E-01  0.3498400E+00
         13   -1    0    0    0    0  0.00000000000E+00  0.00000000000E+00  0.14999999963E+04  0.15000000000E+04  0.10566000000E+00 0.  1.
        994   -1    0    0    0    0 -0.00000000000E+00 -0.00000000000E+00  0.11368683772E-12  0.17120000000E+03  0.17120000000E+03 0.  0.
         13    1    1    2    0    0  0.39020231626E+02 -0.52422723877E+02  0.19530077823E+03  0.20594447211E+03  0.10566000000E+00 0.  1.
        994    1    1    2    0    0 -0.51715364319E+02  0.39632062874E+02  0.24407715447E+02  0.18479814904E+03  0.17120000000E+03 0.  0.
        998    1    1    2    0    0  0.12695132693E+02  0.12790661002E+02  0.12802915026E+04  0.12804573788E+04  0.10000000000E+02 0.  1.
</event>
<event>
 5    1  0.1640179E-008  0.3738064E+03  0.7957747E-01  0.3478578E+00
         13   -1    0    0    0    0  0.00000000000E+00  0.00000000000E+00  0.14999999963E+04  0.15000000000E+04  0.10566000000E+00 0. -1.
        994   -1    0    0    0    0 -0.00000000000E+00 -0.00000000000E+00  0.11368683772E-12  0.17120000000E+03  0.17120000000E+03 0.  0.
         13    1    1    2    0    0  0.37835530884E+01  0.25775151568E+02  0.43082847976E+02  0.50346962829E+02  0.10566000000E+00 0. -1.
        994    1    1    2    0    0 -0.21133731771E+01 -0.21769950264E+02  0.89274099949E+01  0.17282226630E+03  0.17120000000E+03 0.  0.
        998    1    1    2    0    0 -0.16701799112E+01 -0.40052013034E+01  0.14479897383E+04  0.14480307709E+04  0.10000000000E+02 0. -1.
</event>
<event>
 5    1  0.1640179E-008  0.3699901E+03  0.7957747E-01  0.3495936E+00
         13   -1    0    0    0    0  0.00000000000E+00  0.00000000000E+00  0.14999999963E+04  0.15000000000E+04  0.10566000000E+00 0. -1.
        994   -1    0    0    0    0 -0.00000000000E+00 -0.00000000000E+00  0.11368683772E-12  0.17120000000E+03  0.17120000000E+03 0.  0.
         13    1    1    2    0    0 -0.92175734848E+01  0.12346164577E+03  0.46819232114E+03  0.48428483599E+03  0.10566000000E+00 0. -1.
        994    1    1    2    0    0  0.38585803869E+01 -0.12238475210E+03  0.65353532257E+02  0.22039383015E+03  0.17120000000E+03 0.  0.
        998    1    1    2    0    0  0.53589930979E+01 -0.10768936738E+01  0.96645414289E+03  0.96652133386E+03  0.10000000000E+02 0.  0.
</event>
<event>
 5    1  0.1640179E-008  0.3686035E+03  0.7957747E-01  0.3502334E+00
         13   -1    0    0    0    0  0.00000000000E+00  0.00000000000E+00  0.14999999963E+04  0.15000000000E+04  0.10566000000E+00 0.  1.
        994   -1    0    0    0    0 -0.00000000000E+00 -0.00000000000E+00  0.11368683772E-12  0.17120000000E+03  0.17120000000E+03 0.  0.
         13    1    1    2    0    0  0.30266682084E+02  0.17223223147E+02  0.56457457255E+02  0.66333755386E+02  0.10566000000E+00 0.  1.
        994    1    1    2    0    0 -0.96987151297E+01 -0.18929427910E+02  0.11777687998E+02  0.17291773261E+03  0.17120000000E+03 0.  0.
        998    1    1    2    0    0 -0.20567966954E+02  0.17062047625E+01  0.14317648510E+04  0.14319485120E+04  0.10000000000E+02 0.  1.
</event>
<event>
 5    1  0.1640179E-008  0.3762516E+03  0.7957747E-01  0.3467644E+00
         13   -1    0    0    0    0  0.00000000000E+00  0.00000000000E+00  0.14999999963E+04  0.15000000000E+04  0.10566000000E+00 0. -1.
        994   -1    0    0    0    0 -0.00000000000E+00 -0.00000000000E+00  0.11368683772E-12  0.17120000000E+03  0.17120000000E+03 0.  0.
         13    1    1    2    0    0  0.43406552172E+02 -0.22249507828E+02  0.75119088524E+02  0.89565942158E+02  0.10566000000E+00 0. -1.
        994    1    1    2    0    0 -0.37486565747E+02  0.28737854555E+02  0.22301327905E+02  0.17899132974E+03  0.17120000000E+03 0.  0.
        998    1    1    2    0    0 -0.59199864246E+01 -0.64883467268E+01  0.14025795799E+04  0.14026427281E+04  0.10000000000E+02 0. -1.
</event>
<event>
 5    1  0.1640179E-008  0.3745892E+03  0.7957747E-01  0.3475062E+00
         13   -1    0    0    0    0  0.00000000000E+00  0.00000000000E+00  0.14999999963E+04  0.15000000000E+04  0.10566000000E+00 0.  1.
        994   -1    0    0    0    0 -0.00000000000E+00 -0.00000000000E+00  0.11368683772E-12  0.17120000000E+03  0.17120000000E+03 0.  0.
         13    1    1    2    0    0 -0.10743170575E+02  0.60463914160E+02  0.30427386195E+03  0.31040923772E+03  0.10566000000E+00 0.  1.
        994    1    1    2    0    0 -0.12004481510E+01 -0.20738132884E+02  0.83600213797E+01  0.17265816282E+03  0.17120000000E+03 0.  0.
        998    1    1    2    0    0  0.11943618726E+02 -0.39725781276E+02  0.11873661129E+04  0.11881325995E+04  0.10000000000E+02 0.  1.
</event>
<event>
 5    1  0.1640179E-008  0.3828717E+03  0.7957747E-01  0.3438749E+00
         13   -1    0    0    0    0  0.00000000000E+00  0.00000000000E+00  0.14999999963E+04  0.15000000000E+04  0.10566000000E+00 0.  1.
        994   -1    0    0    0    0 -0.00000000000E+00 -0.00000000000E+00  0.11368683772E-12  0.17120000000E+03  0.17120000000E+03 0.  0.
         13    1    1    2    0    0 -0.87311718388E+01 -0.23151341207E+02  0.98894718681E+02  0.10194309446E+03  0.10566000000E+00 0.  1.
        994    1    1    2    0    0  0.21140876552E+02  0.31849074914E+02  0.75447264064E+01  0.17557808272E+03  0.17120000000E+03 0.  0.
        998    1    1    2    0    0 -0.12409704714E+02 -0.86977337063E+01  0.13935605512E+04  0.13936788228E+04  0.10000000000E+02 0.  1.
</event>
<event>
 5    1  0.1640179E-008  0.3786331E+03  0.7957747E-01  0.3457132E+00
         13   -1    0    0    0    0  0.00000000000E+00  0.00000000000E+00  0.14999999963E+04  0.15000000000E+04  0.10566000000E+00 0. -1.
        994   -1    0    0    0    0 -0.00000000000E+00 -0.00000000000E+00  0.11368683772E-12  0.17120000000E+03  0.17120000000E+03 0.  0.
         13    1    1    2    0    0 -0.18296142637E+02  0.16730786125E+02  0.59083876800E+02  0.64074828923E+02  0.10566000000E+00 0. -1.
        994    1    1    2    0    0  0.20650571199E+02 -0.19123756617E+02  0.74894746938E+01  0.17365971435E+03  0.17120000000E+03 0.  0.
        998    1    1    2    0    0 -0.23544285628E+01  0.23929704923E+01  0.14334266448E+04  0.14334654567E+04  0.10000000000E+02 0. -1.
</event>
<event>
 5    1  0.1640179E-008  0.3778973E+03  0.7957747E-01  0.3460366E+00
         13   -1    0    0    0    0  0.00000000000E+00  0.00000000000E+00  0.14999999963E+04  0.15000000000E+04  0.10566000000E+00 0.  1.
        994   -1    0    0    0    0 -0.00000000000E+00 -0.00000000000E+00  0.11368683772E-12  0.17120000000E+03  0.17120000000E+03 0.  0.
         13    1    1    2    0    0  0.10506215599E+02  0.38086588909E+01  0.10222367912E+02  0.15145772298E+02  0.10566000000E+00 0.  1.
        994    1    1    2    0    0  0.12153924105E+02  0.14448836765E+02  0.63993431845E+01  0.17235683435E+03  0.17120000000E+03 0.  0.
        998    1    1    2    0    0 -0.22660139703E+02 -0.18257495655E+02  0.14833782852E+04  0.14836973933E+04  0.10000000000E+02 0.  1.
</event>
<event>
 5    1  0.1640179E-008  0.3766975E+03  0.7957747E-01  0.3465666E+00
         13   -1    0    0    0    0  0.00000000000E+00  0.00000000000E+00  0.14999999963E+04  0.15000000000E+04  0.10566000000E+00 0. -1.
        994   -1    0    0    0    0 -0.00000000000E+00 -0.00000000000E+00  0.11368683772E-12  0.17120000000E+03  0.17120000000E+03 0.  0.
         13    1    1    2    0    0 -0.20480785993E+01  0.18971560418E+02  0.29127259429E+02  0.34821302912E+02  0.10566000000E+00 0. -1.
        994    1    1    2    0    0  0.36969265312E+01 -0.10471723003E+02  0.62265203781E+01  0.17167275207E+03  0.17120000000E+03 0.  0.
        998    1    1    2    0    0 -0.16488479319E+01 -0.84998374150E+01  0.14646462165E+04  0.14647059450E+04  0.10000000000E+02 0. -1.
</event>
<event>
 5    1  0.1640179E-008  0.3860899E+03  0.7957747E-01  0.3425063E+00
         13   -1    0    0    0    0  0.00000000000E+00  0.00000000000E+00  0.14999999963E+04  0.15000000000E+04  0.10566000000E+00 0. -1.
        994   -1    0    0    0    0 -0.00000000000E+00 -0.00000000000E+00  0.11368683772E-12  0.17120000000E+03  0.17120000000E+03 0.  0.
         13    1    1    2    0    0  0.31057795957E+01 -0.11919124951E+02  0.72018135474E+02  0.73063906327E+02  0.10566000000E+00 0. -1.
        994    1    1    2    0    0  0.46424153405E+01  0.70150382985E+01  0.13219214035E+01  0.17141163980E+03  0.17120000000E+03 0.  0.
        998    1    1    2    0    0 -0.77481949362E+01  0.49040866521E+01  0.14266599394E+04  0.14267244539E+04  0.10000000000E+02 0. -1.
</event>
<event>
 5    1  0.1640179E-008  0.3806387E+03  0.7957747E-01  0.3448382E+00
         13   -1    0    0    0    0  0.00000000000E+00  0.00000000000E+00  0.14999999963E+04  0.15000000000E+04  0.10566000000E+00 0. -1.
        994   -1    0    0    0    0 -0.00000000000E+00 -0.00000000000E+00  0.11368683772E-12  0.17120000000E+03  0.17120000000E+03 0.  0.
         13    1    1    2    0    0 -0.74911865824E+01  0.27643860668E+02  0.10906869761E+03  0.11276654145E+03  0.10566000000E+00 0. -1.
        994    1    1    2    0    0  0.16139008147E+01 -0.12811293809E+02  0.43674942894E+01  0.17174180892E+03  0.17120000000E+03 0.  0.
        998    1    1    2    0    0  0.58772857677E+01 -0.14832566859E+02  0.13865638044E+04  0.13866916496E+04  0.10000000000E+02 0. -1.
</event>
<event>
 5    1  0.1640179E-008  0.3841307E+03  0.7957747E-01  0.3433368E+00
         13   -1    0    0    0    0  0.00000000000E+00  0.00000000000E+00  0.14999999963E+04  0.15000000000E+04  0.10566000000E+00 0.  1.
        994   -1    0    0    0    0 -0.00000000000E+00 -0.00000000000E+00  0.11368683772E-12  0.17120000000E+03  0.17120000000E+03 0.  0.
         13    1    1    2    0    0  0.13078202070E+02  0.12782083211E+02  0.80542088120E+02  0.82592131244E+02  0.10566000000E+00 0.  1.
        994    1    1    2    0    0 -0.84068398249E+01 -0.86424914720E+01  0.25419269314E+01  0.17164285306E+03  0.17120000000E+03 0.  0.
        998    1    1    2    0    0 -0.46713622455E+01 -0.41395917387E+01  0.14169159812E+04  0.14169650157E+04  0.10000000000E+02 0.  1.
</event>
<event>
 5    1  0.1640179E-008  0.3835198E+03  0.7957747E-01  0.3435974E+00
         13   -1    0    0    0    0  0.00000000000E+00  0.00000000000E+00  0.14999999963E+04  0.15000000000E+04  0.10566000000E+00 0. -1.
        994   -1    0    0    0    0 -0.00000000000E+00 -0.00000000000E+00  0.11368683772E-12  0.17120000000E+03  0.17120000000E+03 0.  0.
         13    1    1    2    0    0  0.12007869275E+02 -0.57851118082E+01  0.36231104558E+02  0.38605188054E+02  0.10566000000E+00 0. -1.
        994    1    1    2    0    0 -0.10637961105E+02  0.80424289750E+01  0.29547392710E+01  0.17174404608E+03  0.17120000000E+03 0.  0.
        998    1    1    2    0    0 -0.13699081701E+01 -0.22573171668E+01  0.14608141525E+04  0.14608507659E+04  0.10000000000E+02 0. -1.
</event>
<event>
 5    1  0.1640179E-008  0.3684901E+03  0.7957747E-01  0.3502859E+00
         13   -1    0    0    0    0  0.00000000000E+00  0.00000000000E+00  0.14999999963E+04  0.15000000000E+04  0.10566000000E+00 0.  1.
        994   -1    0    0    0    0 -0.00000000000E+00 -0.00000000000E+00  0.11368683772E-12  0.17120000000E+03  0.17120000000E+03 0.  0.
         13    1    1    2    0    0  0.93512958338E+01 -0.10637060642E+02  0.52542299812E+01  0.15106683607E+02  0.10566000000E+00 0.  1.
        994    1    1    2    0    0 -0.89321453596E+01  0.73096123693E+01  0.10606016002E+02  0.17191608776E+03  0.17120000000E+03 0.  0.
        998    1    1    2    0    0 -0.41915047413E+00  0.33274482724E+01  0.14841397503E+04  0.14841772286E+04  0.10000000000E+02 0.  1.
</event>
<event>
 5    1  0.1640179E-008  0.3850295E+03  0.7957747E-01  0.3429547E+00
         13   -1    0    0    0    0  0.00000000000E+00  0.00000000000E+00  0.14999999963E+04  0.15000000000E+04  0.10566000000E+00 0. -1.
        994   -1    0    0    0    0 -0.00000000000E+00 -0.00000000000E+00  0.11368683772E-12  0.17120000000E+03  0.17120000000E+03 0.  0.
         13    1    1    2    0    0 -0.80407745258E+01  0.89167093586E+01  0.46096514366E+02  0.47634667643E+02  0.10566000000E+00 0. -1.
        994    1    1    2    0    0  0.19294680210E+01 -0.59716649061E+00  0.16289274244E+01  0.17121966260E+03  0.17120000000E+03 0.  0.
        998    1    1    2    0    0  0.61113065048E+01 -0.83195428680E+01  0.14522745545E+04  0.14523456698E+04  0.10000000000E+02 0. -1.
</event>
<event>
 5    1  0.1640179E-008  0.3850367E+03  0.7957747E-01  0.3429516E+00
         13   -1    0    0    0    0  0.00000000000E+00  0.00000000000E+00  0.14999999963E+04  0.15000000000E+04  0.10566000000E+00 0. -1.
        994   -1    0    0    0    0 -0.00000000000E+00 -0.00000000000E+00  0.11368683772E-12  0.17120000000E+03  0.17120000000E+03 0.  0.
         13    1    1    2    0    0 -0.12412039759E+02  0.67753128972E+01  0.70251346560E+02  0.71660494370E+02  0.10566000000E+00 0. -1.
        994    1    1    2    0    0 -0.70712860888E+01  0.58098189144E+01  0.18873640494E+01  0.17145483144E+03  0.17120000000E+03 0.  0.
        998    1    1    2    0    0  0.19483325848E+02 -0.12585131812E+02  0.14278612857E+04  0.14280846742E+04  0.10000000000E+02 0. -1.
</event>
<event>
 5    1  0.1640179E-008  0.3824286E+03  0.7957747E-01  0.3440652E+00
         13   -1    0    0    0    0  0.00000000000E+00  0.00000000000E+00  0.14999999963E+04  0.15000000000E+04  0.10566000000E+00 0. -1.
        994   -1    0    0    0    0 -0.00000000000E+00 -0.00000000000E+00  0.11368683772E-12  0.17120000000E+03  0.17120000000E+03 0.  0.
         13    1    1    2    0    0 -0.16735441432E+02  0.91043696930E+01  0.65035072567E+02  0.67768254923E+02  0.10566000000E+00 0. -1.
        994    1    1    2    0    0 -0.30728534202E+01 -0.68950037670E+01  0.31012072552E+01  0.17139440187E+03  0.17120000000E+03 0.  0.
        998    1    1    2    0    0  0.19808294852E+02 -0.22093659261E+01  0.14318637165E+04  0.14320373432E+04  0.10000000000E+02 0. -1.
</event>
<event>
 5    1  0.2204832E-008  0.3857324E+03  0.7957747E-01  0.3426572E+00
         13   -1    0    0    0    0  0.00000000000E+00  0.00000000000E+00  0.14999999963E+04  0.15000000000E+04  0.10566000000E+00 0. -1.
        994   -1    0    0    0    0 -0.00000000000E+00 -0.00000000000E+00  0.11368683772E-12  0.17120000000E+03  0.17120000000E+03 0.  0.
         13    1    1    2    0    0  0.19872479455E-01 -0.13494102834E+02  0.69561762144E+02  0.70858599498E+02  0.10566000000E+00 0. -1.
        994    1    1    2    0    0  0.33670995550E+00  0.14417784677E+02  0.19496013264E+01  0.17181742296E+03  0.17120000000E+03 0.  0.
        998    1    1    2    0    0 -0.35658243496E+00 -0.92368184320E+00  0.14284886328E+04  0.14285239775E+04  0.10000000000E+02 0.  0.
</event>
<event>
 5    1  0.1640179E-008  0.3726554E+03  0.7957747E-01  0.3483776E+00
         13   -1    0    0    0    0  0.00000000000E+00  0.00000000000E+00  0.14999999963E+04  0.15000000000E+04  0.10566000000E+00 0. -1.
        994   -1    0    0    0    0 -0.00000000000E+00 -0.00000000000E+00  0.11368683772E-12  0.17120000000E+03  0.17120000000E+03 0.  0.
         13    1    1    2    0    0 -0.28116986403E+02 -0.65523351724E+02  0.38943077840E+03  0.39590430268E+03  0.10566000000E+00 0. -1.
        994    1    1    2    0    0  0.17559596467E+02  0.12078169532E+02  0.94455530696E+01  0.17277986017E+03  0.17120000000E+03 0.  0.
        998    1    1    2    0    0  0.10557389937E+02  0.53445182192E+02  0.11011236648E+04  0.11025158372E+04  0.10000000000E+02 0. -1.
</event>
<event>
 5    1  0.1640179E-008  0.3854837E+03  0.7957747E-01  0.3427623E+00
         13   -1    0    0    0    0  0.00000000000E+00  0.00000000000E+00  0.14999999963E+04  0.15000000000E+04  0.10566000000E+00 0.  1.
        994   -1    0    0    0    0 -0.00000000000E+00 -0.00000000000E+00  0.11368683772E-12  0.17120000000E+03  0.17120000000E+03 0.  0.
         13    1    1    2    0    0  0.70734305919E+01  0.15942443154E+02  0.84106312590E+02  0.85895738518E+02  0.10566000000E+00 0.  1.
        994    1    1    2    0    0 -0.20660203437E+02 -0.42693803794E+02  0.88118748618E+01  0.17786706842E+03  0.17120000000E+03 0.  0.
        998    1    1    2    0    0  0.13586772846E+02  0.26751360640E+02  0.14070818088E+04  0.14074371931E+04  0.10000000000E+02 0.  1.
</event>
<event>
 5    1  0.1640179E-008  0.2956328E+03  0.7957747E-01  0.3927699E+00
         13   -1    0    0    0    0  0.00000000000E+00  0.00000000000E+00  0.14999999963E+04  0.15000000000E+04  0.10566000000E+00 0. -1.
        994   -1    0    0    0    0 -0.00000000000E+00 -0.00000000000E+00  0.11368683772E-12  0.17120000000E+03  0.17120000000E+03 0.  0.
         13    1    1    2    0    0  0.54557654826E+01  0.13884217046E+03  0.83649807309E+03  0.84795987590E+03  0.10566000000E+00 0. -1.
        994    1    1    2    0    0 -0.17581262924E+00 -0.20713382568E+02  0.25533392530E+02  0.17432862433E+03  0.17120000000E+03 0.  0.
        998    1    1    2    0    0 -0.52799528534E+01 -0.11812878789E+03  0.63796853065E+03  0.64891149977E+03  0.10000000000E+02 0. -1.
</event>
<event>
 5    1  0.1640179E-008  0.3774637E+03  0.7957747E-01  0.3462277E+00
         13   -1    0    0    0    0  0.00000000000E+00  0.00000000000E+00  0.14999999963E+04  0.15000000000E+04  0.10566000000E+00 0.  1.
        994   -1    0    0    0    0 -0.00000000000E+00 -0.00000000000E+00  0.11368683772E-12  0.17120000000E+03  0.17120000000E+03 0.  0.
         13    1    1    2    0    0  0.23032987102E+02  0.16493094156E+02  0.68698324925E+02  0.74310239276E+02  0.10566000000E+00 0.  1.
        994    1    1    2    0    0 -0.26660479504E+02 -0.14596387333E+02  0.85397081697E+01  0.17408676660E+03  0.17120000000E+03 0.  0.
        998    1    1    2    0    0  0.36274924019E+01 -0.18967068234E+01  0.14227619632E+04  0.14228029941E+04  0.10000000000E+02 0.  1.
</event>
<event>
 5    1  0.1640179E-008  0.3808277E+03  0.7957747E-01  0.3447562E+00
         13   -1    0    0    0    0  0.00000000000E+00  0.00000000000E+00  0.14999999963E+04  0.15000000000E+04  0.10566000000E+00 0. -1.
        994   -1    0    0    0    0 -0.00000000000E+00 -0.00000000000E+00  0.11368683772E-12  0.17120000000E+03  0.17120000000E+03 0.  0.
         13    1    1    2    0    0 -0.27473326415E+01 -0.14782084219E+02  0.31218071821E+02  0.34650209563E+02  0.10566000000E+00 0. -1.
        994    1    1    2    0    0 -0.11462351708E+02 -0.10964536094E+02  0.45551480589E+01  0.17199359271E+03  0.17120000000E+03 0.  0.
        998    1    1    2    0    0  0.14209684349E+02  0.25746620313E+02  0.14642267764E+04  0.14645561977E+04  0.10000000000E+02 0. -1.
</event>
<event>
 5    1  0.1640179E-008  0.3823871E+03  0.7957747E-01  0.3440830E+00
         13   -1    0    0    0    0  0.00000000000E+00  0.00000000000E+00  0.14999999963E+04  0.15000000000E+04  0.10566000000E+00 0.  1.
        994   -1    0    0    0    0 -0.00000000000E+00 -0.00000000000E+00  0.11368683772E-12  0.17120000000E+03  0.17120000000E+03 0.  0.
         13    1    1    2    0    0  0.12468970698E+02 -0.29836849737E+01  0.26466344786E+02  0.29408437168E+02  0.10566000000E+00 0.  1.
        994    1    1    2    0    0 -0.13197258281E+02  0.60474995089E+01  0.36322432173E+01  0.17185276567E+03  0.17120000000E+03 0.  0.
        998    1    1    2    0    0  0.72828758311E+00 -0.30638145352E+01  0.14699014083E+04  0.14699387972E+04  0.10000000000E+02 0.  1.
</event>
<event>
 5    1  0.1640179E-008  0.3817673E+03  0.7957747E-01  0.3443499E+00
         13   -1    0    0    0    0  0.00000000000E+00  0.00000000000E+00  0.14999999963E+04  0.15000000000E+04  0.10566000000E+00 0. -1.
        994   -1    0    0    0    0 -0.00000000000E+00 -0.00000000000E+00  0.11368683772E-12  0.17120000000E+03  0.17120000000E+03 0.  0.
         13    1    1    2    0    0 -0.20436769455E+02  0.19198452183E+01  0.62517775089E+02  0.65801449206E+02  0.10566000000E+00 0. -1.
        994    1    1    2    0    0  0.18025155992E+02  0.13153133848E+01  0.43300026733E+01  0.17220576419E+03  0.17120000000E+03 0.  0.
        998    1    1    2    0    0  0.24116134636E+01 -0.32351586031E+01  0.14331522185E+04  0.14331927866E+04  0.10000000000E+02 0. -1.
</event>
<event>
 5    1  0.1640179E-008  0.3861460E+03  0.7957747E-01  0.3424827E+00
         13   -1    0    0    0    0  0.00000000000E+00  0.00000000000E+00  0.14999999963E+04  0.15000000000E+04  0.10566000000E+00 0.  1.
        994   -1    0    0    0    0 -0.00000000000E+00 -0.00000000000E+00  0.11368683772E-12  0.17120000000E+03  0.17120000000E+03 0.  0.
         13    1    1    2    0    0  0.50216079620E+02 -0.64638776268E+02  0.15020788961E+03  0.17106211537E+03  0.10566000000E+00 0.  1.
        994    1    1    2    0    0 -0.46168399264E+02  0.61707032349E+02  0.42113777602E+02  0.19241176990E+03  0.17120000000E+03 0.  0.
        998    1    1    2    0    0 -0.40476803561E+01  0.29317439194E+01  0.13076783291E+04  0.13077261147E+04  0.10000000000E+02 0.  1.
</event>
<event>
 5    1  0.2904057E-008  0.3860649E+03  0.7957747E-01  0.3425168E+00
         13   -1    0    0    0    0  0.00000000000E+00  0.00000000000E+00  0.14999999963E+04  0.15000000000E+04  0.10566000000E+00 0. -1.
        994   -1    0    0    0    0 -0.00000000000E+00 -0.00000000000E+00  0.11368683772E-12  0.17120000000E+03  0.17120000000E+03 0.  0.
         13    1    1    2    0    0  0.49480443195E+01 -0.99192017642E+01  0.58465200460E+02  0.59506844439E+02  0.10566000000E+00 0. -1.
        994    1    1    2    0    0  0.61484548519E+00  0.32591982925E+01  0.11383992638E+01  0.17123590850E+03  0.17120000000E+03 0.  0.
        998    1    1    2    0    0 -0.55628898047E+01  0.66600034717E+01  0.14403963966E+04  0.14404572471E+04  0.10000000000E+02 0. -1.
</event>
<event>
 5    1  0.1640179E-008  0.3809244E+03  0.7957747E-01  0.3447143E+00
         13   -1    0    0    0    0  0.00000000000E+00  0.00000000000E+00  0.14999999963E+04  0.15000000000E+04  0.10566000000E+00 0. -1.
        994   -1    0    0    0    0 -0.00000000000E+00 -0.00000000000E+00  0.11368683772E-12  0.17120000000E+03  0.17120000000E+03 0.  0.
         13    1    1    2    0    0 -0.89118993870E+01 -0.79149928532E+01  0.17617823437E+02  0.21271293549E+02  0.10566000000E+00 0. -1.
        994    1    1    2    0    0  0.79958835470E+01  0.10935965312E+02  0.42791401920E+01  0.17178847613E+03  0.17120000000E+03 0.  0.
        998    1    1    2    0    0  0.91601584000E+00 -0.30209724589E+01  0.14781030326E+04  0.14781402303E+04  0.10000000000E+02 0. -1.
</event>
<event>
 5    1  0.1640179E-008  0.3830836E+03  0.7957747E-01  0.3437841E+00
         13   -1    0    0    0    0  0.00000000000E+00  0.00000000000E+00  0.14999999963E+04  0.15000000000E+04  0.10566000000E+00 0.  1.
        994   -1    0    0    0    0 -0.00000000000E+00 -0.00000000000E+00  0.11368683772E-12  0.17120000000E+03  0.17120000000E+03 0.  0.
         13    1    1    2    0    0 -0.10983535604E+02  0.72227038854E+01  0.33271126560E+02  0.35774076262E+02  0.10566000000E+00 0.  1.
        994    1    1    2    0    0  0.16402270726E+01 -0.38058876258E+01  0.26414187751E+01  0.17127052350E+03  0.17120000000E+03 0.  0.
        998    1    1    2    0    0  0.93433085315E+01 -0.34168162596E+01  0.14640874509E+04  0.14641554002E+04  0.10000000000E+02 0.  1.
</event>
<event>
 5    1  0.1640179E-008  0.3855044E+03  0.7957747E-01  0.3427536E+00
         13   -1    0    0    0    0  0.00000000000E+00  0.00000000000E+00  0.14999999963E+04  0.15000000000E+04  0.10566000000E+00 0. -1.
        994   -1    0    0    0    0 -0.00000000000E+00 -0.00000000000E+00  0.11368683772E-12  0.17120000000E+03  0.17120000000E+03 0.  0.
         13    1    1    2    0    0 -0.16143261487E+02 -0.85837086784E+00  0.91378492722E+02  0.92797531154E+02  0.10566000000E+00 0. -1.
        994    1    1    2    0    0  0.15245314777E+02  0.49608421698E+01  0.22242735848E+01  0.17196341754E+03  0.17120000000E+03 0.  0.
        998    1    1    2    0    0  0.89794670994E+00 -0.41024713019E+01  0.14063972300E+04  0.14064390513E+04  0.10000000000E+02 0. -1.
</event>
<event>
 5    1  0.1640179E-008  0.3685406E+03  0.7957747E-01  0.3502625E+00
         13   -1    0    0    0    0  0.00000000000E+00  0.00000000000E+00  0.14999999963E+04  0.15000000000E+04  0.10566000000E+00 0. -1.
        994   -1    0    0    0    0 -0.00000000000E+00 -0.00000000000E+00  0.11368683772E-12  0.17120000000E+03  0.17120000000E+03 0.  0.
         13    1    1    2    0    0  0.23210424857E+02  0.97060602436E+01  0.26886200100E+02  0.36821330060E+02  0.10566000000E+00 0. -1.
        994    1    1    2    0    0 -0.22783236204E+02 -0.11240741864E+02  0.12280078377E+02  0.17350985694E+03  0.17120000000E+03 0.  0.
        998    1    1    2    0    0 -0.42718865394E+00  0.15346816207E+01  0.14608337178E+04  0.14608688130E+04  0.10000000000E+02 0. -1.
</event>
<event>
 5    1  0.1640179E-008  0.3786719E+03  0.7957747E-01  0.3456962E+00
         13   -1    0    0    0    0  0.00000000000E+00  0.00000000000E+00  0.14999999963E+04  0.15000000000E+04  0.10566000000E+00 0. -1.
        994   -1    0    0    0    0 -0.00000000000E+00 -0.00000000000E+00  0.11368683772E-12  0.17120000000E+03  0.17120000000E+03 0.  0.
         13    1    1    2    0    0 -0.30629210432E+02  0.33118784721E+02  0.22735040365E+03  0.23178269918E+03  0.10566000000E+00 0. -1.
        994    1    1    2    0    0  0.16382990080E+02 -0.59867417256E+01  0.58272484794E+01  0.17218490139E+03  0.17120000000E+03 0.  0.
        998    1    1    2    0    0  0.14246220352E+02 -0.27132042996E+02  0.12668223441E+04  0.12672323994E+04  0.10000000000E+02 0. -1.
</event>
<event>
 5    1  0.1640179E-008  0.3777823E+03  0.7957747E-01  0.3460872E+00
         13   -1    0    0    0    0  0.00000000000E+00  0.00000000000E+00  0.14999999963E+04  0.15000000000E+04  0.10566000000E+00 0.  1.
        994   -1    0    0    0    0 -0.00000000000E+00 -0.00000000000E+00  0.11368683772E-12  0.17120000000E+03  0.17120000000E+03 0.  0.
         13    1    1    2    0    0 -0.90015551340E+01  0.37835502126E+02  0.16725594154E+03  0.17171812473E+03  0.10566000000E+00 0.  1.
        994    1    1    2    0    0 -0.12889675091E+01  0.34240087186E+01  0.53018985238E+01  0.17132114698E+03  0.17120000000E+03 0.  0.
        998    1    1    2    0    0  0.10290522643E+02 -0.41259510844E+02  0.13274421562E+04  0.13281607283E+04  0.10000000000E+02 0.  1.
</event>
<event>
 5    1  0.1640179E-008  0.3816230E+03  0.7957747E-01  0.3444122E+00
         13   -1    0    0    0    0  0.00000000000E+00  0.00000000000E+00  0.14999999963E+04  0.15000000000E+04  0.10566000000E+00 0. -1.
        994   -1    0    0    0    0 -0.00000000000E+00 -0.00000000000E+00  0.11368683772E-12  0.17120000000E+03  0.17120000000E+03 0.  0.
         13    1    1    2    0    0 -0.26830433752E+02 -0.18918348932E+02  0.18745081146E+03  0.19030395157E+03  0.10566000000E+00 0. -1.
        994    1    1    2    0    0 -0.10174958399E+02  0.16872318128E+02  0.46079800033E+01  0.17239164242E+03  0.17120000000E+03 0.  0.
        998    1    1    2    0    0  0.37005392151E+02  0.20460308042E+01  0.13079412048E+04  0.13085044060E+04  0.10000000000E+02 0. -1.
</event>
<event>
 5    1  0.1640179E-008  0.3837868E+03  0.7957747E-01  0.3434834E+00
         13   -1    0    0    0    0  0.00000000000E+00  0.00000000000E+00  0.14999999963E+04  0.15000000000E+04  0.10566000000E+00 0.  1.
        994   -1    0    0    0    0 -0.00000000000E+00 -0.00000000000E+00  0.11368683772E-12  0.17120000000E+03  0.17120000000E+03 0.  0.
         13    1    1    2    0    0 -0.12431727299E+02  0.19021577487E+02  0.12954282548E+03  0.13152080843E+03  0.10566000000E+00 0.  1.
        994    1    1    2    0    0 -0.40079774722E+00  0.88036883919E+00  0.22367691182E+01  0.17121734382E+03  0.17120000000E+03 0.  0.
        998    1    1    2    0    0  0.12832525046E+02 -0.19901946326E+02  0.13682204017E+04  0.13684618477E+04  0.10000000000E+02 0.  1.
</event>
<event>
 5    1  0.1640179E-008  0.3773695E+03  0.7957747E-01  0.3462693E+00
         13   -1    0    0    0    0  0.00000000000E+00  0.00000000000E+00  0.14999999963E+04  0.15000000000E+04  0.10566000000E+00 0.  1.
        994   -1    0    0    0    0 -0.00000000000E+00 -0.00000000000E+00  0.11368683772E-12  0.17120000000E+03  0.17120000000E+03 0.  0.
         13    1    1    2    0    0  0.93732844343E+02 -0.16120297625E+02  0.31277501979E+03  0.32691579080E+03  0.10566000000E+00 0.  1.
        994    1    1    2    0    0 -0.52979761296E+02 -0.18239633539E+02  0.26244661958E+02  0.18203780272E+03  0.17120000000E+03 0.  0.
        998    1    1    2    0    0 -0.40753083048E+02  0.34359931164E+02  0.11609803145E+04  0.11622464065E+04  0.10000000000E+02 0.  1.
</event>
<event>
 5    1  0.1640179E-008  0.3839125E+03  0.7957747E-01  0.3434298E+00
         13   -1    0    0    0    0  0.00000000000E+00  0.00000000000E+00  0.14999999963E+04  0.15000000000E+04  0.10566000000E+00 0.  1.
        994   -1    0    0    0    0 -0.00000000000E+00 -0.00000000000E+00  0.11368683772E-12  0.17120000000E+03  0.17120000000E+03 0.  0.
         13    1    1    2    0    0 -0.83809610221E+01 -0.11759196417E+02  0.48530061457E+02  0.50632965913E+02  0.10566000000E+00 0.  1.
        994    1    1    2    0    0 -0.52071749632E+01  0.10242862805E+02  0.26068917909E+01  0.17160497310E+03  0.17120000000E+03 0.  0.
        998    1    1    2    0    0  0.13588135985E+02  0.15163336120E+01  0.14488630430E+04  0.14489620610E+04  0.10000000000E+02 0.  1.
</event>
<event>
 5    1  0.1640179E-008  0.3813437E+03  0.7957747E-01  0.3445329E+00
         13   -1    0    0    0    0  0.00000000000E+00  0.00000000000E+00  0.14999999963E+04  0.15000000000E+04  0.10566000000E+00 0.  1.
        994   -1    0    0    0    0 -0.00000000000E+00 -0.00000000000E+00  0.11368683772E-12  0.17120000000E+03  0.17120000000E+03 0.  0.
         13    1    1    2    0    0  0.32320591158E+02 -0.91842558126E+01  0.18966241302E+03  0.19261571391E+03  0.10566000000E+00 0.  1.
        994    1    1    2    0    0  0.61556133520E+00  0.24742300384E+01  0.34780418877E+01  0.17125430653E+03  0.17120000000E+03 0.  0.
        998    1    1    2    0    0 -0.32936152493E+02  0.67100257742E+01  0.13068595414E+04  0.13073299796E+04  0.10000000000E+02 0.  1.
</event>
<event>
 5    1  0.1640179E-008  0.3846179E+03  0.7957747E-01  0.3431294E+00
         13   -1    0    0    0    0  0.00000000000E+00  0.00000000000E+00  0.14999999963E+04  0.15000000000E+04  0.10566000000E+00 0. -1.
        994   -1    0    0    0    0 -0.00000000000E+00 -0.00000000000E+00  0.11368683772E-12  0.17120000000E+03  0.17120000000E+03 0.  0.
         13    1    1    2    0    0  0.11612928472E+02  0.64971140624E+01  0.51409151023E+02  0.53103526924E+02  0.10566000000E+00 0. -1.
        994    1    1    2    0    0  0.89315303318E+00  0.28806028193E+01  0.18499291477E+01  0.17123655519E+03  0.17120000000E+03 0.  0.
        998    1    1    2    0    0 -0.12506081505E+02 -0.93777168817E+01  0.14467409161E+04  0.14468599179E+04  0.10000000000E+02 0. -1.
</event>
<event>
 5    1  0.2525130E-008  0.3863760E+03  0.7957747E-01  0.3423857E+00
         13   -1    0    0    0    0  0.00000000000E+00  0.00000000000E+00  0.14999999963E+04  0.15000000000E+04  0.10566000000E+00 0. -1.
        994   -1    0    0    0    0 -0.00000000000E+00 -0.00000000000E+00  0.11368683772E-12  0.17120000000E+03  0.17120000000E+03 0.  0.
         13    1    1    2    0    0  0.96636948353E+01 -0.40996293171E+01  0.57550864936E+02  0.58500488693E+02  0.10566000000E+00 0. -1.
        994    1    1    2    0    0 -0.99719399023E+01  0.39129320852E+01  0.13242803433E+01  0.17153992055E+03  0.17120000000E+03 0.  0.
        998    1    1    2    0    0  0.30824506698E+00  0.18669723183E+00  0.14411248510E+04  0.14411595908E+04  0.10000000000E+02 0. -1.
</event>
<event>
 5    1  0.1640179E-008  0.3842861E+03  0.7957747E-01  0.3432706E+00
         13   -1    0    0    0    0  0.00000000000E+00  0.00000000000E+00  0.14999999963E+04  0.15000000000E+04  0.10566000000E+00 0.  1.
        994   -1    0    0    0    0 -0.00000000000E+00 -0.00000000000E+00  0.11368683772E-12  0.17120000000E+03  0.17120000000E+03 0.  0.
         13    1    1    2    0    0  0.51124597802E+01  0.23962183596E+02  0.13712188454E+03  0.13929373952E+03  0.10566000000E+00 0.  1.
        994    1    1    2    0    0 -0.70183877529E+01 -0.25550990769E+02  0.43027682595E+01  0.17329184837E+03  0.17120000000E+03 0.  0.
        998    1    1    2    0    0  0.19059279727E+01  0.15888071728E+01  0.13585753435E+04  0.13586144121E+04  0.10000000000E+02 0.  1.
</event>
<event>
 5    1  0.1640179E-008  0.3821898E+03  0.7957747E-01  0.3441679E+00
         13   -1    0    0    0    0  0.00000000000E+00  0.00000000000E+00  0.14999999963E+04  0.15000000000E+04  0.10566000000E+00 0.  1.
        994   -1    0    0    0    0 -0.00000000000E+00 -0.00000000000E+00  0.11368683772E-12  0.17120000000E+03  0.17120000000E+03 0.  0.
         13    1    1    2    0    0 -0.62000435674E+01  0.16238263571E+02  0.48149093676E+02  0.51190508202E+02  0.10566000000E+00 0.  1.
        994    1    1    2    0    0  0.84391959797E+01 -0.12513032946E+02  0.37882110940E+01  0.17190574908E+03  0.17120000000E+03 0.  0.
        998    1    1    2    0    0 -0.22391524123E+01 -0.37252306251E+01  0.14480626915E+04  0.14481037427E+04  0.10000000000E+02 0.  1.
</event>
<event>
 5    1  0.1640179E-008  0.3784297E+03  0.7957747E-01  0.3458024E+00
         13   -1    0    0    0    0  0.00000000000E+00  0.00000000000E+00  0.14999999963E+04  0.15000000000E+04  0.10566000000E+00 0.  1.
        994   -1    0    0    0    0 -0.00000000000E+00 -0.00000000000E+00  0.11368683772E-12  0.17120000000E+03  0.17120000000E+03 0.  0.
         13    1    1    2    0    0  0.18708139550E+02 -0.52970873718E+01  0.33048015911E+02  0.38343658403E+02  0.10566000000E+00 0.  1.
        994    1    1    2    0    0 -0.39891173145E+02  0.23417146240E+02  0.12151863815E+02  0.17775482055E+03  0.17120000000E+03 0.  0.
        998    1    1    2    0    0  0.21183033595E+02 -0.18120058868E+02  0.14548001166E+04  0.14551015211E+04  0.10000000000E+02 0.  1.
</event>
<event>
 5    1  0.1640179E-008  0.3861201E+03  0.7957747E-01  0.3424935E+00
         13   -1    0    0    0    0  0.00000000000E+00  0.00000000000E+00  0.14999999963E+04  0.15000000000E+04  0.10566000000E+00 0. -1.
        994   -1    0    0    0    0 -0.00000000000E+00 -0.00000000000E+00  0.11368683772E-12  0.17120000000E+03  0.17120000000E+03 0.  0.
         13    1    1    2    0    0 -0.54411696937E+01  0.10715086149E+02  0.66050657800E+02  0.67135087389E+02  0.10566000000E+00 0. -1.
        994    1    1    2    0    0  0.72273377084E+01 -0.97027414290E+01  0.15548182580E+01  0.17163401487E+03  0.17120000000E+03 0.  0.
        998    1    1    2    0    0 -0.17861680148E+01 -0.10123447199E+01  0.14323945202E+04  0.14324308977E+04  0.10000000000E+02 0. -1.
</event>
<event>
 5    1  0.1640179E-008  0.3854652E+03  0.7957747E-01  0.3427702E+00
         13   -1    0    0    0    0  0.00000000000E+00  0.00000000000E+00  0.14999999963E+04  0.15000000000E+04  0.10566000000E+00 0. -1.
        994   -1    0    0    0    0 -0.00000000000E+00 -0.00000000000E+00  0.11368683772E-12  0.17120000000E+03  0.17120000000E+03 0.  0.
         13    1    1    2    0    0 -0.13846963161E+01 -0.14389178669E+02  0.75187284465E+02  0.76564383076E+02  0.10566000000E+00 0. -1.
        994    1    1    2    0    0 -0.17596788278E+01  0.94052492986E+01  0.17000407546E+01  0.17147561145E+03  0.17120000000E+03 0.  0.
        998    1    1    2    0    0  0.31443751439E+01  0.49839293702E+01  0.14231126711E+04  0.14231600055E+04  0.10000000000E+02 0.  0.
</event>
<event>
 5    1  0.1640179E-008  0.3859717E+03  0.7957747E-01  0.3425562E+00
         13   -1    0    0    0    0  0.00000000000E+00  0.00000000000E+00  0.14999999963E+04  0.15000000000E+04  0.10566000000E+00 0.  1.
        994   -1    0    0    0    0 -0.00000000000E+00 -0.00000000000E+00  0.11368683772E-12  0.17120000000E+03  0.17120000000E+03 0.  0.
         13    1    1    2    0    0 -0.90652266197E+01 -0.61284429437E+01  0.55052732770E+02  0.56129766577E+02  0.10566000000E+00 0.  1.
        994    1    1    2    0    0  0.96520663408E+00  0.57846518714E+00  0.11526261351E+01  0.17120757808E+03  0.17120000000E+03 0.  0.
        998    1    1    2    0    0  0.81000199857E+01  0.55499777566E+01  0.14437946374E+04  0.14438626553E+04  0.10000000000E+02 0.  1.
</event>
<event>
 5    1  0.1640179E-008  0.3843602E+03  0.7957747E-01  0.3432390E+00
         13   -1    0    0    0    0  0.00000000000E+00  0.00000000000E+00  0.14999999963E+04  0.15000000000E+04  0.10566000000E+00 0. -1.
        994   -1    0    0    0    0 -0.00000000000E+00 -0.00000000000E+00  0.11368683772E-12  0.17120000000E+03  0.17120000000E+03 0.  0.
         13    1    1    2    0    0  0.25480155562E+01 -0.17561437603E+02  0.92746190147E+02  0.94428615498E+02  0.10566000000E+00 0. -1.
        994    1    1    2    0    0 -0.35061378877E+01 -0.89353927534E+01  0.22518151747E+01  0.17148365787E+03  0.17120000000E+03 0.  0.
        998    1    1    2    0    0  0.95812233150E+00  0.26496830357E+02  0.14050019910E+04  0.14052877266E+04  0.10000000000E+02 0. -1.
</event>
<event>
 5    1  0.1640179E-008  0.3753153E+03  0.7957747E-01  0.3471814E+00
         13   -1    0    0    0    0  0.00000000000E+00  0.00000000000E+00  0.14999999963E+04  0.15000000000E+04  0.10566000000E+00 0.  1.
        994   -1    0    0    0    0 -0.00000000000E+00 -0.00000000000E+00  0.11368683772E-12  0.17120000000E+03  0.17120000000E+03 0.  0.
         13    1    1    2    0    0  0.20615133809E+02  0.15263572503E+02  0.46525340250E+02  0.53127947795E+02  0.10566000000E+00 0.  1.
        994    1    1    2    0    0 -0.18834119601E+02 -0.19080019708E+02  0.89614197206E+01  0.17351806320E+03  0.17120000000E+03 0.  0.
        998    1    1    2    0    0 -0.17810142082E+01  0.38164472059E+01  0.14445132363E+04  0.14445539890E+04  0.10000000000E+02 0.  1.
</event>
<event>
 5    1  0.1640179E-008  0.3705706E+03  0.7957747E-01  0.3493272E+00
         13   -1    0    0    0    0  0.00000000000E+00  0.00000000000E+00  0.14999999963E+04  0.15000000000E+04  0.10566000000E+00 0. -1.
        994   -1    0    0    0    0 -0.00000000000E+00 -0.00000000000E+00  0.11368683772E-12  0.17120000000E+03  0.17120000000E+03 0.  0.
         13    1    1    2    0    0  0.77907305385E+01 -0.87060626804E+01  0.34158954155E+01  0.12172531177E+02  0.10566000000E+00 0. -1.
        994    1    1    2    0    0 -0.71970817085E+01  0.10164687530E+02  0.95065729159E+01  0.17191548443E+03  0.17120000000E+03 0.  0.
        998    1    1    2    0    0 -0.59364883001E+00 -0.14586248491E+01  0.14870775279E+04  0.14871119844E+04  0.10000000000E+02 0. -1.
</event>
<event>
 5    1  0.1640179E-008  0.3834509E+03  0.7957747E-01  0.3436269E+00
         13   -1    0    0    0    0  0.00000000000E+00  0.00000000000E+00  0.14999999963E+04  0.15000000000E+04  0.10566000000E+00 0.  1.
        994   -1    0    0    0    0 -0.00000000000E+00 -0.00000000000E+00  0.11368683772E-12  0.17120000000E+03  0.17120000000E+03 0.  0.
         13    1    1    2    0    0 -0.54924017276E+01  0.19278913119E+02  0.91517358096E+02  0.93687144073E+02  0.10566000000E+00 0.  1.
        994    1    1    2    0    0 -0.99929164250E+00  0.23423481973E+01  0.24226266559E+01  0.17123607768E+03  0.17120000000E+03 0.  0.
        998    1    1    2    0    0  0.64916933701E+01 -0.21621261316E+02  0.14060600115E+04  0.14062767782E+04  0.10000000000E+02 0.  1.
</event>
<event>
 5    1  0.1640179E-008  0.3803587E+03  0.7957747E-01  0.3449598E+00
         13   -1    0    0    0    0  0.00000000000E+00  0.00000000000E+00  0.14999999963E+04  0.15000000000E+04  0.10566000000E+00 0.  1.
        994   -1    0    0    0    0 -0.00000000000E+00 -0.00000000000E+00  0.11368683772E-12  0.17120000000E+03  0.17120000000E+03 0.  0.
         13    1    1    2    0    0 -0.11144971967E+01  0.25687939237E+02  0.77327027125E+02  0.81489831355E+02  0.10566000000E+00 0.  1.
        994    1    1    2    0    0  0.45731856095E+01 -0.29243489414E+02  0.68829408245E+01  0.17387613572E+03  0.17120000000E+03 0.  0.
        998    1    1    2    0    0 -0.34586884128E+01  0.35555501772E+01  0.14157900283E+04  0.14158340329E+04  0.10000000000E+02 0.  1.
</event>
<event>
 5    1  0.1640179E-008  0.3841237E+03  0.7957747E-01  0.3433397E+00
         13   -1    0    0    0    0  0.00000000000E+00  0.00000000000E+00  0.14999999963E+04  0.15000000000E+04  0.10566000000E+00 0. -1.
        994   -1    0    0    0    0 -0.00000000000E+00 -0.00000000000E+00  0.11368683772E-12  0.17120000000E+03  0.17120000000E+03 0.  0.
         13    1    1    2    0    0 -0.14022447261E+02 -0.22885623019E+01  0.41312464886E+02  0.43687497795E+02  0.10566000000E+00 0. -1.
        994    1    1    2    0    0  0.39913086070E+02  0.34601954905E+02  0.11323322835E+02  0.17952160695E+03  0.17120000000E+03 0.  0.
        998    1    1    2    0    0 -0.25890638809E+02 -0.32313392603E+02  0.14473642086E+04  0.14479908953E+04  0.10000000000E+02 0. -1.
</event>
<event>
 5    1  0.1640179E-008  0.3771480E+03  0.7957747E-01  0.3463672E+00
         13   -1    0    0    0    0  0.00000000000E+00  0.00000000000E+00  0.14999999963E+04  0.15000000000E+04  0.10566000000E+00 0.  1.
        994   -1    0    0    0    0 -0.00000000000E+00 -0.00000000000E+00  0.11368683772E-12  0.17120000000E+03  0.17120000000E+03 0.  0.
         13    1    1    2    0    0 -0.10193936383E+03 -0.61816362739E+02  0.70912404143E+03  0.71907566633E+03  0.10566000000E+00 0.  1.
        994    1    1    2    0    0  0.93747887572E+02  0.63764505676E+02  0.50269558931E+02  0.21140257133E+03  0.17120000000E+03 0.  0.
        998    1    1    2    0    0  0.81914762619E+01 -0.19481429366E+01  0.74060639591E+03  0.74072176235E+03  0.10000000000E+02 0. -1.
</event>
<event>
 5    1  0.1640179E-008  0.3844588E+03  0.7957747E-01  0.3431971E+00
         13   -1    0    0    0    0  0.00000000000E+00  0.00000000000E+00  0.14999999963E+04  0.15000000000E+04  0.10566000000E+00 0. -1.
        994   -1    0    0    0    0 -0.00000000000E+00 -0.00000000000E+00  0.11368683772E-12  0.17120000000E+03  0.17120000000E+03 0.  0.
         13    1    1    2    0    0  0.60874755742E+01 -0.82376859186E+01  0.27283458271E+02  0.29143010954E+02  0.10566000000E+00 0. -1.
        994    1    1    2    0    0 -0.41164916121E+01  0.42375631799E+01  0.20140502714E+01  0.17131374388E+03  0.17120000000E+03 0.  0.
        998    1    1    2    0    0 -0.19709839621E+01  0.40001227388E+01  0.14707024877E+04  0.14707432452E+04  0.10000000000E+02 0. -1.
</event>
<event>
 5    1  0.1640179E-008  0.3719764E+03  0.7957747E-01  0.3486857E+00
         13   -1    0    0    0    0  0.00000000000E+00  0.00000000000E+00  0.14999999963E+04  0.15000000000E+04  0.10566000000E+00 0. -1.
        994   -1    0    0    0    0 -0.00000000000E+00 -0.00000000000E+00  0.11368683772E-12  0.17120000000E+03  0.17120000000E+03 0.  0.
         13    1    1    2    0    0 -0.14376192512E+02 -0.28399506720E+02  0.53674596786E+02  0.62403368477E+02  0.10566000000E+00 0. -1.
        994    1    1    2    0    0  0.10410838478E+02  0.48425486292E+02  0.16712759189E+02  0.17900326701E+03  0.17120000000E+03 0.  0.
        998    1    1    2    0    0  0.39653540342E+01 -0.20025979572E+02  0.14296126403E+04  0.14297933645E+04  0.10000000000E+02 0. -1.
</event>
<event>
 5    1  0.1640179E-008  0.3851795E+03  0.7957747E-01  0.3428911E+00
         13   -1    0    0    0    0  0.00000000000E+00  0.00000000000E+00  0.14999999963E+04  0.15000000000E+04  0.10566000000E+00 0.  1.
        994   -1    0    0    0    0 -0.00000000000E+00 -0.00000000000E+00  0.11368683772E-12  0.17120000000E+03  0.17120000000E+03 0.  0.
         13    1    1    2    0    0  0.20623131452E+02  0.10766126714E+01  0.11785771052E+03  0.11965334822E+03  0.10566000000E+00 0.  1.
        994    1    1    2    0    0 -0.31949113421E+02 -0.53969029633E+00  0.49041189614E+01  0.17422550760E+03  0.17120000000E+03 0.  0.
        998    1    1    2    0    0  0.11325981969E+02 -0.53692237506E+00  0.13772381668E+04  0.13773211442E+04  0.10000000000E+02 0.  1.
</event>
<event>
 5    1  0.1640179E-008  0.3843474E+03  0.7957747E-01  0.3432445E+00
         13   -1    0    0    0    0  0.00000000000E+00  0.00000000000E+00  0.14999999963E+04  0.15000000000E+04  0.10566000000E+00 0.  1.
        994   -1    0    0    0    0 -0.00000000000E+00 -0.00000000000E+00  0.11368683772E-12  0.17120000000E+03  0.17120000000E+03 0.  0.
         13    1    1    2    0    0  0.48836057623E+00  0.14115937846E+02  0.48339472065E+02  0.50360837174E+02  0.10566000000E+00 0.  1.
        994    1    1    2    0    0  0.18358465188E+02 -0.19788889492E+02  0.43595032304E+01  0.17336977435E+03  0.17120000000E+03 0.  0.
        998    1    1    2    0    0 -0.18846825764E+02  0.56729516459E+01  0.14473010210E+04  0.14474693885E+04  0.10000000000E+02 0.  1.
</event>
<event>
 5    1  0.1640179E-008  0.3795164E+03  0.7957747E-01  0.3453267E+00
         13   -1    0    0    0    0  0.00000000000E+00  0.00000000000E+00  0.14999999963E+04  0.15000000000E+04  0.10566000000E+00 0. -1.
        994   -1    0    0    0    0 -0.00000000000E+00 -0.00000000000E+00  0.11368683772E-12  0.17120000000E+03  0.17120000000E+03 0.  0.
         13    1    1    2    0    0  0.17328640762E+01  0.29603002676E+02  0.10775596761E+03  0.11176180164E+03  0.10566000000E+00 0. -1.
        994    1    1    2    0    0 -0.11814080006E+01 -0.16728385910E+01  0.43915342137E+01  0.17126856012E+03  0.17120000000E+03 0.  0.
        998    1    1    2    0    0 -0.55145607557E+00 -0.27930164085E+02  0.13878524945E+04  0.13881696382E+04  0.10000000000E+02 0. -1.
</event>
<event>
 5    1  0.1640179E-008  0.3817413E+03  0.7957747E-01  0.3443611E+00
         13   -1    0    0    0    0  0.00000000000E+00  0.00000000000E+00  0.14999999963E+04  0.15000000000E+04  0.10566000000E+00 0.  1.
        994   -1    0    0    0    0 -0.00000000000E+00 -0.00000000000E+00  0.11368683772E-12  0.17120000000E+03  0.17120000000E+03 0.  0.
         13    1    1    2    0    0  0.26677067840E+02  0.77350010691E+01  0.10457249668E+03  0.10819849544E+03  0.10566000000E+00 0.  1.
        994    1    1    2    0    0 -0.43071471542E+02  0.13617720856E+02  0.10069101423E+02  0.17734548425E+03  0.17120000000E+03 0.  0.
        998    1    1    2    0    0  0.16394403702E+02 -0.21352721925E+02  0.13853583982E+04  0.13856560203E+04  0.10000000000E+02 0.  1.
</event>
<event>
 5    1  0.1640179E-008  0.3851887E+03  0.7957747E-01  0.3428873E+00
         13   -1    0    0    0    0  0.00000000000E+00  0.00000000000E+00  0.14999999963E+04  0.15000000000E+04  0.10566000000E+00 0. -1.
        994   -1    0    0    0    0 -0.00000000000E+00 -0.00000000000E+00  0.11368683772E-12  0.17120000000E+03  0.17120000000E+03 0.  0.
         13    1    1    2    0    0  0.34105811863E+01 -0.18137821498E+02  0.10795459250E+03  0.10952085573E+03  0.10566000000E+00 0. -1.
        994    1    1    2    0    0 -0.68843435556E+01  0.14091644557E+02  0.23453321547E+01  0.17193286252E+03  0.17120000000E+03 0.  0.
        998    1    1    2    0    0  0.34737623692E+01  0.40461769408E+01  0.13897000716E+04  0.13897462818E+04  0.10000000000E+02 0. -1.
</event>
<event>
 5    1  0.1640179E-008  0.3845649E+03  0.7957747E-01  0.3431519E+00
         13   -1    0    0    0    0  0.00000000000E+00  0.00000000000E+00  0.14999999963E+04  0.15000000000E+04  0.10566000000E+00 0.  1.
        994   -1    0    0    0    0 -0.00000000000E+00 -0.00000000000E+00  0.11368683772E-12  0.17120000000E+03  0.17120000000E+03 0.  0.
         13    1    1    2    0    0 -0.11482056035E+03  0.39931166802E+02  0.65301729420E+03  0.66423629594E+03  0.10566000000E+00 0.  1.
        994    1    1    2    0    0  0.16502409911E+03 -0.79990761332E+02  0.12181807859E+03  0.27889166258E+03  0.17120000000E+03 0.  0.
        998    1    1    2    0    0 -0.50203538763E+02  0.40059594530E+02  0.72516462349E+03  0.72807204148E+03  0.10000000000E+02 0.  1.
</event>
<event>
 5    1  0.1640179E-008  0.3717160E+03  0.7957747E-01  0.3488041E+00
         13   -1    0    0    0    0  0.00000000000E+00  0.00000000000E+00  0.14999999963E+04  0.15000000000E+04  0.10566000000E+00 0.  1.
        994   -1    0    0    0    0 -0.00000000000E+00 -0.00000000000E+00  0.11368683772E-12  0.17120000000E+03  0.17120000000E+03 0.  0.
         13    1    1    2    0    0  0.39777457045E+01  0.38508729314E+02  0.56611336713E+02  0.68582791593E+02  0.10566000000E+00 0.  1.
        994    1    1    2    0    0 -0.20412826793E+01 -0.39603339724E+02  0.17400454946E+02  0.17659220590E+03  0.17120000000E+03 0.  0.
        998    1    1    2    0    0 -0.19364630252E+01  0.10946104097E+01  0.14259882046E+04  0.14260250025E+04  0.10000000000E+02 0.  1.
</event>
<event>
 5    1  0.1640179E-008  0.3776306E+03  0.7957747E-01  0.3461541E+00
         13   -1    0    0    0    0  0.00000000000E+00  0.00000000000E+00  0.14999999963E+04  0.15000000000E+04  0.10566000000E+00 0.  1.
        994   -1    0    0    0    0 -0.00000000000E+00 -0.00000000000E+00  0.11368683772E-12  0.17120000000E+03  0.17120000000E+03 0.  0.
         13    1    1    2    0    0 -0.13389130590E+03  0.41439806645E+02  0.31950678158E+03  0.34889645170E+03  0.10566000000E+00 0.  1.
        994    1    1    2    0    0  0.21504666549E+03  0.75490805419E+01  0.20706652323E+03  0.34422092034E+03  0.17120000000E+03 0.  0.
        998    1    1    2    0    0 -0.81155359594E+02 -0.48988887186E+02  0.97342669147E+03  0.97808262796E+03  0.10000000000E+02 0.  1.
</event>
<event>
 5    1  0.1640179E-008  0.3833877E+03  0.7957747E-01  0.3436539E+00
         13   -1    0    0    0    0  0.00000000000E+00  0.00000000000E+00  0.14999999963E+04  0.15000000000E+04  0.10566000000E+00 0.  1.
        994   -1    0    0    0    0 -0.00000000000E+00 -0.00000000000E+00  0.11368683772E-12  0.17120000000E+03  0.17120000000E+03 0.  0.
         13    1    1    2    0    0 -0.11971400627E+02  0.40038697291E+01  0.31808626301E+02  0.34221999897E+02  0.10566000000E+00 0.  1.
        994    1    1    2    0    0  0.90179326583E+01 -0.47506009620E+01  0.27762780683E+01  0.17152562211E+03  0.17120000000E+03 0.  0.
        998    1    1    2    0    0  0.29534679687E+01  0.74673123289E+00  0.14654150919E+04  0.14654523780E+04  0.10000000000E+02 0.  1.
</event>
<event>
 5    1  0.1640179E-008  0.3760638E+03  0.7957747E-01  0.3468479E+00
         13   -1    0    0    0    0  0.00000000000E+00  0.00000000000E+00  0.14999999963E+04  0.15000000000E+04  0.10566000000E+00 0. -1.
        994   -1    0    0    0    0 -0.00000000000E+00 -0.00000000000E+00  0.11368683772E-12  0.17120000000E+03  0.17120000000E+03 0.  0.
         13    1    1    2    0    0  0.17743244251E+02 -0.13013504338E+03  0.55712134549E+03  0.57239335862E+03  0.10566000000E+00 0. -1.
        994    1    1    2    0    0 -0.25675550524E+02  0.16173704064E+03  0.10316232723E+03  0.25839893570E+03  0.17120000000E+03 0.  0.
        998    1    1    2    0    0  0.79323062726E+01 -0.31601997264E+02  0.83971632356E+03  0.84040770568E+03  0.10000000000E+02 0.  1.
</event>
<event>
 5    1  0.1640179E-008  0.3832046E+03  0.7957747E-01  0.3437323E+00
         13   -1    0    0    0    0  0.00000000000E+00  0.00000000000E+00  0.14999999963E+04  0.15000000000E+04  0.10566000000E+00 0.  1.
        994   -1    0    0    0    0 -0.00000000000E+00 -0.00000000000E+00  0.11368683772E-12  0.17120000000E+03  0.17120000000E+03 0.  0.
         13    1    1    2    0    0  0.17777911785E+02  0.16240987219E+02  0.11777572235E+03  0.12021212814E+03  0.10566000000E+00 0.  1.
        994    1    1    2    0    0 -0.12525980728E+02 -0.16648544709E+01  0.30525112666E+01  0.17169283549E+03  0.17120000000E+03 0.  0.
        998    1    1    2    0    0 -0.52519310566E+01 -0.14576132748E+02  0.13791717627E+04  0.13792950364E+04  0.10000000000E+02 0.  1.
</event>
<event>
 5    1  0.1640179E-008  0.3754902E+03  0.7957747E-01  0.3471033E+00
         13   -1    0    0    0    0  0.00000000000E+00  0.00000000000E+00  0.14999999963E+04  0.15000000000E+04  0.10566000000E+00 0. -1.
        994   -1    0    0    0    0 -0.00000000000E+00 -0.00000000000E+00  0.11368683772E-12  0.17120000000E+03  0.17120000000E+03 0.  0.
         13    1    1    2    0    0  0.45835555966E+02 -0.30895786332E+02  0.27708710874E+03  0.28254685417E+03  0.10566000000E+00 0. -1.
        994    1    1    2    0    0 -0.15047798062E+02 -0.39886656926E+01  0.72500411496E+01  0.17205914325E+03  0.17120000000E+03 0.  0.
        998    1    1    2    0    0 -0.30787757904E+02  0.34884452024E+02  0.12156628464E+04  0.12165940026E+04  0.10000000000E+02 0.  1.
</event>
<event>
 5    1  0.1640179E-008  0.3717389E+03  0.7957747E-01  0.3487937E+00
         13   -1    0    0    0    0  0.00000000000E+00  0.00000000000E+00  0.14999999963E+04  0.15000000000E+04  0.10566000000E+00 0. -1.
        994   -1    0    0    0    0 -0.00000000000E+00 -0.00000000000E+00  0.11368683772E-12  0.17120000000E+03  0.17120000000E+03 0.  0.
         13    1    1    2    0    0 -0.48879936349E+02  0.27961555963E+02  0.14192777259E+03  0.15269119354E+03  0.10566000000E+00 0. -1.
        994    1    1    2    0    0  0.47009596126E+01 -0.17365221402E+02  0.13000472610E+02  0.17263285384E+03  0.17120000000E+03 0.  0.
        998    1    1    2    0    0  0.44178976736E+02 -0.10596334561E+02  0.13450717511E+04  0.13458759526E+04  0.10000000000E+02 0. -1.
</event>
<event>
 5    1  0.1640179E-008  0.3966399E+03  0.7957747E-01  0.3381758E+00
         13   -1    0    0    0    0  0.00000000000E+00  0.00000000000E+00  0.14999999963E+04  0.15000000000E+04  0.10566000000E+00 0. -1.
        994   -1    0    0    0    0 -0.00000000000E+00 -0.00000000000E+00  0.11368683772E-12  0.17120000000E+03  0.17120000000E+03 0.  0.
         13    1    1    2    0    0  0.55441701825E+02 -0.27620419557E+01  0.48335892712E+02  0.73605576320E+02  0.10566000000E+00 0. -1.
        994    1    1    2    0    0 -0.50811743909E+02  0.75406247631E+02  0.58485227017E+02  0.20247937495E+03  0.17120000000E+03 0.  0.
        998    1    1    2    0    0 -0.46299579161E+01 -0.72644205675E+02  0.13931788766E+04  0.13951150487E+04  0.10000000000E+02 0. -1.
</event>
<event>
 5    1  0.1640179E-008  0.3746660E+03  0.7957747E-01  0.3474718E+00
         13   -1    0    0    0    0  0.00000000000E+00  0.00000000000E+00  0.14999999963E+04  0.15000000000E+04  0.10566000000E+00 0. -1.
        994   -1    0    0    0    0 -0.00000000000E+00 -0.00000000000E+00  0.11368683772E-12  0.17120000000E+03  0.17120000000E+03 0.  0.
         13    1    1    2    0    0 -0.78820523768E+00 -0.41573246468E+02  0.11852481031E+03  0.12560691825E+03  0.10566000000E+00 0. -1.
        994    1    1    2    0    0  0.12544098174E+02  0.34592940567E+02  0.11472071343E+02  0.17548525396E+03  0.17120000000E+03 0.  0.
        998    1    1    2    0    0 -0.11755892936E+02  0.69803059014E+01  0.13700031146E+04  0.13701078278E+04  0.10000000000E+02 0. -1.
</event>
<event>
 5    1  0.1640179E-008  0.3816796E+03  0.7957747E-01  0.3443878E+00
         13   -1    0    0    0    0  0.00000000000E+00  0.00000000000E+00  0.14999999963E+04  0.15000000000E+04  0.10566000000E+00 0. -1.
        994   -1    0    0    0    0 -0.00000000000E+00 -0.00000000000E+00  0.11368683772E-12  0.17120000000E+03  0.17120000000E+03 0.  0.
         13    1    1    2    0    0 -0.47546832389E+00 -0.16103423517E+02  0.38703841989E+02  0.41923082756E+02  0.10566000000E+00 0. -1.
        994    1    1    2    0    0  0.59454596327E+01  0.76694222824E+01  0.36008050025E+01  0.17151260690E+03  0.17120000000E+03 0.  0.
        998    1    1    2    0    0 -0.54699913088E+01  0.84340012343E+01  0.14576953493E+04  0.14577643103E+04  0.10000000000E+02 0. -1.
</event>
<event>
 5    1  0.1640179E-008  0.3842223E+03  0.7957747E-01  0.3432977E+00
         13   -1    0    0    0    0  0.00000000000E+00  0.00000000000E+00  0.14999999963E+04  0.15000000000E+04  0.10566000000E+00 0.  1.
        994   -1    0    0    0    0 -0.00000000000E+00 -0.00000000000E+00  0.11368683772E-12  0.17120000000E+03  0.17120000000E+03 0.  0.
         13    1    1    2    0    0 -0.14159324886E+02  0.86823053128E+01  0.70699538680E+02  0.72624409398E+02  0.10566000000E+00 0.  1.
        994    1    1    2    0    0  0.76315859539E+01  0.37964451871E+01  0.22562992071E+01  0.17142690858E+03  0.17120000000E+03 0.  0.
        998    1    1    2    0    0  0.65277389324E+01 -0.12478750500E+02  0.14270441584E+04  0.14271486820E+04  0.10000000000E+02 0.  1.
</event>
<event>
 5    1  0.1640179E-008  0.3749932E+03  0.7957747E-01  0.3473253E+00
         13   -1    0    0    0    0  0.00000000000E+00  0.00000000000E+00  0.14999999963E+04  0.15000000000E+04  0.10566000000E+00 0.  1.
        994   -1    0    0    0    0 -0.00000000000E+00 -0.00000000000E+00  0.11368683772E-12  0.17120000000E+03  0.17120000000E+03 0.  0.
         13    1    1    2    0    0  0.66767529301E+01  0.72272696985E+02  0.25286480996E+03  0.26307516994E+03  0.10566000000E+00 0.  1.
        994    1    1    2    0    0 -0.84000845436E+02  0.13318780598E+02  0.39813256131E+02  0.19526409633E+03  0.17120000000E+03 0.  0.
        998    1    1    2    0    0  0.77324092506E+02 -0.85591477583E+02  0.12073219302E+04  0.12128607337E+04  0.10000000000E+02 0.  1.
</event>
<event>
 5    1  0.1640179E-008  0.3819842E+03  0.7957747E-01  0.3442564E+00
         13   -1    0    0    0    0  0.00000000000E+00  0.00000000000E+00  0.14999999963E+04  0.15000000000E+04  0.10566000000E+00 0. -1.
        994   -1    0    0    0    0 -0.00000000000E+00 -0.00000000000E+00  0.11368683772E-12  0.17120000000E+03  0.17120000000E+03 0.  0.
         13    1    1    2    0    0  0.10276839343E+03  0.20692368423E+03  0.11731416213E+04  0.11956755532E+04  0.10566000000E+00 0. -1.
        994    1    1    2    0    0 -0.94033922026E+02 -0.20686621829E+03  0.19952139929E+03  0.34749710723E+03  0.17120000000E+03 0.  0.
        998    1    1    2    0    0 -0.87344714070E+01 -0.57465942436E-01  0.12733697572E+03  0.12802733958E+03  0.10000000000E+02 0.  0.
</event>
<event>
 5    1  0.1640179E-008  0.3758030E+03  0.7957747E-01  0.3469639E+00
         13   -1    0    0    0    0  0.00000000000E+00  0.00000000000E+00  0.14999999963E+04  0.15000000000E+04  0.10566000000E+00 0. -1.
        994   -1    0    0    0    0 -0.00000000000E+00 -0.00000000000E+00  0.11368683772E-12  0.17120000000E+03  0.17120000000E+03 0.  0.
         13    1    1    2    0    0  0.20937799616E+02  0.61815367523E+01  0.36854778667E+02  0.42835601129E+02  0.10566000000E+00 0. -1.
        994    1    1    2    0    0  0.84540046085E+00 -0.90173593606E+01  0.65450631816E+01  0.17156428919E+03  0.17120000000E+03 0.  0.
        998    1    1    2    0    0 -0.21783200077E+02  0.28358226084E+01  0.14566001544E+04  0.14568001097E+04  0.10000000000E+02 0. -1.
</event>
<event>
 5    1  0.1875084E-008  0.3863372E+03  0.7957747E-01  0.3424021E+00
         13   -1    0    0    0    0  0.00000000000E+00  0.00000000000E+00  0.14999999963E+04  0.15000000000E+04  0.10566000000E+00 0.  1.
        994   -1    0    0    0    0 -0.00000000000E+00 -0.00000000000E+00  0.11368683772E-12  0.17120000000E+03  0.17120000000E+03 0.  0.
         13    1    1    2    0    0 -0.48217111161E+01 -0.96494625182E+01  0.60065701776E+02  0.61026721351E+02  0.10566000000E+00 0.  1.
        994    1    1    2    0    0  0.15889802565E+01  0.10015626599E+02  0.13044910587E+01  0.17150504171E+03  0.17120000000E+03 0.  0.
        998    1    1    2    0    0  0.32327308596E+01 -0.36616408116E+00  0.14386298034E+04  0.14386682369E+04  0.10000000000E+02 0.  1.
</event>
<event>
 5    1  0.1640179E-008  0.3849632E+03  0.7957747E-01  0.3429828E+00
         13   -1    0    0    0    0  0.00000000000E+00  0.00000000000E+00  0.14999999963E+04  0.15000000000E+04  0.10566000000E+00 0. -1.
        994   -1    0    0    0    0 -0.00000000000E+00 -0.00000000000E+00  0.11368683772E-12  0.17120000000E+03  0.17120000000E+03 0.  0.
         13    1    1    2    0    0 -0.13771899416E+02  0.39148440832E+00  0.57294915069E+02  0.58928235426E+02  0.10566000000E+00 0. -1.
        994    1    1    2    0    0  0.99669750789E+01  0.28166225931E+01  0.20013072565E+01  0.17152468973E+03  0.17120000000E+03 0.  0.
        998    1    1    2    0    0  0.38049243375E+01 -0.32081070014E+01  0.14407037740E+04  0.14407470748E+04  0.10000000000E+02 0. -1.
</event>
<event>
 5    1  0.1640179E-008  0.3828649E+03  0.7957747E-01  0.3438778E+00
         13   -1    0    0    0    0  0.00000000000E+00  0.00000000000E+00  0.14999999963E+04  0.15000000000E+04  0.10566000000E+00 0.  1.
        994   -1    0    0    0    0 -0.00000000000E+00 -0.00000000000E+00  0.11368683772E-12  0.17120000000E+03  0.17120000000E+03 0.  0.
         13    1    1    2    0    0  0.20647155754E+02  0.20570764846E+01  0.77390705409E+02  0.80124085344E+02  0.10566000000E+00 0.  1.
        994    1    1    2    0    0 -0.17158627915E+02 -0.12278239523E+01  0.36744741434E+01  0.17210133010E+03  0.17120000000E+03 0.  0.
        998    1    1    2    0    0 -0.34885278393E+01 -0.82925253235E+00  0.14189348167E+04  0.14189745846E+04  0.10000000000E+02 0.  1.
</event>
<event>
 5    1  0.1640179E-008  0.3790872E+03  0.7957747E-01  0.3455143E+00
         13   -1    0    0    0    0  0.00000000000E+00  0.00000000000E+00  0.14999999963E+04  0.15000000000E+04  0.10566000000E+00 0.  1.
        994   -1    0    0    0    0 -0.00000000000E+00 -0.00000000000E+00  0.11368683772E-12  0.17120000000E+03  0.17120000000E+03 0.  0.
         13    1    1    2    0    0  0.11178048026E+02  0.27392219609E+02  0.10525879977E+03  0.10933758982E+03  0.10566000000E+00 0.  1.
        994    1    1    2    0    0 -0.51684560513E+01  0.72911340061E+01  0.48624796744E+01  0.17150206203E+03  0.17120000000E+03 0.  0.
        998    1    1    2    0    0 -0.60095919746E+01 -0.34683353615E+02  0.13898787168E+04  0.13903603482E+04  0.10000000000E+02 0.  1.
</event>
<event>
 5    1  0.1640179E-008  0.3817653E+03  0.7957747E-01  0.3443508E+00
         13   -1    0    0    0    0  0.00000000000E+00  0.00000000000E+00  0.14999999963E+04  0.15000000000E+04  0.10566000000E+00 0.  1.
        994   -1    0    0    0    0 -0.00000000000E+00 -0.00000000000E+00  0.11368683772E-12  0.17120000000E+03  0.17120000000E+03 0.  0.
         13    1    1    2    0    0 -0.15557114471E+02  0.52282971862E+01  0.39192419548E+02  0.42490184940E+02  0.10566000000E+00 0.  1.
        994    1    1    2    0    0  0.20768046885E+02  0.28172723049E+01  0.47059187915E+01  0.17254226864E+03  0.17120000000E+03 0.  0.
        998    1    1    2    0    0 -0.52109324144E+01 -0.80455694912E+01  0.14561016579E+04  0.14561675464E+04  0.10000000000E+02 0.  1.
</event>
<event>
 5    1  0.1640179E-008  0.3844549E+03  0.7957747E-01  0.3431987E+00
         13   -1    0    0    0    0  0.00000000000E+00  0.00000000000E+00  0.14999999963E+04  0.15000000000E+04  0.10566000000E+00 0. -1.
        994   -1    0    0    0    0 -0.00000000000E+00 -0.00000000000E+00  0.11368683772E-12  0.17120000000E+03  0.17120000000E+03 0.  0.
         13    1    1    2    0    0 -0.11002823904E+02  0.71690629153E+01  0.44559584378E+02  0.46454551132E+02  0.10566000000E+00 0. -1.
        994    1    1    2    0    0  0.11229304244E+02 -0.28566045725E+01  0.23434492895E+01  0.17160766072E+03  0.17120000000E+03 0.  0.
        998    1    1    2    0    0 -0.22648034017E+00 -0.43124583428E+01  0.14530969626E+04  0.14531377881E+04  0.10000000000E+02 0. -1.
</event>
<event>
 5    1  0.1640179E-008  0.3812346E+03  0.7957747E-01  0.3445800E+00
         13   -1    0    0    0    0  0.00000000000E+00  0.00000000000E+00  0.14999999963E+04  0.15000000000E+04  0.10566000000E+00 0.  1.
        994   -1    0    0    0    0 -0.00000000000E+00 -0.00000000000E+00  0.11368683772E-12  0.17120000000E+03  0.17120000000E+03 0.  0.
         13    1    1    2    0    0 -0.17117902493E+02 -0.71641765114E+01  0.49066361846E+02  0.52458240913E+02  0.10566000000E+00 0.  1.
        994    1    1    2    0    0  0.83064321753E+01 -0.55869233143E+01  0.38449467802E+01  0.17153551861E+03  0.17120000000E+03 0.  0.
        998    1    1    2    0    0  0.88114703179E+01  0.12751099826E+02  0.14470886877E+04  0.14472062405E+04  0.10000000000E+02 0.  1.
</event>
<event>
 5    1  0.1640179E-008  0.3830765E+03  0.7957747E-01  0.3437871E+00
         13   -1    0    0    0    0  0.00000000000E+00  0.00000000000E+00  0.14999999963E+04  0.15000000000E+04  0.10566000000E+00 0. -1.
        994   -1    0    0    0    0 -0.00000000000E+00 -0.00000000000E+00  0.11368683772E-12  0.17120000000E+03  0.17120000000E+03 0.  0.
         13    1    1    2    0    0  0.11364812291E+02 -0.25886809286E+01  0.26056681825E+02  0.28545088179E+02  0.10566000000E+00 0. -1.
        994    1    1    2    0    0  0.49056487732E+00  0.21501167658E+01  0.26042193169E+01  0.17123400835E+03  0.17120000000E+03 0.  0.
        998    1    1    2    0    0 -0.11855377168E+02  0.43856416273E+00  0.14713390951E+04  0.14714209035E+04  0.10000000000E+02 0. -1.
</event>
<event>
 5    1  0.1640179E-008  0.3815124E+03  0.7957747E-01  0.3444599E+00
         13   -1    0    0    0    0  0.00000000000E+00  0.00000000000E+00  0.14999999963E+04  0.15000000000E+04  0.10566000000E+00 0. -1.
        994   -1    0    0    0    0 -0.00000000000E+00 -0.00000000000E+00  0.11368683772E-12  0.17120000000E+03  0.17120000000E+03 0.  0.
         13    1    1    2    0    0 -0.18099274510E+03 -0.10402287714E+03  0.10571544026E+04  0.10775688260E+04  0.10566000000E+00 0. -1.
        994    1    1    2    0    0  0.18819151377E+03  0.10004836705E+03  0.17309317702E+03  0.32356824556E+03  0.17120000000E+03 0.  0.
        998    1    1    2    0    0 -0.71987686766E+01  0.39745100932E+01  0.26975241670E+03  0.27006292844E+03  0.10000000000E+02 0. -1.
</event>
<event>
 5    1  0.1640179E-008  0.3768543E+03  0.7957747E-01  0.3464971E+00
         13   -1    0    0    0    0  0.00000000000E+00  0.00000000000E+00  0.14999999963E+04  0.15000000000E+04  0.10566000000E+00 0.  1.
        994   -1    0    0    0    0 -0.00000000000E+00 -0.00000000000E+00  0.11368683772E-12  0.17120000000E+03  0.17120000000E+03 0.  0.
         13    1    1    2    0    0 -0.19448926470E+02 -0.66487496171E+01  0.33861057859E+02  0.39611223355E+02  0.10566000000E+00 0.  1.
        994    1    1    2    0    0  0.21467029236E+02  0.16708367881E+01  0.72972927192E+01  0.17270296906E+03  0.17120000000E+03 0.  0.
        998    1    1    2    0    0 -0.20181027658E+01  0.49779128289E+01  0.14588416457E+04  0.14588858076E+04  0.10000000000E+02 0.  1.
</event>
<event>
 5    1  0.1640179E-008  0.3859342E+03  0.7957747E-01  0.3425720E+00
         13   -1    0    0    0    0  0.00000000000E+00  0.00000000000E+00  0.14999999963E+04  0.15000000000E+04  0.10566000000E+00 0.  1.
        994   -1    0    0    0    0 -0.00000000000E+00 -0.00000000000E+00  0.11368683772E-12  0.17120000000E+03  0.17120000000E+03 0.  0.
         13    1    1    2    0    0  0.97138612333E+01 -0.53443174296E+01  0.56681868176E+02  0.57756092084E+02  0.10566000000E+00 0.  1.
        994    1    1    2    0    0 -0.25563834840E+01 -0.75740470685E+01  0.13765775862E+01  0.17139205422E+03  0.17120000000E+03 0.  0.
        998    1    1    2    0    0 -0.71574777492E+01  0.12918364498E+02  0.14419415505E+04  0.14420518537E+04  0.10000000000E+02 0.  1.
</event>
<event>
 5    1  0.1640179E-008  0.3728496E+03  0.7957747E-01  0.3482896E+00
         13   -1    0    0    0    0  0.00000000000E+00  0.00000000000E+00  0.14999999963E+04  0.15000000000E+04  0.10566000000E+00 0. -1.
        994   -1    0    0    0    0 -0.00000000000E+00 -0.00000000000E+00  0.11368683772E-12  0.17120000000E+03  0.17120000000E+03 0.  0.
         13    1    1    2    0    0 -0.37883008571E+02  0.57145273605E+01  0.88294737195E+02  0.96248376307E+02  0.10566000000E+00 0. -1.
        994    1    1    2    0    0  0.32938780073E+02 -0.44495245932E+01  0.11579315309E+02  0.17478066840E+03  0.17120000000E+03 0.  0.
        998    1    1    2    0    0  0.49442284977E+01 -0.12650027672E+01  0.14001259438E+04  0.14001709553E+04  0.10000000000E+02 0. -1.
</event>
<event>
 5    1  0.1640179E-008  0.3791273E+03  0.7957747E-01  0.3454967E+00
         13   -1    0    0    0    0  0.00000000000E+00  0.00000000000E+00  0.14999999963E+04  0.15000000000E+04  0.10566000000E+00 0. -1.
        994   -1    0    0    0    0 -0.00000000000E+00 -0.00000000000E+00  0.11368683772E-12  0.17120000000E+03  0.17120000000E+03 0.  0.
         13    1    1    2    0    0 -0.49666654073E+01  0.87808200270E+01  0.91234668715E+01  0.13602182818E+02  0.10566000000E+00 0. -1.
        994    1    1    2    0    0  0.96720377355E+01 -0.64199264960E-01  0.48880367478E+01  0.17154266332E+03  0.17120000000E+03 0.  0.
        998    1    1    2    0    0 -0.47053723283E+01 -0.87166207621E+01  0.14859884927E+04  0.14860551539E+04  0.10000000000E+02 0. -1.
</event>
<event>
 5    1  0.1640179E-008  0.2104959E+03  0.7957747E-01  0.4856463E+00
         13   -1    0    0    0    0  0.00000000000E+00  0.00000000000E+00  0.14999999963E+04  0.15000000000E+04  0.10566000000E+00 0. -1.
        994   -1    0    0    0    0 -0.00000000000E+00 -0.00000000000E+00  0.11368683772E-12  0.17120000000E+03  0.17120000000E+03 0.  0.
         13    1    1    2    0    0 -0.10188931930E+03  0.97559395707E+02  0.18254821484E+03  0.23070138921E+03  0.10566000000E+00 0. -1.
        994    1    1    2    0    0 -0.23673853259E+02  0.38905168246E+02  0.89305931455E+02  0.19839116119E+03  0.17120000000E+03 0.  0.
        998    1    1    2    0    0  0.12556317256E+03 -0.13646456395E+03  0.12281458500E+04  0.12421074496E+04  0.10000000000E+02 0. -1.
</event>
<event>
 5    1  0.1640179E-008  0.3794108E+03  0.7957747E-01  0.3453728E+00
         13   -1    0    0    0    0  0.00000000000E+00  0.00000000000E+00  0.14999999963E+04  0.15000000000E+04  0.10566000000E+00 0. -1.
        994   -1    0    0    0    0 -0.00000000000E+00 -0.00000000000E+00  0.11368683772E-12  0.17120000000E+03  0.17120000000E+03 0.  0.
         13    1    1    2    0    0  0.77160311006E+01  0.10116846441E+02  0.16493405953E+02  0.20831018262E+02  0.10566000000E+00 0. -1.
        994    1    1    2    0    0  0.47012006372E+00 -0.79999024647E+01  0.46460044460E+01  0.17145041502E+03  0.17120000000E+03 0.  0.
        998    1    1    2    0    0 -0.81861511643E+01 -0.21169439765E+01  0.14788605859E+04  0.14789185667E+04  0.10000000000E+02 0. -1.
</event>
<event>
 5    1  0.1640179E-008  0.3832292E+03  0.7957747E-01  0.3437217E+00
         13   -1    0    0    0    0  0.00000000000E+00  0.00000000000E+00  0.14999999963E+04  0.15000000000E+04  0.10566000000E+00 0.  1.
        994   -1    0    0    0    0 -0.00000000000E+00 -0.00000000000E+00  0.11368683772E-12  0.17120000000E+03  0.17120000000E+03 0.  0.
         13    1    1    2    0    0  0.13594894611E+02 -0.10122149063E+02  0.57876288328E+02  0.60307171844E+02  0.10566000000E+00 0.  1.
        994    1    1    2    0    0 -0.71853171256E+01  0.64362127335E+00  0.26840385025E+01  0.17137294738E+03  0.17120000000E+03 0.  0.
        998    1    1    2    0    0 -0.64095774857E+01  0.94785277901E+01  0.14394396694E+04  0.14395198808E+04  0.10000000000E+02 0.  1.
</event>
<event>
 5    1  0.1640179E-008  0.4260630E+03  0.7957747E-01  0.3272237E+00
         13   -1    0    0    0    0  0.00000000000E+00  0.00000000000E+00  0.14999999963E+04  0.15000000000E+04  0.10566000000E+00 0. -1.
        994   -1    0    0    0    0 -0.00000000000E+00 -0.00000000000E+00  0.11368683772E-12  0.17120000000E+03  0.17120000000E+03 0.  0.
         13    1    1    2    0    0  0.49759926797E+02 -0.56311661184E+02  0.51920829178E+02  0.91339132724E+02  0.10566000000E+00 0. -1.
        994    1    1    2    0    0 -0.35821582927E+02  0.31098092810E+02  0.54322241488E+02  0.18577035043E+03  0.17120000000E+03 0.  0.
        998    1    1    2    0    0 -0.13938343871E+02  0.25213568374E+02  0.13937569256E+04  0.13940905168E+04  0.10000000000E+02 0. -1.
</event>
<event>
 5    1  0.1640179E-008  0.3750165E+03  0.7957747E-01  0.3473149E+00
         13   -1    0    0    0    0  0.00000000000E+00  0.00000000000E+00  0.14999999963E+04  0.15000000000E+04  0.10566000000E+00 0. -1.
        994   -1    0    0    0    0 -0.00000000000E+00 -0.00000000000E+00  0.11368683772E-12  0.17120000000E+03  0.17120000000E+03 0.  0.
         13    1    1    2    0    0  0.11034972432E+02 -0.11767389022E+02  0.16261160108E+02  0.22905862853E+02  0.10566000000E+00 0. -1.
        994    1    1    2    0    0 -0.56582468628E+01  0.22432493373E+02  0.84916171149E+01  0.17296467870E+03  0.17120000000E+03 0.  0.
        998    1    1    2    0    0 -0.53767255694E+01 -0.10665104351E+02  0.14752472191E+04  0.14753294584E+04  0.10000000000E+02 0. -1.
</event>
<event>
 5    1  0.1640179E-008  0.3863015E+03  0.7957747E-01  0.3424171E+00
         13   -1    0    0    0    0  0.00000000000E+00  0.00000000000E+00  0.14999999963E+04  0.15000000000E+04  0.10566000000E+00 0. -1.
        994   -1    0    0    0    0 -0.00000000000E+00 -0.00000000000E+00  0.11368683772E-12  0.17120000000E+03  0.17120000000E+03 0.  0.
         13    1    1    2    0    0 -0.77986208084E+01 -0.75179798231E+01  0.59273274645E+02  0.60255047575E+02  0.10566000000E+00 0. -1.
        994    1    1    2    0    0  0.19664192789E+01  0.12641404840E+02  0.15215367943E+01  0.17168409069E+03  0.17120000000E+03 0.  0.
        998    1    1    2    0    0  0.58322015295E+01 -0.51234250168E+01  0.14392051848E+04  0.14392608617E+04  0.10000000000E+02 0. -1.
</event>
<event>
 5    1  0.1640179E-008  0.3852578E+03  0.7957747E-01  0.3428580E+00
         13   -1    0    0    0    0  0.00000000000E+00  0.00000000000E+00  0.14999999963E+04  0.15000000000E+04  0.10566000000E+00 0.  1.
        994   -1    0    0    0    0 -0.00000000000E+00 -0.00000000000E+00  0.11368683772E-12  0.17120000000E+03  0.17120000000E+03 0.  0.
         13    1    1    2    0    0  0.52211735773E+01  0.10513107915E+02  0.48383912975E+02  0.49787551560E+02  0.10566000000E+00 0.  1.
        994    1    1    2    0    0  0.56214351027E+01 -0.14519260936E+01  0.16129781438E+01  0.17130601367E+03  0.17120000000E+03 0.  0.
        998    1    1    2    0    0 -0.10842608680E+02 -0.90611818216E+01  0.14500031052E+04  0.14501064348E+04  0.10000000000E+02 0.  1.
</event>
<event>
 5    1  0.1640179E-008  0.3830116E+03  0.7957747E-01  0.3438149E+00
         13   -1    0    0    0    0  0.00000000000E+00  0.00000000000E+00  0.14999999963E+04  0.15000000000E+04  0.10566000000E+00 0.  1.
        994   -1    0    0    0    0 -0.00000000000E+00 -0.00000000000E+00  0.11368683772E-12  0.17120000000E+03  0.17120000000E+03 0.  0.
         13    1    1    2    0    0 -0.11723449566E+02 -0.21861033049E+02  0.10861916178E+03  0.11141578661E+03  0.10566000000E+00 0.  1.
        994    1    1    2    0    0  0.22850611515E+02  0.17654733043E+02  0.53854495668E+01  0.17370170728E+03  0.17120000000E+03 0.  0.
        998    1    1    2    0    0 -0.11127161949E+02  0.42063000064E+01  0.13859953849E+04  0.13860825061E+04  0.10000000000E+02 0.  1.
</event>
<event>
 5    1  0.1640179E-008  0.3854294E+03  0.7957747E-01  0.3427853E+00
         13   -1    0    0    0    0  0.00000000000E+00  0.00000000000E+00  0.14999999963E+04  0.15000000000E+04  0.10566000000E+00 0.  1.
        994   -1    0    0    0    0 -0.00000000000E+00 -0.00000000000E+00  0.11368683772E-12  0.17120000000E+03  0.17120000000E+03 0.  0.
         13    1    1    2    0    0  0.12379832000E+02  0.46885589257E+01  0.61155751843E+02  0.62572198081E+02  0.10566000000E+00 0.  1.
        994    1    1    2    0    0 -0.12020169869E+02  0.27986877321E+00  0.18919857983E+01  0.17163211360E+03  0.17120000000E+03 0.  0.
        998    1    1    2    0    0 -0.35966213143E+00 -0.49684276989E+01  0.14369522586E+04  0.14369956883E+04  0.10000000000E+02 0.  1.
</event>
<event>
 5    1  0.1640179E-008  0.3845285E+03  0.7957747E-01  0.3431674E+00
         13   -1    0    0    0    0  0.00000000000E+00  0.00000000000E+00  0.14999999963E+04  0.15000000000E+04  0.10566000000E+00 0. -1.
        994   -1    0    0    0    0 -0.00000000000E+00 -0.00000000000E+00  0.11368683772E-12  0.17120000000E+03  0.17120000000E+03 0.  0.
         13    1    1    2    0    0 -0.21916376364E+01  0.13679266063E+02  0.51891358027E+02  0.53708935919E+02  0.10566000000E+00 0. -1.
        994    1    1    2    0    0  0.45806116554E+01 -0.61108399359E+01  0.20565237480E+01  0.17138259438E+03  0.17120000000E+03 0.  0.
        998    1    1    2    0    0 -0.23889740190E+01 -0.75684261273E+01  0.14460521145E+04  0.14461084697E+04  0.10000000000E+02 0. -1.
</event>
<event>
 5    1  0.1640179E-008  0.3841433E+03  0.7957747E-01  0.3433314E+00
         13   -1    0    0    0    0  0.00000000000E+00  0.00000000000E+00  0.14999999963E+04  0.15000000000E+04  0.10566000000E+00 0. -1.
        994   -1    0    0    0    0 -0.00000000000E+00 -0.00000000000E+00  0.11368683772E-12  0.17120000000E+03  0.17120000000E+03 0.  0.
         13    1    1    2    0    0  0.23058743457E+01  0.14097709770E+02  0.51727335746E+02  0.53663683294E+02  0.10566000000E+00 0. -1.
        994    1    1    2    0    0  0.25351668167E+01 -0.18945865277E+00  0.20773706057E+01  0.17123147618E+03  0.17120000000E+03 0.  0.
        998    1    1    2    0    0 -0.48410411625E+01 -0.13908251117E+02  0.14461952899E+04  0.14463048405E+04  0.10000000000E+02 0. -1.
</event>
<event>
 5    1  0.1640179E-008  0.3829678E+03  0.7957747E-01  0.3438337E+00
         13   -1    0    0    0    0  0.00000000000E+00  0.00000000000E+00  0.14999999963E+04  0.15000000000E+04  0.10566000000E+00 0.  1.
        994   -1    0    0    0    0 -0.00000000000E+00 -0.00000000000E+00  0.11368683772E-12  0.17120000000E+03  0.17120000000E+03 0.  0.
         13    1    1    2    0    0  0.11226110685E+02 -0.13650811594E+01  0.23246139576E+02  0.25851173609E+02  0.10566000000E+00 0.  1.
        994    1    1    2    0    0 -0.72546089968E+01  0.54014205160E+01  0.29133336954E+01  0.17146350110E+03  0.17120000000E+03 0.  0.
        998    1    1    2    0    0 -0.39715016887E+01 -0.40363393566E+01  0.14738405230E+04  0.14738853253E+04  0.10000000000E+02 0.  1.
</event>
<event>
 5    1  0.1640179E-008  0.3837424E+03  0.7957747E-01  0.3435024E+00
         13   -1    0    0    0    0  0.00000000000E+00  0.00000000000E+00  0.14999999963E+04  0.15000000000E+04  0.10566000000E+00 0. -1.
        994   -1    0    0    0    0 -0.00000000000E+00 -0.00000000000E+00  0.11368683772E-12  0.17120000000E+03  0.17120000000E+03 0.  0.
         13    1    1    2    0    0 -0.26536524645E+01 -0.14309865679E+02  0.47824195242E+02  0.49989788375E+02  0.10566000000E+00 0. -1.
        994    1    1    2    0    0 -0.68974516799E+01  0.45835652151E+01  0.24823279034E+01  0.17141816083E+03  0.17120000000E+03 0.  0.
        998    1    1    2    0    0  0.95511041445E+01  0.97263004639E+01  0.14496934731E+04  0.14497920508E+04  0.10000000000E+02 0. -1.
</event>
<event>
 5    1  0.1640179E-008  0.3831607E+03  0.7957747E-01  0.3437511E+00
         13   -1    0    0    0    0  0.00000000000E+00  0.00000000000E+00  0.14999999963E+04  0.15000000000E+04  0.10566000000E+00 0. -1.
        994   -1    0    0    0    0 -0.00000000000E+00 -0.00000000000E+00  0.11368683772E-12  0.17120000000E+03  0.17120000000E+03 0.  0.
         13    1    1    2    0    0  0.13993770913E+02 -0.10088933533E+02  0.60236476089E+02  0.62658251011E+02  0.10566000000E+00 0. -1.
        994    1    1    2    0    0  0.32243866935E+00  0.51747539577E+01  0.26350275409E+01  0.17129876069E+03  0.17120000000E+03 0.  0.
        998    1    1    2    0    0 -0.14316209582E+02  0.49141795752E+01  0.14371284926E+04  0.14372429883E+04  0.10000000000E+02 0. -1.
</event>
<event>
 5    1  0.1640179E-008  0.3784308E+03  0.7957747E-01  0.3458020E+00
         13   -1    0    0    0    0  0.00000000000E+00  0.00000000000E+00  0.14999999963E+04  0.15000000000E+04  0.10566000000E+00 0.  1.
        994   -1    0    0    0    0 -0.00000000000E+00 -0.00000000000E+00  0.11368683772E-12  0.17120000000E+03  0.17120000000E+03 0.  0.
         13    1    1    2    0    0  0.40207693808E+01  0.43677707468E+02  0.19299564237E+03  0.19791725001E+03  0.10566000000E+00 0.  1.
        994    1    1    2    0    0 -0.12983973349E+02 -0.24844675222E+02  0.75725682637E+01  0.17364511292E+03  0.17120000000E+03 0.  0.
        998    1    1    2    0    0  0.89632039684E+01 -0.18833032246E+02  0.12994317856E+04  0.12996376371E+04  0.10000000000E+02 0.  1.
</event>
<event>
 5    1  0.1640179E-008  0.3847464E+03  0.7957747E-01  0.3430749E+00
         13   -1    0    0    0    0  0.00000000000E+00  0.00000000000E+00  0.14999999963E+04  0.15000000000E+04  0.10566000000E+00 0. -1.
        994   -1    0    0    0    0 -0.00000000000E+00 -0.00000000000E+00  0.11368683772E-12  0.17120000000E+03  0.17120000000E+03 0.  0.
         13    1    1    2    0    0  0.10537418977E+02  0.10249965378E+02  0.58176842980E+02  0.60005459853E+02  0.10566000000E+00 0. -1.
        994    1    1    2    0    0 -0.18905088936E+02 -0.80191215096E+01  0.31453425606E+01  0.17245591285E+03  0.17120000000E+03 0.  0.
        998    1    1    2    0    0  0.83676699585E+01 -0.22308438688E+01  0.14386778107E+04  0.14387386273E+04  0.10000000000E+02 0. -1.
</event>
<event>
 5    1  0.1640179E-008  0.3857421E+03  0.7957747E-01  0.3426531E+00
         13   -1    0    0    0    0  0.00000000000E+00  0.00000000000E+00  0.14999999963E+04  0.15000000000E+04  0.10566000000E+00 0. -1.
        994   -1    0    0    0    0 -0.00000000000E+00 -0.00000000000E+00  0.11368683772E-12  0.17120000000E+03  0.17120000000E+03 0.  0.
         13    1    1    2    0    0  0.10102970967E+02  0.59254323981E+00  0.42010547181E+02  0.43212479313E+02  0.10566000000E+00 0. -1.
        994    1    1    2    0    0 -0.21235583133E+01  0.19177899757E+01  0.12890312006E+01  0.17122876224E+03  0.17120000000E+03 0.  0.
        998    1    1    2    0    0 -0.79794126540E+01 -0.25103332155E+01  0.14567004179E+04  0.14567587584E+04  0.10000000000E+02 0. -1.
</event>
<event>
 5    1  0.1640179E-008  0.3807319E+03  0.7957747E-01  0.3447978E+00
         13   -1    0    0    0    0  0.00000000000E+00  0.00000000000E+00  0.14999999963E+04  0.15000000000E+04  0.10566000000E+00 0.  1.
        994   -1    0    0    0    0 -0.00000000000E+00 -0.00000000000E+00  0.11368683772E-12  0.17120000000E+03  0.17120000000E+03 0.  0.
         13    1    1    2    0    0 -0.17871237938E+02  0.13227110506E+02  0.73615914156E+02  0.76900270343E+02  0.10566000000E+00 0.  1.
        994    1    1    2    0    0 -0.27251996374E+02 -0.13187069191E+02  0.68268124896E+01  0.17399027406E+03  0.17120000000E+03 0.  0.
        998    1    1    2    0    0  0.45123234312E+02 -0.40041314788E-01  0.14195572696E+04  0.14203094556E+04  0.10000000000E+02 0.  1.
</event>
<event>
 5    1  0.1640179E-008  0.3830646E+03  0.7957747E-01  0.3437922E+00
         13   -1    0    0    0    0  0.00000000000E+00  0.00000000000E+00  0.14999999963E+04  0.15000000000E+04  0.10566000000E+00 0.  1.
        994   -1    0    0    0    0 -0.00000000000E+00 -0.00000000000E+00  0.11368683772E-12  0.17120000000E+03  0.17120000000E+03 0.  0.
         13    1    1    2    0    0 -0.26930490873E+02  0.53376337293E+01  0.13671412747E+03  0.13944355663E+03  0.10566000000E+00 0.  1.
        994    1    1    2    0    0  0.22725370714E+02 -0.91324269126E+01  0.45817183478E+01  0.17300368736E+03  0.17120000000E+03 0.  0.
        998    1    1    2    0    0  0.42051201589E+01  0.37947931833E+01  0.13587041505E+04  0.13587527560E+04  0.10000000000E+02 0.  1.
</event>
<event>
 5    1  0.1640179E-008  0.3775106E+03  0.7957747E-01  0.3462070E+00
         13   -1    0    0    0    0  0.00000000000E+00  0.00000000000E+00  0.14999999963E+04  0.15000000000E+04  0.10566000000E+00 0.  1.
        994   -1    0    0    0    0 -0.00000000000E+00 -0.00000000000E+00  0.11368683772E-12  0.17120000000E+03  0.17120000000E+03 0.  0.
         13    1    1    2    0    0  0.67411516429E-01 -0.53185132949E+02  0.91130775532E+02  0.10551536535E+03  0.10566000000E+00 0.  1.
        994    1    1    2    0    0  0.55959703434E+01  0.29183187739E+02  0.18143486284E+02  0.17470432000E+03  0.17120000000E+03 0.  0.
        998    1    1    2    0    0 -0.56633818598E+01  0.24001945210E+02  0.13907257345E+04  0.13909803147E+04  0.10000000000E+02 0.  1.
</event>
<event>
 5    1  0.1640179E-008  0.3849084E+03  0.7957747E-01  0.3430061E+00
         13   -1    0    0    0    0  0.00000000000E+00  0.00000000000E+00  0.14999999963E+04  0.15000000000E+04  0.10566000000E+00 0.  1.
        994   -1    0    0    0    0 -0.00000000000E+00 -0.00000000000E+00  0.11368683772E-12  0.17120000000E+03  0.17120000000E+03 0.  0.
         13    1    1    2    0    0  0.12797835679E+02  0.14945891653E+02  0.11586403857E+03  0.11752298019E+03  0.10566000000E+00 0.  1.
        994    1    1    2    0    0 -0.79661321695E+01 -0.90213185693E+01  0.21522598546E+01  0.17163599760E+03  0.17120000000E+03 0.  0.
        998    1    1    2    0    0 -0.48317035098E+01 -0.59245730839E+01  0.13819836979E+04  0.13820410222E+04  0.10000000000E+02 0.  1.
</event>
<event>
 5    1  0.1640179E-008  0.3735179E+03  0.7957747E-01  0.3479878E+00
         13   -1    0    0    0    0  0.00000000000E+00  0.00000000000E+00  0.14999999963E+04  0.15000000000E+04  0.10566000000E+00 0.  1.
        994   -1    0    0    0    0 -0.00000000000E+00 -0.00000000000E+00  0.11368683772E-12  0.17120000000E+03  0.17120000000E+03 0.  0.
         13    1    1    2    0    0  0.10396816818E+03 -0.71754514961E+02  0.61986507028E+03  0.63260636017E+03  0.10566000000E+00 0.  1.
        994    1    1    2    0    0 -0.10005209999E+03  0.72319351670E+02  0.61441385092E+02  0.21982946832E+03  0.17120000000E+03 0.  0.
        998    1    1    2    0    0 -0.39160681940E+01 -0.56483670910E+00  0.81869354091E+03  0.81876417152E+03  0.10000000000E+02 0.  1.
</event>
<event>
 5    1  0.1640179E-008  0.3837044E+03  0.7957747E-01  0.3435186E+00
         13   -1    0    0    0    0  0.00000000000E+00  0.00000000000E+00  0.14999999963E+04  0.15000000000E+04  0.10566000000E+00 0.  1.
        994   -1    0    0    0    0 -0.00000000000E+00 -0.00000000000E+00  0.11368683772E-12  0.17120000000E+03  0.17120000000E+03 0.  0.
         13    1    1    2    0    0 -0.10866743275E+02 -0.40147550132E+01  0.28021841851E+02  0.30322255061E+02  0.10566000000E+00 0.  1.
        994    1    1    2    0    0  0.16745178546E+02 -0.10485937923E+01  0.32049703098E+01  0.17205002874E+03  0.17120000000E+03 0.  0.
        998    1    1    2    0    0 -0.58784352708E+01  0.50633488055E+01  0.14687731841E+04  0.14688277162E+04  0.10000000000E+02 0.  1.
</event>
<event>
 5    1  0.1640179E-008  0.3756026E+03  0.7957747E-01  0.3470532E+00
         13   -1    0    0    0    0  0.00000000000E+00  0.00000000000E+00  0.14999999963E+04  0.15000000000E+04  0.10566000000E+00 0. -1.
        994   -1    0    0    0    0 -0.00000000000E+00 -0.00000000000E+00  0.11368683772E-12  0.17120000000E+03  0.17120000000E+03 0.  0.
         13    1    1    2    0    0 -0.39132643917E+02 -0.51999998270E+02  0.35733944334E+03  0.36321736271E+03  0.10566000000E+00 0. -1.
        994    1    1    2    0    0 -0.22596145489E+01  0.38237784074E+02  0.11363153120E+02  0.17580044152E+03  0.17120000000E+03 0.  0.
        998    1    1    2    0    0  0.41392258466E+02  0.13762214195E+02  0.11312973998E+04  0.11321821958E+04  0.10000000000E+02 0. -1.
</event>
<event>
 5    1  0.1640179E-008  0.3814369E+03  0.7957747E-01  0.3444926E+00
         13   -1    0    0    0    0  0.00000000000E+00  0.00000000000E+00  0.14999999963E+04  0.15000000000E+04  0.10566000000E+00 0. -1.
        994   -1    0    0    0    0 -0.00000000000E+00 -0.00000000000E+00  0.11368683772E-12  0.17120000000E+03  0.17120000000E+03 0.  0.
         13    1    1    2    0    0  0.32778824333E+02  0.42909437828E+01  0.18567661110E+03  0.18859660282E+03  0.10566000000E+00 0. -1.
        994    1    1    2    0    0  0.11428585443E+01 -0.97300172606E+01  0.37289497196E+01  0.17152062391E+03  0.17120000000E+03 0.  0.
        998    1    1    2    0    0 -0.33921682878E+02  0.54390734778E+01  0.13105944355E+04  0.13110827733E+04  0.10000000000E+02 0. -1.
</event>
<event>
 5    1  0.1640179E-008  0.3823875E+03  0.7957747E-01  0.3440828E+00
         13   -1    0    0    0    0  0.00000000000E+00  0.00000000000E+00  0.14999999963E+04  0.15000000000E+04  0.10566000000E+00 0. -1.
        994   -1    0    0    0    0 -0.00000000000E+00 -0.00000000000E+00  0.11368683772E-12  0.17120000000E+03  0.17120000000E+03 0.  0.
         13    1    1    2    0    0 -0.83395002951E+01 -0.15362576202E+02  0.50063803691E+02  0.53027838130E+02  0.10566000000E+00 0. -1.
        994    1    1    2    0    0  0.45905942167E+01  0.16168358609E+02  0.38702719818E+01  0.17206658124E+03  0.17120000000E+03 0.  0.
        998    1    1    2    0    0  0.37489060784E+01 -0.80578240625E+00  0.14460659206E+04  0.14461055806E+04  0.10000000000E+02 0. -1.
</event>
<event>
 5    1  0.1640179E-008  0.3857779E+03  0.7957747E-01  0.3426380E+00
         13   -1    0    0    0    0  0.00000000000E+00  0.00000000000E+00  0.14999999963E+04  0.15000000000E+04  0.10566000000E+00 0.  1.
        994   -1    0    0    0    0 -0.00000000000E+00 -0.00000000000E+00  0.11368683772E-12  0.17120000000E+03  0.17120000000E+03 0.  0.
         13    1    1    2    0    0  0.36568598987E+01 -0.95020115552E+01  0.46808509710E+02  0.47903116738E+02  0.10566000000E+00 0.  1.
        994    1    1    2    0    0  0.64640886532E+01 -0.88427903037E+01  0.16381127795E+01  0.17155787011E+03  0.17120000000E+03 0.  0.
        998    1    1    2    0    0 -0.10120948552E+02  0.18344801859E+02  0.14515533738E+04  0.14517390132E+04  0.10000000000E+02 0.  1.
</event>
<event>
 5    1  0.1640179E-008  0.3814684E+03  0.7957747E-01  0.3444790E+00
         13   -1    0    0    0    0  0.00000000000E+00  0.00000000000E+00  0.14999999963E+04  0.15000000000E+04  0.10566000000E+00 0. -1.
        994   -1    0    0    0    0 -0.00000000000E+00 -0.00000000000E+00  0.11368683772E-12  0.17120000000E+03  0.17120000000E+03 0.  0.
         13    1    1    2    0    0 -0.62526777550E+01 -0.15896386175E+02  0.42210246229E+02  0.45535778496E+02  0.10566000000E+00 0. -1.
        994    1    1    2    0    0  0.54994224902E+00  0.89648269738E+01  0.36621673381E+01  0.17147455213E+03  0.17120000000E+03 0.  0.
        998    1    1    2    0    0  0.57027355059E+01  0.69315592012E+01  0.14541275827E+04  0.14541896694E+04  0.10000000000E+02 0. -1.
</event>
<event>
 5    1  0.1640179E-008  0.3717522E+03  0.7957747E-01  0.3487877E+00
         13   -1    0    0    0    0  0.00000000000E+00  0.00000000000E+00  0.14999999963E+04  0.15000000000E+04  0.10566000000E+00 0. -1.
        994   -1    0    0    0    0 -0.00000000000E+00 -0.00000000000E+00  0.11368683772E-12  0.17120000000E+03  0.17120000000E+03 0.  0.
         13    1    1    2    0    0 -0.45566502227E+02 -0.98842903218E+02  0.38780602896E+03  0.40278996127E+03  0.10566000000E+00 0. -1.
        994    1    1    2    0    0  0.36691716563E+02  0.92133767282E+02  0.47317954469E+02  0.20342896046E+03  0.17120000000E+03 0.  0.
        998    1    1    2    0    0  0.88747856645E+01  0.67091359356E+01  0.10648760128E+04  0.10649810783E+04  0.10000000000E+02 0. -1.
</event>
<event>
 5    1  0.1912795E-008  0.3792086E+03  0.7957747E-01  0.3454612E+00
         13   -1    0    0    0    0  0.00000000000E+00  0.00000000000E+00  0.14999999963E+04  0.15000000000E+04  0.10566000000E+00 0. -1.
        994   -1    0    0    0    0 -0.00000000000E+00 -0.00000000000E+00  0.11368683772E-12  0.17120000000E+03  0.17120000000E+03 0.  0.
         13    1    1    2    0    0 -0.91358372066E+00 -0.10748213785E+02  0.10774650146E+02  0.15246736851E+02  0.10566000000E+00 0. -1.
        994    1    1    2    0    0  0.22646971907E+00  0.98052233974E+01  0.48556679374E+01  0.17154944245E+03  0.17120000000E+03 0.  0.
        998    1    1    2    0    0  0.68711400158E+00  0.94299038763E+00  0.14843696782E+04  0.14844038207E+04  0.10000000000E+02 0. -1.
</event>
<event>
 5    1  0.1640179E-008  0.3782200E+03  0.7957747E-01  0.3458946E+00
         13   -1    0    0    0    0  0.00000000000E+00  0.00000000000E+00  0.14999999963E+04  0.15000000000E+04  0.10566000000E+00 0.  1.
        994   -1    0    0    0    0 -0.00000000000E+00 -0.00000000000E+00  0.11368683772E-12  0.17120000000E+03  0.17120000000E+03 0.  0.
         13    1    1    2    0    0  0.51152759210E+01 -0.14831663203E+02  0.22284143381E+02  0.27253229008E+02  0.10566000000E+00 0.  1.
        994    1    1    2    0    0 -0.24267984447E+01  0.11624898873E+02  0.55087704536E+01  0.17169977920E+03  0.17120000000E+03 0.  0.
        998    1    1    2    0    0 -0.26884774763E+01  0.32067643309E+01  0.14722070824E+04  0.14722469918E+04  0.10000000000E+02 0.  1.
</event>
<event>
 5    1  0.1640179E-008  0.3833127E+03  0.7957747E-01  0.3436860E+00
         13   -1    0    0    0    0  0.00000000000E+00  0.00000000000E+00  0.14999999963E+04  0.15000000000E+04  0.10566000000E+00 0.  1.
        994   -1    0    0    0    0 -0.00000000000E+00 -0.00000000000E+00  0.11368683772E-12  0.17120000000E+03  0.17120000000E+03 0.  0.
         13    1    1    2    0    0 -0.26750677764E+02 -0.28342542608E+02  0.19714808033E+03  0.20096336786E+03  0.10566000000E+00 0.  1.
        994    1    1    2    0    0  0.23040570169E+02  0.84617129473E+02  0.28331694552E+02  0.19443006812E+03  0.17120000000E+03 0.  0.
        998    1    1    2    0    0  0.37101075953E+01 -0.56274586865E+02  0.12745202214E+04  0.12758065640E+04  0.10000000000E+02 0.  1.
</event>
<event>
 5    1  0.1640179E-008  0.3852223E+03  0.7957747E-01  0.3428730E+00
         13   -1    0    0    0    0  0.00000000000E+00  0.00000000000E+00  0.14999999963E+04  0.15000000000E+04  0.10566000000E+00 0. -1.
        994   -1    0    0    0    0 -0.00000000000E+00 -0.00000000000E+00  0.11368683772E-12  0.17120000000E+03  0.17120000000E+03 0.  0.
         13    1    1    2    0    0 -0.11248930046E+02  0.10242158152E+02  0.76478903901E+02  0.77977395037E+02  0.10566000000E+00 0. -1.
        994    1    1    2    0    0  0.37427306163E+01 -0.10297601838E+02  0.19144081780E+01  0.17156093260E+03  0.17120000000E+03 0.  0.
        998    1    1    2    0    0  0.75061994301E+01  0.55443686314E-01  0.14216066842E+04  0.14216616724E+04  0.10000000000E+02 0. -1.
</event>
<event>
 5    1  0.1640179E-008  0.3685468E+03  0.7957747E-01  0.3502596E+00
         13   -1    0    0    0    0  0.00000000000E+00  0.00000000000E+00  0.14999999963E+04  0.15000000000E+04  0.10566000000E+00 0. -1.
        994   -1    0    0    0    0 -0.00000000000E+00 -0.00000000000E+00  0.11368683772E-12  0.17120000000E+03  0.17120000000E+03 0.  0.
         13    1    1    2    0    0 -0.44901228988E+01  0.10014947747E+03  0.44297255143E+03  0.45417482485E+03  0.10566000000E+00 0. -1.
        994    1    1    2    0    0 -0.15091068877E+01 -0.72592561915E+02  0.28581901717E+02  0.18814441941E+03  0.17120000000E+03 0.  0.
        998    1    1    2    0    0  0.59992297866E+01 -0.27556915551E+02  0.10284455431E+04  0.10288807557E+04  0.10000000000E+02 0. -1.
</event>
<event>
 5    1  0.2075133E-008  0.3855186E+03  0.7957747E-01  0.3427476E+00
         13   -1    0    0    0    0  0.00000000000E+00  0.00000000000E+00  0.14999999963E+04  0.15000000000E+04  0.10566000000E+00 0.  1.
        994   -1    0    0    0    0 -0.00000000000E+00 -0.00000000000E+00  0.11368683772E-12  0.17120000000E+03  0.17120000000E+03 0.  0.
         13    1    1    2    0    0 -0.74018586761E+01  0.10473804025E+02  0.58184854613E+02  0.59581679676E+02  0.10566000000E+00 0.  1.
        994    1    1    2    0    0  0.57662085684E+01 -0.12893072887E+02  0.20280883824E+01  0.17179357855E+03  0.17120000000E+03 0.  0.
        998    1    1    2    0    0  0.16356501076E+01  0.24192688618E+01  0.14397870533E+04  0.14398247418E+04  0.10000000000E+02 0.  1.
</event>
<event>
 5    1  0.1640179E-008  0.3853302E+03  0.7957747E-01  0.3428273E+00
         13   -1    0    0    0    0  0.00000000000E+00  0.00000000000E+00  0.14999999963E+04  0.15000000000E+04  0.10566000000E+00 0.  1.
        994   -1    0    0    0    0 -0.00000000000E+00 -0.00000000000E+00  0.11368683772E-12  0.17120000000E+03  0.17120000000E+03 0.  0.
         13    1    1    2    0    0  0.27558538208E+01 -0.14723414143E+02  0.74188138661E+02  0.75685300662E+02  0.10566000000E+00 0.  1.
        994    1    1    2    0    0  0.49560556518E+01  0.15925686397E+02  0.23807084100E+01  0.17202702621E+03  0.17120000000E+03 0.  0.
        998    1    1    2    0    0 -0.77119094726E+01 -0.12022722535E+01  0.14234311492E+04  0.14234876731E+04  0.10000000000E+02 0.  1.
</event>
<event>
 5    1  0.1640179E-008  0.3818450E+03  0.7957747E-01  0.3443164E+00
         13   -1    0    0    0    0  0.00000000000E+00  0.00000000000E+00  0.14999999963E+04  0.15000000000E+04  0.10566000000E+00 0.  1.
        994   -1    0    0    0    0 -0.00000000000E+00 -0.00000000000E+00  0.11368683772E-12  0.17120000000E+03  0.17120000000E+03 0.  0.
         13    1    1    2    0    0  0.10987571491E+02  0.59147839109E+01  0.23179176390E+02  0.26324831968E+02  0.10566000000E+00 0.  1.
        994    1    1    2    0    0 -0.53427839002E+01 -0.44458872752E+01  0.33652114844E+01  0.17137408177E+03  0.17120000000E+03 0.  0.
        998    1    1    2    0    0 -0.56447875905E+01 -0.14688966357E+01  0.14734556084E+04  0.14735010863E+04  0.10000000000E+02 0.  1.
</event>
<event>
 5    1  0.1640179E-008  0.3849417E+03  0.7957747E-01  0.3429920E+00
         13   -1    0    0    0    0  0.00000000000E+00  0.00000000000E+00  0.14999999963E+04  0.15000000000E+04  0.10566000000E+00 0.  1.
        994   -1    0    0    0    0 -0.00000000000E+00 -0.00000000000E+00  0.11368683772E-12  0.17120000000E+03  0.17120000000E+03 0.  0.
         13    1    1    2    0    0  0.18779991447E+02 -0.27386923508E+01  0.10893190878E+03  0.11057287384E+03  0.10566000000E+00 0.  1.
        994    1    1    2    0    0 -0.10341326045E+02  0.10508573210E+02  0.23744230991E+01  0.17185008298E+03  0.17120000000E+03 0.  0.
        998    1    1    2    0    0 -0.84386654026E+01 -0.77698808592E+01  0.13886936644E+04  0.13887770432E+04  0.10000000000E+02 0.  1.
</event>
<event>
 5    1  0.1640179E-008  0.3804065E+03  0.7957747E-01  0.3449390E+00
         13   -1    0    0    0    0  0.00000000000E+00  0.00000000000E+00  0.14999999963E+04  0.15000000000E+04  0.10566000000E+00 0.  1.
        994   -1    0    0    0    0 -0.00000000000E+00 -0.00000000000E+00  0.11368683772E-12  0.17120000000E+03  0.17120000000E+03 0.  0.
         13    1    1    2    0    0  0.11997395381E+02  0.31378951482E+02  0.15436459693E+03  0.15797789732E+03  0.10566000000E+00 0.  1.
        994    1    1    2    0    0 -0.32388977353E+00 -0.80035657854E+01  0.41423222950E+01  0.17143733783E+03  0.17120000000E+03 0.  0.
        998    1    1    2    0    0 -0.11673505607E+02 -0.23375385697E+02  0.13414930771E+04  0.13417847648E+04  0.10000000000E+02 0.  1.
</event>
<event>
 5    1  0.1640179E-008  0.3807705E+03  0.7957747E-01  0.3447810E+00
         13   -1    0    0    0    0  0.00000000000E+00  0.00000000000E+00  0.14999999963E+04  0.15000000000E+04  0.10566000000E+00 0.  1.
        994   -1    0    0    0    0 -0.00000000000E+00 -0.00000000000E+00  0.11368683772E-12  0.17120000000E+03  0.17120000000E+03 0.  0.
         13    1    1    2    0    0  0.59257852728E+01 -0.65352964667E+02  0.39470425402E+03  0.40012196169E+03  0.10566000000E+00 0.  1.
        994    1    1    2    0    0 -0.27215371757E+02  0.70642752341E+02  0.23096868996E+02  0.18861065791E+03  0.17120000000E+03 0.  0.
        998    1    1    2    0    0  0.21289586484E+02 -0.52897876739E+01  0.10821988733E+04  0.10824673804E+04  0.10000000000E+02 0.  1.
</event>
<event>
 5    1  0.1640179E-008  0.3769360E+03  0.7957747E-01  0.3464609E+00
         13   -1    0    0    0    0  0.00000000000E+00  0.00000000000E+00  0.14999999963E+04  0.15000000000E+04  0.10566000000E+00 0.  1.
        994   -1    0    0    0    0 -0.00000000000E+00 -0.00000000000E+00  0.11368683772E-12  0.17120000000E+03  0.17120000000E+03 0.  0.
         13    1    1    2    0    0  0.60956886664E+02  0.10707038159E+03  0.47943468013E+03  0.49501255774E+03  0.10566000000E+00 0.  1.
        994    1    1    2    0    0 -0.41966802019E+02 -0.69966355703E+02  0.38910758803E+02  0.19359749625E+03  0.17120000000E+03 0.  0.
        998    1    1    2    0    0 -0.18990084645E+02 -0.37104025882E+02  0.98165455734E+03  0.98258994601E+03  0.10000000000E+02 0. -1.
</event>
<event>
 5    1  0.1640179E-008  0.3808484E+03  0.7957747E-01  0.3447473E+00
         13   -1    0    0    0    0  0.00000000000E+00  0.00000000000E+00  0.14999999963E+04  0.15000000000E+04  0.10566000000E+00 0. -1.
        994   -1    0    0    0    0 -0.00000000000E+00 -0.00000000000E+00  0.11368683772E-12  0.17120000000E+03  0.17120000000E+03 0.  0.
         13    1    1    2    0    0 -0.97027879424E+01  0.25080125957E+01  0.11743980019E+02  0.15439120822E+02  0.10566000000E+00 0. -1.
        994    1    1    2    0    0  0.13486073967E+02 -0.48181821383E+01  0.43894507308E+01  0.17185399718E+03  0.17120000000E+03 0.  0.
        998    1    1    2    0    0 -0.37832860248E+01  0.23101695426E+01  0.14838665655E+04  0.14839068820E+04  0.10000000000E+02 0. -1.
</event>
<event>
 5    1  0.1640179E-008  0.3776873E+03  0.7957747E-01  0.3461291E+00
         13   -1    0    0    0    0  0.00000000000E+00  0.00000000000E+00  0.14999999963E+04  0.15000000000E+04  0.10566000000E+00 0. -1.
        994   -1    0    0    0    0 -0.00000000000E+00 -0.00000000000E+00  0.11368683772E-12  0.17120000000E+03  0.17120000000E+03 0.  0.
         13    1    1    2    0    0 -0.65675431675E+01 -0.90730980901E+01  0.96782453655E+01  0.14803152691E+02  0.10566000000E+00 0. -1.
        994    1    1    2    0    0  0.97622299588E+01 -0.10986079549E+02  0.60331114583E+01  0.17193555046E+03  0.17120000000E+03 0.  0.
        998    1    1    2    0    0 -0.31946867914E+01  0.20059177639E+02  0.14842886395E+04  0.14844612969E+04  0.10000000000E+02 0. -1.
</event>
<event>
 5    1  0.1640179E-008  0.3784264E+03  0.7957747E-01  0.3458039E+00
         13   -1    0    0    0    0  0.00000000000E+00  0.00000000000E+00  0.14999999963E+04  0.15000000000E+04  0.10566000000E+00 0.  1.
        994   -1    0    0    0    0 -0.00000000000E+00 -0.00000000000E+00  0.11368683772E-12  0.17120000000E+03  0.17120000000E+03 0.  0.
         13    1    1    2    0    0  0.93929548793E+01 -0.10073500849E+02  0.17712339539E+02  0.22437494439E+02  0.10566000000E+00 0.  1.
        994    1    1    2    0    0 -0.80356409196E+01 -0.12881997607E+02  0.57046258429E+01  0.17196656693E+03  0.17120000000E+03 0.  0.
        998    1    1    2    0    0 -0.13573139597E+01  0.22955498456E+02  0.14765830309E+04  0.14767959386E+04  0.10000000000E+02 0.  1.
</event>
<event>
 5    1  0.1640179E-008  0.3794253E+03  0.7957747E-01  0.3453665E+00
         13   -1    0    0    0    0  0.00000000000E+00  0.00000000000E+00  0.14999999963E+04  0.15000000000E+04  0.10566000000E+00 0. -1.
        994   -1    0    0    0    0 -0.00000000000E+00 -0.00000000000E+00  0.11368683772E-12  0.17120000000E+03  0.17120000000E+03 0.  0.
         13    1    1    2    0    0 -0.12476497126E+02  0.30794211781E+02  0.11392690648E+03  0.11867307042E+03  0.10566000000E+00 0. -1.
        994    1    1    2    0    0  0.93454243042E+01 -0.33791912955E+02  0.85515568912E+01  0.17496228011E+03  0.17120000000E+03 0.  0.
        998    1    1    2    0    0  0.31310728217E+01  0.29977011742E+01  0.13775215329E+04  0.13775646495E+04  0.10000000000E+02 0. -1.
</event>
<event>
 5    1  0.1640179E-008  0.3856932E+03  0.7957747E-01  0.3426738E+00
         13   -1    0    0    0    0  0.00000000000E+00  0.00000000000E+00  0.14999999963E+04  0.15000000000E+04  0.10566000000E+00 0. -1.
        994   -1    0    0    0    0 -0.00000000000E+00 -0.00000000000E+00  0.11368683772E-12  0.17120000000E+03  0.17120000000E+03 0.  0.
         13    1    1    2    0    0 -0.50783116163E+01 -0.10642822957E+02  0.56503451785E+02  0.57720968088E+02  0.10566000000E+00 0. -1.
        994    1    1    2    0    0  0.34519046956E+01  0.92419635792E+00  0.13282870478E+01  0.17124244255E+03  0.17120000000E+03 0.  0.
        998    1    1    2    0    0  0.16264069207E+01  0.97186265987E+01  0.14421682574E+04  0.14422365894E+04  0.10000000000E+02 0. -1.
</event>
<event>
 5    1  0.1640179E-008  0.3771244E+03  0.7957747E-01  0.3463776E+00
         13   -1    0    0    0    0  0.00000000000E+00  0.00000000000E+00  0.14999999963E+04  0.15000000000E+04  0.10566000000E+00 0.  1.
        994   -1    0    0    0    0 -0.00000000000E+00 -0.00000000000E+00  0.11368683772E-12  0.17120000000E+03  0.17120000000E+03 0.  0.
         13    1    1    2    0    0 -0.42174246318E+01 -0.16303197717E+02  0.22596995728E+02  0.28181843558E+02  0.10566000000E+00 0.  1.
        994    1    1    2    0    0  0.46945932990E+01  0.17967217022E+02  0.67566005610E+01  0.17233673939E+03  0.17120000000E+03 0.  0.
        998    1    1    2    0    0 -0.47716866715E+00 -0.16640193050E+01  0.14706464000E+04  0.14706814170E+04  0.10000000000E+02 0.  1.
</event>
<event>
 5    1  0.1640179E-008  0.3731939E+03  0.7957747E-01  0.3481340E+00
         13   -1    0    0    0    0  0.00000000000E+00  0.00000000000E+00  0.14999999963E+04  0.15000000000E+04  0.10566000000E+00 0. -1.
        994   -1    0    0    0    0 -0.00000000000E+00 -0.00000000000E+00  0.11368683772E-12  0.17120000000E+03  0.17120000000E+03 0.  0.
         13    1    1    2    0    0  0.64989073389E+02  0.73177584733E+01  0.22704053448E+03  0.23627218353E+03  0.10566000000E+00 0. -1.
        994    1    1    2    0    0 -0.72258921636E+02 -0.40024270259E+01  0.25738721004E+02  0.18764139452E+03  0.17120000000E+03 0.  0.
        998    1    1    2    0    0  0.72698482467E+01 -0.33153314474E+01  0.12472207408E+04  0.12472864220E+04  0.10000000000E+02 0. -1.
</event>
<event>
 5    1  0.1640179E-008  0.3747900E+03  0.7957747E-01  0.3474163E+00
         13   -1    0    0    0    0  0.00000000000E+00  0.00000000000E+00  0.14999999963E+04  0.15000000000E+04  0.10566000000E+00 0.  1.
        994   -1    0    0    0    0 -0.00000000000E+00 -0.00000000000E+00  0.11368683772E-12  0.17120000000E+03  0.17120000000E+03 0.  0.
         13    1    1    2    0    0  0.50882061921E+02 -0.42723051769E+02  0.31126467354E+03  0.31827653312E+03  0.10566000000E+00 0.  1.
        994    1    1    2    0    0 -0.35269353859E+02  0.24554592454E+02  0.13094942701E+02  0.17699653346E+03  0.17120000000E+03 0.  0.
        998    1    1    2    0    0 -0.15612708061E+02  0.18168459315E+02  0.11756403800E+04  0.11759269334E+04  0.10000000000E+02 0.  1.
</event>
<event>
 5    1  0.1640179E-008  0.3805947E+03  0.7957747E-01  0.3448573E+00
         13   -1    0    0    0    0  0.00000000000E+00  0.00000000000E+00  0.14999999963E+04  0.15000000000E+04  0.10566000000E+00 0.  1.
        994   -1    0    0    0    0 -0.00000000000E+00 -0.00000000000E+00  0.11368683772E-12  0.17120000000E+03  0.17120000000E+03 0.  0.
         13    1    1    2    0    0  0.26335284841E+02 -0.50934031336E+01  0.11159000943E+03  0.11476859916E+03  0.10566000000E+00 0.  1.
        994    1    1    2    0    0  0.14430527163E+02 -0.95837275953E+01  0.48350617797E+01  0.17214210923E+03  0.17120000000E+03 0.  0.
        998    1    1    2    0    0 -0.40765812004E+02  0.14677130729E+02  0.13835749251E+04  0.13842892916E+04  0.10000000000E+02 0.  1.
</event>
<event>
 5    1  0.1640179E-008  0.3717185E+03  0.7957747E-01  0.3488030E+00
         13   -1    0    0    0    0  0.00000000000E+00  0.00000000000E+00  0.14999999963E+04  0.15000000000E+04  0.10566000000E+00 0. -1.
        994   -1    0    0    0    0 -0.00000000000E+00 -0.00000000000E+00  0.11368683772E-12  0.17120000000E+03  0.17120000000E+03 0.  0.
         13    1    1    2    0    0 -0.42748050826E+02  0.19577555912E+02  0.85475372362E+02  0.97553713355E+02  0.10566000000E+00 0. -1.
        994    1    1    2    0    0  0.43795957602E+02 -0.83049981673E+01  0.18871997235E+02  0.17791191971E+03  0.17120000000E+03 0.  0.
        998    1    1    2    0    0 -0.10479067753E+01 -0.11272557745E+02  0.13956526267E+04  0.13957343669E+04  0.10000000000E+02 0. -1.
</event>
<event>
 5    1  0.1640179E-008  0.3822784E+03  0.7957747E-01  0.3441297E+00
         13   -1    0    0    0    0  0.00000000000E+00  0.00000000000E+00  0.14999999963E+04  0.15000000000E+04  0.10566000000E+00 0.  1.
        994   -1    0    0    0    0 -0.00000000000E+00 -0.00000000000E+00  0.11368683772E-12  0.17120000000E+03  0.17120000000E+03 0.  0.
         13    1    1    2    0    0 -0.16087167976E+02 -0.10278067484E+02  0.61043068750E+02  0.63958604199E+02  0.10566000000E+00 0.  1.
        994    1    1    2    0    0  0.83557513197E+01  0.32062282189E+01  0.32532277770E+01  0.17146463767E+03  0.17120000000E+03 0.  0.
        998    1    1    2    0    0  0.77314166561E+01  0.70718392652E+01  0.14357036998E+04  0.14357767581E+04  0.10000000000E+02 0.  1.
</event>
<event>
 5    1  0.1640179E-008  0.3831343E+03  0.7957747E-01  0.3437624E+00
         13   -1    0    0    0    0  0.00000000000E+00  0.00000000000E+00  0.14999999963E+04  0.15000000000E+04  0.10566000000E+00 0. -1.
        994   -1    0    0    0    0 -0.00000000000E+00 -0.00000000000E+00  0.11368683772E-12  0.17120000000E+03  0.17120000000E+03 0.  0.
         13    1    1    2    0    0  0.22458344516E+02  0.80686426901E+01  0.13187668198E+03  0.13401847129E+03  0.10566000000E+00 0. -1.
        994    1    1    2    0    0  0.54148027805E+01  0.10236277012E+02  0.30031058734E+01  0.17161748192E+03  0.17120000000E+03 0.  0.
        998    1    1    2    0    0 -0.27873147297E+02 -0.18304919703E+02  0.13651202084E+04  0.13655640468E+04  0.10000000000E+02 0. -1.
</event>
<event>
 5    1  0.1640179E-008  0.3064780E+03  0.7957747E-01  0.3850830E+00
         13   -1    0    0    0    0  0.00000000000E+00  0.00000000000E+00  0.14999999963E+04  0.15000000000E+04  0.10566000000E+00 0.  1.
        994   -1    0    0    0    0 -0.00000000000E+00 -0.00000000000E+00  0.11368683772E-12  0.17120000000E+03  0.17120000000E+03 0.  0.
         13    1    1    2    0    0 -0.22105916712E+03 -0.89916433684E+02  0.28590789276E+03  0.37241838666E+03  0.10566000000E+00 0.  1.
        994    1    1    2    0    0  0.24202415439E+03  0.10996000941E+03  0.55326643413E+03  0.63724413070E+03  0.17120000000E+03 0.  0.
        998    1    1    2    0    0 -0.20964987267E+02 -0.20043575726E+02  0.66082566939E+03  0.66153748264E+03  0.10000000000E+02 0.  1.
</event>
<event>
 5    1  0.1640179E-008  0.2126474E+03  0.7957747E-01  0.4821764E+00
         13   -1    0    0    0    0  0.00000000000E+00  0.00000000000E+00  0.14999999963E+04  0.15000000000E+04  0.10566000000E+00 0. -1.
        994   -1    0    0    0    0 -0.00000000000E+00 -0.00000000000E+00  0.11368683772E-12  0.17120000000E+03  0.17120000000E+03 0.  0.
         13    1    1    2    0    0  0.11750701368E+03  0.12278629740E+03  0.16672480508E+03  0.23807886275E+03  0.10566000000E+00 0. -1.
        994    1    1    2    0    0 -0.76433131317E+02 -0.99687615243E+02  0.17866721555E+03  0.27750866312E+03  0.17120000000E+03 0.  0.
        998    1    1    2    0    0 -0.41073882363E+02 -0.23098682162E+02  0.11546079757E+04  0.11556124741E+04  0.10000000000E+02 0. -1.
</event>
<event>
 5    1  0.1640179E-008  0.4172157E+03  0.7957747E-01  0.3303567E+00
         13   -1    0    0    0    0  0.00000000000E+00  0.00000000000E+00  0.14999999963E+04  0.15000000000E+04  0.10566000000E+00 0.  1.
        994   -1    0    0    0    0 -0.00000000000E+00 -0.00000000000E+00  0.11368683772E-12  0.17120000000E+03  0.17120000000E+03 0.  0.
         13    1    1    2    0    0  0.11664448888E+03 -0.10546916638E+03  0.32159846765E+03  0.35798780343E+03  0.10566000000E+00 0.  1.
        994    1    1    2    0    0 -0.18785811156E+03 -0.66215208798E+02  0.23759617722E+03  0.35417016727E+03  0.17120000000E+03 0.  0.
        998    1    1    2    0    0  0.71213622679E+02  0.17168437517E+03  0.94080535141E+03  0.95904202930E+03  0.10000000000E+02 0.  1.
</event>
<event>
 5    1  0.1640179E-008  0.3690324E+03  0.7957747E-01  0.3500350E+00
         13   -1    0    0    0    0  0.00000000000E+00  0.00000000000E+00  0.14999999963E+04  0.15000000000E+04  0.10566000000E+00 0.  1.
        994   -1    0    0    0    0 -0.00000000000E+00 -0.00000000000E+00  0.11368683772E-12  0.17120000000E+03  0.17120000000E+03 0.  0.
         13    1    1    2    0    0  0.83960994917E+02 -0.10332646110E+03  0.51038581601E+03  0.52746516338E+03  0.10566000000E+00 0.  1.
        994    1    1    2    0    0 -0.12838433354E+03  0.77411594194E+02  0.93389352243E+02  0.24597988358E+03  0.17120000000E+03 0.  0.
        998    1    1    2    0    0  0.44423338621E+02  0.25914866902E+02  0.89622482803E+03  0.89775495304E+03  0.10000000000E+02 0.  1.
</event>
<event>
 5    1  0.1640179E-008  0.3840823E+03  0.7957747E-01  0.3433574E+00
         13   -1    0    0    0    0  0.00000000000E+00  0.00000000000E+00  0.14999999963E+04  0.15000000000E+04  0.10566000000E+00 0.  1.
        994   -1    0    0    0    0 -0.00000000000E+00 -0.00000000000E+00  0.11368683772E-12  0.17120000000E+03  0.17120000000E+03 0.  0.
         13    1    1    2    0    0  0.19270281136E+02  0.10375261854E+02  0.10565791032E+03  0.10790085714E+03  0.10566000000E+00 0.  1.
        994    1    1    2    0    0 -0.20733929333E+02 -0.13842161035E+02  0.41391189338E+01  0.17305511710E+03  0.17120000000E+03 0.  0.
        998    1    1    2    0    0  0.14636481971E+01  0.34668991811E+01  0.13902029670E+04  0.13902440258E+04  0.10000000000E+02 0.  1.
</event>
<event>
 5    1  0.1640179E-008  0.3833949E+03  0.7957747E-01  0.3436508E+00
         13   -1    0    0    0    0  0.00000000000E+00  0.00000000000E+00  0.14999999963E+04  0.15000000000E+04  0.10566000000E+00 0. -1.
        994   -1    0    0    0    0 -0.00000000000E+00 -0.00000000000E+00  0.11368683772E-12  0.17120000000E+03  0.17120000000E+03 0.  0.
         13    1    1    2    0    0 -0.62642452861E+01  0.19441823945E+02  0.11234102623E+03  0.11418293492E+03  0.10566000000E+00 0. -1.
        994    1    1    2    0    0 -0.28393066443E+02  0.16366408341E+02  0.59878074070E+01  0.17441135107E+03  0.17120000000E+03 0.  0.
        998    1    1    2    0    0  0.34657311729E+02 -0.35808232286E+02  0.13816711626E+04  0.13826057140E+04  0.10000000000E+02 0. -1.
</event>
<event>
 5    1  0.1640179E-008  0.3856354E+03  0.7957747E-01  0.3426982E+00
         13   -1    0    0    0    0  0.00000000000E+00  0.00000000000E+00  0.14999999963E+04  0.15000000000E+04  0.10566000000E+00 0. -1.
        994   -1    0    0    0    0 -0.00000000000E+00 -0.00000000000E+00  0.11368683772E-12  0.17120000000E+03  0.17120000000E+03 0.  0.
         13    1    1    2    0    0  0.13222790580E+02 -0.47873483170E+01  0.81033910617E+02  0.82245162341E+02  0.10566000000E+00 0. -1.
        994    1    1    2    0    0 -0.12003485327E+01 -0.14348823514E+01  0.13265078740E+01  0.17121535955E+03  0.17120000000E+03 0.  0.
        998    1    1    2    0    0 -0.12022442047E+02  0.62222306685E+01  0.14176395778E+04  0.14177394781E+04  0.10000000000E+02 0. -1.
</event>
<event>
 5    1  0.1640179E-008  0.3838198E+03  0.7957747E-01  0.3434693E+00
         13   -1    0    0    0    0  0.00000000000E+00  0.00000000000E+00  0.14999999963E+04  0.15000000000E+04  0.10566000000E+00 0.  1.
        994   -1    0    0    0    0 -0.00000000000E+00 -0.00000000000E+00  0.11368683772E-12  0.17120000000E+03  0.17120000000E+03 0.  0.
         13    1    1    2    0    0 -0.74221621451E+01 -0.20473550904E+02  0.10592316534E+03  0.10813872061E+03  0.10566000000E+00 0.  1.
        994    1    1    2    0    0 -0.91989883085E+00  0.15567662454E+02  0.30204997311E+01  0.17193534176E+03  0.17120000000E+03 0.  0.
        998    1    1    2    0    0  0.83420609760E+01  0.49058884497E+01  0.13910563312E+04  0.13911259376E+04  0.10000000000E+02 0.  1.
</event>
<event>
 5    1  0.1640179E-008  0.3839131E+03  0.7957747E-01  0.3434295E+00
         13   -1    0    0    0    0  0.00000000000E+00  0.00000000000E+00  0.14999999963E+04  0.15000000000E+04  0.10566000000E+00 0.  1.
        994   -1    0    0    0    0 -0.00000000000E+00 -0.00000000000E+00  0.11368683772E-12  0.17120000000E+03  0.17120000000E+03 0.  0.
         13    1    1    2    0    0 -0.63256370914E+01  0.94955740143E+01  0.28061065066E+02  0.30292146625E+02  0.10566000000E+00 0.  1.
        994    1    1    2    0    0  0.81977675395E+01 -0.18253006974E+02  0.34931812730E+01  0.17240074818E+03  0.17120000000E+03 0.  0.
        998    1    1    2    0    0 -0.18721304481E+01  0.87574329598E+01  0.14684457499E+04  0.14685071052E+04  0.10000000000E+02 0.  1.
</event>
<event>
 5    1  0.1640179E-008  0.3844045E+03  0.7957747E-01  0.3432202E+00
         13   -1    0    0    0    0  0.00000000000E+00  0.00000000000E+00  0.14999999963E+04  0.15000000000E+04  0.10566000000E+00 0. -1.
        994   -1    0    0    0    0 -0.00000000000E+00 -0.00000000000E+00  0.11368683772E-12  0.17120000000E+03  0.17120000000E+03 0.  0.
         13    1    1    2    0    0 -0.95582683791E+01  0.77887408073E+01  0.40400795246E+02  0.42240506606E+02  0.10566000000E+00 0. -1.
        994    1    1    2    0    0 -0.14965554457E+01 -0.38916421268E+01  0.19833888482E+01  0.17126225033E+03  0.17120000000E+03 0.  0.
        998    1    1    2    0    0  0.11054823825E+02 -0.38970986805E+01  0.14576158122E+04  0.14576972431E+04  0.10000000000E+02 0. -1.
</event>
<event>
 5    1  0.1640179E-008  0.3721588E+03  0.7957747E-01  0.3486028E+00
         13   -1    0    0    0    0  0.00000000000E+00  0.00000000000E+00  0.14999999963E+04  0.15000000000E+04  0.10566000000E+00 0. -1.
        994   -1    0    0    0    0 -0.00000000000E+00 -0.00000000000E+00  0.11368683772E-12  0.17120000000E+03  0.17120000000E+03 0.  0.
         13    1    1    2    0    0  0.21100011105E+02  0.12679841010E+02  0.31567046888E+02  0.40030968636E+02  0.10566000000E+00 0. -1.
        994    1    1    2    0    0 -0.35183460040E+02 -0.26032286289E+02  0.14748193518E+02  0.17732034571E+03  0.17120000000E+03 0.  0.
        998    1    1    2    0    0  0.14083448935E+02  0.13352445279E+02  0.14536847559E+04  0.14538486857E+04  0.10000000000E+02 0. -1.
</event>
<event>
 5    1  0.1640179E-008  0.3803404E+03  0.7957747E-01  0.3449678E+00
         13   -1    0    0    0    0  0.00000000000E+00  0.00000000000E+00  0.14999999963E+04  0.15000000000E+04  0.10566000000E+00 0. -1.
        994   -1    0    0    0    0 -0.00000000000E+00 -0.00000000000E+00  0.11368683772E-12  0.17120000000E+03  0.17120000000E+03 0.  0.
         13    1    1    2    0    0 -0.48331965497E+02 -0.46586261341E+02  0.11026659752E+03  0.12909296002E+03  0.10566000000E+00 0. -1.
        994    1    1    2    0    0  0.75024889343E+02  0.58995853332E+02  0.50360100588E+02  0.20237298353E+03  0.17120000000E+03 0.  0.
        998    1    1    2    0    0 -0.26692923846E+02 -0.12409591990E+02  0.13393732982E+04  0.13397340564E+04  0.10000000000E+02 0. -1.
</event>
<event>
 5    1  0.1640179E-008  0.3817171E+03  0.7957747E-01  0.3443716E+00
         13   -1    0    0    0    0  0.00000000000E+00  0.00000000000E+00  0.14999999963E+04  0.15000000000E+04  0.10566000000E+00 0. -1.
        994   -1    0    0    0    0 -0.00000000000E+00 -0.00000000000E+00  0.11368683772E-12  0.17120000000E+03  0.17120000000E+03 0.  0.
         13    1    1    2    0    0  0.45883800695E+01 -0.10314495760E+03  0.61768360668E+03  0.62625313144E+03  0.10566000000E+00 0. -1.
        994    1    1    2    0    0 -0.14855330871E+01  0.12772608109E+03  0.59550518559E+02  0.22174729505E+03  0.17120000000E+03 0.  0.
        998    1    1    2    0    0 -0.31028469825E+01 -0.24581123495E+02  0.82276587104E+03  0.82319957352E+03  0.10000000000E+02 0.  1.
</event>
<event>
 5    1  0.1640179E-008  0.3754696E+03  0.7957747E-01  0.3471125E+00
         13   -1    0    0    0    0  0.00000000000E+00  0.00000000000E+00  0.14999999963E+04  0.15000000000E+04  0.10566000000E+00 0. -1.
        994   -1    0    0    0    0 -0.00000000000E+00 -0.00000000000E+00  0.11368683772E-12  0.17120000000E+03  0.17120000000E+03 0.  0.
         13    1    1    2    0    0 -0.37826611197E+02  0.70661923391E+02  0.42585331449E+03  0.43333014730E+03  0.10566000000E+00 0. -1.
        994    1    1    2    0    0  0.34313691994E+02 -0.52314580504E+02  0.19839963101E+02  0.18335023569E+03  0.17120000000E+03 0.  0.
        998    1    1    2    0    0  0.35129192036E+01 -0.18347342888E+02  0.10543067187E+04  0.10545196170E+04  0.10000000000E+02 0. -1.
</event>
<event>
 5    1  0.1640179E-008  0.3851887E+03  0.7957747E-01  0.3428872E+00
         13   -1    0    0    0    0  0.00000000000E+00  0.00000000000E+00  0.14999999963E+04  0.15000000000E+04  0.10566000000E+00 0. -1.
        994   -1    0    0    0    0 -0.00000000000E+00 -0.00000000000E+00  0.11368683772E-12  0.17120000000E+03  0.17120000000E+03 0.  0.
         13    1    1    2    0    0  0.15352818162E+02  0.41095213045E+01  0.86178344407E+02  0.87631703165E+02  0.10566000000E+00 0. -1.
        994    1    1    2    0    0 -0.27041457672E+01 -0.69296015543E+01  0.17183641874E+01  0.17137013905E+03  0.17120000000E+03 0.  0.
        998    1    1    2    0    0 -0.12648672395E+02  0.28200802498E+01  0.14121032877E+04  0.14121981578E+04  0.10000000000E+02 0. -1.
</event>
<event>
 5    1  0.1640179E-008  0.3808561E+03  0.7957747E-01  0.3447439E+00
         13   -1    0    0    0    0  0.00000000000E+00  0.00000000000E+00  0.14999999963E+04  0.15000000000E+04  0.10566000000E+00 0.  1.
        994   -1    0    0    0    0 -0.00000000000E+00 -0.00000000000E+00  0.11368683772E-12  0.17120000000E+03  0.17120000000E+03 0.  0.
         13    1    1    2    0    0 -0.12215817003E+02  0.71994103629E+01  0.24917770134E+02  0.28669916762E+02  0.10566000000E+00 0.  1.
        994    1    1    2    0    0  0.15555849841E+02 -0.12857822652E+02  0.50605667366E+01  0.17245972690E+03  0.17120000000E+03 0.  0.
        998    1    1    2    0    0 -0.33400328381E+01  0.56584122895E+01  0.14700216594E+04  0.14700703563E+04  0.10000000000E+02 0.  1.
</event>
<event>
 5    1  0.1640179E-008  0.3768852E+03  0.7957747E-01  0.3464834E+00
         13   -1    0    0    0    0  0.00000000000E+00  0.00000000000E+00  0.14999999963E+04  0.15000000000E+04  0.10566000000E+00 0. -1.
        994   -1    0    0    0    0 -0.00000000000E+00 -0.00000000000E+00  0.11368683772E-12  0.17120000000E+03  0.17120000000E+03 0.  0.
         13    1    1    2    0    0 -0.13365407256E+02 -0.33304024179E+02  0.10082139672E+03  0.10701755622E+03  0.10566000000E+00 0. -1.
        994    1    1    2    0    0  0.17889000879E+02  0.38704439569E+02  0.11879407712E+02  0.17682932540E+03  0.17120000000E+03 0.  0.
        998    1    1    2    0    0 -0.45235936228E+01 -0.54004153899E+01  0.13872991918E+04  0.13873531184E+04  0.10000000000E+02 0. -1.
</event>
<event>
 5    1  0.1640179E-008  0.3815898E+03  0.7957747E-01  0.3444265E+00
         13   -1    0    0    0    0  0.00000000000E+00  0.00000000000E+00  0.14999999963E+04  0.15000000000E+04  0.10566000000E+00 0.  1.
        994   -1    0    0    0    0 -0.00000000000E+00 -0.00000000000E+00  0.11368683772E-12  0.17120000000E+03  0.17120000000E+03 0.  0.
         13    1    1    2    0    0  0.83425951597E+01  0.35945187743E+02  0.17705661262E+03  0.18086102580E+03  0.10566000000E+00 0.  1.
        994    1    1    2    0    0 -0.80839066718E+01 -0.39139713574E+02  0.86626917151E+01  0.17601633150E+03  0.17120000000E+03 0.  0.
        998    1    1    2    0    0 -0.25868848791E+00  0.31945258309E+01  0.13142806919E+04  0.13143226427E+04  0.10000000000E+02 0.  1.
</event>
<event>
 5    1  0.1640179E-008  0.3841035E+03  0.7957747E-01  0.3433483E+00
         13   -1    0    0    0    0  0.00000000000E+00  0.00000000000E+00  0.14999999963E+04  0.15000000000E+04  0.10566000000E+00 0.  1.
        994   -1    0    0    0    0 -0.00000000000E+00 -0.00000000000E+00  0.11368683772E-12  0.17120000000E+03  0.17120000000E+03 0.  0.
         13    1    1    2    0    0  0.32483750228E+02 -0.30165972490E+01  0.19351786912E+03  0.19624849227E+03  0.10566000000E+00 0.  1.
        994    1    1    2    0    0 -0.47654240240E+02  0.17568221944E+02  0.10630781747E+02  0.17889109133E+03  0.17120000000E+03 0.  0.
        998    1    1    2    0    0  0.15170490012E+02 -0.14551624695E+02  0.12958513454E+04  0.12960604164E+04  0.10000000000E+02 0.  1.
</event>
<event>
 5    1  0.1640179E-008  0.3861927E+03  0.7957747E-01  0.3424630E+00
         13   -1    0    0    0    0  0.00000000000E+00  0.00000000000E+00  0.14999999963E+04  0.15000000000E+04  0.10566000000E+00 0. -1.
        994   -1    0    0    0    0 -0.00000000000E+00 -0.00000000000E+00  0.11368683772E-12  0.17120000000E+03  0.17120000000E+03 0.  0.
         13    1    1    2    0    0 -0.97611537756E+01 -0.49531267005E+01  0.57249713588E+02  0.58286829191E+02  0.10566000000E+00 0. -1.
        994    1    1    2    0    0  0.98318404917E+01  0.34946877509E+01  0.13959107559E+01  0.17152337012E+03  0.17120000000E+03 0.  0.
        998    1    1    2    0    0 -0.70686716167E-01  0.14584389496E+01  0.14413543719E+04  0.14413898007E+04  0.10000000000E+02 0. -1.
</event>
<event>
 5    1  0.1640179E-008  0.3862947E+03  0.7957747E-01  0.3424200E+00
         13   -1    0    0    0    0  0.00000000000E+00  0.00000000000E+00  0.14999999963E+04  0.15000000000E+04  0.10566000000E+00 0.  1.
        994   -1    0    0    0    0 -0.00000000000E+00 -0.00000000000E+00  0.11368683772E-12  0.17120000000E+03  0.17120000000E+03 0.  0.
         13    1    1    2    0    0 -0.79575321649E+01  0.61495445923E+01  0.53512604998E+02  0.54449511243E+02  0.10566000000E+00 0.  1.
        994    1    1    2    0    0  0.61803724408E+01  0.30305223756E+01  0.11438827358E+01  0.17134214174E+03  0.17120000000E+03 0.  0.
        998    1    1    2    0    0  0.17771597241E+01 -0.91800669680E+01  0.14453435085E+04  0.14454083470E+04  0.10000000000E+02 0.  1.
</event>
<event>
 5    1  0.1640179E-008  0.3687283E+03  0.7957747E-01  0.3501756E+00
         13   -1    0    0    0    0  0.00000000000E+00  0.00000000000E+00  0.14999999963E+04  0.15000000000E+04  0.10566000000E+00 0.  1.
        994   -1    0    0    0    0 -0.00000000000E+00 -0.00000000000E+00  0.11368683772E-12  0.17120000000E+03  0.17120000000E+03 0.  0.
         13    1    1    2    0    0 -0.40589053133E+02 -0.51222220244E+01  0.82083397669E+02  0.91713705244E+02  0.10566000000E+00 0.  1.
        994    1    1    2    0    0  0.75994940984E+01  0.22134936115E+02  0.12176529600E+02  0.17322071349E+03  0.17120000000E+03 0.  0.
        998    1    1    2    0    0  0.32989559034E+02 -0.17012714091E+02  0.14057400690E+04  0.14062655813E+04  0.10000000000E+02 0.  1.
</event>
<event>
 5    1  0.1640179E-008  0.3761859E+03  0.7957747E-01  0.3467936E+00
         13   -1    0    0    0    0  0.00000000000E+00  0.00000000000E+00  0.14999999963E+04  0.15000000000E+04  0.10566000000E+00 0. -1.
        994   -1    0    0    0    0 -0.00000000000E+00 -0.00000000000E+00  0.11368683772E-12  0.17120000000E+03  0.17120000000E+03 0.  0.
         13    1    1    2    0    0 -0.24816379157E+02 -0.93394179385E+01  0.56960389915E+02  0.62829726923E+02  0.10566000000E+00 0. -1.
        994    1    1    2    0    0  0.94205243005E+01  0.35091501393E+01  0.64132298009E+01  0.17161477189E+03  0.17120000000E+03 0.  0.
        998    1    1    2    0    0  0.15395854856E+02  0.58302677992E+01  0.14366263766E+04  0.14367555012E+04  0.10000000000E+02 0. -1.
</event>
<event>
 5    1  0.1640179E-008  0.3841141E+03  0.7957747E-01  0.3433438E+00
         13   -1    0    0    0    0  0.00000000000E+00  0.00000000000E+00  0.14999999963E+04  0.15000000000E+04  0.10566000000E+00 0.  1.
        994   -1    0    0    0    0 -0.00000000000E+00 -0.00000000000E+00  0.11368683772E-12  0.17120000000E+03  0.17120000000E+03 0.  0.
         13    1    1    2    0    0  0.15456049929E+02 -0.34759667158E+01  0.59313978686E+02  0.61393249268E+02  0.10566000000E+00 0.  1.
        994    1    1    2    0    0 -0.12906503912E+02  0.25494572801E+01  0.26416534213E+01  0.17172505906E+03  0.17120000000E+03 0.  0.
        998    1    1    2    0    0 -0.25495460165E+01  0.92650943568E+00  0.14380443642E+04  0.14380816917E+04  0.10000000000E+02 0.  1.
</event>
<event>
 5    1  0.1640179E-008  0.3823084E+03  0.7957747E-01  0.3441169E+00
         13   -1    0    0    0    0  0.00000000000E+00  0.00000000000E+00  0.14999999963E+04  0.15000000000E+04  0.10566000000E+00 0. -1.
        994   -1    0    0    0    0 -0.00000000000E+00 -0.00000000000E+00  0.11368683772E-12  0.17120000000E+03  0.17120000000E+03 0.  0.
         13    1    1    2    0    0  0.62313080733E+01  0.15786311329E+02  0.50846217485E+02  0.53603972076E+02  0.10566000000E+00 0. -1.
        994    1    1    2    0    0  0.49995356508E+00  0.48020517794E+01  0.30497537902E+01  0.17129521492E+03  0.17120000000E+03 0.  0.
        998    1    1    2    0    0 -0.67312616384E+01 -0.20588363109E+02  0.14461040250E+04  0.14463008130E+04  0.10000000000E+02 0. -1.
</event>
<event>
 5    1  0.1640179E-008  0.3850115E+03  0.7957747E-01  0.3429624E+00
         13   -1    0    0    0    0  0.00000000000E+00  0.00000000000E+00  0.14999999963E+04  0.15000000000E+04  0.10566000000E+00 0.  1.
        994   -1    0    0    0    0 -0.00000000000E+00 -0.00000000000E+00  0.11368683772E-12  0.17120000000E+03  0.17120000000E+03 0.  0.
         13    1    1    2    0    0 -0.13605457987E+02 -0.39297607722E+01  0.53545194876E+02  0.55386375266E+02  0.10566000000E+00 0.  1.
        994    1    1    2    0    0  0.30736848702E+02  0.18473897006E+02  0.58650870710E+01  0.17501393655E+03  0.17120000000E+03 0.  0.
        998    1    1    2    0    0 -0.17131390715E+02 -0.14544136234E+02  0.14405897143E+04  0.14407996882E+04  0.10000000000E+02 0.  1.
</event>
<event>
 5    1  0.1640179E-008  0.3720469E+03  0.7957747E-01  0.3486536E+00
         13   -1    0    0    0    0  0.00000000000E+00  0.00000000000E+00  0.14999999963E+04  0.15000000000E+04  0.10566000000E+00 0.  1.
        994   -1    0    0    0    0 -0.00000000000E+00 -0.00000000000E+00  0.11368683772E-12  0.17120000000E+03  0.17120000000E+03 0.  0.
         13    1    1    2    0    0  0.83501025950E+01  0.28387742162E+02  0.49321390254E+02  0.57516943757E+02  0.10566000000E+00 0.  1.
        994    1    1    2    0    0 -0.18855364240E+02 -0.21010445217E+02  0.10944285969E+02  0.17385678291E+03  0.17120000000E+03 0.  0.
        998    1    1    2    0    0  0.10505261645E+02 -0.73772969456E+01  0.14397343201E+04  0.14398262733E+04  0.10000000000E+02 0.  1.
</event>
<event>
 5    1  0.1640179E-008  0.3779383E+03  0.7957747E-01  0.3460185E+00
         13   -1    0    0    0    0  0.00000000000E+00  0.00000000000E+00  0.14999999963E+04  0.15000000000E+04  0.10566000000E+00 0. -1.
        994   -1    0    0    0    0 -0.00000000000E+00 -0.00000000000E+00  0.11368683772E-12  0.17120000000E+03  0.17120000000E+03 0.  0.
         13    1    1    2    0    0 -0.51427531095E+02 -0.30133618968E+02  0.32924565782E+03  0.33459757964E+03  0.10566000000E+00 0. -1.
        994    1    1    2    0    0  0.35056904697E+02  0.15293515214E+02  0.10117209212E+02  0.17571191222E+03  0.17120000000E+03 0.  0.
        998    1    1    2    0    0  0.16370626399E+02  0.14840103754E+02  0.11606371292E+04  0.11608905081E+04  0.10000000000E+02 0. -1.
</event>
<event>
 5    1  0.1640179E-008  0.3786271E+03  0.7957747E-01  0.3457158E+00
         13   -1    0    0    0    0  0.00000000000E+00  0.00000000000E+00  0.14999999963E+04  0.15000000000E+04  0.10566000000E+00 0. -1.
        994   -1    0    0    0    0 -0.00000000000E+00 -0.00000000000E+00  0.11368683772E-12  0.17120000000E+03  0.17120000000E+03 0.  0.
         13    1    1    2    0    0  0.30536529725E+00  0.22368553837E+02  0.49900869621E+02  0.54685952508E+02  0.10566000000E+00 0. -1.
        994    1    1    2    0    0 -0.18444161998E+01 -0.15061458205E+02  0.56013878691E+01  0.17196239397E+03  0.17120000000E+03 0.  0.
        998    1    1    2    0    0  0.15390509026E+01 -0.73070956319E+01  0.14444977388E+04  0.14445516535E+04  0.10000000000E+02 0. -1.
</event>
<event>
 5    1  0.2617913E-008  0.3861803E+03  0.7957747E-01  0.3424682E+00
         13   -1    0    0    0    0  0.00000000000E+00  0.00000000000E+00  0.14999999963E+04  0.15000000000E+04  0.10566000000E+00 0.  1.
        994   -1    0    0    0    0 -0.00000000000E+00 -0.00000000000E+00  0.11368683772E-12  0.17120000000E+03  0.17120000000E+03 0.  0.
         13    1    1    2    0    0  0.46152950729E+01  0.90466405331E+01  0.49259293739E+02  0.50295445492E+02  0.10566000000E+00 0.  1.
        994    1    1    2    0    0 -0.19965787694E+01 -0.93968023876E+01  0.13476643582E+01  0.17147461159E+03  0.17120000000E+03 0.  0.
        998    1    1    2    0    0 -0.26187163035E+01  0.35016185452E+00  0.14493930382E+04  0.14494299429E+04  0.10000000000E+02 0.  1.
</event>
<event>
 5    1  0.1640179E-008  0.3851542E+03  0.7957747E-01  0.3429019E+00
         13   -1    0    0    0    0  0.00000000000E+00  0.00000000000E+00  0.14999999963E+04  0.15000000000E+04  0.10566000000E+00 0.  1.
        994   -1    0    0    0    0 -0.00000000000E+00 -0.00000000000E+00  0.11368683772E-12  0.17120000000E+03  0.17120000000E+03 0.  0.
         13    1    1    2    0    0  0.26392649810E+01 -0.15431652089E+02  0.69417826798E+02  0.71161418249E+02  0.10566000000E+00 0.  1.
        994    1    1    2    0    0  0.63537903602E+01  0.31754449570E+02  0.50083529299E+01  0.17430788656E+03  0.17120000000E+03 0.  0.
        998    1    1    2    0    0 -0.89930553412E+01 -0.16322797481E+02  0.14255738166E+04  0.14257306952E+04  0.10000000000E+02 0.  1.
</event>
<event>
 5    1  0.1640179E-008  0.3827991E+03  0.7957747E-01  0.3439060E+00
         13   -1    0    0    0    0  0.00000000000E+00  0.00000000000E+00  0.14999999963E+04  0.15000000000E+04  0.10566000000E+00 0. -1.
        994   -1    0    0    0    0 -0.00000000000E+00 -0.00000000000E+00  0.11368683772E-12  0.17120000000E+03  0.17120000000E+03 0.  0.
         13    1    1    2    0    0 -0.11718044635E+02  0.21973902726E+02  0.10432758103E+03  0.10725866071E+03  0.10566000000E+00 0. -1.
        994    1    1    2    0    0  0.78852013861E+01 -0.27503121829E+02  0.54429394566E+01  0.17365962024E+03  0.17120000000E+03 0.  0.
        998    1    1    2    0    0  0.38328432490E+01  0.55292191033E+01  0.13902294758E+04  0.13902817190E+04  0.10000000000E+02 0. -1.
</event>
<event>
 5    1  0.1640179E-008  0.3912659E+03  0.7957747E-01  0.3403525E+00
         13   -1    0    0    0    0  0.00000000000E+00  0.00000000000E+00  0.14999999963E+04  0.15000000000E+04  0.10566000000E+00 0.  1.
        994   -1    0    0    0    0 -0.00000000000E+00 -0.00000000000E+00  0.11368683772E-12  0.17120000000E+03  0.17120000000E+03 0.  0.
         13    1    1    2    0    0 -0.13358045412E+03  0.32673801733E+02  0.31340032077E+03  0.34224419245E+03  0.10566000000E+00 0.  1.
        994    1    1    2    0    0  0.13418090081E+03 -0.29298597246E+02  0.98105285195E+02  0.24041008491E+03  0.17120000000E+03 0.  0.
        998    1    1    2    0    0 -0.60044668424E+00 -0.33752044873E+01  0.10884943903E+04  0.10885457226E+04  0.10000000000E+02 0.  0.
</event>
<event>
 5    1  0.1640179E-008  0.3843784E+03  0.7957747E-01  0.3432313E+00
         13   -1    0    0    0    0  0.00000000000E+00  0.00000000000E+00  0.14999999963E+04  0.15000000000E+04  0.10566000000E+00 0. -1.
        994   -1    0    0    0    0 -0.00000000000E+00 -0.00000000000E+00  0.11368683772E-12  0.17120000000E+03  0.17120000000E+03 0.  0.
         13    1    1    2    0    0  0.20120393314E+02 -0.17969565477E+01  0.10921182109E+03  0.11106436112E+03  0.10566000000E+00 0. -1.
        994    1    1    2    0    0 -0.78420709959E+01 -0.35279060025E+01  0.21827524135E+01  0.17142971915E+03  0.17120000000E+03 0.  0.
        998    1    1    2    0    0 -0.12278322318E+02  0.53248625502E+01  0.13886054228E+04  0.13887059197E+04  0.10000000000E+02 0. -1.
</event>
<event>
 5    1  0.1640179E-008  0.3818830E+03  0.7957747E-01  0.3443000E+00
         13   -1    0    0    0    0  0.00000000000E+00  0.00000000000E+00  0.14999999963E+04  0.15000000000E+04  0.10566000000E+00 0.  1.
        994   -1    0    0    0    0 -0.00000000000E+00 -0.00000000000E+00  0.11368683772E-12  0.17120000000E+03  0.17120000000E+03 0.  0.
         13    1    1    2    0    0  0.17016580925E+02 -0.28464671423E+01  0.47853460515E+02  0.50868764963E+02  0.10566000000E+00 0.  1.
        994    1    1    2    0    0  0.41019547897E+00  0.67904485745E+00  0.31877321605E+01  0.17123151287E+03  0.17120000000E+03 0.  0.
        998    1    1    2    0    0 -0.17426776404E+02  0.21674222848E+01  0.14489588036E+04  0.14490997222E+04  0.10000000000E+02 0.  1.
</event>
<event>
 5    1  0.1640179E-008  0.3833139E+03  0.7957747E-01  0.3436855E+00
         13   -1    0    0    0    0  0.00000000000E+00  0.00000000000E+00  0.14999999963E+04  0.15000000000E+04  0.10566000000E+00 0.  1.
        994   -1    0    0    0    0 -0.00000000000E+00 -0.00000000000E+00  0.11368683772E-12  0.17120000000E+03  0.17120000000E+03 0.  0.
         13    1    1    2    0    0  0.54005309565E+01 -0.15538884376E+02  0.51771483324E+02  0.54322373953E+02  0.10566000000E+00 0.  1.
        994    1    1    2    0    0 -0.11285125194E+02  0.17503668291E+02  0.39051254368E+01  0.17250629687E+03  0.17120000000E+03 0.  0.
        998    1    1    2    0    0  0.58845942379E+01 -0.19647839157E+01  0.14443233875E+04  0.14443713292E+04  0.10000000000E+02 0.  1.
</event>
<event>
 5    1  0.2503333E-008  0.3862303E+03  0.7957747E-01  0.3424471E+00
         13   -1    0    0    0    0  0.00000000000E+00  0.00000000000E+00  0.14999999963E+04  0.15000000000E+04  0.10566000000E+00 0.  1.
        994   -1    0    0    0    0 -0.00000000000E+00 -0.00000000000E+00  0.11368683772E-12  0.17120000000E+03  0.17120000000E+03 0.  0.
         13    1    1    2    0    0  0.89860539320E+01  0.52002664377E+01  0.54903180394E+02  0.55876312671E+02  0.10566000000E+00 0.  1.
        994    1    1    2    0    0 -0.40274549251E+01 -0.74543896151E+00  0.10755042143E+01  0.17125236577E+03  0.17120000000E+03 0.  0.
        998    1    1    2    0    0 -0.49585990069E+01 -0.44548274762E+01  0.14440213117E+04  0.14440713216E+04  0.10000000000E+02 0.  1.
</event>
<event>
 5    1  0.1640179E-008  0.3754812E+03  0.7957747E-01  0.3471073E+00
         13   -1    0    0    0    0  0.00000000000E+00  0.00000000000E+00  0.14999999963E+04  0.15000000000E+04  0.10566000000E+00 0. -1.
        994   -1    0    0    0    0 -0.00000000000E+00 -0.00000000000E+00  0.11368683772E-12  0.17120000000E+03  0.17120000000E+03 0.  0.
         13    1    1    2    0    0 -0.56288753076E+02 -0.19225035386E+03  0.77260702740E+03  0.79815427847E+03  0.10566000000E+00 0. -1.
        994    1    1    2    0    0  0.61658065854E+02  0.21432311870E+03  0.19990640685E+03  0.34497554666E+03  0.17120000000E+03 0.  0.
        998    1    1    2    0    0 -0.53693127782E+01 -0.22072764848E+02  0.52748656203E+03  0.52807017487E+03  0.10000000000E+02 0. -1.
</event>
<event>
 5    1  0.1640179E-008  0.3842911E+03  0.7957747E-01  0.3432684E+00
         13   -1    0    0    0    0  0.00000000000E+00  0.00000000000E+00  0.14999999963E+04  0.15000000000E+04  0.10566000000E+00 0. -1.
        994   -1    0    0    0    0 -0.00000000000E+00 -0.00000000000E+00  0.11368683772E-12  0.17120000000E+03  0.17120000000E+03 0.  0.
         13    1    1    2    0    0  0.17555551634E+02  0.68591354474E+01  0.90919305644E+02  0.92852444422E+02  0.10566000000E+00 0. -1.
        994    1    1    2    0    0 -0.91521141175E+01 -0.23140550177E+01  0.22762963049E+01  0.17147518062E+03  0.17120000000E+03 0.  0.
        998    1    1    2    0    0 -0.84034375165E+01 -0.45450804297E+01  0.14068043943E+04  0.14068723750E+04  0.10000000000E+02 0. -1.
</event>
<event>
 5    1  0.1640179E-008  0.3781654E+03  0.7957747E-01  0.3459186E+00
         13   -1    0    0    0    0  0.00000000000E+00  0.00000000000E+00  0.14999999963E+04  0.15000000000E+04  0.10566000000E+00 0.  1.
        994   -1    0    0    0    0 -0.00000000000E+00 -0.00000000000E+00  0.11368683772E-12  0.17120000000E+03  0.17120000000E+03 0.  0.
         13    1    1    2    0    0 -0.17809583661E+02  0.31811147364E+02  0.12734127780E+03  0.13245732355E+03  0.10566000000E+00 0.  1.
        994    1    1    2    0    0  0.12307862187E+02 -0.21662356123E+02  0.71526640910E+01  0.17315121065E+03  0.17120000000E+03 0.  0.
        998    1    1    2    0    0  0.55017214748E+01 -0.10148791241E+02  0.13655060544E+04  0.13655914658E+04  0.10000000000E+02 0.  1.
</event>
<event>
 5    1  0.1640179E-008  0.3757716E+03  0.7957747E-01  0.3469779E+00
         13   -1    0    0    0    0  0.00000000000E+00  0.00000000000E+00  0.14999999963E+04  0.15000000000E+04  0.10566000000E+00 0.  1.
        994   -1    0    0    0    0 -0.00000000000E+00 -0.00000000000E+00  0.11368683772E-12  0.17120000000E+03  0.17120000000E+03 0.  0.
         13    1    1    2    0    0  0.22693643211E+02 -0.70488441791E+02  0.17468334675E+03  0.18973113783E+03  0.10566000000E+00 0.  1.
        994    1    1    2    0    0 -0.14786680059E+02  0.65557745385E+02  0.30320695136E+02  0.18640077371E+03  0.17120000000E+03 0.  0.
        998    1    1    2    0    0 -0.79069631518E+01  0.49306964063E+01  0.12949959544E+04  0.12950680885E+04  0.10000000000E+02 0.  1.
</event>
<event>
 5    1  0.1640179E-008  0.3747448E+03  0.7957747E-01  0.3474365E+00
         13   -1    0    0    0    0  0.00000000000E+00  0.00000000000E+00  0.14999999963E+04  0.15000000000E+04  0.10566000000E+00 0. -1.
        994   -1    0    0    0    0 -0.00000000000E+00 -0.00000000000E+00  0.11368683772E-12  0.17120000000E+03  0.17120000000E+03 0.  0.
         13    1    1    2    0    0 -0.57378902796E+02 -0.44451668053E+02  0.27913208252E+03  0.28841466664E+03  0.10566000000E+00 0. -1.
        994    1    1    2    0    0  0.45885768222E+02  0.87912554076E+02  0.41040101136E+02  0.20205902799E+03  0.17120000000E+03 0.  0.
        998    1    1    2    0    0  0.11493134574E+02 -0.43460886024E+02  0.11798278126E+04  0.11807263054E+04  0.10000000000E+02 0. -1.
</event>
<event>
 5    1  0.1640179E-008  0.3823166E+03  0.7957747E-01  0.3441133E+00
         13   -1    0    0    0    0  0.00000000000E+00  0.00000000000E+00  0.14999999963E+04  0.15000000000E+04  0.10566000000E+00 0. -1.
        994   -1    0    0    0    0 -0.00000000000E+00 -0.00000000000E+00  0.11368683772E-12  0.17120000000E+03  0.17120000000E+03 0.  0.
         13    1    1    2    0    0  0.11365053550E+02  0.53570267369E+01  0.25139059520E+02  0.28104192841E+02  0.10566000000E+00 0. -1.
        994    1    1    2    0    0 -0.85456018274E+01 -0.12126828708E+02  0.36987715839E+01  0.17188137827E+03  0.17120000000E+03 0.  0.
        998    1    1    2    0    0 -0.28194517229E+01  0.67698019707E+01  0.14711621652E+04  0.14712144289E+04  0.10000000000E+02 0. -1.
</event>
<event>
 5    1  0.1640179E-008  0.3788918E+03  0.7957747E-01  0.3455998E+00
         13   -1    0    0    0    0  0.00000000000E+00  0.00000000000E+00  0.14999999963E+04  0.15000000000E+04  0.10566000000E+00 0.  1.
        994   -1    0    0    0    0 -0.00000000000E+00 -0.00000000000E+00  0.11368683772E-12  0.17120000000E+03  0.17120000000E+03 0.  0.
         13    1    1    2    0    0 -0.22584343204E+02 -0.52019140460E+02  0.31674650071E+03  0.32178315744E+03  0.10566000000E+00 0.  1.
        994    1    1    2    0    0  0.19830801426E+02  0.35478616463E+02  0.10256392721E+02  0.17625727362E+03  0.17120000000E+03 0.  0.
        998    1    1    2    0    0  0.27535417779E+01  0.16540523997E+02  0.11729971028E+04  0.11731595689E+04  0.10000000000E+02 0.  1.
</event>
<event>
 5    1  0.1640179E-008  0.3844473E+03  0.7957747E-01  0.3432020E+00
         13   -1    0    0    0    0  0.00000000000E+00  0.00000000000E+00  0.14999999963E+04  0.15000000000E+04  0.10566000000E+00 0.  1.
        994   -1    0    0    0    0 -0.00000000000E+00 -0.00000000000E+00  0.11368683772E-12  0.17120000000E+03  0.17120000000E+03 0.  0.
         13    1    1    2    0    0  0.13470621066E+02 -0.11596565744E+02  0.82126088677E+02  0.84027635778E+02  0.10566000000E+00 0.  1.
        994    1    1    2    0    0 -0.70807063285E+01  0.10930840558E+02  0.24637948108E+01  0.17171234656E+03  0.17120000000E+03 0.  0.
        998    1    1    2    0    0 -0.63899147378E+01  0.66572518640E+00  0.14154101128E+04  0.14154600177E+04  0.10000000000E+02 0.  1.
</event>
<event>
 5    1  0.1640179E-008  0.3793094E+03  0.7957747E-01  0.3454171E+00
         13   -1    0    0    0    0  0.00000000000E+00  0.00000000000E+00  0.14999999963E+04  0.15000000000E+04  0.10566000000E+00 0. -1.
        994   -1    0    0    0    0 -0.00000000000E+00 -0.00000000000E+00  0.11368683772E-12  0.17120000000E+03  0.17120000000E+03 0.  0.
         13    1    1    2    0    0  0.23423247351E+02 -0.12174588960E+02  0.73915068206E+02  0.78487690784E+02  0.10566000000E+00 0. -1.
        994    1    1    2    0    0 -0.17629960939E+02  0.16785484292E+02  0.64701204584E+01  0.17304297288E+03  0.17120000000E+03 0.  0.
        998    1    1    2    0    0 -0.57932864118E+01 -0.46108953321E+01  0.14196148076E+04  0.14196693363E+04  0.10000000000E+02 0. -1.
</event>
<event>
 5    1  0.1640179E-008  0.3839831E+03  0.7957747E-01  0.3433997E+00
         13   -1    0    0    0    0  0.00000000000E+00  0.00000000000E+00  0.14999999963E+04  0.15000000000E+04  0.10566000000E+00 0. -1.
        994   -1    0    0    0    0 -0.00000000000E+00 -0.00000000000E+00  0.11368683772E-12  0.17120000000E+03  0.17120000000E+03 0.  0.
         13    1    1    2    0    0  0.11003568013E+02 -0.10463205818E+02  0.53004316630E+02  0.55136430157E+02  0.10566000000E+00 0. -1.
        994    1    1    2    0    0 -0.81518360872E+01  0.87012994912E+01  0.26050863981E+01  0.17163447066E+03  0.17120000000E+03 0.  0.
        998    1    1    2    0    0 -0.28517319259E+01  0.17619063271E+01  0.14443905933E+04  0.14444290992E+04  0.10000000000E+02 0. -1.
</event>
<event>
 5    1  0.1640179E-008  0.3814163E+03  0.7957747E-01  0.3445015E+00
         13   -1    0    0    0    0  0.00000000000E+00  0.00000000000E+00  0.14999999963E+04  0.15000000000E+04  0.10566000000E+00 0.  1.
        994   -1    0    0    0    0 -0.00000000000E+00 -0.00000000000E+00  0.11368683772E-12  0.17120000000E+03  0.17120000000E+03 0.  0.
         13    1    1    2    0    0 -0.20239791127E+02  0.11069181071E+02  0.74433574057E+02  0.77926529663E+02  0.10566000000E+00 0.  1.
        994    1    1    2    0    0  0.15492113289E+02 -0.14614716820E+02  0.49306154055E+01  0.17259011122E+03  0.17120000000E+03 0.  0.
        998    1    1    2    0    0  0.47476778389E+01  0.35455357482E+01  0.14206358068E+04  0.14206833591E+04  0.10000000000E+02 0.  1.
</event>
<event>
 5    1  0.1640179E-008  0.3797014E+03  0.7957747E-01  0.3452460E+00
         13   -1    0    0    0    0  0.00000000000E+00  0.00000000000E+00  0.14999999963E+04  0.15000000000E+04  0.10566000000E+00 0. -1.
        994   -1    0    0    0    0 -0.00000000000E+00 -0.00000000000E+00  0.11368683772E-12  0.17120000000E+03  0.17120000000E+03 0.  0.
         13    1    1    2    0    0 -0.28455806655E+02  0.69258279383E+01  0.10436319133E+03  0.10839458886E+03  0.10566000000E+00 0. -1.
        994    1    1    2    0    0  0.57636999647E+01 -0.57105274077E+01  0.45042557414E+01  0.17145133035E+03  0.17120000000E+03 0.  0.
        998    1    1    2    0    0  0.22692106690E+02 -0.12153005306E+01  0.13911325492E+04  0.13913540808E+04  0.10000000000E+02 0. -1.
</event>
<event>
 5    1  0.1640179E-008  0.3848876E+03  0.7957747E-01  0.3430149E+00
         13   -1    0    0    0    0  0.00000000000E+00  0.00000000000E+00  0.14999999963E+04  0.15000000000E+04  0.10566000000E+00 0. -1.
        994   -1    0    0    0    0 -0.00000000000E+00 -0.00000000000E+00  0.11368683772E-12  0.17120000000E+03  0.17120000000E+03 0.  0.
         13    1    1    2    0    0  0.20989277242E+01 -0.10103600385E+02  0.30324668032E+02  0.32032559898E+02  0.10566000000E+00 0. -1.
        994    1    1    2    0    0 -0.63994060597E+01  0.13393524127E+02  0.24111785164E+01  0.17185922340E+03  0.17120000000E+03 0.  0.
        998    1    1    2    0    0  0.43004783356E+01 -0.32899237421E+01  0.14672641497E+04  0.14673082167E+04  0.10000000000E+02 0. -1.
</event>
<event>
 5    1  0.1640179E-008  0.3775475E+03  0.7957747E-01  0.3461907E+00
         13   -1    0    0    0    0  0.00000000000E+00  0.00000000000E+00  0.14999999963E+04  0.15000000000E+04  0.10566000000E+00 0. -1.
        994   -1    0    0    0    0 -0.00000000000E+00 -0.00000000000E+00  0.11368683772E-12  0.17120000000E+03  0.17120000000E+03 0.  0.
         13    1    1    2    0    0  0.11646913576E+02  0.13887614567E+02  0.28963804059E+02  0.34167668106E+02  0.10566000000E+00 0. -1.
        994    1    1    2    0    0 -0.36776127272E+01 -0.30418782332E+01  0.54530724183E+01  0.17135330127E+03  0.17120000000E+03 0.  0.
        998    1    1    2    0    0 -0.79693008489E+01 -0.10845736334E+02  0.14655831198E+04  0.14656790306E+04  0.10000000000E+02 0. -1.
</event>
<event>
 5    1  0.1640179E-008  0.3854840E+03  0.7957747E-01  0.3427622E+00
         13   -1    0    0    0    0  0.00000000000E+00  0.00000000000E+00  0.14999999963E+04  0.15000000000E+04  0.10566000000E+00 0.  1.
        994   -1    0    0    0    0 -0.00000000000E+00 -0.00000000000E+00  0.11368683772E-12  0.17120000000E+03  0.17120000000E+03 0.  0.
         13    1    1    2    0    0 -0.49780677185E+01  0.14279321005E+02  0.87042907510E+02  0.88346811365E+02  0.10566000000E+00 0.  1.
        994    1    1    2    0    0  0.55885455719E+01 -0.16651332346E+01  0.15016856811E+01  0.17130586555E+03  0.17120000000E+03 0.  0.
        998    1    1    2    0    0 -0.61047785344E+00 -0.12614187770E+02  0.14114554031E+04  0.14115473231E+04  0.10000000000E+02 0.  1.
</event>
<event>
 5    1  0.1640179E-008  0.3820920E+03  0.7957747E-01  0.3442100E+00
         13   -1    0    0    0    0  0.00000000000E+00  0.00000000000E+00  0.14999999963E+04  0.15000000000E+04  0.10566000000E+00 0.  1.
        994   -1    0    0    0    0 -0.00000000000E+00 -0.00000000000E+00  0.11368683772E-12  0.17120000000E+03  0.17120000000E+03 0.  0.
         13    1    1    2    0    0  0.34400873294E+01  0.14809724969E+02  0.36973502930E+02  0.39977659229E+02  0.10566000000E+00 0.  1.
        994    1    1    2    0    0  0.60162121927E+01 -0.77757451515E+01  0.34017844350E+01  0.17151579857E+03  0.17120000000E+03 0.  0.
        998    1    1    2    0    0 -0.94562995221E+01 -0.70339798173E+01  0.14596247089E+04  0.14597065422E+04  0.10000000000E+02 0.  1.
</event>
<event>
 5    1  0.1640179E-008  0.3756964E+03  0.7957747E-01  0.3470114E+00
         13   -1    0    0    0    0  0.00000000000E+00  0.00000000000E+00  0.14999999963E+04  0.15000000000E+04  0.10566000000E+00 0.  1.
        994   -1    0    0    0    0 -0.00000000000E+00 -0.00000000000E+00  0.11368683772E-12  0.17120000000E+03  0.17120000000E+03 0.  0.
         13    1    1    2    0    0 -0.35701266281E+02  0.24198016402E+02  0.11718716627E+03  0.12487180432E+03  0.10566000000E+00 0.  1.
        994    1    1    2    0    0  0.55173473486E+02 -0.47035583888E+02  0.24361230137E+02  0.18750831411E+03  0.17120000000E+03 0.  0.
        998    1    1    2    0    0 -0.19472207204E+02  0.22837567486E+02  0.13584515999E+04  0.13588198816E+04  0.10000000000E+02 0.  1.
</event>
<event>
 5    1  0.1640179E-008  0.3751321E+03  0.7957747E-01  0.3472632E+00
         13   -1    0    0    0    0  0.00000000000E+00  0.00000000000E+00  0.14999999963E+04  0.15000000000E+04  0.10566000000E+00 0.  1.
        994   -1    0    0    0    0 -0.00000000000E+00 -0.00000000000E+00  0.11368683772E-12  0.17120000000E+03  0.17120000000E+03 0.  0.
         13    1    1    2    0    0  0.94969642077E+01  0.48059825977E+02  0.22120992465E+03  0.22656959445E+03  0.10566000000E+00 0.  1.
        994    1    1    2    0    0  0.41981987771E+01  0.28862593677E+01  0.66991079387E+01  0.17140674845E+03  0.17120000000E+03 0.  0.
        998    1    1    2    0    0 -0.13695162985E+02 -0.50946085345E+02  0.12720909637E+04  0.12732236571E+04  0.10000000000E+02 0.  1.
</event>
<event>
 5    1  0.1640179E-008  0.3799689E+03  0.7957747E-01  0.3451294E+00
         13   -1    0    0    0    0  0.00000000000E+00  0.00000000000E+00  0.14999999963E+04  0.15000000000E+04  0.10566000000E+00 0. -1.
        994   -1    0    0    0    0 -0.00000000000E+00 -0.00000000000E+00  0.11368683772E-12  0.17120000000E+03  0.17120000000E+03 0.  0.
         13    1    1    2    0    0  0.16798036948E+02 -0.55309462603E+01  0.36273221662E+02  0.40354964820E+02  0.10566000000E+00 0. -1.
        994    1    1    2    0    0 -0.91704259392E+01  0.50193875526E+01  0.45143200284E+01  0.17157829131E+03  0.17120000000E+03 0.  0.
        998    1    1    2    0    0 -0.76276110085E+01  0.51155870768E+00  0.14592124546E+04  0.14592667439E+04  0.10000000000E+02 0. -1.
</event>
<event>
 5    1  0.1640179E-008  0.3699566E+03  0.7957747E-01  0.3496090E+00
         13   -1    0    0    0    0  0.00000000000E+00  0.00000000000E+00  0.14999999963E+04  0.15000000000E+04  0.10566000000E+00 0.  1.
        994   -1    0    0    0    0 -0.00000000000E+00 -0.00000000000E+00  0.11368683772E-12  0.17120000000E+03  0.17120000000E+03 0.  0.
         13    1    1    2    0    0 -0.14142642459E+02 -0.43338990001E+02  0.89346187738E+02  0.10030470985E+03  0.10566000000E+00 0.  1.
        994    1    1    2    0    0  0.16771868969E+02  0.32187232865E+02  0.15534530847E+02  0.17569312792E+03  0.17120000000E+03 0.  0.
        998    1    1    2    0    0 -0.26292265093E+01  0.11151757136E+02  0.13951192777E+04  0.13952021622E+04  0.10000000000E+02 0.  1.
</event>
<event>
 5    1  0.1640179E-008  0.3842847E+03  0.7957747E-01  0.3432712E+00
         13   -1    0    0    0    0  0.00000000000E+00  0.00000000000E+00  0.14999999963E+04  0.15000000000E+04  0.10566000000E+00 0. -1.
        994   -1    0    0    0    0 -0.00000000000E+00 -0.00000000000E+00  0.11368683772E-12  0.17120000000E+03  0.17120000000E+03 0.  0.
         13    1    1    2    0    0 -0.20274224410E+02  0.23120244666E+01  0.10806985528E+03  0.10997951817E+03  0.10566000000E+00 0. -1.
        994    1    1    2    0    0  0.80634517755E+01 -0.31757259153E+01  0.22333039561E+01  0.17143375437E+03  0.17120000000E+03 0.  0.
        998    1    1    2    0    0  0.12210772634E+02  0.86370144873E+00  0.13896968370E+04  0.13897867275E+04  0.10000000000E+02 0. -1.
</event>
<event>
 5    1  0.1640179E-008  0.3826599E+03  0.7957747E-01  0.3439658E+00
         13   -1    0    0    0    0  0.00000000000E+00  0.00000000000E+00  0.14999999963E+04  0.15000000000E+04  0.10566000000E+00 0. -1.
        994   -1    0    0    0    0 -0.00000000000E+00 -0.00000000000E+00  0.11368683772E-12  0.17120000000E+03  0.17120000000E+03 0.  0.
         13    1    1    2    0    0 -0.17710739322E+02  0.23409044329E+02  0.14054920632E+03  0.14358183801E+03  0.10566000000E+00 0. -1.
        994    1    1    2    0    0  0.18258983834E+02 -0.23177269123E+02  0.56867080572E+01  0.17381701569E+03  0.17120000000E+03 0.  0.
        998    1    1    2    0    0 -0.54824451166E+00 -0.23177520632E+00  0.13537640819E+04  0.13538011463E+04  0.10000000000E+02 0.  0.
</event>
<event>
 5    1  0.1775514E-008  0.3804874E+03  0.7957747E-01  0.3449039E+00
         13   -1    0    0    0    0  0.00000000000E+00  0.00000000000E+00  0.14999999963E+04  0.15000000000E+04  0.10566000000E+00 0.  1.
        994   -1    0    0    0    0 -0.00000000000E+00 -0.00000000000E+00  0.11368683772E-12  0.17120000000E+03  0.17120000000E+03 0.  0.
         13    1    1    2    0    0  0.39497595778E+01 -0.16171619561E+02  0.33376609181E+02  0.37297869703E+02  0.10566000000E+00 0.  1.
        994    1    1    2    0    0 -0.44455152493E+01  0.17628122353E+02  0.49911874845E+01  0.17223491300E+03  0.17120000000E+03 0.  0.
        998    1    1    2    0    0  0.49575567150E+00 -0.14565027920E+01  0.14616321996E+04  0.14616672173E+04  0.10000000000E+02 0.  1.
</event>
<event>
 5    1  0.1640179E-008  0.3823209E+03  0.7957747E-01  0.3441115E+00
         13   -1    0    0    0    0  0.00000000000E+00  0.00000000000E+00  0.14999999963E+04  0.15000000000E+04  0.10566000000E+00 0. -1.
        994   -1    0    0    0    0 -0.00000000000E+00 -0.00000000000E+00  0.11368683772E-12  0.17120000000E+03  0.17120000000E+03 0.  0.
         13    1    1    2    0    0  0.16996695983E+02 -0.62437560919E+00  0.47713094069E+02  0.50654003088E+02  0.10566000000E+00 0. -1.
        994    1    1    2    0    0 -0.11112564818E+02  0.14118276795E+02  0.40378115223E+01  0.17218756854E+03  0.17120000000E+03 0.  0.
        998    1    1    2    0    0 -0.58841311649E+01 -0.13493901186E+02  0.14482490907E+04  0.14483584284E+04  0.10000000000E+02 0. -1.
</event>
<event>
 5    1  0.1640179E-008  0.3816240E+03  0.7957747E-01  0.3444118E+00
         13   -1    0    0    0    0  0.00000000000E+00  0.00000000000E+00  0.14999999963E+04  0.15000000000E+04  0.10566000000E+00 0.  1.
        994   -1    0    0    0    0 -0.00000000000E+00 -0.00000000000E+00  0.11368683772E-12  0.17120000000E+03  0.17120000000E+03 0.  0.
         13    1    1    2    0    0  0.12293014498E+02 -0.24444193620E+02  0.10996107743E+03  0.11331410557E+03  0.10566000000E+00 0.  1.
        994    1    1    2    0    0 -0.10694431504E+02  0.16353544049E+02  0.45861681796E+01  0.17237251001E+03  0.17120000000E+03 0.  0.
        998    1    1    2    0    0 -0.15985829931E+01  0.80906495714E+01  0.13854527507E+04  0.13855133844E+04  0.10000000000E+02 0.  1.
</event>
<event>
 5    1  0.1640179E-008  0.3803220E+03  0.7957747E-01  0.3449758E+00
         13   -1    0    0    0    0  0.00000000000E+00  0.00000000000E+00  0.14999999963E+04  0.15000000000E+04  0.10566000000E+00 0.  1.
        994   -1    0    0    0    0 -0.00000000000E+00 -0.00000000000E+00  0.11368683772E-12  0.17120000000E+03  0.17120000000E+03 0.  0.
         13    1    1    2    0    0 -0.16638536919E+02 -0.51349239196E+02  0.24683098369E+03  0.25266406739E+03  0.10566000000E+00 0.  1.
        994    1    1    2    0    0  0.15581466323E+02  0.79334105392E+02  0.26116910600E+02  0.19112356053E+03  0.17120000000E+03 0.  0.
        998    1    1    2    0    0  0.10570705961E+01 -0.27984866196E+02  0.12270521020E+04  0.12274123721E+04  0.10000000000E+02 0.  1.
</event>
<event>
 5    1  0.1640179E-008  0.3801220E+03  0.7957747E-01  0.3450628E+00
         13   -1    0    0    0    0  0.00000000000E+00  0.00000000000E+00  0.14999999963E+04  0.15000000000E+04  0.10566000000E+00 0.  1.
        994   -1    0    0    0    0 -0.00000000000E+00 -0.00000000000E+00  0.11368683772E-12  0.17120000000E+03  0.17120000000E+03 0.  0.
         13    1    1    2    0    0 -0.27088194795E+02  0.40785068679E+02  0.26735468061E+03  0.27180089870E+03  0.10566000000E+00 0.  1.
        994    1    1    2    0    0  0.11921483931E+02 -0.38572655620E+02  0.95375314944E+01  0.17615440967E+03  0.17120000000E+03 0.  0.
        998    1    1    2    0    0  0.15166710864E+02 -0.22124130585E+01  0.12231077842E+04  0.12232446916E+04  0.10000000000E+02 0.  1.
</event>
<event>
 5    1  0.1640179E-008  0.3749997E+03  0.7957747E-01  0.3473224E+00
         13   -1    0    0    0    0  0.00000000000E+00  0.00000000000E+00  0.14999999963E+04  0.15000000000E+04  0.10566000000E+00 0.  1.
        994   -1    0    0    0    0 -0.00000000000E+00 -0.00000000000E+00  0.11368683772E-12  0.17120000000E+03  0.17120000000E+03 0.  0.
         13    1    1    2    0    0  0.73160469186E+02  0.19639888310E+02  0.39565487626E+03  0.40284112469E+03  0.10566000000E+00 0.  1.
        994    1    1    2    0    0 -0.44178192515E+02 -0.41578558606E+02  0.19294193041E+02  0.18265320998E+03  0.17120000000E+03 0.  0.
        998    1    1    2    0    0 -0.28982276671E+02  0.21938670295E+02  0.10850509270E+04  0.10857056653E+04  0.10000000000E+02 0.  1.
</event>
<event>
 5    1  0.1640179E-008  0.3842003E+03  0.7957747E-01  0.3433071E+00
         13   -1    0    0    0    0  0.00000000000E+00  0.00000000000E+00  0.14999999963E+04  0.15000000000E+04  0.10566000000E+00 0. -1.
        994   -1    0    0    0    0 -0.00000000000E+00 -0.00000000000E+00  0.11368683772E-12  0.17120000000E+03  0.17120000000E+03 0.  0.
         13    1    1    2    0    0 -0.43744152876E+00 -0.12588438472E+02  0.39952447320E+02  0.41891160751E+02  0.10566000000E+00 0. -1.
        994    1    1    2    0    0  0.36485584342E+01  0.12424333909E+01  0.20766579466E+01  0.17125597253E+03  0.17120000000E+03 0.  0.
        998    1    1    2    0    0 -0.32111169055E+01  0.11346005081E+02  0.14579708910E+04  0.14580528667E+04  0.10000000000E+02 0. -1.
</event>
<event>
 5    1  0.1640179E-008  0.3790826E+03  0.7957747E-01  0.3455163E+00
         13   -1    0    0    0    0  0.00000000000E+00  0.00000000000E+00  0.14999999963E+04  0.15000000000E+04  0.10566000000E+00 0. -1.
        994   -1    0    0    0    0 -0.00000000000E+00 -0.00000000000E+00  0.11368683772E-12  0.17120000000E+03  0.17120000000E+03 0.  0.
         13    1    1    2    0    0 -0.14335514963E+02  0.11612821061E+02  0.34421597109E+02  0.39054092152E+02  0.10566000000E+00 0. -1.
        994    1    1    2    0    0  0.13153126089E+02 -0.14882613242E+02  0.59208605506E+01  0.17244997388E+03  0.17120000000E+03 0.  0.
        998    1    1    2    0    0  0.11823888740E+01  0.32697921809E+01  0.14596575386E+04  0.14596959340E+04  0.10000000000E+02 0. -1.
</event>
<event>
 5    1  0.1640179E-008  0.3846278E+03  0.7957747E-01  0.3431252E+00
         13   -1    0    0    0    0  0.00000000000E+00  0.00000000000E+00  0.14999999963E+04  0.15000000000E+04  0.10566000000E+00 0. -1.
        994   -1    0    0    0    0 -0.00000000000E+00 -0.00000000000E+00  0.11368683772E-12  0.17120000000E+03  0.17120000000E+03 0.  0.
         13    1    1    2    0    0  0.10744197038E+02  0.19225685421E+02  0.12820506119E+03  0.13008310278E+03  0.10566000000E+00 0. -1.
        994    1    1    2    0    0 -0.96790416226E+01 -0.15645527582E+02  0.29302661414E+01  0.17221060606E+03  0.17120000000E+03 0.  0.
        998    1    1    2    0    0 -0.10651554155E+01 -0.35801578384E+01  0.13688646689E+04  0.13689062912E+04  0.10000000000E+02 0. -1.
</event>
<event>
 5    1  0.1640179E-008  0.3794895E+03  0.7957747E-01  0.3453384E+00
         13   -1    0    0    0    0  0.00000000000E+00  0.00000000000E+00  0.14999999963E+04  0.15000000000E+04  0.10566000000E+00 0.  1.
        994   -1    0    0    0    0 -0.00000000000E+00 -0.00000000000E+00  0.11368683772E-12  0.17120000000E+03  0.17120000000E+03 0.  0.
         13    1    1    2    0    0 -0.32391317818E+02 -0.21535373854E+02  0.15138289848E+03  0.15630023325E+03  0.10566000000E+00 0.  1.
        994    1    1    2    0    0  0.35091153406E+02  0.24169037202E+02  0.10494579787E+02  0.17673456824E+03  0.17120000000E+03 0.  0.
        998    1    1    2    0    0 -0.26998355882E+01 -0.26336633478E+01  0.13381225180E+04  0.13381651985E+04  0.10000000000E+02 0.  1.
</event>
<event>
 5    1  0.1640179E-008  0.3826377E+03  0.7957747E-01  0.3439753E+00
         13   -1    0    0    0    0  0.00000000000E+00  0.00000000000E+00  0.14999999963E+04  0.15000000000E+04  0.10566000000E+00 0. -1.
        994   -1    0    0    0    0 -0.00000000000E+00 -0.00000000000E+00  0.11368683772E-12  0.17120000000E+03  0.17120000000E+03 0.  0.
         13    1    1    2    0    0 -0.12311402700E+02 -0.10889635866E+02  0.50848969230E+02  0.53439532573E+02  0.10566000000E+00 0. -1.
        994    1    1    2    0    0 -0.16764079549E+02  0.10531278833E+02  0.41075105781E+01  0.17238983102E+03  0.17120000000E+03 0.  0.
        998    1    1    2    0    0  0.29075482249E+02  0.35835703310E+00  0.14450435165E+04  0.14453706364E+04  0.10000000000E+02 0. -1.
</event>
<event>
 5    1  0.1640179E-008  0.3845682E+03  0.7957747E-01  0.3431506E+00
         13   -1    0    0    0    0  0.00000000000E+00  0.00000000000E+00  0.14999999963E+04  0.15000000000E+04  0.10566000000E+00 0. -1.
        994   -1    0    0    0    0 -0.00000000000E+00 -0.00000000000E+00  0.11368683772E-12  0.17120000000E+03  0.17120000000E+03 0.  0.
         13    1    1    2    0    0 -0.50002158946E+01 -0.91015568821E+01  0.30367995023E+02  0.32094653487E+02  0.10566000000E+00 0. -1.
        994    1    1    2    0    0 -0.12678242151E+02  0.10424897305E+01  0.23777909765E+01  0.17168843438E+03  0.17120000000E+03 0.  0.
        998    1    1    2    0    0  0.17678458046E+02  0.80590671516E+01  0.14672542103E+04  0.14674169121E+04  0.10000000000E+02 0. -1.
</event>
<event>
 5    1  0.1640179E-008  0.3691586E+03  0.7957747E-01  0.3499767E+00
         13   -1    0    0    0    0  0.00000000000E+00  0.00000000000E+00  0.14999999963E+04  0.15000000000E+04  0.10566000000E+00 0. -1.
        994   -1    0    0    0    0 -0.00000000000E+00 -0.00000000000E+00  0.11368683772E-12  0.17120000000E+03  0.17120000000E+03 0.  0.
         13    1    1    2    0    0 -0.18578478070E+02  0.28606546755E+02  0.49702506771E+02  0.60281379446E+02  0.10566000000E+00 0. -1.
        994    1    1    2    0    0  0.24679657354E+02 -0.25782940308E+02  0.14947893451E+02  0.17551844637E+03  0.17120000000E+03 0.  0.
        998    1    1    2    0    0 -0.61011792840E+01 -0.28236064464E+01  0.14353495961E+04  0.14354001742E+04  0.10000000000E+02 0. -1.
</event>
<event>
 5    1  0.1640179E-008  0.4103787E+03  0.7957747E-01  0.3328689E+00
         13   -1    0    0    0    0  0.00000000000E+00  0.00000000000E+00  0.14999999963E+04  0.15000000000E+04  0.10566000000E+00 0.  1.
        994   -1    0    0    0    0 -0.00000000000E+00 -0.00000000000E+00  0.11368683772E-12  0.17120000000E+03  0.17120000000E+03 0.  0.
         13    1    1    2    0    0  0.27668812772E+02 -0.87694759661E+02  0.10977731884E+03  0.14320267095E+03  0.10566000000E+00 0.  1.
        994    1    1    2    0    0 -0.73924434862E+02  0.58499063371E+02  0.71506824214E+02  0.20810965474E+03  0.17120000000E+03 0.  0.
        998    1    1    2    0    0  0.46255622091E+02  0.29195696290E+02  0.13187158532E+04  0.13198876743E+04  0.10000000000E+02 0.  1.
</event>
<event>
 5    1  0.1640179E-008  0.3861821E+03  0.7957747E-01  0.3424674E+00
         13   -1    0    0    0    0  0.00000000000E+00  0.00000000000E+00  0.14999999963E+04  0.15000000000E+04  0.10566000000E+00 0.  1.
        994   -1    0    0    0    0 -0.00000000000E+00 -0.00000000000E+00  0.11368683772E-12  0.17120000000E+03  0.17120000000E+03 0.  0.
         13    1    1    2    0    0  0.99419382327E+01  0.61463480051E+01  0.65316018317E+02  0.66353697278E+02  0.10566000000E+00 0.  1.
        994    1    1    2    0    0 -0.11905229309E+02  0.38920558654E+00  0.15093317397E+01  0.17162052339E+03  0.17120000000E+03 0.  0.
        998    1    1    2    0    0  0.19632910761E+01 -0.65355535916E+01  0.14331746462E+04  0.14332257793E+04  0.10000000000E+02 0.  1.
</event>
<event>
 5    1  0.1640179E-008  0.3731778E+03  0.7957747E-01  0.3481413E+00
         13   -1    0    0    0    0  0.00000000000E+00  0.00000000000E+00  0.14999999963E+04  0.15000000000E+04  0.10566000000E+00 0. -1.
        994   -1    0    0    0    0 -0.00000000000E+00 -0.00000000000E+00  0.11368683772E-12  0.17120000000E+03  0.17120000000E+03 0.  0.
         13    1    1    2    0    0 -0.60782566341E+02 -0.50483175800E+02  0.39545418708E+03  0.40327050060E+03  0.10566000000E+00 0. -1.
        994    1    1    2    0    0  0.14672055616E+02 -0.43994594365E+02  0.20271911990E+02  0.17852502336E+03  0.17120000000E+03 0.  0.
        998    1    1    2    0    0  0.46110510725E+02  0.94477770165E+02  0.10842738972E+04  0.10894044760E+04  0.10000000000E+02 0. -1.
</event>
<event>
 5    1  0.1640179E-008  0.3857389E+03  0.7957747E-01  0.3426544E+00
         13   -1    0    0    0    0  0.00000000000E+00  0.00000000000E+00  0.14999999963E+04  0.15000000000E+04  0.10566000000E+00 0. -1.
        994   -1    0    0    0    0 -0.00000000000E+00 -0.00000000000E+00  0.11368683772E-12  0.17120000000E+03  0.17120000000E+03 0.  0.
         13    1    1    2    0    0  0.11748961774E+02  0.91770833000E+01  0.87363122656E+02  0.88626087157E+02  0.10566000000E+00 0. -1.
        994    1    1    2    0    0 -0.11341721530E+02 -0.40446723404E+01  0.17395494734E+01  0.17163175713E+03  0.17120000000E+03 0.  0.
        998    1    1    2    0    0 -0.40724024380E+00 -0.51324109596E+01  0.14108973241E+04  0.14109421557E+04  0.10000000000E+02 0. -1.
</event>
<event>
 5    1  0.1640179E-008  0.3695220E+03  0.7957747E-01  0.3498090E+00
         13   -1    0    0    0    0  0.00000000000E+00  0.00000000000E+00  0.14999999963E+04  0.15000000000E+04  0.10566000000E+00 0.  1.
        994   -1    0    0    0    0 -0.00000000000E+00 -0.00000000000E+00  0.11368683772E-12  0.17120000000E+03  0.17120000000E+03 0.  0.
         13    1    1    2    0    0 -0.31756783354E+02  0.48029840970E+02  0.18344980517E+03  0.19227376601E+03  0.10566000000E+00 0.  1.
        994    1    1    2    0    0  0.29029739556E+02 -0.53211149059E+01  0.12541763687E+02  0.17417742643E+03  0.17120000000E+03 0.  0.
        998    1    1    2    0    0  0.27270437972E+01 -0.42708726064E+02  0.13040084274E+04  0.13047488076E+04  0.10000000000E+02 0.  1.
</event>
<event>
 5    1  0.1640179E-008  0.3717481E+03  0.7957747E-01  0.3487895E+00
         13   -1    0    0    0    0  0.00000000000E+00  0.00000000000E+00  0.14999999963E+04  0.15000000000E+04  0.10566000000E+00 0.  1.
        994   -1    0    0    0    0 -0.00000000000E+00 -0.00000000000E+00  0.11368683772E-12  0.17120000000E+03  0.17120000000E+03 0.  0.
         13    1    1    2    0    0 -0.14845268804E+02 -0.87647410540E+01  0.14994472756E+02  0.22848371252E+02  0.10566000000E+00 0.  1.
        994    1    1    2    0    0 -0.24038702758E+01 -0.25286098656E+02  0.10578789617E+02  0.17339699008E+03  0.17120000000E+03 0.  0.
        998    1    1    2    0    0  0.17249139080E+02  0.34050839710E+02  0.14744267339E+04  0.14749546387E+04  0.10000000000E+02 0.  1.
</event>
<event>
 5    1  0.1640179E-008  0.3840348E+03  0.7957747E-01  0.3433776E+00
         13   -1    0    0    0    0  0.00000000000E+00  0.00000000000E+00  0.14999999963E+04  0.15000000000E+04  0.10566000000E+00 0.  1.
        994   -1    0    0    0    0 -0.00000000000E+00 -0.00000000000E+00  0.11368683772E-12  0.17120000000E+03  0.17120000000E+03 0.  0.
         13    1    1    2    0    0 -0.14673065235E+02  0.55676575460E+01  0.59934073202E+02  0.61954837976E+02  0.10566000000E+00 0.  1.
        994    1    1    2    0    0  0.38877141629E+01 -0.11855143355E+01  0.21645780519E+01  0.17126191977E+03  0.17120000000E+03 0.  0.
        998    1    1    2    0    0  0.10785351072E+02 -0.43821432105E+01  0.14379013450E+04  0.14379832423E+04  0.10000000000E+02 0.  1.
</event>
<event>
 5    1  0.1640179E-008  0.3849495E+03  0.7957747E-01  0.3429887E+00
         13   -1    0    0    0    0  0.00000000000E+00  0.00000000000E+00  0.14999999963E+04  0.15000000000E+04  0.10566000000E+00 0.  1.
        994   -1    0    0    0    0 -0.00000000000E+00 -0.00000000000E+00  0.11368683772E-12  0.17120000000E+03  0.17120000000E+03 0.  0.
         13    1    1    2    0    0  0.52284805906E+01  0.11271246208E+02  0.48209721706E+02  0.49785202936E+02  0.10566000000E+00 0.  1.
        994    1    1    2    0    0  0.89457359420E+01 -0.63261521527E+01  0.20501820502E+01  0.17156249485E+03  0.17120000000E+03 0.  0.
        998    1    1    2    0    0 -0.14174216533E+02 -0.49450940552E+01  0.14497400925E+04  0.14498523022E+04  0.10000000000E+02 0.  1.
</event>
<event>
 5    1  0.1640179E-008  0.3852125E+03  0.7957747E-01  0.3428771E+00
         13   -1    0    0    0    0  0.00000000000E+00  0.00000000000E+00  0.14999999963E+04  0.15000000000E+04  0.10566000000E+00 0.  1.
        994   -1    0    0    0    0 -0.00000000000E+00 -0.00000000000E+00  0.11368683772E-12  0.17120000000E+03  0.17120000000E+03 0.  0.
         13    1    1    2    0    0  0.13854273325E+02 -0.57312867014E+01  0.72131785465E+02  0.73673564967E+02  0.10566000000E+00 0.  1.
        994    1    1    2    0    0 -0.13678386989E+02  0.18772847064E+01  0.21513605505E+01  0.17176929534E+03  0.17120000000E+03 0.  0.
        998    1    1    2    0    0 -0.17588633591E+00  0.38540019950E+01  0.14257168503E+04  0.14257571397E+04  0.10000000000E+02 0.  1.
</event>
<event>
 5    1  0.1640179E-008  0.3838193E+03  0.7957747E-01  0.3434695E+00
         13   -1    0    0    0    0  0.00000000000E+00  0.00000000000E+00  0.14999999963E+04  0.15000000000E+04  0.10566000000E+00 0.  1.
        994   -1    0    0    0    0 -0.00000000000E+00 -0.00000000000E+00  0.11368683772E-12  0.17120000000E+03  0.17120000000E+03 0.  0.
         13    1    1    2    0    0  0.46424864234E+01  0.13707713068E+02  0.49503215247E+02  0.51575513197E+02  0.10566000000E+00 0.  1.
        994    1    1    2    0    0  0.17158378199E+01  0.19479445256E+01  0.22397162648E+01  0.17123432751E+03  0.17120000000E+03 0.  0.
        998    1    1    2    0    0 -0.63583242433E+01 -0.15655657594E+02  0.14482570648E+04  0.14483901593E+04  0.10000000000E+02 0.  1.
</event>
<event>
 5    1  0.1640179E-008  0.3851876E+03  0.7957747E-01  0.3428877E+00
         13   -1    0    0    0    0  0.00000000000E+00  0.00000000000E+00  0.14999999963E+04  0.15000000000E+04  0.10566000000E+00 0. -1.
        994   -1    0    0    0    0 -0.00000000000E+00 -0.00000000000E+00  0.11368683772E-12  0.17120000000E+03  0.17120000000E+03 0.  0.
         13    1    1    2    0    0  0.84734832871E+01  0.56345835777E+01  0.34762817827E+02  0.36221721638E+02  0.10566000000E+00 0. -1.
        994    1    1    2    0    0 -0.58307048421E+01  0.90592105077E+01  0.19185977175E+01  0.17154937316E+03  0.17120000000E+03 0.  0.
        998    1    1    2    0    0 -0.26427784450E+01 -0.14693794085E+02  0.14633185807E+04  0.14634289052E+04  0.10000000000E+02 0. -1.
</event>
<event>
 5    1  0.1640179E-008  0.3699346E+03  0.7957747E-01  0.3496192E+00
         13   -1    0    0    0    0  0.00000000000E+00  0.00000000000E+00  0.14999999963E+04  0.15000000000E+04  0.10566000000E+00 0.  1.
        994   -1    0    0    0    0 -0.00000000000E+00 -0.00000000000E+00  0.11368683772E-12  0.17120000000E+03  0.17120000000E+03 0.  0.
         13    1    1    2    0    0 -0.41752929144E+02  0.89460292726E+01  0.92795298562E+02  0.10214850528E+03  0.10566000000E+00 0.  1.
        994    1    1    2    0    0  0.29036736890E+02 -0.19773352219E+02  0.13583374661E+02  0.17529422584E+03  0.17120000000E+03 0.  0.
        998    1    1    2    0    0  0.12716192254E+02  0.10827322946E+02  0.13936213231E+04  0.13937572689E+04  0.10000000000E+02 0.  1.
</event>
<event>
 5    1  0.1640179E-008  0.3725782E+03  0.7957747E-01  0.3484125E+00
         13   -1    0    0    0    0  0.00000000000E+00  0.00000000000E+00  0.14999999963E+04  0.15000000000E+04  0.10566000000E+00 0.  1.
        994   -1    0    0    0    0 -0.00000000000E+00 -0.00000000000E+00  0.11368683772E-12  0.17120000000E+03  0.17120000000E+03 0.  0.
         13    1    1    2    0    0 -0.19385557248E+02  0.25365540001E+02  0.61765764673E+02  0.69528636539E+02  0.10566000000E+00 0.  1.
        994    1    1    2    0    0  0.66805025159E+01 -0.17977002937E+02  0.91891766065E+01  0.17251574628E+03  0.17120000000E+03 0.  0.
        998    1    1    2    0    0  0.12705054732E+02 -0.73885370646E+01  0.14290450550E+04  0.14291556172E+04  0.10000000000E+02 0.  1.
</event>
<event>
 5    1  0.1640179E-008  0.3721021E+03  0.7957747E-01  0.3486285E+00
         13   -1    0    0    0    0  0.00000000000E+00  0.00000000000E+00  0.14999999963E+04  0.15000000000E+04  0.10566000000E+00 0.  1.
        994   -1    0    0    0    0 -0.00000000000E+00 -0.00000000000E+00  0.11368683772E-12  0.17120000000E+03  0.17120000000E+03 0.  0.
         13    1    1    2    0    0  0.36242951007E+02  0.25995847670E+02  0.12857956558E+03  0.13609574366E+03  0.10566000000E+00 0.  1.
        994    1    1    2    0    0 -0.85828257222E+01 -0.40001440571E+01  0.84822906501E+01  0.17167135843E+03  0.17120000000E+03 0.  0.
        998    1    1    2    0    0 -0.27660125284E+02 -0.21995703613E+02  0.13629381400E+04  0.13634328979E+04  0.10000000000E+02 0.  1.
</event>
<event>
 5    1  0.1640179E-008  0.3841349E+03  0.7957747E-01  0.3433349E+00
         13   -1    0    0    0    0  0.00000000000E+00  0.00000000000E+00  0.14999999963E+04  0.15000000000E+04  0.10566000000E+00 0. -1.
        994   -1    0    0    0    0 -0.00000000000E+00 -0.00000000000E+00  0.11368683772E-12  0.17120000000E+03  0.17120000000E+03 0.  0.
         13    1    1    2    0    0 -0.11246450473E+02 -0.10343859248E+02  0.53358582800E+02  0.55503401651E+02  0.10566000000E+00 0. -1.
        994    1    1    2    0    0  0.15132117445E+02  0.13678310168E+02  0.34336262229E+01  0.17244508383E+03  0.17120000000E+03 0.  0.
        998    1    1    2    0    0 -0.38856669712E+01 -0.33344509198E+01  0.14432077873E+04  0.14432515145E+04  0.10000000000E+02 0. -1.
</event>
<event>
 5    1  0.1640179E-008  0.3834876E+03  0.7957747E-01  0.3436112E+00
         13   -1    0    0    0    0  0.00000000000E+00  0.00000000000E+00  0.14999999963E+04  0.15000000000E+04  0.10566000000E+00 0. -1.
        994   -1    0    0    0    0 -0.00000000000E+00 -0.00000000000E+00  0.11368683772E-12  0.17120000000E+03  0.17120000000E+03 0.  0.
         13    1    1    2    0    0  0.76723327986E+01  0.21774959210E+02  0.11629050356E+03  0.11856013630E+03  0.10566000000E+00 0. -1.
        994    1    1    2    0    0 -0.86280092334E+01 -0.55186764639E+01  0.27296496050E+01  0.17152780917E+03  0.17120000000E+03 0.  0.
        998    1    1    2    0    0  0.95567643471E+00 -0.16256282746E+02  0.13809798431E+04  0.13811120545E+04  0.10000000000E+02 0. -1.
</event>
<event>
 5    1  0.1640179E-008  0.3726124E+03  0.7957747E-01  0.3483970E+00
         13   -1    0    0    0    0  0.00000000000E+00  0.00000000000E+00  0.14999999963E+04  0.15000000000E+04  0.10566000000E+00 0.  1.
        994   -1    0    0    0    0 -0.00000000000E+00 -0.00000000000E+00  0.11368683772E-12  0.17120000000E+03  0.17120000000E+03 0.  0.
         13    1    1    2    0    0  0.45996678898E+02  0.10540664476E+03  0.53563952409E+03  0.54784666300E+03  0.10566000000E+00 0.  1.
        994    1    1    2    0    0 -0.16340497547E+02 -0.65845365043E+02  0.28748828280E+02  0.18638282937E+03  0.17120000000E+03 0.  0.
        998    1    1    2    0    0 -0.29656181351E+02 -0.39561279717E+02  0.93561164391E+03  0.93697050763E+03  0.10000000000E+02 0.  1.
</event>
<event>
 5    1  0.1640179E-008  0.3850444E+03  0.7957747E-01  0.3429484E+00
         13   -1    0    0    0    0  0.00000000000E+00  0.00000000000E+00  0.14999999963E+04  0.15000000000E+04  0.10566000000E+00 0.  1.
        994   -1    0    0    0    0 -0.00000000000E+00 -0.00000000000E+00  0.11368683772E-12  0.17120000000E+03  0.17120000000E+03 0.  0.
         13    1    1    2    0    0  0.11997694052E+02 -0.70626777395E+00  0.46441947133E+02  0.47971961543E+02  0.10566000000E+00 0.  1.
        994    1    1    2    0    0 -0.18732661033E+01 -0.35653564203E+01  0.16614573969E+01  0.17125542716E+03  0.17120000000E+03 0.  0.
        998    1    1    2    0    0 -0.10124427949E+02  0.42716241942E+01  0.14518965917E+04  0.14519726113E+04  0.10000000000E+02 0.  1.
</event>
<event>
 5    1  0.1640179E-008  0.3777394E+03  0.7957747E-01  0.3461061E+00
         13   -1    0    0    0    0  0.00000000000E+00  0.00000000000E+00  0.14999999963E+04  0.15000000000E+04  0.10566000000E+00 0.  1.
        994   -1    0    0    0    0 -0.00000000000E+00 -0.00000000000E+00  0.11368683772E-12  0.17120000000E+03  0.17120000000E+03 0.  0.
         13    1    1    2    0    0  0.36263443699E+01  0.17138795623E+02  0.27500556613E+02  0.32606448242E+02  0.10566000000E+00 0.  1.
        994    1    1    2    0    0 -0.37839688551E+01 -0.32343484503E+01  0.53621328376E+01  0.17135627184E+03  0.17120000000E+03 0.  0.
        998    1    1    2    0    0  0.15762448528E+00 -0.13904447172E+02  0.14671373068E+04  0.14672372799E+04  0.10000000000E+02 0.  1.
</event>
<event>
 5    1  0.1640179E-008  0.3732945E+03  0.7957747E-01  0.3480886E+00
         13   -1    0    0    0    0  0.00000000000E+00  0.00000000000E+00  0.14999999963E+04  0.15000000000E+04  0.10566000000E+00 0. -1.
        994   -1    0    0    0    0 -0.00000000000E+00 -0.00000000000E+00  0.11368683772E-12  0.17120000000E+03  0.17120000000E+03 0.  0.
         13    1    1    2    0    0  0.23701149823E+02  0.18734132474E+02  0.58745056301E+02  0.66058345622E+02  0.10566000000E+00 0. -1.
        994    1    1    2    0    0 -0.42769580487E+01 -0.15684345303E+02  0.84612588434E+01  0.17217817504E+03  0.17120000000E+03 0.  0.
        998    1    1    2    0    0 -0.19424191774E+02 -0.30497871711E+01  0.14327936811E+04  0.14329634793E+04  0.10000000000E+02 0. -1.
</event>
<event>
 5    1  0.1640179E-008  0.3824969E+03  0.7957747E-01  0.3440358E+00
         13   -1    0    0    0    0  0.00000000000E+00  0.00000000000E+00  0.14999999963E+04  0.15000000000E+04  0.10566000000E+00 0.  1.
        994   -1    0    0    0    0 -0.00000000000E+00 -0.00000000000E+00  0.11368683772E-12  0.17120000000E+03  0.17120000000E+03 0.  0.
         13    1    1    2    0    0  0.29275435610E+00 -0.20550614560E+02  0.70039581012E+02  0.72992927988E+02  0.10566000000E+00 0.  1.
        994    1    1    2    0    0 -0.36084529858E+00  0.19905281496E+02  0.41932393636E+01  0.17240468003E+03  0.17120000000E+03 0.  0.
        998    1    1    2    0    0  0.68090942481E-01  0.64533306415E+00  0.14257671759E+04  0.14258023920E+04  0.10000000000E+02 0.  0.
</event>
<event>
 5    1  0.1640179E-008  0.3805108E+03  0.7957747E-01  0.3448938E+00
         13   -1    0    0    0    0  0.00000000000E+00  0.00000000000E+00  0.14999999963E+04  0.15000000000E+04  0.10566000000E+00 0.  1.
        994   -1    0    0    0    0 -0.00000000000E+00 -0.00000000000E+00  0.11368683772E-12  0.17120000000E+03  0.17120000000E+03 0.  0.
         13    1    1    2    0    0 -0.65299547100E+01 -0.98831403453E+02  0.41853672109E+03  0.43009683175E+03  0.10566000000E+00 0.  1.
        994    1    1    2    0    0  0.40565861273E+02  0.16565012675E+03  0.10796923094E+03  0.26467404184E+03  0.17120000000E+03 0.  0.
        998    1    1    2    0    0 -0.34035906563E+02 -0.66818723298E+02  0.97349404424E+03  0.97642912641E+03  0.10000000000E+02 0.  1.
</event>
<event>
 5    1  0.1640179E-008  0.3728165E+03  0.7957747E-01  0.3483046E+00
         13   -1    0    0    0    0  0.00000000000E+00  0.00000000000E+00  0.14999999963E+04  0.15000000000E+04  0.10566000000E+00 0. -1.
        994   -1    0    0    0    0 -0.00000000000E+00 -0.00000000000E+00  0.11368683772E-12  0.17120000000E+03  0.17120000000E+03 0.  0.
         13    1    1    2    0    0 -0.31317022181E+01  0.11240847805E+02  0.50691663853E+01  0.12722886073E+02  0.10566000000E+00 0. -1.
        994    1    1    2    0    0  0.44220217108E+01 -0.12531001038E+02  0.84091934166E+01  0.17192072242E+03  0.17120000000E+03 0.  0.
        998    1    1    2    0    0 -0.12903194927E+01  0.12901532326E+01  0.14865216365E+04  0.14865563915E+04  0.10000000000E+02 0. -1.
</event>
<event>
 5    1  0.1640179E-008  0.3786438E+03  0.7957747E-01  0.3457085E+00
         13   -1    0    0    0    0  0.00000000000E+00  0.00000000000E+00  0.14999999963E+04  0.15000000000E+04  0.10566000000E+00 0. -1.
        994   -1    0    0    0    0 -0.00000000000E+00 -0.00000000000E+00  0.11368683772E-12  0.17120000000E+03  0.17120000000E+03 0.  0.
         13    1    1    2    0    0 -0.77523966094E+01  0.17441838764E+02  0.35618709850E+02  0.40410655131E+02  0.10566000000E+00 0. -1.
        994    1    1    2    0    0 -0.15143281440E+01 -0.17330936340E+02  0.58362551980E+01  0.17218059246E+03  0.17120000000E+03 0.  0.
        998    1    1    2    0    0  0.92667247534E+01 -0.11090242339E+00  0.14585450312E+04  0.14586087524E+04  0.10000000000E+02 0. -1.
</event>
<event>
 5    1  0.1640179E-008  0.3859941E+03  0.7957747E-01  0.3425467E+00
         13   -1    0    0    0    0  0.00000000000E+00  0.00000000000E+00  0.14999999963E+04  0.15000000000E+04  0.10566000000E+00 0. -1.
        994   -1    0    0    0    0 -0.00000000000E+00 -0.00000000000E+00  0.11368683772E-12  0.17120000000E+03  0.17120000000E+03 0.  0.
         13    1    1    2    0    0 -0.70510620244E+01  0.91837782735E+01  0.63909806908E+02  0.64950241278E+02  0.10566000000E+00 0. -1.
        994    1    1    2    0    0  0.35182280039E+01  0.44529257225E+01  0.12429690203E+01  0.17129854479E+03  0.17120000000E+03 0.  0.
        998    1    1    2    0    0  0.35328340205E+01 -0.13636703996E+02  0.14348472204E+04  0.14349512139E+04  0.10000000000E+02 0. -1.
</event>
<event>
 5    1  0.1640179E-008  0.3715417E+03  0.7957747E-01  0.3488835E+00
         13   -1    0    0    0    0  0.00000000000E+00  0.00000000000E+00  0.14999999963E+04  0.15000000000E+04  0.10566000000E+00 0.  1.
        994   -1    0    0    0    0 -0.00000000000E+00 -0.00000000000E+00  0.11368683772E-12  0.17120000000E+03  0.17120000000E+03 0.  0.
         13    1    1    2    0    0  0.32240870454E+01  0.10083740692E+02  0.29863933066E+01  0.11000285116E+02  0.10566000000E+00 0.  1.
        994    1    1    2    0    0 -0.60854970345E+01  0.29326643162E+02  0.11557065745E+02  0.17418407230E+03  0.17120000000E+03 0.  0.
        998    1    1    2    0    0  0.28614099891E+01 -0.39410383854E+02  0.14854565372E+04  0.14860156426E+04  0.10000000000E+02 0.  1.
</event>
<event>
 5    1  0.1640179E-008  0.3778697E+03  0.7957747E-01  0.3460487E+00
         13   -1    0    0    0    0  0.00000000000E+00  0.00000000000E+00  0.14999999963E+04  0.15000000000E+04  0.10566000000E+00 0. -1.
        994   -1    0    0    0    0 -0.00000000000E+00 -0.00000000000E+00  0.11368683772E-12  0.17120000000E+03  0.17120000000E+03 0.  0.
         13    1    1    2    0    0 -0.10514693745E+02 -0.13420504006E+02  0.26686460172E+02  0.31667760149E+02  0.10566000000E+00 0. -1.
        994    1    1    2    0    0  0.81838415117E+01 -0.85194342148E+01  0.56823449509E+01  0.17170115045E+03  0.17120000000E+03 0.  0.
        998    1    1    2    0    0  0.23308522335E+01  0.21939938221E+02  0.14676311912E+04  0.14678310894E+04  0.10000000000E+02 0. -1.
</event>
<event>
 5    1  0.1640179E-008  0.3814340E+03  0.7957747E-01  0.3444938E+00
         13   -1    0    0    0    0  0.00000000000E+00  0.00000000000E+00  0.14999999963E+04  0.15000000000E+04  0.10566000000E+00 0. -1.
        994   -1    0    0    0    0 -0.00000000000E+00 -0.00000000000E+00  0.11368683772E-12  0.17120000000E+03  0.17120000000E+03 0.  0.
         13    1    1    2    0    0  0.32607254448E+02 -0.56653605570E+01  0.16180413618E+03  0.16515422793E+03  0.10566000000E+00 0. -1.
        994    1    1    2    0    0 -0.17434440168E+02  0.12374202618E+01  0.44280739898E+01  0.17214685229E+03  0.17120000000E+03 0.  0.
        998    1    1    2    0    0 -0.15172814280E+02  0.44279402952E+01  0.13337677861E+04  0.13338989198E+04  0.10000000000E+02 0. -1.
</event>
<event>
 5    1  0.1640179E-008  0.3784342E+03  0.7957747E-01  0.3458005E+00
         13   -1    0    0    0    0  0.00000000000E+00  0.00000000000E+00  0.14999999963E+04  0.15000000000E+04  0.10566000000E+00 0.  1.
        994   -1    0    0    0    0 -0.00000000000E+00 -0.00000000000E+00  0.11368683772E-12  0.17120000000E+03  0.17120000000E+03 0.  0.
         13    1    1    2    0    0  0.10965795017E+02  0.34880367370E+02  0.13866019912E+03  0.14339996748E+03  0.10566000000E+00 0.  1.
        994    1    1    2    0    0 -0.30398032800E+02 -0.75083209098E+01  0.82271871767E+01  0.17423415822E+03  0.17120000000E+03 0.  0.
        998    1    1    2    0    0  0.19432237783E+02 -0.27372046460E+02  0.13531126100E+04  0.13535658743E+04  0.10000000000E+02 0.  1.
</event>
<event>
 5    1  0.1640179E-008  0.3688829E+03  0.7957747E-01  0.3501041E+00
         13   -1    0    0    0    0  0.00000000000E+00  0.00000000000E+00  0.14999999963E+04  0.15000000000E+04  0.10566000000E+00 0. -1.
        994   -1    0    0    0    0 -0.00000000000E+00 -0.00000000000E+00  0.11368683772E-12  0.17120000000E+03  0.17120000000E+03 0.  0.
         13    1    1    2    0    0 -0.46668530460E+02 -0.15675022702E+02  0.11088112706E+03  0.12131897451E+03  0.10566000000E+00 0. -1.
        994    1    1    2    0    0  0.49943378114E+02  0.92149527084E+01  0.18860804248E+02  0.17956733085E+03  0.17120000000E+03 0.  0.
        998    1    1    2    0    0 -0.32748476538E+01  0.64600699937E+01  0.13702580650E+04  0.13703136946E+04  0.10000000000E+02 0. -1.
</event>
<event>
 5    1  0.1640179E-008  0.3805567E+03  0.7957747E-01  0.3448738E+00
         13   -1    0    0    0    0  0.00000000000E+00  0.00000000000E+00  0.14999999963E+04  0.15000000000E+04  0.10566000000E+00 0.  1.
        994   -1    0    0    0    0 -0.00000000000E+00 -0.00000000000E+00  0.11368683772E-12  0.17120000000E+03  0.17120000000E+03 0.  0.
         13    1    1    2    0    0 -0.79717599761E+01  0.24382109824E+02  0.89259286664E+02  0.92872319107E+02  0.10566000000E+00 0.  1.
        994    1    1    2    0    0 -0.71344910965E+01 -0.66426044742E+01  0.41695270593E+01  0.17152798639E+03  0.17120000000E+03 0.  0.
        998    1    1    2    0    0  0.15106251073E+02 -0.17739505350E+02  0.14065711826E+04  0.14067996945E+04  0.10000000000E+02 0.  1.
</event>
<event>
 5    1  0.1640179E-008  0.3793773E+03  0.7957747E-01  0.3453875E+00
         13   -1    0    0    0    0  0.00000000000E+00  0.00000000000E+00  0.14999999963E+04  0.15000000000E+04  0.10566000000E+00 0. -1.
        994   -1    0    0    0    0 -0.00000000000E+00 -0.00000000000E+00  0.11368683772E-12  0.17120000000E+03  0.17120000000E+03 0.  0.
         13    1    1    2    0    0 -0.12861962353E+02  0.31368675653E+02  0.13493563806E+03  0.13912965705E+03  0.10566000000E+00 0. -1.
        994    1    1    2    0    0  0.48702534681E+01 -0.95370039836E+01  0.48320586349E+01  0.17160262995E+03  0.17120000000E+03 0.  0.
        998    1    1    2    0    0  0.79917088848E+01 -0.21831671669E+02  0.13602322996E+04  0.13604677130E+04  0.10000000000E+02 0. -1.
</event>
<event>
 5    1  0.1640179E-008  0.3817498E+03  0.7957747E-01  0.3443575E+00
         13   -1    0    0    0    0  0.00000000000E+00  0.00000000000E+00  0.14999999963E+04  0.15000000000E+04  0.10566000000E+00 0. -1.
        994   -1    0    0    0    0 -0.00000000000E+00 -0.00000000000E+00  0.11368683772E-12  0.17120000000E+03  0.17120000000E+03 0.  0.
         13    1    1    2    0    0 -0.19045068666E+02  0.62771577771E+01  0.62649700295E+02  0.65780798577E+02  0.10566000000E+00 0. -1.
        994    1    1    2    0    0  0.52810638445E+01 -0.33746279080E+01  0.33830283618E+01  0.17134807449E+03  0.17120000000E+03 0.  0.
        998    1    1    2    0    0  0.13764004821E+02 -0.29025298690E+01  0.14339672676E+04  0.14340711269E+04  0.10000000000E+02 0. -1.
</event>
<event>
 5    1  0.1640179E-008  0.3686810E+03  0.7957747E-01  0.3501975E+00
         13   -1    0    0    0    0  0.00000000000E+00  0.00000000000E+00  0.14999999963E+04  0.15000000000E+04  0.10566000000E+00 0.  1.
        994   -1    0    0    0    0 -0.00000000000E+00 -0.00000000000E+00  0.11368683772E-12  0.17120000000E+03  0.17120000000E+03 0.  0.
         13    1    1    2    0    0  0.39296198129E+01  0.44789091801E+02  0.10262253108E+03  0.11203972378E+03  0.10566000000E+00 0.  1.
        994    1    1    2    0    0 -0.46250165699E+01 -0.15466103767E+02  0.10865794913E+02  0.17230234079E+03  0.17120000000E+03 0.  0.
        998    1    1    2    0    0  0.69539675694E+00 -0.29322988033E+02  0.13865116703E+04  0.13868579354E+04  0.10000000000E+02 0.  1.
</event>
<event>
 5    1  0.1640179E-008  0.3814504E+03  0.7957747E-01  0.3444867E+00
         13   -1    0    0    0    0  0.00000000000E+00  0.00000000000E+00  0.14999999963E+04  0.15000000000E+04  0.10566000000E+00 0. -1.
        994   -1    0    0    0    0 -0.00000000000E+00 -0.00000000000E+00  0.11368683772E-12  0.17120000000E+03  0.17120000000E+03 0.  0.
         13    1    1    2    0    0  0.28329086673E+02 -0.63311638611E+01  0.13595861014E+03  0.13902293200E+03  0.10566000000E+00 0. -1.
        994    1    1    2    0    0 -0.35332986108E+01 -0.65245461714E+01  0.35859671628E+01  0.17139822946E+03  0.17120000000E+03 0.  0.
        998    1    1    2    0    0 -0.24795788062E+02  0.12855710033E+02  0.13604554190E+04  0.13607788385E+04  0.10000000000E+02 0. -1.
</event>
<event>
 5    1  0.1640179E-008  0.3849150E+03  0.7957747E-01  0.3430033E+00
         13   -1    0    0    0    0  0.00000000000E+00  0.00000000000E+00  0.14999999963E+04  0.15000000000E+04  0.10566000000E+00 0. -1.
        994   -1    0    0    0    0 -0.00000000000E+00 -0.00000000000E+00  0.11368683772E-12  0.17120000000E+03  0.17120000000E+03 0.  0.
         13    1    1    2    0    0  0.13990632700E+03  0.16752442333E+03  0.12689416825E+04  0.12875757133E+04  0.10566000000E+00 0. -1.
        994    1    1    2    0    0 -0.13599269856E+03 -0.17426593490E+03  0.18356356832E+03  0.33446622212E+03  0.17120000000E+03 0.  0.
        998    1    1    2    0    0 -0.39136284383E+01  0.67415115681E+01  0.47494745425E+02  0.49158064534E+02  0.10000000000E+02 0.  1.
</event>
<event>
 5    1  0.1640179E-008  0.3788692E+03  0.7957747E-01  0.3456097E+00
         13   -1    0    0    0    0  0.00000000000E+00  0.00000000000E+00  0.14999999963E+04  0.15000000000E+04  0.10566000000E+00 0.  1.
        994   -1    0    0    0    0 -0.00000000000E+00 -0.00000000000E+00  0.11368683772E-12  0.17120000000E+03  0.17120000000E+03 0.  0.
         13    1    1    2    0    0 -0.24593177579E+02 -0.17955213059E+02  0.88797752437E+02  0.93873670757E+02  0.10566000000E+00 0.  1.
        994    1    1    2    0    0  0.29149621859E+02  0.24000160175E+02  0.95038666703E+01  0.17557184178E+03  0.17120000000E+03 0.  0.
        998    1    1    2    0    0 -0.45564442807E+01 -0.60449471169E+01  0.14016983772E+04  0.14017544875E+04  0.10000000000E+02 0.  1.
</event>
<event>
 5    1  0.1640179E-008  0.3746526E+03  0.7957747E-01  0.3474778E+00
         13   -1    0    0    0    0  0.00000000000E+00  0.00000000000E+00  0.14999999963E+04  0.15000000000E+04  0.10566000000E+00 0.  1.
        994   -1    0    0    0    0 -0.00000000000E+00 -0.00000000000E+00  0.11368683772E-12  0.17120000000E+03  0.17120000000E+03 0.  0.
         13    1    1    2    0    0 -0.39020534753E+02  0.14708266809E+02  0.10752922555E+03  0.11533204566E+03  0.10566000000E+00 0.  1.
        994    1    1    2    0    0  0.55167069726E+02 -0.21406188814E+02  0.18868815028E+02  0.18211837547E+03  0.17120000000E+03 0.  0.
        998    1    1    2    0    0 -0.16146534973E+02  0.66979220052E+01  0.13736019557E+04  0.13737495789E+04  0.10000000000E+02 0.  1.
</event>
<event>
 5    1  0.1640179E-008  0.3860179E+03  0.7957747E-01  0.3425367E+00
         13   -1    0    0    0    0  0.00000000000E+00  0.00000000000E+00  0.14999999963E+04  0.15000000000E+04  0.10566000000E+00 0. -1.
        994   -1    0    0    0    0 -0.00000000000E+00 -0.00000000000E+00  0.11368683772E-12  0.17120000000E+03  0.17120000000E+03 0.  0.
         13    1    1    2    0    0  0.72878901408E+01 -0.85859266548E+01  0.62440848023E+02  0.63448421140E+02  0.10566000000E+00 0. -1.
        994    1    1    2    0    0  0.12059063440E+02  0.46667591604E+01  0.16738505077E+01  0.17169578162E+03  0.17120000000E+03 0.  0.
        998    1    1    2    0    0 -0.19346953581E+02  0.39191674944E+01  0.14358852977E+04  0.14360557972E+04  0.10000000000E+02 0. -1.
</event>
<event>
 5    1  0.1640179E-008  0.3846822E+03  0.7957747E-01  0.3431021E+00
         13   -1    0    0    0    0  0.00000000000E+00  0.00000000000E+00  0.14999999963E+04  0.15000000000E+04  0.10566000000E+00 0. -1.
        994   -1    0    0    0    0 -0.00000000000E+00 -0.00000000000E+00  0.11368683772E-12  0.17120000000E+03  0.17120000000E+03 0.  0.
         13    1    1    2    0    0  0.18512348244E+02 -0.30335736217E+00  0.96773553275E+02  0.98528832535E+02  0.10566000000E+00 0. -1.
        994    1    1    2    0    0 -0.10433912125E+02 -0.37506970451E+01  0.21927921276E+01  0.17157267436E+03  0.17120000000E+03 0.  0.
        998    1    1    2    0    0 -0.80784361188E+01  0.40540544073E+01  0.14010336509E+04  0.14010984931E+04  0.10000000000E+02 0. -1.
</event>
<event>
 5    1  0.1640179E-008  0.3783367E+03  0.7957747E-01  0.3458433E+00
         13   -1    0    0    0    0  0.00000000000E+00  0.00000000000E+00  0.14999999963E+04  0.15000000000E+04  0.10566000000E+00 0.  1.
        994   -1    0    0    0    0 -0.00000000000E+00 -0.00000000000E+00  0.11368683772E-12  0.17120000000E+03  0.17120000000E+03 0.  0.
         13    1    1    2    0    0  0.25751547083E+02 -0.79369321598E+01  0.75881368887E+02  0.80524098116E+02  0.10566000000E+00 0.  1.
        994    1    1    2    0    0 -0.36530171095E+00  0.43709632913E+01  0.50398048845E+01  0.17133031955E+03  0.17120000000E+03 0.  0.
        998    1    1    2    0    0 -0.25386245372E+02  0.35659688686E+01  0.14190788225E+04  0.14193455823E+04  0.10000000000E+02 0.  1.
</event>
<event>
 5    1  0.1640179E-008  0.3728813E+03  0.7957747E-01  0.3482753E+00
         13   -1    0    0    0    0  0.00000000000E+00  0.00000000000E+00  0.14999999963E+04  0.15000000000E+04  0.10566000000E+00 0. -1.
        994   -1    0    0    0    0 -0.00000000000E+00 -0.00000000000E+00  0.11368683772E-12  0.17120000000E+03  0.17120000000E+03 0.  0.
         13    1    1    2    0    0  0.69998188934E+02  0.20268249828E+02  0.27587739742E+03  0.28533996912E+03  0.10566000000E+00 0. -1.
        994    1    1    2    0    0  0.64925227865E+01 -0.32111359504E+01  0.12655847925E+02  0.17181989039E+03  0.17120000000E+03 0.  0.
        998    1    1    2    0    0 -0.76490711720E+02 -0.17057113877E+02  0.12114667509E+04  0.12140401405E+04  0.10000000000E+02 0. -1.
</event>
<event>
 5    1  0.1640179E-008  0.3857476E+03  0.7957747E-01  0.3426508E+00
         13   -1    0    0    0    0  0.00000000000E+00  0.00000000000E+00  0.14999999963E+04  0.15000000000E+04  0.10566000000E+00 0. -1.
        994   -1    0    0    0    0 -0.00000000000E+00 -0.00000000000E+00  0.11368683772E-12  0.17120000000E+03  0.17120000000E+03 0.  0.
         13    1    1    2    0    0  0.94343537627E+01 -0.53782367913E+01  0.49013645820E+02  0.50202401362E+02  0.10566000000E+00 0. -1.
        994    1    1    2    0    0 -0.29994287522E+01 -0.27636907771E+01  0.13140031660E+01  0.17125361650E+03  0.17120000000E+03 0.  0.
        998    1    1    2    0    0 -0.64349250105E+01  0.81419275684E+01  0.14496723473E+04  0.14497439821E+04  0.10000000000E+02 0. -1.
</event>
<event>
 5    1  0.1640179E-008  0.3825551E+03  0.7957747E-01  0.3440108E+00
         13   -1    0    0    0    0  0.00000000000E+00  0.00000000000E+00  0.14999999963E+04  0.15000000000E+04  0.10566000000E+00 0.  1.
        994   -1    0    0    0    0 -0.00000000000E+00 -0.00000000000E+00  0.11368683772E-12  0.17120000000E+03  0.17120000000E+03 0.  0.
         13    1    1    2    0    0  0.45301659724E+01  0.26520762150E+02  0.11951218960E+03  0.12250325651E+03  0.10566000000E+00 0.  1.
        994    1    1    2    0    0 -0.36115467621E+01 -0.24250912313E+02  0.48442016343E+01  0.17301461299E+03  0.17120000000E+03 0.  0.
        998    1    1    2    0    0 -0.91861921028E+00 -0.22698498366E+01  0.13756436050E+04  0.13756821305E+04  0.10000000000E+02 0.  1.
</event>
<event>
 5    1  0.1640179E-008  0.3806008E+03  0.7957747E-01  0.3448547E+00
         13   -1    0    0    0    0  0.00000000000E+00  0.00000000000E+00  0.14999999963E+04  0.15000000000E+04  0.10566000000E+00 0. -1.
        994   -1    0    0    0    0 -0.00000000000E+00 -0.00000000000E+00  0.11368683772E-12  0.17120000000E+03  0.17120000000E+03 0.  0.
         13    1    1    2    0    0 -0.66995277041E+01  0.10417218772E+02  0.18484262700E+02  0.22250421344E+02  0.10566000000E+00 0. -1.
        994    1    1    2    0    0  0.69390828348E+01 -0.46582055409E+01  0.40632737642E+01  0.17145203394E+03  0.17120000000E+03 0.  0.
        998    1    1    2    0    0 -0.23955513075E+00 -0.57590132315E+01  0.14774524598E+04  0.14774975447E+04  0.10000000000E+02 0. -1.
</event>
<event>
 5    1  0.1640179E-008  0.3848669E+03  0.7957747E-01  0.3430237E+00
         13   -1    0    0    0    0  0.00000000000E+00  0.00000000000E+00  0.14999999963E+04  0.15000000000E+04  0.10566000000E+00 0.  1.
        994   -1    0    0    0    0 -0.00000000000E+00 -0.00000000000E+00  0.11368683772E-12  0.17120000000E+03  0.17120000000E+03 0.  0.
         13    1    1    2    0    0  0.28385682449E+01 -0.12536241664E+02  0.49960873996E+02  0.51587933853E+02  0.10566000000E+00 0.  1.
        994    1    1    2    0    0 -0.14701767494E+01  0.32362090880E+01  0.17377971972E+01  0.17124571355E+03  0.17120000000E+03 0.  0.
        998    1    1    2    0    0 -0.13683914956E+01  0.93000325760E+01  0.14483013251E+04  0.14483663526E+04  0.10000000000E+02 0.  1.
</event>
<event>
 5    1  0.1640179E-008  0.3840146E+03  0.7957747E-01  0.3433862E+00
         13   -1    0    0    0    0  0.00000000000E+00  0.00000000000E+00  0.14999999963E+04  0.15000000000E+04  0.10566000000E+00 0.  1.
        994   -1    0    0    0    0 -0.00000000000E+00 -0.00000000000E+00  0.11368683772E-12  0.17120000000E+03  0.17120000000E+03 0.  0.
         13    1    1    2    0    0 -0.11649978439E+02 -0.89358835039E+01  0.49488451041E+02  0.51620635042E+02  0.10566000000E+00 0.  1.
        994    1    1    2    0    0  0.12947360326E+02  0.50768546489E+01  0.27585226966E+01  0.17178608221E+03  0.17120000000E+03 0.  0.
        998    1    1    2    0    0 -0.12973818874E+01  0.38590288550E+01  0.14477530225E+04  0.14477932828E+04  0.10000000000E+02 0.  1.
</event>
<event>
 5    1  0.1640179E-008  0.3797545E+03  0.7957747E-01  0.3452228E+00
         13   -1    0    0    0    0  0.00000000000E+00  0.00000000000E+00  0.14999999963E+04  0.15000000000E+04  0.10566000000E+00 0. -1.
        994   -1    0    0    0    0 -0.00000000000E+00 -0.00000000000E+00  0.11368683772E-12  0.17120000000E+03  0.17120000000E+03 0.  0.
         13    1    1    2    0    0  0.12905973783E+01  0.52828275592E+02  0.27615644530E+03  0.28116700694E+03  0.10566000000E+00 0. -1.
        994    1    1    2    0    0 -0.33211730319E+01 -0.49657043851E+02  0.12588680724E+02  0.17873099081E+03  0.17120000000E+03 0.  0.
        998    1    1    2    0    0  0.20305756536E+01 -0.31712317419E+01  0.12112548703E+04  0.12113020022E+04  0.10000000000E+02 0. -1.
</event>
<event>
 5    1  0.1640179E-008  0.3854992E+03  0.7957747E-01  0.3427558E+00
         13   -1    0    0    0    0  0.00000000000E+00  0.00000000000E+00  0.14999999963E+04  0.15000000000E+04  0.10566000000E+00 0.  1.
        994   -1    0    0    0    0 -0.00000000000E+00 -0.00000000000E+00  0.11368683772E-12  0.17120000000E+03  0.17120000000E+03 0.  0.
         13    1    1    2    0    0 -0.44718690393E+01 -0.14355019394E+02  0.84139419546E+02  0.85472318795E+02  0.10566000000E+00 0.  1.
        994    1    1    2    0    0  0.38304935147E+01  0.59122646222E+01  0.15454403352E+01  0.17135184837E+03  0.17120000000E+03 0.  0.
        998    1    1    2    0    0  0.64137552456E+00  0.84427547713E+01  0.14143151364E+04  0.14143758328E+04  0.10000000000E+02 0.  1.
</event>
<event>
 5    1  0.1761781E-008  0.3860639E+03  0.7957747E-01  0.3425173E+00
         13   -1    0    0    0    0  0.00000000000E+00  0.00000000000E+00  0.14999999963E+04  0.15000000000E+04  0.10566000000E+00 0.  1.
        994   -1    0    0    0    0 -0.00000000000E+00 -0.00000000000E+00  0.11368683772E-12  0.17120000000E+03  0.17120000000E+03 0.  0.
         13    1    1    2    0    0  0.83651701408E+01  0.75709944764E+01  0.61521058203E+02  0.62547164566E+02  0.10566000000E+00 0.  1.
        994    1    1    2    0    0  0.12973639555E+01 -0.25646084566E+01  0.11299352165E+01  0.17122785148E+03  0.17120000000E+03 0.  0.
        998    1    1    2    0    0 -0.96625340963E+01 -0.50063860198E+01  0.14373490029E+04  0.14374249840E+04  0.10000000000E+02 0.  1.
</event>
<event>
 5    1  0.1640179E-008  0.3843950E+03  0.7957747E-01  0.3432242E+00
         13   -1    0    0    0    0  0.00000000000E+00  0.00000000000E+00  0.14999999963E+04  0.15000000000E+04  0.10566000000E+00 0.  1.
        994   -1    0    0    0    0 -0.00000000000E+00 -0.00000000000E+00  0.11368683772E-12  0.17120000000E+03  0.17120000000E+03 0.  0.
         13    1    1    2    0    0 -0.16470426219E+02  0.10995817562E+02  0.90732541794E+02  0.92868661281E+02  0.10566000000E+00 0.  1.
        994    1    1    2    0    0  0.19699914567E+02 -0.22527122009E+02  0.48873267165E+01  0.17386455597E+03  0.17120000000E+03 0.  0.
        998    1    1    2    0    0 -0.32294883480E+01  0.11531304447E+02  0.14043801278E+04  0.14044667828E+04  0.10000000000E+02 0.  1.
</event>
<event>
 5    1  0.1640179E-008  0.3855370E+03  0.7957747E-01  0.3427398E+00
         13   -1    0    0    0    0  0.00000000000E+00  0.00000000000E+00  0.14999999963E+04  0.15000000000E+04  0.10566000000E+00 0. -1.
        994   -1    0    0    0    0 -0.00000000000E+00 -0.00000000000E+00  0.11368683772E-12  0.17120000000E+03  0.17120000000E+03 0.  0.
         13    1    1    2    0    0  0.55106805558E+01 -0.14178410196E+02  0.84846868884E+02  0.86199751968E+02  0.10566000000E+00 0. -1.
        994    1    1    2    0    0 -0.58341686356E+01  0.90767473909E+01  0.17460735226E+01  0.17154857516E+03  0.17120000000E+03 0.  0.
        998    1    1    2    0    0  0.32348807976E+00  0.51016628053E+01  0.14134070539E+04  0.14134516729E+04  0.10000000000E+02 0. -1.
</event>
<event>
 5    1  0.1640179E-008  0.3720049E+03  0.7957747E-01  0.3486727E+00
         13   -1    0    0    0    0  0.00000000000E+00  0.00000000000E+00  0.14999999963E+04  0.15000000000E+04  0.10566000000E+00 0. -1.
        994   -1    0    0    0    0 -0.00000000000E+00 -0.00000000000E+00  0.11368683772E-12  0.17120000000E+03  0.17120000000E+03 0.  0.
         13    1    1    2    0    0  0.13532824366E+02 -0.51856675243E+02  0.15553529475E+03  0.16450985131E+03  0.10566000000E+00 0. -1.
        994    1    1    2    0    0 -0.17831342274E+02  0.49874128469E+02  0.17920586853E+02  0.18009989698E+03  0.17120000000E+03 0.  0.
        998    1    1    2    0    0  0.42985179077E+01  0.19825467741E+01  0.13265441147E+04  0.13265902517E+04  0.10000000000E+02 0. -1.
</event>
<event>
 5    1  0.1640179E-008  0.3855030E+03  0.7957747E-01  0.3427542E+00
         13   -1    0    0    0    0  0.00000000000E+00  0.00000000000E+00  0.14999999963E+04  0.15000000000E+04  0.10566000000E+00 0.  1.
        994   -1    0    0    0    0 -0.00000000000E+00 -0.00000000000E+00  0.11368683772E-12  0.17120000000E+03  0.17120000000E+03 0.  0.
         13    1    1    2    0    0 -0.25382545677E+01 -0.11557586105E+02  0.50790772819E+02  0.52151071901E+02  0.10566000000E+00 0.  1.
        994    1    1    2    0    0  0.13177839213E+01  0.83289694640E+01  0.16140996911E+01  0.17141514987E+03  0.17120000000E+03 0.  0.
        998    1    1    2    0    0  0.12204706464E+01  0.32286166414E+01  0.14475951238E+04  0.14476337782E+04  0.10000000000E+02 0.  1.
</event>
<event>
 5    1  0.1640179E-008  0.3854602E+03  0.7957747E-01  0.3427723E+00
         13   -1    0    0    0    0  0.00000000000E+00  0.00000000000E+00  0.14999999963E+04  0.15000000000E+04  0.10566000000E+00 0. -1.
        994   -1    0    0    0    0 -0.00000000000E+00 -0.00000000000E+00  0.11368683772E-12  0.17120000000E+03  0.17120000000E+03 0.  0.
         13    1    1    2    0    0  0.12624846010E+02 -0.66571103518E+01  0.85243300698E+02  0.86429944654E+02  0.10566000000E+00 0. -1.
        994    1    1    2    0    0  0.11737147842E+02  0.11246186724E+01  0.18584838932E+01  0.17161561517E+03  0.17120000000E+03 0.  0.
        998    1    1    2    0    0 -0.24361993852E+02  0.55324916794E+01  0.14128982117E+04  0.14131544402E+04  0.10000000000E+02 0. -1.
</event>
<event>
 5    1  0.1640179E-008  0.3772104E+03  0.7957747E-01  0.3463396E+00
         13   -1    0    0    0    0  0.00000000000E+00  0.00000000000E+00  0.14999999963E+04  0.15000000000E+04  0.10566000000E+00 0. -1.
        994   -1    0    0    0    0 -0.00000000000E+00 -0.00000000000E+00  0.11368683772E-12  0.17120000000E+03  0.17120000000E+03 0.  0.
         13    1    1    2    0    0  0.31049339752E+00  0.27908245493E+02  0.81620569182E+02  0.86260622826E+02  0.10566000000E+00 0. -1.
        994    1    1    2    0    0 -0.74167604807E+01  0.25405743507E+02  0.79149867477E+01  0.17341437990E+03  0.17120000000E+03 0.  0.
        998    1    1    2    0    0  0.71062670832E+01 -0.53313989000E+02  0.14104644403E+04  0.14115249973E+04  0.10000000000E+02 0. -1.
</event>
<event>
 5    1  0.1640179E-008  0.3749821E+03  0.7957747E-01  0.3473303E+00
         13   -1    0    0    0    0  0.00000000000E+00  0.00000000000E+00  0.14999999963E+04  0.15000000000E+04  0.10566000000E+00 0.  1.
        994   -1    0    0    0    0 -0.00000000000E+00 -0.00000000000E+00  0.11368683772E-12  0.17120000000E+03  0.17120000000E+03 0.  0.
         13    1    1    2    0    0  0.39599265602E+01  0.16033104186E+02  0.17074651550E+02  0.23754922390E+02  0.10566000000E+00 0.  1.
        994    1    1    2    0    0 -0.84245003037E+01 -0.20419303043E+02  0.83483313975E+01  0.17282087484E+03  0.17120000000E+03 0.  0.
        998    1    1    2    0    0  0.44645737435E+01  0.43861988569E+01  0.14745770133E+04  0.14746242028E+04  0.10000000000E+02 0.  1.
</event>
<event>
 5    1  0.1640179E-008  0.3852211E+03  0.7957747E-01  0.3428735E+00
         13   -1    0    0    0    0  0.00000000000E+00  0.00000000000E+00  0.14999999963E+04  0.15000000000E+04  0.10566000000E+00 0.  1.
        994   -1    0    0    0    0 -0.00000000000E+00 -0.00000000000E+00  0.11368683772E-12  0.17120000000E+03  0.17120000000E+03 0.  0.
         13    1    1    2    0    0 -0.88509569724E+01 -0.70702715560E+01  0.44445368007E+02  0.45866437408E+02  0.10566000000E+00 0.  1.
        994    1    1    2    0    0 -0.22986279399E+01 -0.87874691216E-02  0.15377674002E+01  0.17122233644E+03  0.17120000000E+03 0.  0.
        998    1    1    2    0    0  0.11149584912E+02  0.70790590251E+01  0.14540168609E+04  0.14541112262E+04  0.10000000000E+02 0.  1.
</event>
<event>
 5    1  0.1640179E-008  0.3831749E+03  0.7957747E-01  0.3437450E+00
         13   -1    0    0    0    0  0.00000000000E+00  0.00000000000E+00  0.14999999963E+04  0.15000000000E+04  0.10566000000E+00 0.  1.
        994   -1    0    0    0    0 -0.00000000000E+00 -0.00000000000E+00  0.11368683772E-12  0.17120000000E+03  0.17120000000E+03 0.  0.
         13    1    1    2    0    0 -0.15514324392E+02  0.12996867308E+02  0.84392978263E+02  0.86785936449E+02  0.10566000000E+00 0.  1.
        994    1    1    2    0    0  0.60837293102E+01  0.14250165191E+01  0.26681735966E+01  0.17133476467E+03  0.17120000000E+03 0.  0.
        998    1    1    2    0    0  0.94305950814E+01 -0.14421883827E+02  0.14129388444E+04  0.14130792989E+04  0.10000000000E+02 0.  1.
</event>
<event>
 5    1  0.1640179E-008  0.3841982E+03  0.7957747E-01  0.3433080E+00
         13   -1    0    0    0    0  0.00000000000E+00  0.00000000000E+00  0.14999999963E+04  0.15000000000E+04  0.10566000000E+00 0. -1.
        994   -1    0    0    0    0 -0.00000000000E+00 -0.00000000000E+00  0.11368683772E-12  0.17120000000E+03  0.17120000000E+03 0.  0.
         13    1    1    2    0    0  0.19654054556E+02  0.21122110828E+01  0.10237232265E+03  0.10426335361E+03  0.10566000000E+00 0. -1.
        994    1    1    2    0    0 -0.36378483387E+01  0.55627572638E+00  0.20734080890E+01  0.17125210190E+03  0.17120000000E+03 0.  0.
        998    1    1    2    0    0 -0.16016206217E+02 -0.26684868092E+01  0.13955542655E+04  0.13956845445E+04  0.10000000000E+02 0. -1.
</event>
<event>
 5    1  0.1640179E-008  0.3820623E+03  0.7957747E-01  0.3442228E+00
         13   -1    0    0    0    0  0.00000000000E+00  0.00000000000E+00  0.14999999963E+04  0.15000000000E+04  0.10566000000E+00 0. -1.
        994   -1    0    0    0    0 -0.00000000000E+00 -0.00000000000E+00  0.11368683772E-12  0.17120000000E+03  0.17120000000E+03 0.  0.
         13    1    1    2    0    0  0.26003142526E+02 -0.23053654065E+01  0.12532169779E+03  0.12801178552E+03  0.10566000000E+00 0. -1.
        994    1    1    2    0    0  0.39401824117E+01 -0.92589681350E+01  0.34319778753E+01  0.17152979916E+03  0.17120000000E+03 0.  0.
        998    1    1    2    0    0 -0.29943324938E+02  0.11564333542E+02  0.13712463206E+04  0.13716584153E+04  0.10000000000E+02 0. -1.
</event>
<event>
 5    1  0.1640179E-008  0.3819439E+03  0.7957747E-01  0.3442738E+00
         13   -1    0    0    0    0  0.00000000000E+00  0.00000000000E+00  0.14999999963E+04  0.15000000000E+04  0.10566000000E+00 0.  1.
        994   -1    0    0    0    0 -0.00000000000E+00 -0.00000000000E+00  0.11368683772E-12  0.17120000000E+03  0.17120000000E+03 0.  0.
         13    1    1    2    0    0 -0.38198113623E+01 -0.22661456132E+02  0.95678047384E+02  0.98399351970E+02  0.10566000000E+00 0.  1.
        994    1    1    2    0    0 -0.73126879773E+00 -0.10915588466E+02  0.35527205672E+01  0.17158597451E+03  0.17120000000E+03 0.  0.
        998    1    1    2    0    0  0.45510801601E+01  0.33577044598E+02  0.14007692283E+04  0.14012146735E+04  0.10000000000E+02 0.  1.
</event>
<event>
 5    1  0.1640179E-008  0.3803845E+03  0.7957747E-01  0.3449486E+00
         13   -1    0    0    0    0  0.00000000000E+00  0.00000000000E+00  0.14999999963E+04  0.15000000000E+04  0.10566000000E+00 0. -1.
        994   -1    0    0    0    0 -0.00000000000E+00 -0.00000000000E+00  0.11368683772E-12  0.17120000000E+03  0.17120000000E+03 0.  0.
         13    1    1    2    0    0  0.20862050222E+02  0.25223964778E+02  0.25633900873E+02  0.41576214072E+02  0.10566000000E+00 0. -1.
        994    1    1    2    0    0 -0.21733502000E+02 -0.15623105091E+02  0.19142476533E+02  0.17433387775E+03  0.17120000000E+03 0.  0.
        998    1    1    2    0    0  0.87145177799E+00 -0.96008596864E+01  0.14552236189E+04  0.14552899082E+04  0.10000000000E+02 0. -1.
</event>
<event>
 5    1  0.1640179E-008  0.3824433E+03  0.7957747E-01  0.3440588E+00
         13   -1    0    0    0    0  0.00000000000E+00  0.00000000000E+00  0.14999999963E+04  0.15000000000E+04  0.10566000000E+00 0.  1.
        994   -1    0    0    0    0 -0.00000000000E+00 -0.00000000000E+00  0.11368683772E-12  0.17120000000E+03  0.17120000000E+03 0.  0.
         13    1    1    2    0    0  0.12958540045E+02  0.14294208023E+02  0.63121389918E+02  0.66004311770E+02  0.10566000000E+00 0.  1.
        994    1    1    2    0    0 -0.48930882367E+01 -0.12520483411E+02  0.35042880844E+01  0.17176269925E+03  0.17120000000E+03 0.  0.
        998    1    1    2    0    0 -0.80654518079E+01 -0.17737246111E+01  0.14333743183E+04  0.14334329890E+04  0.10000000000E+02 0.  1.
</event>
<event>
 5    1  0.1640179E-008  0.3827438E+03  0.7957747E-01  0.3439298E+00
         13   -1    0    0    0    0  0.00000000000E+00  0.00000000000E+00  0.14999999963E+04  0.15000000000E+04  0.10566000000E+00 0. -1.
        994   -1    0    0    0    0 -0.00000000000E+00 -0.00000000000E+00  0.11368683772E-12  0.17120000000E+03  0.17120000000E+03 0.  0.
         13    1    1    2    0    0 -0.46909891537E+01 -0.20334182722E+02  0.72619600752E+02  0.75558599402E+02  0.10566000000E+00 0. -1.
        994    1    1    2    0    0  0.11353116415E+02  0.25643333866E+02  0.53643280079E+01  0.17356465608E+03  0.17120000000E+03 0.  0.
        998    1    1    2    0    0 -0.66621272611E+01 -0.53091511438E+01  0.14220160675E+04  0.14220767445E+04  0.10000000000E+02 0. -1.
</event>
<event>
 5    1  0.1640179E-008  0.3723377E+03  0.7957747E-01  0.3485216E+00
         13   -1    0    0    0    0  0.00000000000E+00  0.00000000000E+00  0.14999999963E+04  0.15000000000E+04  0.10566000000E+00 0. -1.
        994   -1    0    0    0    0 -0.00000000000E+00 -0.00000000000E+00  0.11368683772E-12  0.17120000000E+03  0.17120000000E+03 0.  0.
         13    1    1    2    0    0  0.45231753718E+01 -0.93331983480E+02  0.34446490396E+03  0.35691371433E+03  0.10566000000E+00 0. -1.
        994    1    1    2    0    0  0.13182595941E+02  0.60006723377E+02  0.25606808825E+02  0.18368379445E+03  0.17120000000E+03 0.  0.
        998    1    1    2    0    0 -0.17705771313E+02  0.33325260103E+02  0.11299282835E+04  0.11306024912E+04  0.10000000000E+02 0. -1.
</event>
<event>
 5    1  0.1640179E-008  0.3844089E+03  0.7957747E-01  0.3432183E+00
         13   -1    0    0    0    0  0.00000000000E+00  0.00000000000E+00  0.14999999963E+04  0.15000000000E+04  0.10566000000E+00 0. -1.
        994   -1    0    0    0    0 -0.00000000000E+00 -0.00000000000E+00  0.11368683772E-12  0.17120000000E+03  0.17120000000E+03 0.  0.
         13    1    1    2    0    0 -0.79569182035E+01 -0.96308531614E+01  0.40576676962E+02  0.42456374754E+02  0.10566000000E+00 0. -1.
        994    1    1    2    0    0  0.33953100364E+01  0.54677817431E+01  0.20604172725E+01  0.17133333034E+03  0.17120000000E+03 0.  0.
        998    1    1    2    0    0  0.45616081671E+01  0.41630714183E+01  0.14573629020E+04  0.14574102949E+04  0.10000000000E+02 0. -1.
</event>
<event>
 5    1  0.1640179E-008  0.3819256E+03  0.7957747E-01  0.3442817E+00
         13   -1    0    0    0    0  0.00000000000E+00  0.00000000000E+00  0.14999999963E+04  0.15000000000E+04  0.10566000000E+00 0.  1.
        994   -1    0    0    0    0 -0.00000000000E+00 -0.00000000000E+00  0.11368683772E-12  0.17120000000E+03  0.17120000000E+03 0.  0.
         13    1    1    2    0    0 -0.22338746634E+02 -0.66155663415E+00  0.85577674055E+02  0.88447762657E+02  0.10566000000E+00 0.  1.
        994    1    1    2    0    0 -0.33627245986E+01  0.18200463296E+01  0.32128390810E+01  0.17127283153E+03  0.17120000000E+03 0.  0.
        998    1    1    2    0    0  0.25701471233E+02 -0.11584896954E+01  0.14112094831E+04  0.14114794058E+04  0.10000000000E+02 0.  1.
</event>
<event>
 5    1  0.1640179E-008  0.4011047E+03  0.7957747E-01  0.3364116E+00
         13   -1    0    0    0    0  0.00000000000E+00  0.00000000000E+00  0.14999999963E+04  0.15000000000E+04  0.10566000000E+00 0.  1.
        994   -1    0    0    0    0 -0.00000000000E+00 -0.00000000000E+00  0.11368683772E-12  0.17120000000E+03  0.17120000000E+03 0.  0.
         13    1    1    2    0    0 -0.14648468457E+03 -0.29926644178E+02  0.29860859967E+03  0.33394681284E+03  0.10566000000E+00 0.  1.
        994    1    1    2    0    0  0.14900708744E+03  0.30183608737E+01  0.12241053032E+03  0.25788757346E+03  0.17120000000E+03 0.  0.
        998    1    1    2    0    0 -0.25224028682E+01  0.26908283304E+02  0.10789808663E+04  0.10793656137E+04  0.10000000000E+02 0.  1.
</event>
<event>
 5    1  0.1640179E-008  0.3858383E+03  0.7957747E-01  0.3426125E+00
         13   -1    0    0    0    0  0.00000000000E+00  0.00000000000E+00  0.14999999963E+04  0.15000000000E+04  0.10566000000E+00 0.  1.
        994   -1    0    0    0    0 -0.00000000000E+00 -0.00000000000E+00  0.11368683772E-12  0.17120000000E+03  0.17120000000E+03 0.  0.
         13    1    1    2    0    0 -0.53528434731E+01 -0.10886643887E+02  0.60256929602E+02  0.61466093723E+02  0.10566000000E+00 0.  1.
        994    1    1    2    0    0  0.12770229501E+02  0.52253958684E+01  0.18391810213E+01  0.17176497347E+03  0.17120000000E+03 0.  0.
        998    1    1    2    0    0 -0.74173860280E+01  0.56612480184E+01  0.14379038857E+04  0.14379689328E+04  0.10000000000E+02 0.  1.
</event>
<event>
 5    1  0.1723998E-008  0.3860935E+03  0.7957747E-01  0.3425048E+00
         13   -1    0    0    0    0  0.00000000000E+00  0.00000000000E+00  0.14999999963E+04  0.15000000000E+04  0.10566000000E+00 0.  1.
        994   -1    0    0    0    0 -0.00000000000E+00 -0.00000000000E+00  0.11368683772E-12  0.17120000000E+03  0.17120000000E+03 0.  0.
         13    1    1    2    0    0 -0.11275461770E+02 -0.37778246138E+01  0.64616414813E+02  0.65701599861E+02  0.10566000000E+00 0.  1.
        994    1    1    2    0    0  0.89584284713E+01  0.59450094258E+01  0.14671084452E+01  0.17154354836E+03  0.17120000000E+03 0.  0.
        998    1    1    2    0    0  0.23170332990E+01 -0.21671848121E+01  0.14339164730E+04  0.14339548518E+04  0.10000000000E+02 0.  1.
</event>
<event>
 5    1  0.1640179E-008  0.3710995E+03  0.7957747E-01  0.3490853E+00
         13   -1    0    0    0    0  0.00000000000E+00  0.00000000000E+00  0.14999999963E+04  0.15000000000E+04  0.10566000000E+00 0. -1.
        994   -1    0    0    0    0 -0.00000000000E+00 -0.00000000000E+00  0.11368683772E-12  0.17120000000E+03  0.17120000000E+03 0.  0.
         13    1    1    2    0    0 -0.39686463174E+02  0.17892511338E+02  0.11205561221E+03  0.12021492717E+03  0.10566000000E+00 0. -1.
        994    1    1    2    0    0  0.16626455547E+02  0.52057461072E+01  0.97417461388E+01  0.17235974134E+03  0.17120000000E+03 0.  0.
        998    1    1    2    0    0  0.23060007628E+02 -0.23098257445E+02  0.13782026379E+04  0.13786253315E+04  0.10000000000E+02 0. -1.
</event>
<event>
 5    1  0.1640179E-008  0.3838259E+03  0.7957747E-01  0.3434667E+00
         13   -1    0    0    0    0  0.00000000000E+00  0.00000000000E+00  0.14999999963E+04  0.15000000000E+04  0.10566000000E+00 0.  1.
        994   -1    0    0    0    0 -0.00000000000E+00 -0.00000000000E+00  0.11368683772E-12  0.17120000000E+03  0.17120000000E+03 0.  0.
         13    1    1    2    0    0 -0.15464856490E+02 -0.68490671667E+01  0.66914334438E+02  0.69018916426E+02  0.10566000000E+00 0.  1.
        994    1    1    2    0    0  0.53851907676E+00  0.71829241478E+01  0.23854918206E+01  0.17136806871E+03  0.17120000000E+03 0.  0.
        998    1    1    2    0    0  0.14926337413E+02 -0.33385698106E+00  0.14307001700E+04  0.14308130149E+04  0.10000000000E+02 0.  1.
</event>
<event>
 5    1  0.1640179E-008  0.3844785E+03  0.7957747E-01  0.3431887E+00
         13   -1    0    0    0    0  0.00000000000E+00  0.00000000000E+00  0.14999999963E+04  0.15000000000E+04  0.10566000000E+00 0. -1.
        994   -1    0    0    0    0 -0.00000000000E+00 -0.00000000000E+00  0.11368683772E-12  0.17120000000E+03  0.17120000000E+03 0.  0.
         13    1    1    2    0    0 -0.12486998391E+02 -0.15913878070E+02  0.10464428595E+03  0.10658149178E+03  0.10566000000E+00 0. -1.
        994    1    1    2    0    0  0.19378635684E+02  0.66838333668E+01  0.32747374700E+01  0.17245396213E+03  0.17120000000E+03 0.  0.
        998    1    1    2    0    0 -0.68916372939E+01  0.92300447029E+01  0.13920809729E+04  0.13921645461E+04  0.10000000000E+02 0. -1.
</event>
<event>
 5    1  0.1640179E-008  0.3723907E+03  0.7957747E-01  0.3484975E+00
         13   -1    0    0    0    0  0.00000000000E+00  0.00000000000E+00  0.14999999963E+04  0.15000000000E+04  0.10566000000E+00 0. -1.
        994   -1    0    0    0    0 -0.00000000000E+00 -0.00000000000E+00  0.11368683772E-12  0.17120000000E+03  0.17120000000E+03 0.  0.
         13    1    1    2    0    0  0.50530600006E-01  0.28435906067E+02  0.45098926380E+02  0.53315360186E+02  0.10566000000E+00 0. -1.
        994    1    1    2    0    0 -0.39296346732E+01 -0.34870077573E+02  0.12259398452E+02  0.17518874732E+03  0.17120000000E+03 0.  0.
        998    1    1    2    0    0  0.38791040732E+01  0.64341715058E+01  0.14426416714E+04  0.14426958925E+04  0.10000000000E+02 0. -1.
</event>
<event>
 5    1  0.1640179E-008  0.3712836E+03  0.7957747E-01  0.3490012E+00
         13   -1    0    0    0    0  0.00000000000E+00  0.00000000000E+00  0.14999999963E+04  0.15000000000E+04  0.10566000000E+00 0.  1.
        994   -1    0    0    0    0 -0.00000000000E+00 -0.00000000000E+00  0.11368683772E-12  0.17120000000E+03  0.17120000000E+03 0.  0.
         13    1    1    2    0    0  0.26838267398E+01 -0.36835311993E+02  0.75060075028E+02  0.83654462898E+02  0.10566000000E+00 0.  1.
        994    1    1    2    0    0  0.39822360002E+02  0.30863420496E+02  0.17388953507E+02  0.17930473163E+03  0.17120000000E+03 0.  0.
        998    1    1    2    0    0 -0.42506186742E+02  0.59718914972E+01  0.14075509677E+04  0.14082408055E+04  0.10000000000E+02 0.  1.
</event>
<event>
 5    1  0.1640179E-008  0.3728702E+03  0.7957747E-01  0.3482803E+00
         13   -1    0    0    0    0  0.00000000000E+00  0.00000000000E+00  0.14999999963E+04  0.15000000000E+04  0.10566000000E+00 0.  1.
        994   -1    0    0    0    0 -0.00000000000E+00 -0.00000000000E+00  0.11368683772E-12  0.17120000000E+03  0.17120000000E+03 0.  0.
         13    1    1    2    0    0 -0.26014820695E+02 -0.14158841065E+01  0.40905928364E+02  0.48498265566E+02  0.10566000000E+00 0.  1.
        994    1    1    2    0    0  0.14023464054E+02  0.78584541708E+01  0.86617542274E+01  0.17217107432E+03  0.17120000000E+03 0.  0.
        998    1    1    2    0    0  0.11991356641E+02 -0.64425700642E+01  0.14504323137E+04  0.14505306601E+04  0.10000000000E+02 0.  1.
</event>
<event>
 5    1  0.1640179E-008  0.3686960E+03  0.7957747E-01  0.3501905E+00
         13   -1    0    0    0    0  0.00000000000E+00  0.00000000000E+00  0.14999999963E+04  0.15000000000E+04  0.10566000000E+00 0. -1.
        994   -1    0    0    0    0 -0.00000000000E+00 -0.00000000000E+00  0.11368683772E-12  0.17120000000E+03  0.17120000000E+03 0.  0.
         13    1    1    2    0    0 -0.34195961016E+02  0.56796544139E+00  0.53016895955E+02  0.63091114710E+02  0.10566000000E+00 0. -1.
        994    1    1    2    0    0  0.35421463338E+02  0.33503449956E+01  0.14361880317E+02  0.17544688223E+03  0.17120000000E+03 0.  0.
        998    1    1    2    0    0 -0.12255023222E+01 -0.39183104369E+01  0.14326212200E+04  0.14326620031E+04  0.10000000000E+02 0. -1.
</event>
<event>
 5    1  0.1640179E-008  0.3819063E+03  0.7957747E-01  0.3442900E+00
         13   -1    0    0    0    0  0.00000000000E+00  0.00000000000E+00  0.14999999963E+04  0.15000000000E+04  0.10566000000E+00 0. -1.
        994   -1    0    0    0    0 -0.00000000000E+00 -0.00000000000E+00  0.11368683772E-12  0.17120000000E+03  0.17120000000E+03 0.  0.
         13    1    1    2    0    0  0.53939864131E+01  0.36935594029E+02  0.18396878737E+03  0.18771749808E+03  0.10566000000E+00 0. -1.
        994    1    1    2    0    0 -0.63914297771E+01 -0.43448064549E+02  0.96073357878E+01  0.17700374456E+03  0.17120000000E+03 0.  0.
        998    1    1    2    0    0  0.99744336401E+00  0.65124705205E+01  0.13064238731E+04  0.13064787574E+04  0.10000000000E+02 0. -1.
</event>
<event>
 5    1  0.1640179E-008  0.3690591E+03  0.7957747E-01  0.3500226E+00
         13   -1    0    0    0    0  0.00000000000E+00  0.00000000000E+00  0.14999999963E+04  0.15000000000E+04  0.10566000000E+00 0. -1.
        994   -1    0    0    0    0 -0.00000000000E+00 -0.00000000000E+00  0.11368683772E-12  0.17120000000E+03  0.17120000000E+03 0.  0.
         13    1    1    2    0    0 -0.66892028864E+02 -0.37977304086E+02  0.26292591758E+03  0.27394683508E+03  0.10566000000E+00 0. -1.
        994    1    1    2    0    0  0.48826735673E+02  0.50660328829E+02  0.27136690511E+02  0.18707313812E+03  0.17120000000E+03 0.  0.
        998    1    1    2    0    0  0.18065293190E+02 -0.12683024743E+02  0.12099373882E+04  0.12101800268E+04  0.10000000000E+02 0. -1.
</event>
<event>
 5    1  0.1640179E-008  0.3836377E+03  0.7957747E-01  0.3435470E+00
         13   -1    0    0    0    0  0.00000000000E+00  0.00000000000E+00  0.14999999963E+04  0.15000000000E+04  0.10566000000E+00 0. -1.
        994   -1    0    0    0    0 -0.00000000000E+00 -0.00000000000E+00  0.11368683772E-12  0.17120000000E+03  0.17120000000E+03 0.  0.
         13    1    1    2    0    0 -0.20947719928E+02  0.42510325657E+01  0.92016517866E+02  0.94466549489E+02  0.10566000000E+00 0. -1.
        994    1    1    2    0    0  0.22118984571E+02 -0.12200050163E+02  0.44185981632E+01  0.17310994978E+03  0.17120000000E+03 0.  0.
        998    1    1    2    0    0 -0.11712646435E+01  0.79490175978E+01  0.14035648802E+04  0.14036235007E+04  0.10000000000E+02 0. -1.
</event>
<event>
 5    1  0.1640179E-008  0.3860470E+03  0.7957747E-01  0.3425244E+00
         13   -1    0    0    0    0  0.00000000000E+00  0.00000000000E+00  0.14999999963E+04  0.15000000000E+04  0.10566000000E+00 0.  1.
        994   -1    0    0    0    0 -0.00000000000E+00 -0.00000000000E+00  0.11368683772E-12  0.17120000000E+03  0.17120000000E+03 0.  0.
         13    1    1    2    0    0 -0.88597464458E+01 -0.63179063632E+01  0.53438740460E+02  0.54535503976E+02  0.10566000000E+00 0.  1.
        994    1    1    2    0    0  0.85828221501E+01  0.29555099472E+01  0.13813448951E+01  0.17144604979E+03  0.17120000000E+03 0.  0.
        998    1    1    2    0    0  0.27692429569E+00  0.33623964161E+01  0.14451799109E+04  0.14452184462E+04  0.10000000000E+02 0.  1.
</event>
<event>
 5    1  0.1640179E-008  0.3801496E+03  0.7957747E-01  0.3450507E+00
         13   -1    0    0    0    0  0.00000000000E+00  0.00000000000E+00  0.14999999963E+04  0.15000000000E+04  0.10566000000E+00 0.  1.
        994   -1    0    0    0    0 -0.00000000000E+00 -0.00000000000E+00  0.11368683772E-12  0.17120000000E+03  0.17120000000E+03 0.  0.
         13    1    1    2    0    0 -0.60254641878E+01 -0.39103256327E+02  0.23262921396E+03  0.23596977184E+03  0.10566000000E+00 0.  1.
        994    1    1    2    0    0  0.15687532066E+02 -0.22946940173E+01  0.48979588462E+01  0.17200230895E+03  0.17120000000E+03 0.  0.
        998    1    1    2    0    0 -0.96620678786E+01  0.41397950344E+02  0.12624728235E+04  0.12632279192E+04  0.10000000000E+02 0.  1.
</event>
<event>
 5    1  0.1640179E-008  0.3839967E+03  0.7957747E-01  0.3433938E+00
         13   -1    0    0    0    0  0.00000000000E+00  0.00000000000E+00  0.14999999963E+04  0.15000000000E+04  0.10566000000E+00 0.  1.
        994   -1    0    0    0    0 -0.00000000000E+00 -0.00000000000E+00  0.11368683772E-12  0.17120000000E+03  0.17120000000E+03 0.  0.
         13    1    1    2    0    0 -0.84703031576E+01  0.58953345274E+01  0.24790707928E+02  0.26853144479E+02  0.10566000000E+00 0.  1.
        994    1    1    2    0    0  0.37680408482E+01  0.12380937435E+01  0.21809782728E+01  0.17125982504E+03  0.17120000000E+03 0.  0.
        998    1    1    2    0    0  0.47022623094E+01 -0.71334282710E+01  0.14730283101E+04  0.14730870305E+04  0.10000000000E+02 0.  1.
</event>
<event>
 5    1  0.1640179E-008  0.3695610E+03  0.7957747E-01  0.3497911E+00
         13   -1    0    0    0    0  0.00000000000E+00  0.00000000000E+00  0.14999999963E+04  0.15000000000E+04  0.10566000000E+00 0.  1.
        994   -1    0    0    0    0 -0.00000000000E+00 -0.00000000000E+00  0.11368683772E-12  0.17120000000E+03  0.17120000000E+03 0.  0.
         13    1    1    2    0    0 -0.19038251555E+02 -0.19203929100E+02  0.34219420133E+02  0.43614513564E+02  0.10566000000E+00 0.  1.
        994    1    1    2    0    0  0.17013531099E+02  0.16386538701E+02  0.11433317507E+02  0.17319971028E+03  0.17120000000E+03 0.  0.
        998    1    1    2    0    0  0.20247204564E+01  0.28173903988E+01  0.14543472586E+04  0.14543857762E+04  0.10000000000E+02 0.  1.
</event>
<event>
 5    1  0.1640179E-008  0.3790354E+03  0.7957747E-01  0.3455369E+00
         13   -1    0    0    0    0  0.00000000000E+00  0.00000000000E+00  0.14999999963E+04  0.15000000000E+04  0.10566000000E+00 0. -1.
        994   -1    0    0    0    0 -0.00000000000E+00 -0.00000000000E+00  0.11368683772E-12  0.17120000000E+03  0.17120000000E+03 0.  0.
         13    1    1    2    0    0  0.17876177342E+01  0.11831926521E+02  0.13559358129E+02  0.18084728897E+02  0.10566000000E+00 0. -1.
        994    1    1    2    0    0 -0.79524614434E+01 -0.48574660668E+01  0.49121333683E+01  0.17152377583E+03  0.17120000000E+03 0.  0.
        998    1    1    2    0    0  0.61648437092E+01 -0.69744604542E+01  0.14815285048E+04  0.14815914953E+04  0.10000000000E+02 0. -1.
</event>
<event>
 5    1  0.1640179E-008  0.2824629E+03  0.7957747E-01  0.4029761E+00
         13   -1    0    0    0    0  0.00000000000E+00  0.00000000000E+00  0.14999999963E+04  0.15000000000E+04  0.10566000000E+00 0.  1.
        994   -1    0    0    0    0 -0.00000000000E+00 -0.00000000000E+00  0.11368683772E-12  0.17120000000E+03  0.17120000000E+03 0.  0.
         13    1    1    2    0    0  0.16780961277E+03 -0.12120021830E+03  0.44436413830E+03  0.49021327769E+03  0.10566000000E+00 0.  1.
        994    1    1    2    0    0 -0.16348130320E+03  0.12319145257E+03  0.22157765322E+03  0.34685496521E+03  0.17120000000E+03 0.  0.
        998    1    1    2    0    0 -0.43283095642E+01 -0.19912342622E+01  0.83405820476E+03  0.83413175711E+03  0.10000000000E+02 0.  0.
</event>
<event>
 5    1  0.1640179E-008  0.3849410E+03  0.7957747E-01  0.3429923E+00
         13   -1    0    0    0    0  0.00000000000E+00  0.00000000000E+00  0.14999999963E+04  0.15000000000E+04  0.10566000000E+00 0.  1.
        994   -1    0    0    0    0 -0.00000000000E+00 -0.00000000000E+00  0.11368683772E-12  0.17120000000E+03  0.17120000000E+03 0.  0.
         13    1    1    2    0    0  0.14971614476E+02 -0.19596288417E+01  0.51741606166E+02  0.53899854897E+02  0.10566000000E+00 0.  1.
        994    1    1    2    0    0 -0.57683132299E+02  0.50902264217E+02  0.21375106315E+02  0.18890399526E+03  0.17120000000E+03 0.  0.
        998    1    1    2    0    0  0.42711517823E+02 -0.48942635376E+02  0.14268832838E+04  0.14283961498E+04  0.10000000000E+02 0.  1.
</event>
<event>
 5    1  0.1640179E-008  0.3860265E+03  0.7957747E-01  0.3425330E+00
         13   -1    0    0    0    0  0.00000000000E+00  0.00000000000E+00  0.14999999963E+04  0.15000000000E+04  0.10566000000E+00 0.  1.
        994   -1    0    0    0    0 -0.00000000000E+00 -0.00000000000E+00  0.11368683772E-12  0.17120000000E+03  0.17120000000E+03 0.  0.
         13    1    1    2    0    0 -0.46381817941E+01 -0.91997962034E+01  0.50632727697E+02  0.51670429247E+02  0.10566000000E+00 0.  1.
        994    1    1    2    0    0  0.57369887578E+01 -0.42037845990E+01  0.12871794816E+01  0.17135250706E+03  0.17120000000E+03 0.  0.
        998    1    1    2    0    0 -0.10988069637E+01  0.13403580802E+02  0.14480800891E+04  0.14481770637E+04  0.10000000000E+02 0.  1.
</event>
<event>
 5    1  0.1640179E-008  0.3741034E+03  0.7957747E-01  0.3477242E+00
         13   -1    0    0    0    0  0.00000000000E+00  0.00000000000E+00  0.14999999963E+04  0.15000000000E+04  0.10566000000E+00 0.  1.
        994   -1    0    0    0    0 -0.00000000000E+00 -0.00000000000E+00  0.11368683772E-12  0.17120000000E+03  0.17120000000E+03 0.  0.
         13    1    1    2    0    0  0.59078318784E+02 -0.53689767395E+02  0.35348942826E+03  0.36239153678E+03  0.10566000000E+00 0.  1.
        994    1    1    2    0    0 -0.75978104397E+02  0.29260302478E+02  0.30088917226E+02  0.19194692128E+03  0.17120000000E+03 0.  0.
        998    1    1    2    0    0  0.16899785613E+02  0.24429464917E+02  0.11164216508E+04  0.11168615419E+04  0.10000000000E+02 0.  1.
</event>
<event>
 5    1  0.1640179E-008  0.3757092E+03  0.7957747E-01  0.3470057E+00
         13   -1    0    0    0    0  0.00000000000E+00  0.00000000000E+00  0.14999999963E+04  0.15000000000E+04  0.10566000000E+00 0.  1.
        994   -1    0    0    0    0 -0.00000000000E+00 -0.00000000000E+00  0.11368683772E-12  0.17120000000E+03  0.17120000000E+03 0.  0.
         13    1    1    2    0    0 -0.20951540676E+02  0.46345789813E+01  0.33751017988E+02  0.39994859148E+02  0.10566000000E+00 0.  1.
        994    1    1    2    0    0  0.16128813934E+02 -0.14008489574E+01  0.72042804960E+01  0.17211462074E+03  0.17120000000E+03 0.  0.
        998    1    1    2    0    0  0.48227267414E+01 -0.32337300239E+01  0.14590446978E+04  0.14590905201E+04  0.10000000000E+02 0.  1.
</event>
<event>
 5    1  0.1640179E-008  0.3841248E+03  0.7957747E-01  0.3433393E+00
         13   -1    0    0    0    0  0.00000000000E+00  0.00000000000E+00  0.14999999963E+04  0.15000000000E+04  0.10566000000E+00 0. -1.
        994   -1    0    0    0    0 -0.00000000000E+00 -0.00000000000E+00  0.11368683772E-12  0.17120000000E+03  0.17120000000E+03 0.  0.
         13    1    1    2    0    0  0.13218250567E+02  0.36366334988E+00  0.41453561270E+02  0.43511645626E+02  0.10566000000E+00 0. -1.
        994    1    1    2    0    0 -0.11048267780E+02  0.83054774159E-01  0.24680015336E+01  0.17157389705E+03  0.17120000000E+03 0.  0.
        998    1    1    2    0    0 -0.21699827868E+01 -0.44671812404E+00  0.14560784335E+04  0.14561144573E+04  0.10000000000E+02 0. -1.
</event>
<event>
 5    1  0.1640179E-008  0.3847608E+03  0.7957747E-01  0.3430687E+00
         13   -1    0    0    0    0  0.00000000000E+00  0.00000000000E+00  0.14999999963E+04  0.15000000000E+04  0.10566000000E+00 0.  1.
        994   -1    0    0    0    0 -0.00000000000E+00 -0.00000000000E+00  0.11368683772E-12  0.17120000000E+03  0.17120000000E+03 0.  0.
         13    1    1    2    0    0  0.17153484193E+02 -0.70676001828E+00  0.80431828229E+02  0.82243733414E+02  0.10566000000E+00 0.  1.
        994    1    1    2    0    0 -0.18784783802E+02 -0.14814723661E+02  0.36349186060E+01  0.17290169685E+03  0.17120000000E+03 0.  0.
        998    1    1    2    0    0  0.16312996095E+01  0.15521483680E+02  0.14159332494E+04  0.14160545697E+04  0.10000000000E+02 0.  1.
</event>
<event>
 5    1  0.1640179E-008  0.3837706E+03  0.7957747E-01  0.3434903E+00
         13   -1    0    0    0    0  0.00000000000E+00  0.00000000000E+00  0.14999999963E+04  0.15000000000E+04  0.10566000000E+00 0.  1.
        994   -1    0    0    0    0 -0.00000000000E+00 -0.00000000000E+00  0.11368683772E-12  0.17120000000E+03  0.17120000000E+03 0.  0.
         13    1    1    2    0    0  0.10570232162E+02  0.96096420208E+01  0.47933091324E+02  0.50016671577E+02  0.10566000000E+00 0.  1.
        994    1    1    2    0    0 -0.52213949967E+01  0.11408367647E+02  0.27616702344E+01  0.17168133457E+03  0.17120000000E+03 0.  0.
        998    1    1    2    0    0 -0.53488371648E+01 -0.21018009668E+02  0.14493052347E+04  0.14495019939E+04  0.10000000000E+02 0.  1.
</event>
<event>
 5    1  0.1640179E-008  0.3830269E+03  0.7957747E-01  0.3438083E+00
         13   -1    0    0    0    0  0.00000000000E+00  0.00000000000E+00  0.14999999963E+04  0.15000000000E+04  0.10566000000E+00 0.  1.
        994   -1    0    0    0    0 -0.00000000000E+00 -0.00000000000E+00  0.11368683772E-12  0.17120000000E+03  0.17120000000E+03 0.  0.
         13    1    1    2    0    0 -0.28397864137E+02 -0.53437475476E+01  0.15064090274E+03  0.15338737584E+03  0.10566000000E+00 0.  1.
        994    1    1    2    0    0  0.22177168659E+02  0.13802354944E+02  0.48745706875E+01  0.17324991559E+03  0.17120000000E+03 0.  0.
        998    1    1    2    0    0  0.62206954776E+01 -0.84586073967E+01  0.13444845228E+04  0.13445627086E+04  0.10000000000E+02 0.  1.
</event>
<event>
 5    1  0.1640179E-008  0.3834369E+03  0.7957747E-01  0.3436329E+00
         13   -1    0    0    0    0  0.00000000000E+00  0.00000000000E+00  0.14999999963E+04  0.15000000000E+04  0.10566000000E+00 0.  1.
        994   -1    0    0    0    0 -0.00000000000E+00 -0.00000000000E+00  0.11368683772E-12  0.17120000000E+03  0.17120000000E+03 0.  0.
         13    1    1    2    0    0 -0.25222269323E+02 -0.95946076589E+01  0.13175330417E+03  0.13448852624E+03  0.10566000000E+00 0.  1.
        994    1    1    2    0    0  0.37759588065E+02 -0.16904808856E+01  0.71447934306E+01  0.17546832275E+03  0.17120000000E+03 0.  0.
        998    1    1    2    0    0 -0.12537318743E+02  0.11285088545E+02  0.13611018987E+04  0.13612431510E+04  0.10000000000E+02 0.  1.
</event>
<event>
 5    1  0.1640179E-008  0.3778217E+03  0.7957747E-01  0.3460698E+00
         13   -1    0    0    0    0  0.00000000000E+00  0.00000000000E+00  0.14999999963E+04  0.15000000000E+04  0.10566000000E+00 0.  1.
        994   -1    0    0    0    0 -0.00000000000E+00 -0.00000000000E+00  0.11368683772E-12  0.17120000000E+03  0.17120000000E+03 0.  0.
         13    1    1    2    0    0  0.86023016836E+02 -0.70454684029E+02  0.65669029902E+03  0.66603752290E+03  0.10566000000E+00 0.  1.
        994    1    1    2    0    0 -0.20095917056E+01  0.27985807488E+02  0.17970948268E+02  0.17441226695E+03  0.17120000000E+03 0.  0.
        998    1    1    2    0    0 -0.84013425130E+02  0.42468876542E+02  0.82533874899E+03  0.83075021015E+03  0.10000000000E+02 0.  1.
</event>
<event>
 5    1  0.1640179E-008  0.3858988E+03  0.7957747E-01  0.3425869E+00
         13   -1    0    0    0    0  0.00000000000E+00  0.00000000000E+00  0.14999999963E+04  0.15000000000E+04  0.10566000000E+00 0. -1.
        994   -1    0    0    0    0 -0.00000000000E+00 -0.00000000000E+00  0.11368683772E-12  0.17120000000E+03  0.17120000000E+03 0.  0.
         13    1    1    2    0    0 -0.37767590886E+01 -0.10311197674E+02  0.49737431092E+02  0.50935330787E+02  0.10566000000E+00 0. -1.
        994    1    1    2    0    0 -0.11081318507E+01  0.13800248906E+02  0.18133115797E+01  0.17176845731E+03  0.17120000000E+03 0.  0.
        998    1    1    2    0    0  0.48848909393E+01 -0.34890512323E+01  0.14484492536E+04  0.14484962119E+04  0.10000000000E+02 0. -1.
</event>
<event>
 5    1  0.1640179E-008  0.3758099E+03  0.7957747E-01  0.3469609E+00
         13   -1    0    0    0    0  0.00000000000E+00  0.00000000000E+00  0.14999999963E+04  0.15000000000E+04  0.10566000000E+00 0. -1.
        994   -1    0    0    0    0 -0.00000000000E+00 -0.00000000000E+00  0.11368683772E-12  0.17120000000E+03  0.17120000000E+03 0.  0.
         13    1    1    2    0    0 -0.45445756607E+02  0.98998608456E+01  0.20104701989E+03  0.20635706775E+03  0.10566000000E+00 0. -1.
        994    1    1    2    0    0  0.32356625361E+01  0.95609253565E+01  0.66088733474E+01  0.17162458452E+03  0.17120000000E+03 0.  0.
        998    1    1    2    0    0  0.42210094071E+02 -0.19460786202E+02  0.12923441030E+04  0.12932183477E+04  0.10000000000E+02 0. -1.
</event>
<event>
 5    1  0.1640179E-008  0.3839802E+03  0.7957747E-01  0.3434009E+00
         13   -1    0    0    0    0  0.00000000000E+00  0.00000000000E+00  0.14999999963E+04  0.15000000000E+04  0.10566000000E+00 0.  1.
        994   -1    0    0    0    0 -0.00000000000E+00 -0.00000000000E+00  0.11368683772E-12  0.17120000000E+03  0.17120000000E+03 0.  0.
         13    1    1    2    0    0  0.49695049768E+01  0.14966471166E+02  0.60213418493E+02  0.62244342470E+02  0.10566000000E+00 0.  1.
        994    1    1    2    0    0  0.12010956684E+01 -0.31236197527E+01  0.21742288396E+01  0.17124650917E+03  0.17120000000E+03 0.  0.
        998    1    1    2    0    0 -0.61706006452E+01 -0.11842851413E+02  0.14376123489E+04  0.14377091484E+04  0.10000000000E+02 0.  1.
</event>
<event>
 5    1  0.1640179E-008  0.3846645E+03  0.7957747E-01  0.3431096E+00
         13   -1    0    0    0    0  0.00000000000E+00  0.00000000000E+00  0.14999999963E+04  0.15000000000E+04  0.10566000000E+00 0. -1.
        994   -1    0    0    0    0 -0.00000000000E+00 -0.00000000000E+00  0.11368683772E-12  0.17120000000E+03  0.17120000000E+03 0.  0.
         13    1    1    2    0    0 -0.36342831588E+01 -0.11315508191E+02  0.40516104656E+02  0.42223389729E+02  0.10566000000E+00 0. -1.
        994    1    1    2    0    0 -0.94227047741E+01  0.34470696049E+01  0.21282837122E+01  0.17150696559E+03  0.17120000000E+03 0.  0.
        998    1    1    2    0    0  0.13056987933E+02  0.78684385859E+01  0.14573556079E+04  0.14574696447E+04  0.10000000000E+02 0. -1.
</event>
<event>
 5    1  0.1640179E-008  0.3808148E+03  0.7957747E-01  0.3447619E+00
         13   -1    0    0    0    0  0.00000000000E+00  0.00000000000E+00  0.14999999963E+04  0.15000000000E+04  0.10566000000E+00 0. -1.
        994   -1    0    0    0    0 -0.00000000000E+00 -0.00000000000E+00  0.11368683772E-12  0.17120000000E+03  0.17120000000E+03 0.  0.
         13    1    1    2    0    0  0.85243200208E+01  0.13230674890E+02  0.32359872730E+02  0.35984542751E+02  0.10566000000E+00 0. -1.
        994    1    1    2    0    0  0.37558546767E+01 -0.92214100150E+01  0.40530265829E+01  0.17153719093E+03  0.17120000000E+03 0.  0.
        998    1    1    2    0    0 -0.12280174698E+02 -0.40092648752E+01  0.14635870970E+04  0.14636782663E+04  0.10000000000E+02 0. -1.
</event>
<event>
 5    1  0.1640179E-008  0.3774132E+03  0.7957747E-01  0.3462500E+00
         13   -1    0    0    0    0  0.00000000000E+00  0.00000000000E+00  0.14999999963E+04  0.15000000000E+04  0.10566000000E+00 0. -1.
        994   -1    0    0    0    0 -0.00000000000E+00 -0.00000000000E+00  0.11368683772E-12  0.17120000000E+03  0.17120000000E+03 0.  0.
         13    1    1    2    0    0 -0.29972649050E+02  0.11292377611E+03  0.48455656674E+03  0.49844279154E+03  0.10566000000E+00 0. -1.
        994    1    1    2    0    0  0.62412221745E+01 -0.16941270681E+03  0.10943202070E+03  0.26462128644E+03  0.17120000000E+03 0.  0.
        998    1    1    2    0    0  0.23731426876E+02  0.56488930699E+02  0.90601140884E+03  0.90813592202E+03  0.10000000000E+02 0. -1.
</event>
<event>
 5    1  0.1640179E-008  0.3858064E+03  0.7957747E-01  0.3426259E+00
         13   -1    0    0    0    0  0.00000000000E+00  0.00000000000E+00  0.14999999963E+04  0.15000000000E+04  0.10566000000E+00 0.  1.
        994   -1    0    0    0    0 -0.00000000000E+00 -0.00000000000E+00  0.11368683772E-12  0.17120000000E+03  0.17120000000E+03 0.  0.
         13    1    1    2    0    0  0.26432516972E+01 -0.11306039416E+02  0.57379923824E+02  0.58542976768E+02  0.10566000000E+00 0.  1.
        994    1    1    2    0    0  0.11299179307E+02  0.52320516140E+01  0.17390361714E+01  0.17166103246E+03  0.17120000000E+03 0.  0.
        998    1    1    2    0    0 -0.13942431004E+02  0.60739878025E+01  0.14408810363E+04  0.14409959908E+04  0.10000000000E+02 0.  1.
</event>
<event>
 5    1  0.1640179E-008  0.3838889E+03  0.7957747E-01  0.3434398E+00
         13   -1    0    0    0    0  0.00000000000E+00  0.00000000000E+00  0.14999999963E+04  0.15000000000E+04  0.10566000000E+00 0. -1.
        994   -1    0    0    0    0 -0.00000000000E+00 -0.00000000000E+00  0.11368683772E-12  0.17120000000E+03  0.17120000000E+03 0.  0.
         13    1    1    2    0    0 -0.20161017064E+02 -0.15588684498E+02  0.14023456070E+03  0.14253145923E+03  0.10566000000E+00 0. -1.
        994    1    1    2    0    0  0.22343580301E+02  0.77501191424E+01  0.40309432193E+01  0.17287275213E+03  0.17120000000E+03 0.  0.
        998    1    1    2    0    0 -0.21825632366E+01  0.78385653560E+01  0.13557344924E+04  0.13557957886E+04  0.10000000000E+02 0. -1.
</event>
<event>
 5    1  0.1640179E-008  0.3840473E+03  0.7957747E-01  0.3433723E+00
         13   -1    0    0    0    0  0.00000000000E+00  0.00000000000E+00  0.14999999963E+04  0.15000000000E+04  0.10566000000E+00 0.  1.
        994   -1    0    0    0    0 -0.00000000000E+00 -0.00000000000E+00  0.11368683772E-12  0.17120000000E+03  0.17120000000E+03 0.  0.
         13    1    1    2    0    0 -0.46779338206E+00  0.11734688424E+02  0.33849686912E+02  0.35829236821E+02  0.10566000000E+00 0.  1.
        994    1    1    2    0    0  0.31143167183E+01  0.38755154414E+01  0.21854322019E+01  0.17128611941E+03  0.17120000000E+03 0.  0.
        998    1    1    2    0    0 -0.26465233362E+01 -0.15610203865E+02  0.14639648772E+04  0.14640846438E+04  0.10000000000E+02 0.  1.
</event>
<event>
 5    1  0.1640179E-008  0.3816371E+03  0.7957747E-01  0.3444061E+00
         13   -1    0    0    0    0  0.00000000000E+00  0.00000000000E+00  0.14999999963E+04  0.15000000000E+04  0.10566000000E+00 0.  1.
        994   -1    0    0    0    0 -0.00000000000E+00 -0.00000000000E+00  0.11368683772E-12  0.17120000000E+03  0.17120000000E+03 0.  0.
         13    1    1    2    0    0  0.15204651610E+02  0.84367493302E+01  0.43711051182E+02  0.47042824418E+02  0.10566000000E+00 0.  1.
        994    1    1    2    0    0 -0.10590304270E+02 -0.14371179178E+02  0.43693366595E+01  0.17218367065E+03  0.17120000000E+03 0.  0.
        998    1    1    2    0    0 -0.46143473398E+01  0.59344298477E+01  0.14519196084E+04  0.14519735049E+04  0.10000000000E+02 0.  1.
</event>
<event>
 5    1  0.2005674E-008  0.3860161E+03  0.7957747E-01  0.3425374E+00
         13   -1    0    0    0    0  0.00000000000E+00  0.00000000000E+00  0.14999999963E+04  0.15000000000E+04  0.10566000000E+00 0. -1.
        994   -1    0    0    0    0 -0.00000000000E+00 -0.00000000000E+00  0.11368683772E-12  0.17120000000E+03  0.17120000000E+03 0.  0.
         13    1    1    2    0    0 -0.13503604847E+01 -0.11595281850E+02  0.60092518496E+02  0.61215978126E+02  0.10566000000E+00 0. -1.
        994    1    1    2    0    0  0.32176305556E+01  0.10056748466E+02  0.14920481842E+01  0.17153179747E+03  0.17120000000E+03 0.  0.
        998    1    1    2    0    0 -0.18672700709E+01  0.15385333837E+01  0.14384154296E+04  0.14384522244E+04  0.10000000000E+02 0. -1.
</event>
<event>
 5    1  0.1640179E-008  0.3851026E+03  0.7957747E-01  0.3429237E+00
         13   -1    0    0    0    0  0.00000000000E+00  0.00000000000E+00  0.14999999963E+04  0.15000000000E+04  0.10566000000E+00 0.  1.
        994   -1    0    0    0    0 -0.00000000000E+00 -0.00000000000E+00  0.11368683772E-12  0.17120000000E+03  0.17120000000E+03 0.  0.
         13    1    1    2    0    0 -0.15355191761E+01 -0.10477228746E+02  0.35620171781E+02  0.37160973387E+02  0.10566000000E+00 0.  1.
        994    1    1    2    0    0  0.18230426851E+01  0.55376877674E+01  0.16909347810E+01  0.17130758515E+03  0.17120000000E+03 0.  0.
        998    1    1    2    0    0 -0.28752350895E+00  0.49395409790E+01  0.14626888897E+04  0.14627314415E+04  0.10000000000E+02 0.  1.
</event>
<event>
 5    1  0.1640179E-008  0.3836153E+03  0.7957747E-01  0.3435566E+00
         13   -1    0    0    0    0  0.00000000000E+00  0.00000000000E+00  0.14999999963E+04  0.15000000000E+04  0.10566000000E+00 0. -1.
        994   -1    0    0    0    0 -0.00000000000E+00 -0.00000000000E+00  0.11368683772E-12  0.17120000000E+03  0.17120000000E+03 0.  0.
         13    1    1    2    0    0  0.19646067801E+02 -0.83628106925E+01  0.10356730675E+03  0.10574546219E+03  0.10566000000E+00 0. -1.
        994    1    1    2    0    0 -0.52605169650E+01  0.84646319557E-01  0.24106026122E+01  0.17129778518E+03  0.17120000000E+03 0.  0.
        998    1    1    2    0    0 -0.14385550836E+02  0.82781643730E+01  0.13940220869E+04  0.13941567526E+04  0.10000000000E+02 0. -1.
</event>
<event>
 5    1  0.1640179E-008  0.3740933E+03  0.7957747E-01  0.3477288E+00
         13   -1    0    0    0    0  0.00000000000E+00  0.00000000000E+00  0.14999999963E+04  0.15000000000E+04  0.10566000000E+00 0. -1.
        994   -1    0    0    0    0 -0.00000000000E+00 -0.00000000000E+00  0.11368683772E-12  0.17120000000E+03  0.17120000000E+03 0.  0.
         13    1    1    2    0    0 -0.41283998331E+02  0.20852544848E+02  0.13555284886E+03  0.14322633537E+03  0.10566000000E+00 0. -1.
        994    1    1    2    0    0  0.48271127050E+02 -0.49148596461E+01  0.15215012352E+02  0.17859225670E+03  0.17120000000E+03 0.  0.
        998    1    1    2    0    0 -0.69871287187E+01 -0.15937685202E+02  0.13492321351E+04  0.13493814079E+04  0.10000000000E+02 0. -1.
</event>
<event>
 5    1  0.1640179E-008  0.3834087E+03  0.7957747E-01  0.3436449E+00
         13   -1    0    0    0    0  0.00000000000E+00  0.00000000000E+00  0.14999999963E+04  0.15000000000E+04  0.10566000000E+00 0.  1.
        994   -1    0    0    0    0 -0.00000000000E+00 -0.00000000000E+00  0.11368683772E-12  0.17120000000E+03  0.17120000000E+03 0.  0.
         13    1    1    2    0    0 -0.25756543201E+02 -0.31038681484E+01  0.12715502316E+03  0.12977459148E+03  0.10566000000E+00 0.  1.
        994    1    1    2    0    0  0.27213148054E+02  0.18629096976E+01  0.48856381459E+01  0.17342818491E+03  0.17120000000E+03 0.  0.
        998    1    1    2    0    0 -0.14566048535E+01  0.12409584508E+01  0.13679593350E+04  0.13679972236E+04  0.10000000000E+02 0.  0.
</event>
<event>
 5    1  0.1640179E-008  0.3923212E+03  0.7957747E-01  0.3399204E+00
         13   -1    0    0    0    0  0.00000000000E+00  0.00000000000E+00  0.14999999963E+04  0.15000000000E+04  0.10566000000E+00 0.  1.
        994   -1    0    0    0    0 -0.00000000000E+00 -0.00000000000E+00  0.11368683772E-12  0.17120000000E+03  0.17120000000E+03 0.  0.
         13    1    1    2    0    0  0.59181339702E+02 -0.62514321532E+02  0.13673711313E+03  0.16157821833E+03  0.10566000000E+00 0.  1.
        994    1    1    2    0    0 -0.56707261578E+02  0.69613625816E+02  0.54572393382E+02  0.20087149259E+03  0.17120000000E+03 0.  0.
        998    1    1    2    0    0 -0.24740781232E+01 -0.70993042841E+01  0.13086904898E+04  0.13087502891E+04  0.10000000000E+02 0.  1.
</event>
<event>
 5    1  0.1640179E-008  0.3817618E+03  0.7957747E-01  0.3443523E+00
         13   -1    0    0    0    0  0.00000000000E+00  0.00000000000E+00  0.14999999963E+04  0.15000000000E+04  0.10566000000E+00 0.  1.
        994   -1    0    0    0    0 -0.00000000000E+00 -0.00000000000E+00  0.11368683772E-12  0.17120000000E+03  0.17120000000E+03 0.  0.
         13    1    1    2    0    0  0.36123878609E+01  0.19876714810E+02  0.68080211839E+02  0.71014502363E+02  0.10566000000E+00 0.  1.
        994    1    1    2    0    0  0.16430856209E+02  0.42505326436E+01  0.42043613170E+01  0.17209054802E+03  0.17120000000E+03 0.  0.
        998    1    1    2    0    0 -0.20043244070E+02 -0.24127247454E+02  0.14277154231E+04  0.14280949496E+04  0.10000000000E+02 0.  1.
</event>
<event>
 5    1  0.1640179E-008  0.3843430E+03  0.7957747E-01  0.3432463E+00
         13   -1    0    0    0    0  0.00000000000E+00  0.00000000000E+00  0.14999999963E+04  0.15000000000E+04  0.10566000000E+00 0. -1.
        994   -1    0    0    0    0 -0.00000000000E+00 -0.00000000000E+00  0.11368683772E-12  0.17120000000E+03  0.17120000000E+03 0.  0.
         13    1    1    2    0    0  0.16391267646E+02  0.31225453958E+01  0.76711919470E+02  0.78505755824E+02  0.10566000000E+00 0. -1.
        994    1    1    2    0    0  0.34375404710E+01 -0.10391735685E+02  0.23516122674E+01  0.17156565780E+03  0.17120000000E+03 0.  0.
        998    1    1    2    0    0 -0.19828808117E+02  0.72691902896E+01  0.14209364645E+04  0.14211285864E+04  0.10000000000E+02 0. -1.
</event>
<event>
 5    1  0.1640179E-008  0.3763567E+03  0.7957747E-01  0.3467177E+00
         13   -1    0    0    0    0  0.00000000000E+00  0.00000000000E+00  0.14999999963E+04  0.15000000000E+04  0.10566000000E+00 0. -1.
        994   -1    0    0    0    0 -0.00000000000E+00 -0.00000000000E+00  0.11368683772E-12  0.17120000000E+03  0.17120000000E+03 0.  0.
         13    1    1    2    0    0  0.14957376202E+02 -0.17677359103E+02  0.56193436847E+02  0.60777673832E+02  0.10566000000E+00 0. -1.
        994    1    1    2    0    0  0.69635639221E+02 -0.26686551841E+02  0.25039658320E+02  0.18840838301E+03  0.17120000000E+03 0.  0.
        998    1    1    2    0    0 -0.84593015423E+02  0.44363910944E+02  0.14187669011E+04  0.14220139432E+04  0.10000000000E+02 0. -1.
</event>
<event>
 5    1  0.1640179E-008  0.3835932E+03  0.7957747E-01  0.3435661E+00
         13   -1    0    0    0    0  0.00000000000E+00  0.00000000000E+00  0.14999999963E+04  0.15000000000E+04  0.10566000000E+00 0.  1.
        994   -1    0    0    0    0 -0.00000000000E+00 -0.00000000000E+00  0.11368683772E-12  0.17120000000E+03  0.17120000000E+03 0.  0.
         13    1    1    2    0    0 -0.21796124253E+02  0.16790604282E+01  0.11303280017E+03  0.11512738751E+03  0.10566000000E+00 0.  1.
        994    1    1    2    0    0 -0.16959674210E+01 -0.23062535725E+02  0.40989013979E+01  0.17280335023E+03  0.17120000000E+03 0.  0.
        998    1    1    2    0    0  0.23492091674E+02  0.21383475296E+02  0.13828682947E+04  0.13832692623E+04  0.10000000000E+02 0.  1.
</event>
<event>
 5    1  0.1640179E-008  0.3775040E+03  0.7957747E-01  0.3462099E+00
         13   -1    0    0    0    0  0.00000000000E+00  0.00000000000E+00  0.14999999963E+04  0.15000000000E+04  0.10566000000E+00 0.  1.
        994   -1    0    0    0    0 -0.00000000000E+00 -0.00000000000E+00  0.11368683772E-12  0.17120000000E+03  0.17120000000E+03 0.  0.
         13    1    1    2    0    0 -0.95355826116E+02  0.83883535103E+02  0.37214063619E+03  0.39321475723E+03  0.10566000000E+00 0.  1.
        994    1    1    2    0    0  0.10791118968E+03 -0.78948343218E+02  0.82304231648E+02  0.23229526965E+03  0.17120000000E+03 0.  0.
        998    1    1    2    0    0 -0.12555363564E+02 -0.49351918845E+01  0.10455551284E+04  0.10456899731E+04  0.10000000000E+02 0.  1.
</event>
<event>
 5    1  0.1640179E-008  0.3808665E+03  0.7957747E-01  0.3447394E+00
         13   -1    0    0    0    0  0.00000000000E+00  0.00000000000E+00  0.14999999963E+04  0.15000000000E+04  0.10566000000E+00 0. -1.
        994   -1    0    0    0    0 -0.00000000000E+00 -0.00000000000E+00  0.11368683772E-12  0.17120000000E+03  0.17120000000E+03 0.  0.
         13    1    1    2    0    0 -0.16300980014E+02 -0.18485615368E+02  0.84563869176E+02  0.88082342493E+02  0.10566000000E+00 0. -1.
        994    1    1    2    0    0  0.14303451951E+02 -0.38015235621E+01  0.44268598675E+01  0.17189554214E+03  0.17120000000E+03 0.  0.
        998    1    1    2    0    0  0.19975280636E+01  0.22287138930E+02  0.14110092672E+04  0.14112221154E+04  0.10000000000E+02 0. -1.
</event>
<event>
 5    1  0.1640179E-008  0.3860778E+03  0.7957747E-01  0.3425114E+00
         13   -1    0    0    0    0  0.00000000000E+00  0.00000000000E+00  0.14999999963E+04  0.15000000000E+04  0.10566000000E+00 0. -1.
        994   -1    0    0    0    0 -0.00000000000E+00 -0.00000000000E+00  0.11368683772E-12  0.17120000000E+03  0.17120000000E+03 0.  0.
         13    1    1    2    0    0  0.12225880665E+02  0.60662271239E+01  0.75267315069E+02  0.76494778588E+02  0.10566000000E+00 0. -1.
        994    1    1    2    0    0 -0.18698379036E+02 -0.20316594882E+02  0.35984785981E+01  0.17344965395E+03  0.17120000000E+03 0.  0.
        998    1    1    2    0    0  0.64724983718E+01  0.14250367758E+02  0.14211342026E+04  0.14212555675E+04  0.10000000000E+02 0. -1.
</event>
<event>
 5    1  0.2268528E-008  0.3859604E+03  0.7957747E-01  0.3425609E+00
         13   -1    0    0    0    0  0.00000000000E+00  0.00000000000E+00  0.14999999963E+04  0.15000000000E+04  0.10566000000E+00 0.  1.
        994   -1    0    0    0    0 -0.00000000000E+00 -0.00000000000E+00  0.11368683772E-12  0.17120000000E+03  0.17120000000E+03 0.  0.
         13    1    1    2    0    0  0.62488869865E+01  0.97979397026E+01  0.58035506359E+02  0.59187662341E+02  0.10566000000E+00 0.  1.
        994    1    1    2    0    0 -0.32246520707E+01 -0.10421194773E+02  0.15443182641E+01  0.17155414481E+03  0.17120000000E+03 0.  0.
        998    1    1    2    0    0 -0.30242349159E+01  0.62325507018E+00  0.14404201717E+04  0.14404581929E+04  0.10000000000E+02 0.  1.
</event>
<event>
 5    1  0.1640179E-008  0.3821656E+03  0.7957747E-01  0.3441783E+00
         13   -1    0    0    0    0  0.00000000000E+00  0.00000000000E+00  0.14999999963E+04  0.15000000000E+04  0.10566000000E+00 0.  1.
        994   -1    0    0    0    0 -0.00000000000E+00 -0.00000000000E+00  0.11368683772E-12  0.17120000000E+03  0.17120000000E+03 0.  0.
         13    1    1    2    0    0  0.10095854900E+01 -0.26814700984E+02  0.13889347176E+03  0.14146185038E+03  0.10566000000E+00 0.  1.
        994    1    1    2    0    0 -0.11047173628E+02 -0.75797385840E+01  0.36399445508E+01  0.17176199137E+03  0.17120000000E+03 0.  0.
        998    1    1    2    0    0  0.10037588138E+02  0.34394439568E+02  0.13574665800E+04  0.13579761583E+04  0.10000000000E+02 0.  1.
</event>
<event>
 5    1  0.1640179E-008  0.3696876E+03  0.7957747E-01  0.3497328E+00
         13   -1    0    0    0    0  0.00000000000E+00  0.00000000000E+00  0.14999999963E+04  0.15000000000E+04  0.10566000000E+00 0.  1.
        994   -1    0    0    0    0 -0.00000000000E+00 -0.00000000000E+00  0.11368683772E-12  0.17120000000E+03  0.17120000000E+03 0.  0.
         13    1    1    2    0    0  0.23455755807E+02  0.42469016094E+00  0.27798909580E+02  0.36375037870E+02  0.10566000000E+00 0.  1.
        994    1    1    2    0    0  0.24086630991E+02  0.36961964998E+02  0.16199822444E+02  0.17753373453E+03  0.17120000000E+03 0.  0.
        998    1    1    2    0    0 -0.47542386797E+02 -0.37386655159E+02  0.14560012643E+04  0.14572912276E+04  0.10000000000E+02 0.  1.
</event>
<event>
 5    1  0.1640179E-008  0.3801638E+03  0.7957747E-01  0.3450446E+00
         13   -1    0    0    0    0  0.00000000000E+00  0.00000000000E+00  0.14999999963E+04  0.15000000000E+04  0.10566000000E+00 0. -1.
        994   -1    0    0    0    0 -0.00000000000E+00 -0.00000000000E+00  0.11368683772E-12  0.17120000000E+03  0.17120000000E+03 0.  0.
         13    1    1    2    0    0 -0.66030395573E+01  0.13567102797E+02  0.27140076828E+02  0.31052557768E+02  0.10566000000E+00 0. -1.
        994    1    1    2    0    0  0.10669659999E+01 -0.18005454616E+01  0.40651253360E+01  0.17126104526E+03  0.17120000000E+03 0.  0.
        998    1    1    2    0    0  0.55360735575E+01 -0.11766557336E+02  0.14687947941E+04  0.14688863970E+04  0.10000000000E+02 0. -1.
</event>
<event>
 5    1  0.1640179E-008  0.3808492E+03  0.7957747E-01  0.3447469E+00
         13   -1    0    0    0    0  0.00000000000E+00  0.00000000000E+00  0.14999999963E+04  0.15000000000E+04  0.10566000000E+00 0. -1.
        994   -1    0    0    0    0 -0.00000000000E+00 -0.00000000000E+00  0.11368683772E-12  0.17120000000E+03  0.17120000000E+03 0.  0.
         13    1    1    2    0    0 -0.16504355763E+02 -0.78795740334E+01  0.44060839804E+02  0.47705871906E+02  0.10566000000E+00 0. -1.
        994    1    1    2    0    0 -0.31215202478E+02  0.94601489702E+02  0.37527360722E+02  0.20159755336E+03  0.17120000000E+03 0.  0.
        998    1    1    2    0    0  0.47719558241E+02 -0.86721915669E+02  0.14184117958E+04  0.14218965747E+04  0.10000000000E+02 0. -1.
</event>
<event>
 5    1  0.1640179E-008  0.3684504E+03  0.7957747E-01  0.3503043E+00
         13   -1    0    0    0    0  0.00000000000E+00  0.00000000000E+00  0.14999999963E+04  0.15000000000E+04  0.10566000000E+00 0.  1.
        994   -1    0    0    0    0 -0.00000000000E+00 -0.00000000000E+00  0.11368683772E-12  0.17120000000E+03  0.17120000000E+03 0.  0.
         13    1    1    2    0    0  0.29950633394E+02  0.68162451648E+02  0.37211511316E+03  0.37949022235E+03  0.10566000000E+00 0.  1.
        994    1    1    2    0    0 -0.29317557794E+01  0.62067870709E-01  0.10151654111E+02  0.17152578560E+03  0.17120000000E+03 0.  0.
        998    1    1    2    0    0 -0.27018877615E+02 -0.68224519519E+02  0.11177332290E+04  0.11201839920E+04  0.10000000000E+02 0.  1.
</event>
<event>
 5    1  0.1640179E-008  0.3843751E+03  0.7957747E-01  0.3432327E+00
         13   -1    0    0    0    0  0.00000000000E+00  0.00000000000E+00  0.14999999963E+04  0.15000000000E+04  0.10566000000E+00 0.  1.
        994   -1    0    0    0    0 -0.00000000000E+00 -0.00000000000E+00  0.11368683772E-12  0.17120000000E+03  0.17120000000E+03 0.  0.
         13    1    1    2    0    0 -0.57443404967E+01 -0.17143348060E+02  0.80751860323E+02  0.82751229236E+02  0.10566000000E+00 0.  1.
        994    1    1    2    0    0  0.80843562737E+01  0.15897473262E+02  0.29895946219E+01  0.17215244450E+03  0.17120000000E+03 0.  0.
        998    1    1    2    0    0 -0.23400157770E+01  0.12458747977E+01  0.14162585413E+04  0.14162963263E+04  0.10000000000E+02 0.  1.
</event>
<event>
 5    1  0.1640179E-008  0.3857073E+03  0.7957747E-01  0.3426678E+00
         13   -1    0    0    0    0  0.00000000000E+00  0.00000000000E+00  0.14999999963E+04  0.15000000000E+04  0.10566000000E+00 0. -1.
        994   -1    0    0    0    0 -0.00000000000E+00 -0.00000000000E+00  0.11368683772E-12  0.17120000000E+03  0.17120000000E+03 0.  0.
         13    1    1    2    0    0 -0.12573193625E+02  0.74755178728E-01  0.62429825729E+02  0.63683475807E+02  0.10566000000E+00 0. -1.
        994    1    1    2    0    0  0.79804909170E+01  0.24443466092E+01  0.15079844509E+01  0.17140996786E+03  0.17120000000E+03 0.  0.
        998    1    1    2    0    0  0.45927027082E+01 -0.25191017879E+01  0.14360621861E+04  0.14361065563E+04  0.10000000000E+02 0. -1.
</event>
<event>
 5    1  0.1640179E-008  0.3821285E+03  0.7957747E-01  0.3441943E+00
         13   -1    0    0    0    0  0.00000000000E+00  0.00000000000E+00  0.14999999963E+04  0.15000000000E+04  0.10566000000E+00 0. -1.
        994   -1    0    0    0    0 -0.00000000000E+00 -0.00000000000E+00  0.11368683772E-12  0.17120000000E+03  0.17120000000E+03 0.  0.
         13    1    1    2    0    0 -0.84505030890E+01 -0.12229146922E+02  0.34938191074E+02  0.37969084746E+02  0.10566000000E+00 0. -1.
        994    1    1    2    0    0  0.36255467895E+01  0.10135024329E+02  0.34472488127E+01  0.17157268673E+03  0.17120000000E+03 0.  0.
        998    1    1    2    0    0  0.48249562995E+01  0.20941225922E+01  0.14616145564E+04  0.14616582285E+04  0.10000000000E+02 0. -1.
</event>
<event>
 5    1  0.1640179E-008  0.3727516E+03  0.7957747E-01  0.3483340E+00
         13   -1    0    0    0    0  0.00000000000E+00  0.00000000000E+00  0.14999999963E+04  0.15000000000E+04  0.10566000000E+00 0.  1.
        994   -1    0    0    0    0 -0.00000000000E+00 -0.00000000000E+00  0.11368683772E-12  0.17120000000E+03  0.17120000000E+03 0.  0.
         13    1    1    2    0    0 -0.87830045305E+00 -0.16964383883E+02  0.14819898437E+02  0.22543342386E+02  0.10566000000E+00 0.  1.
        994    1    1    2    0    0  0.17306275648E+02  0.15611310287E+02  0.97007315426E+01  0.17305133452E+03  0.17120000000E+03 0.  0.
        998    1    1    2    0    0 -0.16427975195E+02  0.13530735957E+01  0.14754793663E+04  0.14756053231E+04  0.10000000000E+02 0.  1.
</event>
<event>
 5    1  0.1640179E-008  0.3841842E+03  0.7957747E-01  0.3433139E+00
         13   -1    0    0    0    0  0.00000000000E+00  0.00000000000E+00  0.14999999963E+04  0.15000000000E+04  0.10566000000E+00 0.  1.
        994   -1    0    0    0    0 -0.00000000000E+00 -0.00000000000E+00  0.11368683772E-12  0.17120000000E+03  0.17120000000E+03 0.  0.
         13    1    1    2    0    0  0.18434211069E+03 -0.19376849212E+03  0.97313009126E+03  0.10092127764E+04  0.10566000000E+00 0.  1.
        994    1    1    2    0    0 -0.18757093733E+03  0.21784471940E+03  0.35386804310E+03  0.48700226923E+03  0.17120000000E+03 0.  0.
        998    1    1    2    0    0  0.32288266400E+01 -0.24076227283E+02  0.17300186191E+03  0.17498495440E+03  0.10000000000E+02 0.  1.
</event>
<event>
 5    1  0.1640179E-008  0.3809514E+03  0.7957747E-01  0.3447026E+00
         13   -1    0    0    0    0  0.00000000000E+00  0.00000000000E+00  0.14999999963E+04  0.15000000000E+04  0.10566000000E+00 0.  1.
        994   -1    0    0    0    0 -0.00000000000E+00 -0.00000000000E+00  0.11368683772E-12  0.17120000000E+03  0.17120000000E+03 0.  0.
         13    1    1    2    0    0 -0.28788649378E+02  0.66433287977E+01  0.12596423519E+03  0.12938284223E+03  0.10566000000E+00 0.  1.
        994    1    1    2    0    0  0.88351124561E+01  0.50006765126E+01  0.39971856984E+01  0.17154732138E+03  0.17120000000E+03 0.  0.
        998    1    1    2    0    0  0.19953536922E+02 -0.11644005310E+02  0.13700385754E+04  0.13702698364E+04  0.10000000000E+02 0.  1.
</event>
<event>
 5    1  0.1640179E-008  0.3803655E+03  0.7957747E-01  0.3449569E+00
         13   -1    0    0    0    0  0.00000000000E+00  0.00000000000E+00  0.14999999963E+04  0.15000000000E+04  0.10566000000E+00 0. -1.
        994   -1    0    0    0    0 -0.00000000000E+00 -0.00000000000E+00  0.11368683772E-12  0.17120000000E+03  0.17120000000E+03 0.  0.
         13    1    1    2    0    0  0.64988023261E+01 -0.91160168452E+01  0.14423348725E+02  0.18258706068E+02  0.10566000000E+00 0. -1.
        994    1    1    2    0    0 -0.55279069472E+01 -0.26399444800E+01  0.40740644235E+01  0.17135800262E+03  0.17120000000E+03 0.  0.
        998    1    1    2    0    0 -0.97089537890E+00  0.11755961325E+02  0.14815025831E+04  0.14815832913E+04  0.10000000000E+02 0. -1.
</event>
<event>
 5    1  0.1640179E-008  0.3713415E+03  0.7957747E-01  0.3489748E+00
         13   -1    0    0    0    0  0.00000000000E+00  0.00000000000E+00  0.14999999963E+04  0.15000000000E+04  0.10566000000E+00 0. -1.
        994   -1    0    0    0    0 -0.00000000000E+00 -0.00000000000E+00  0.11368683772E-12  0.17120000000E+03  0.17120000000E+03 0.  0.
         13    1    1    2    0    0 -0.50219948764E+01 -0.73185589925E+02  0.44329557842E+03  0.44932430606E+03  0.10566000000E+00 0. -1.
        994    1    1    2    0    0 -0.28418068695E+02  0.76751505322E+01  0.11557607133E+02  0.17409627465E+03  0.17120000000E+03 0.  0.
        998    1    1    2    0    0  0.33440063571E+02  0.65510439393E+02  0.10451468107E+04  0.10477794193E+04  0.10000000000E+02 0. -1.
</event>
<event>
 5    1  0.1640179E-008  0.3851271E+03  0.7957747E-01  0.3429133E+00
         13   -1    0    0    0    0  0.00000000000E+00  0.00000000000E+00  0.14999999963E+04  0.15000000000E+04  0.10566000000E+00 0.  1.
        994   -1    0    0    0    0 -0.00000000000E+00 -0.00000000000E+00  0.11368683772E-12  0.17120000000E+03  0.17120000000E+03 0.  0.
         13    1    1    2    0    0  0.12005393438E+02  0.42357571402E+01  0.57231651182E+02  0.58630573690E+02  0.10566000000E+00 0.  1.
        994    1    1    2    0    0  0.76691650369E+01  0.18741430208E+01  0.17719690929E+01  0.17139109772E+03  0.17120000000E+03 0.  0.
        998    1    1    2    0    0 -0.19674558475E+02 -0.61099001610E+01  0.14409963760E+04  0.14411783286E+04  0.10000000000E+02 0.  1.
</event>
<event>
 5    1  0.1640179E-008  0.3842003E+03  0.7957747E-01  0.3433071E+00
         13   -1    0    0    0    0  0.00000000000E+00  0.00000000000E+00  0.14999999963E+04  0.15000000000E+04  0.10566000000E+00 0.  1.
        994   -1    0    0    0    0 -0.00000000000E+00 -0.00000000000E+00  0.11368683772E-12  0.17120000000E+03  0.17120000000E+03 0.  0.
         13    1    1    2    0    0  0.29344548830E+01 -0.17245571172E+02  0.69788147498E+02  0.71947324104E+02  0.10566000000E+00 0.  1.
        994    1    1    2    0    0 -0.35574074659E+00  0.24177413206E+02  0.39578421492E+01  0.17294443725E+03  0.17120000000E+03 0.  0.
        998    1    1    2    0    0 -0.25787141364E+01 -0.69318420337E+01  0.14262540066E+04  0.14263082386E+04  0.10000000000E+02 0.  1.
</event>
<event>
 5    1  0.1640179E-008  0.3788822E+03  0.7957747E-01  0.3456040E+00
         13   -1    0    0    0    0  0.00000000000E+00  0.00000000000E+00  0.14999999963E+04  0.15000000000E+04  0.10566000000E+00 0.  1.
        994   -1    0    0    0    0 -0.00000000000E+00 -0.00000000000E+00  0.11368683772E-12  0.17120000000E+03  0.17120000000E+03 0.  0.
         13    1    1    2    0    0  0.42844212497E+02  0.75159583003E+01  0.18571322844E+03  0.19073943104E+03  0.10566000000E+00 0.  1.
        994    1    1    2    0    0 -0.34714312545E+02 -0.11678898793E+02  0.92127416412E+01  0.17531627073E+03  0.17120000000E+03 0.  0.
        998    1    1    2    0    0 -0.81298999518E+01  0.41629404925E+01  0.13050740262E+04  0.13051442982E+04  0.10000000000E+02 0.  0.
</event>
<event>
 5    1  0.1640179E-008  0.3845124E+03  0.7957747E-01  0.3431743E+00
         13   -1    0    0    0    0  0.00000000000E+00  0.00000000000E+00  0.14999999963E+04  0.15000000000E+04  0.10566000000E+00 0. -1.
        994   -1    0    0    0    0 -0.00000000000E+00 -0.00000000000E+00  0.11368683772E-12  0.17120000000E+03  0.17120000000E+03 0.  0.
         13    1    1    2    0    0  0.13291770362E+02 -0.13313544283E+02  0.88639906577E+02  0.90614379780E+02  0.10566000000E+00 0. -1.
        994    1    1    2    0    0 -0.15737057170E+02  0.14027999280E+02  0.33377027717E+01  0.17252541839E+03  0.17120000000E+03 0.  0.
        998    1    1    2    0    0  0.24452868078E+01 -0.71445499704E+00  0.14080223869E+04  0.14080602018E+04  0.10000000000E+02 0. -1.
</event>
<event>
 5    1  0.1640179E-008  0.3829491E+03  0.7957747E-01  0.3438417E+00
         13   -1    0    0    0    0  0.00000000000E+00  0.00000000000E+00  0.14999999963E+04  0.15000000000E+04  0.10566000000E+00 0.  1.
        994   -1    0    0    0    0 -0.00000000000E+00 -0.00000000000E+00  0.11368683772E-12  0.17120000000E+03  0.17120000000E+03 0.  0.
         13    1    1    2    0    0 -0.12038823908E+02 -0.97205259223E+01  0.42947081475E+02  0.45649587913E+02  0.10566000000E+00 0.  1.
        994    1    1    2    0    0  0.14155577003E+02  0.10801237746E+02  0.37021225055E+01  0.17216327369E+03  0.17120000000E+03 0.  0.
        998    1    1    2    0    0 -0.21167530946E+01 -0.10807118241E+01  0.14533507923E+04  0.14533871384E+04  0.10000000000E+02 0.  1.
</event>
<event>
 5    1  0.1640179E-008  0.3851519E+03  0.7957747E-01  0.3429028E+00
         13   -1    0    0    0    0  0.00000000000E+00  0.00000000000E+00  0.14999999963E+04  0.15000000000E+04  0.10566000000E+00 0. -1.
        994   -1    0    0    0    0 -0.00000000000E+00 -0.00000000000E+00  0.11368683772E-12  0.17120000000E+03  0.17120000000E+03 0.  0.
         13    1    1    2    0    0 -0.12538925070E+02  0.25901336377E+01  0.51637522627E+02  0.53201300184E+02  0.10566000000E+00 0. -1.
        994    1    1    2    0    0  0.13537969968E+02  0.45922086809E+01  0.22267832566E+01  0.17181025457E+03  0.17120000000E+03 0.  0.
        998    1    1    2    0    0 -0.99904489800E+00 -0.71823423186E+01  0.14461356904E+04  0.14461884452E+04  0.10000000000E+02 0. -1.
</event>
<event>
 5    1  0.1640179E-008  0.3801722E+03  0.7957747E-01  0.3450409E+00
         13   -1    0    0    0    0  0.00000000000E+00  0.00000000000E+00  0.14999999963E+04  0.15000000000E+04  0.10566000000E+00 0. -1.
        994   -1    0    0    0    0 -0.00000000000E+00 -0.00000000000E+00  0.11368683772E-12  0.17120000000E+03  0.17120000000E+03 0.  0.
         13    1    1    2    0    0 -0.63124785247E+02 -0.62254736473E+01  0.34975592283E+03  0.35546126618E+03  0.10566000000E+00 0. -1.
        994    1    1    2    0    0  0.72366600234E+02 -0.12341567154E+01  0.21751123548E+02  0.18713898404E+03  0.17120000000E+03 0.  0.
        998    1    1    2    0    0 -0.92418149869E+01  0.74596303626E+01  0.11284929499E+04  0.11285997498E+04  0.10000000000E+02 0. -1.
</event>
<event>
 5    1  0.3074564E-008  0.3848816E+03  0.7957747E-01  0.3430174E+00
         13   -1    0    0    0    0  0.00000000000E+00  0.00000000000E+00  0.14999999963E+04  0.15000000000E+04  0.10566000000E+00 0.  1.
        994   -1    0    0    0    0 -0.00000000000E+00 -0.00000000000E+00  0.11368683772E-12  0.17120000000E+03  0.17120000000E+03 0.  0.
         13    1    1    2    0    0  0.10662394878E+02 -0.85489209754E+00  0.33002869772E+02  0.34693199366E+02  0.10566000000E+00 0.  1.
        994    1    1    2    0    0 -0.11359766808E+02  0.13401460653E+01  0.21194961361E+01  0.17159479175E+03  0.17120000000E+03 0.  0.
        998    1    1    2    0    0  0.69737192996E+00 -0.48525396781E+00  0.14648776304E+04  0.14649120089E+04  0.10000000000E+02 0.  1.
</event>
<event>
 5    1  0.1640179E-008  0.3812690E+03  0.7957747E-01  0.3445652E+00
         13   -1    0    0    0    0  0.00000000000E+00  0.00000000000E+00  0.14999999963E+04  0.15000000000E+04  0.10566000000E+00 0. -1.
        994   -1    0    0    0    0 -0.00000000000E+00 -0.00000000000E+00  0.11368683772E-12  0.17120000000E+03  0.17120000000E+03 0.  0.
         13    1    1    2    0    0  0.13739765950E+02  0.28700770997E+02  0.14118750012E+03  0.14472883880E+03  0.10566000000E+00 0. -1.
        994    1    1    2    0    0 -0.12301269783E+02 -0.18037315569E+02  0.50823648565E+01  0.17266133448E+03  0.17120000000E+03 0.  0.
        998    1    1    2    0    0 -0.14384961675E+01 -0.10663455428E+02  0.13537301313E+04  0.13538098267E+04  0.10000000000E+02 0. -1.
</event>
<event>
 5    1  0.1640179E-008  0.3820081E+03  0.7957747E-01  0.3442461E+00
         13   -1    0    0    0    0  0.00000000000E+00  0.00000000000E+00  0.14999999963E+04  0.15000000000E+04  0.10566000000E+00 0. -1.
        994   -1    0    0    0    0 -0.00000000000E+00 -0.00000000000E+00  0.11368683772E-12  0.17120000000E+03  0.17120000000E+03 0.  0.
         13    1    1    2    0    0  0.63357030345E+01  0.78924265297E+01  0.14950543625E+02  0.18054402460E+02  0.10566000000E+00 0. -1.
        994    1    1    2    0    0 -0.53041835749E+01 -0.10264395308E+02  0.35663495545E+01  0.17162648695E+03  0.17120000000E+03 0.  0.
        998    1    1    2    0    0 -0.10315194596E+01  0.23719687787E+01  0.14814831031E+04  0.14815191106E+04  0.10000000000E+02 0. -1.
</event>
<event>
 5    1  0.1640179E-008  0.3812113E+03  0.7957747E-01  0.3445901E+00
         13   -1    0    0    0    0  0.00000000000E+00  0.00000000000E+00  0.14999999963E+04  0.15000000000E+04  0.10566000000E+00 0.  1.
        994   -1    0    0    0    0 -0.00000000000E+00 -0.00000000000E+00  0.11368683772E-12  0.17120000000E+03  0.17120000000E+03 0.  0.
         13    1    1    2    0    0 -0.15632578306E+02  0.22966418093E+02  0.98336582940E+02  0.10218575523E+03  0.10566000000E+00 0.  1.
        994    1    1    2    0    0  0.18988800820E+02 -0.29291297362E+02  0.75908591402E+01  0.17488743751E+03  0.17120000000E+03 0.  0.
        998    1    1    2    0    0 -0.33562225141E+01  0.63248792693E+01  0.13940725542E+04  0.13941268073E+04  0.10000000000E+02 0.  1.
</event>
<event>
 5    1  0.1640179E-008  0.3782723E+03  0.7957747E-01  0.3458716E+00
         13   -1    0    0    0    0  0.00000000000E+00  0.00000000000E+00  0.14999999963E+04  0.15000000000E+04  0.10566000000E+00 0.  1.
        994   -1    0    0    0    0 -0.00000000000E+00 -0.00000000000E+00  0.11368683772E-12  0.17120000000E+03  0.17120000000E+03 0.  0.
         13    1    1    2    0    0 -0.24006143510E+02  0.17497005870E+02  0.95817052084E+02  0.10031629367E+03  0.10566000000E+00 0.  1.
        994    1    1    2    0    0 -0.72362137762E+01 -0.32511792381E+01  0.52194588955E+01  0.17146316137E+03  0.17120000000E+03 0.  0.
        998    1    1    2    0    0  0.31242357286E+02 -0.14245826632E+02  0.13989634853E+04  0.13994205450E+04  0.10000000000E+02 0.  1.
</event>
<event>
 5    1  0.1640179E-008  0.3846478E+03  0.7957747E-01  0.3431167E+00
         13   -1    0    0    0    0  0.00000000000E+00  0.00000000000E+00  0.14999999963E+04  0.15000000000E+04  0.10566000000E+00 0. -1.
        994   -1    0    0    0    0 -0.00000000000E+00 -0.00000000000E+00  0.11368683772E-12  0.17120000000E+03  0.17120000000E+03 0.  0.
         13    1    1    2    0    0  0.49562682699E+01 -0.25091519325E+02  0.13333319374E+03  0.13576413611E+03  0.10566000000E+00 0. -1.
        994    1    1    2    0    0 -0.42173199503E+02  0.47358750882E+02  0.15159328790E+02  0.18319572946E+03  0.17120000000E+03 0.  0.
        998    1    1    2    0    0  0.37216931233E+02 -0.22267231558E+02  0.13515074738E+04  0.13522401344E+04  0.10000000000E+02 0. -1.
</event>
<event>
 5    1  0.1640179E-008  0.3808330E+03  0.7957747E-01  0.3447539E+00
         13   -1    0    0    0    0  0.00000000000E+00  0.00000000000E+00  0.14999999963E+04  0.15000000000E+04  0.10566000000E+00 0.  1.
        994   -1    0    0    0    0 -0.00000000000E+00 -0.00000000000E+00  0.11368683772E-12  0.17120000000E+03  0.17120000000E+03 0.  0.
         13    1    1    2    0    0  0.53870106767E+02 -0.94898360044E+01  0.83323545104E+02  0.99673816638E+02  0.10566000000E+00 0.  1.
        994    1    1    2    0    0 -0.29542944553E+02  0.45149474126E+02  0.27443813277E+02  0.18158706858E+03  0.17120000000E+03 0.  0.
        998    1    1    2    0    0 -0.24327162214E+02 -0.35659638122E+02  0.13892326379E+04  0.13899391148E+04  0.10000000000E+02 0.  1.
</event>
<event>
 5    1  0.1640179E-008  0.3824730E+03  0.7957747E-01  0.3440461E+00
         13   -1    0    0    0    0  0.00000000000E+00  0.00000000000E+00  0.14999999963E+04  0.15000000000E+04  0.10566000000E+00 0.  1.
        994   -1    0    0    0    0 -0.00000000000E+00 -0.00000000000E+00  0.11368683772E-12  0.17120000000E+03  0.17120000000E+03 0.  0.
         13    1    1    2    0    0  0.36554129113E+02 -0.10651620956E+02  0.22508007642E+03  0.22827771102E+03  0.10566000000E+00 0.  1.
        994    1    1    2    0    0 -0.30763689622E+02  0.14017739689E+02  0.66888803072E+01  0.17463413969E+03  0.17120000000E+03 0.  0.
        998    1    1    2    0    0 -0.57904394904E+01 -0.33661187328E+01  0.12682310396E+04  0.12682881493E+04  0.10000000000E+02 0.  1.
</event>
<event>
 5    1  0.1640179E-008  0.3838617E+03  0.7957747E-01  0.3434514E+00
         13   -1    0    0    0    0  0.00000000000E+00  0.00000000000E+00  0.14999999963E+04  0.15000000000E+04  0.10566000000E+00 0. -1.
        994   -1    0    0    0    0 -0.00000000000E+00 -0.00000000000E+00  0.11368683772E-12  0.17120000000E+03  0.17120000000E+03 0.  0.
         13    1    1    2    0    0 -0.12621031721E+02  0.13222519053E+02  0.67655478064E+02  0.70081383604E+02  0.10566000000E+00 0. -1.
        994    1    1    2    0    0  0.32436439694E+02 -0.13269785822E+02  0.62609947359E+01  0.17486237414E+03  0.17120000000E+03 0.  0.
        998    1    1    2    0    0 -0.19815407972E+02  0.47266768288E-01  0.14260835235E+04  0.14262562423E+04  0.10000000000E+02 0. -1.
</event>
<event>
 5    1  0.1640179E-008  0.3828255E+03  0.7957747E-01  0.3438947E+00
         13   -1    0    0    0    0  0.00000000000E+00  0.00000000000E+00  0.14999999963E+04  0.15000000000E+04  0.10566000000E+00 0.  1.
        994   -1    0    0    0    0 -0.00000000000E+00 -0.00000000000E+00  0.11368683772E-12  0.17120000000E+03  0.17120000000E+03 0.  0.
         13    1    1    2    0    0 -0.15048071415E+01  0.30085431413E+02  0.14915931634E+03  0.15217066223E+03  0.10566000000E+00 0.  1.
        994    1    1    2    0    0  0.10805737168E+02 -0.32098481682E+02  0.65219966981E+01  0.17463978047E+03  0.17120000000E+03 0.  0.
        998    1    1    2    0    0 -0.93009300262E+01  0.20130502689E+01  0.13443186832E+04  0.13443895573E+04  0.10000000000E+02 0.  1.
</event>
<event>
 5    1  0.1640179E-008  0.3735426E+03  0.7957747E-01  0.3479766E+00
         13   -1    0    0    0    0  0.00000000000E+00  0.00000000000E+00  0.14999999963E+04  0.15000000000E+04  0.10566000000E+00 0. -1.
        994   -1    0    0    0    0 -0.00000000000E+00 -0.00000000000E+00  0.11368683772E-12  0.17120000000E+03  0.17120000000E+03 0.  0.
         13    1    1    2    0    0  0.59180384677E+02 -0.11344091403E+02  0.34999094866E+03  0.35514036893E+03  0.10566000000E+00 0. -1.
        994    1    1    2    0    0 -0.15773844232E+00 -0.37021546832E+02  0.12125488140E+02  0.17557644282E+03  0.17120000000E+03 0.  0.
        998    1    1    2    0    0 -0.59022646235E+02  0.48365638235E+02  0.11378835595E+04  0.11404831882E+04  0.10000000000E+02 0. -1.
</event>
<event>
 5    1  0.1640179E-008  0.3794518E+03  0.7957747E-01  0.3453549E+00
         13   -1    0    0    0    0  0.00000000000E+00  0.00000000000E+00  0.14999999963E+04  0.15000000000E+04  0.10566000000E+00 0.  1.
        994   -1    0    0    0    0 -0.00000000000E+00 -0.00000000000E+00  0.11368683772E-12  0.17120000000E+03  0.17120000000E+03 0.  0.
         13    1    1    2    0    0  0.17636283209E+02 -0.38946753155E+02  0.42988582548E+02  0.60629344877E+02  0.10566000000E+00 0.  1.
        994    1    1    2    0    0  0.44578973902E+01  0.10260269405E+03  0.55236691994E+02  0.20714178192E+03  0.17120000000E+03 0.  0.
        998    1    1    2    0    0 -0.22094180599E+02 -0.63655940898E+02  0.14017747217E+04  0.14034288732E+04  0.10000000000E+02 0.  1.
</event>
<event>
 5    1  0.1699701E-008  0.3803743E+03  0.7957747E-01  0.3449530E+00
         13   -1    0    0    0    0  0.00000000000E+00  0.00000000000E+00  0.14999999963E+04  0.15000000000E+04  0.10566000000E+00 0. -1.
        994   -1    0    0    0    0 -0.00000000000E+00 -0.00000000000E+00  0.11368683772E-12  0.17120000000E+03  0.17120000000E+03 0.  0.
         13    1    1    2    0    0 -0.15248747522E+02 -0.24192795767E+01  0.28313889119E+02  0.32250034043E+02  0.10566000000E+00 0. -1.
        994    1    1    2    0    0  0.14452217206E+02  0.12423773848E+01  0.46471639857E+01  0.17187625263E+03  0.17120000000E+03 0.  0.
        998    1    1    2    0    0  0.79653031559E+00  0.11769021919E+01  0.14670389432E+04  0.14670737133E+04  0.10000000000E+02 0. -1.
</event>
<event>
 5    1  0.1640179E-008  0.3801808E+03  0.7957747E-01  0.3450372E+00
         13   -1    0    0    0    0  0.00000000000E+00  0.00000000000E+00  0.14999999963E+04  0.15000000000E+04  0.10566000000E+00 0. -1.
        994   -1    0    0    0    0 -0.00000000000E+00 -0.00000000000E+00  0.11368683772E-12  0.17120000000E+03  0.17120000000E+03 0.  0.
         13    1    1    2    0    0  0.21392481342E+01  0.24639369540E+02  0.81885175922E+02  0.85538693664E+02  0.10566000000E+00 0. -1.
        994    1    1    2    0    0  0.40201082135E+00  0.50602727298E+01  0.41280027062E+01  0.17132497885E+03  0.17120000000E+03 0.  0.
        998    1    1    2    0    0 -0.25412589555E+01 -0.29699642270E+02  0.14139868177E+04  0.14143363275E+04  0.10000000000E+02 0. -1.
</event>
<event>
 5    1  0.1640179E-008  0.3818706E+03  0.7957747E-01  0.3443054E+00
         13   -1    0    0    0    0  0.00000000000E+00  0.00000000000E+00  0.14999999963E+04  0.15000000000E+04  0.10566000000E+00 0. -1.
        994   -1    0    0    0    0 -0.00000000000E+00 -0.00000000000E+00  0.11368683772E-12  0.17120000000E+03  0.17120000000E+03 0.  0.
         13    1    1    2    0    0 -0.67503386600E+02  0.80531580583E+02  0.60724430000E+03  0.61626917311E+03  0.10566000000E+00 0. -1.
        994    1    1    2    0    0  0.68042558693E+02 -0.12260723886E+03  0.71532816547E+02  0.23256979309E+03  0.17120000000E+03 0.  0.
        998    1    1    2    0    0 -0.53917209360E+00  0.42075658277E+02  0.82122287973E+03  0.82236103380E+03  0.10000000000E+02 0. -1.
</event>
<event>
 5    1  0.1946172E-008  0.3831706E+03  0.7957747E-01  0.3437468E+00
         13   -1    0    0    0    0  0.00000000000E+00  0.00000000000E+00  0.14999999963E+04  0.15000000000E+04  0.10566000000E+00 0.  1.
        994   -1    0    0    0    0 -0.00000000000E+00 -0.00000000000E+00  0.11368683772E-12  0.17120000000E+03  0.17120000000E+03 0.  0.
         13    1    1    2    0    0  0.17429687477E+01  0.98815125237E+01  0.18549259924E+02  0.21089533840E+02  0.10566000000E+00 0.  1.
        994    1    1    2    0    0 -0.21948622253E+01 -0.12439727601E+02  0.30691922304E+01  0.17169281926E+03  0.17120000000E+03 0.  0.
        998    1    1    2    0    0  0.45189347763E+00  0.25582150773E+01  0.14783815441E+04  0.14784176469E+04  0.10000000000E+02 0.  1.
</event>
<event>
 5    1  0.1640179E-008  0.3865152E+03  0.7957747E-01  0.3423272E+00
         13   -1    0    0    0    0  0.00000000000E+00  0.00000000000E+00  0.14999999963E+04  0.15000000000E+04  0.10566000000E+00 0. -1.
        994   -1    0    0    0    0 -0.00000000000E+00 -0.00000000000E+00  0.11368683772E-12  0.17120000000E+03  0.17120000000E+03 0.  0.
         13    1    1    2    0    0  0.47473415460E+01 -0.92731154973E+01  0.61791402119E+02  0.62663517797E+02  0.10566000000E+00 0. -1.
        994    1    1    2    0    0 -0.42188574189E+01  0.84255790332E+01  0.11703647606E+01  0.17146311234E+03  0.17120000000E+03 0.  0.
        998    1    1    2    0    0 -0.52848412707E+00  0.84753646414E+00  0.14370382294E+04  0.14370733699E+04  0.10000000000E+02 0.  0.
</event>
<event>
 5    1  0.1640179E-008  0.3799148E+03  0.7957747E-01  0.3451530E+00
         13   -1    0    0    0    0  0.00000000000E+00  0.00000000000E+00  0.14999999963E+04  0.15000000000E+04  0.10566000000E+00 0.  1.
        994   -1    0    0    0    0 -0.00000000000E+00 -0.00000000000E+00  0.11368683772E-12  0.17120000000E+03  0.17120000000E+03 0.  0.
         13    1    1    2    0    0 -0.82212724088E+01  0.30355177981E+02  0.12084419949E+03  0.12486936319E+03  0.10566000000E+00 0.  1.
        994    1    1    2    0    0  0.11248693187E+02 -0.10589094623E+02  0.49746051723E+01  0.17196758043E+03  0.17120000000E+03 0.  0.
        998    1    1    2    0    0 -0.30274207784E+01 -0.19766083359E+02  0.13741811916E+04  0.13743630564E+04  0.10000000000E+02 0.  1.
</event>
<event>
 5    1  0.1640179E-008  0.3823741E+03  0.7957747E-01  0.3440886E+00
         13   -1    0    0    0    0  0.00000000000E+00  0.00000000000E+00  0.14999999963E+04  0.15000000000E+04  0.10566000000E+00 0.  1.
        994   -1    0    0    0    0 -0.00000000000E+00 -0.00000000000E+00  0.11368683772E-12  0.17120000000E+03  0.17120000000E+03 0.  0.
         13    1    1    2    0    0  0.32089371596E+02 -0.21131689695E+02  0.22365043006E+03  0.22692686511E+03  0.10566000000E+00 0.  1.
        994    1    1    2    0    0 -0.26492307285E+02  0.22717589801E+02  0.69897458644E+01  0.17486059527E+03  0.17120000000E+03 0.  0.
        998    1    1    2    0    0 -0.55970643109E+01 -0.15859001057E+01  0.12693598204E+04  0.12694125396E+04  0.10000000000E+02 0.  1.
</event>
<event>
 5    1  0.1640179E-008  0.3847831E+03  0.7957747E-01  0.3430593E+00
         13   -1    0    0    0    0  0.00000000000E+00  0.00000000000E+00  0.14999999963E+04  0.15000000000E+04  0.10566000000E+00 0.  1.
        994   -1    0    0    0    0 -0.00000000000E+00 -0.00000000000E+00  0.11368683772E-12  0.17120000000E+03  0.17120000000E+03 0.  0.
         13    1    1    2    0    0 -0.71071027391E+01 -0.10072249379E+02  0.42899874346E+02  0.44635988841E+02  0.10566000000E+00 0.  1.
        994    1    1    2    0    0  0.11498410221E+01  0.12872334140E+02  0.22877079684E+01  0.17170233757E+03  0.17120000000E+03 0.  0.
        998    1    1    2    0    0  0.59572617170E+01 -0.28000847619E+01  0.14548124140E+04  0.14548616736E+04  0.10000000000E+02 0.  1.
</event>
<event>
 5    1  0.1640179E-008  0.3802149E+03  0.7957747E-01  0.3450223E+00
         13   -1    0    0    0    0  0.00000000000E+00  0.00000000000E+00  0.14999999963E+04  0.15000000000E+04  0.10566000000E+00 0.  1.
        994   -1    0    0    0    0 -0.00000000000E+00 -0.00000000000E+00  0.11368683772E-12  0.17120000000E+03  0.17120000000E+03 0.  0.
         13    1    1    2    0    0  0.58505713722E+01 -0.12255023502E+02  0.21094185645E+02  0.25087658688E+02  0.10566000000E+00 0.  1.
        994    1    1    2    0    0 -0.21579766608E+01  0.12446500597E+02  0.45579250942E+01  0.17172590638E+03  0.17120000000E+03 0.  0.
        998    1    1    2    0    0 -0.36925947114E+01 -0.19147709464E+00  0.14743478855E+04  0.14743864349E+04  0.10000000000E+02 0.  1.
</event>
<event>
 5    1  0.1640179E-008  0.3856410E+03  0.7957747E-01  0.3426958E+00
         13   -1    0    0    0    0  0.00000000000E+00  0.00000000000E+00  0.14999999963E+04  0.15000000000E+04  0.10566000000E+00 0. -1.
        994   -1    0    0    0    0 -0.00000000000E+00 -0.00000000000E+00  0.11368683772E-12  0.17120000000E+03  0.17120000000E+03 0.  0.
         13    1    1    2    0    0 -0.90419469150E+01  0.10423721220E+02  0.74806032205E+02  0.76068156192E+02  0.10566000000E+00 0. -1.
        994    1    1    2    0    0  0.29663453901E+00 -0.76367892487E+01  0.15039263184E+01  0.17137709980E+03  0.17120000000E+03 0.  0.
        998    1    1    2    0    0  0.87453123760E+01 -0.27869319709E+01  0.14236900378E+04  0.14237547440E+04  0.10000000000E+02 0. -1.
</event>
<event>
 5    1  0.1640179E-008  0.3776696E+03  0.7957747E-01  0.3461369E+00
         13   -1    0    0    0    0  0.00000000000E+00  0.00000000000E+00  0.14999999963E+04  0.15000000000E+04  0.10566000000E+00 0.  1.
        994   -1    0    0    0    0 -0.00000000000E+00 -0.00000000000E+00  0.11368683772E-12  0.17120000000E+03  0.17120000000E+03 0.  0.
         13    1    1    2    0    0  0.34641660129E+02 -0.10667222000E+02  0.11317164232E+03  0.11883461630E+03  0.10566000000E+00 0.  1.
        994    1    1    2    0    0 -0.33335983594E+02  0.16727210322E+02  0.10014879248E+02  0.17550163866E+03  0.17120000000E+03 0.  0.
        998    1    1    2    0    0 -0.13056765349E+01 -0.60599883227E+01  0.13768134747E+04  0.13768637450E+04  0.10000000000E+02 0.  1.
</event>
<event>
 5    1  0.1640179E-008  0.3810144E+03  0.7957747E-01  0.3446753E+00
         13   -1    0    0    0    0  0.00000000000E+00  0.00000000000E+00  0.14999999963E+04  0.15000000000E+04  0.10566000000E+00 0. -1.
        994   -1    0    0    0    0 -0.00000000000E+00 -0.00000000000E+00  0.11368683772E-12  0.17120000000E+03  0.17120000000E+03 0.  0.
         13    1    1    2    0    0  0.25941315675E+02 -0.10405749178E+02  0.10316202617E+03  0.10688145902E+03  0.10566000000E+00 0. -1.
        994    1    1    2    0    0 -0.22923983990E+02  0.46427762913E+01  0.54467435496E+01  0.17287617369E+03  0.17120000000E+03 0.  0.
        998    1    1    2    0    0 -0.30173316854E+01  0.57629728871E+01  0.13913912266E+04  0.13914423673E+04  0.10000000000E+02 0. -1.
</event>
<event>
 5    1  0.1640179E-008  0.3812605E+03  0.7957747E-01  0.3445688E+00
         13   -1    0    0    0    0  0.00000000000E+00  0.00000000000E+00  0.14999999963E+04  0.15000000000E+04  0.10566000000E+00 0.  1.
        994   -1    0    0    0    0 -0.00000000000E+00 -0.00000000000E+00  0.11368683772E-12  0.17120000000E+03  0.17120000000E+03 0.  0.
         13    1    1    2    0    0 -0.23913431473E+02 -0.43957865789E+02  0.29576329719E+03  0.29996680699E+03  0.10566000000E+00 0.  1.
        994    1    1    2    0    0  0.27297097097E+02  0.39691740258E+02  0.11262350336E+02  0.17820450693E+03  0.17120000000E+03 0.  0.
        998    1    1    2    0    0 -0.33836656245E+01  0.42661255307E+01  0.11929743488E+04  0.11930286861E+04  0.10000000000E+02 0.  1.
</event>
<event>
 5    1  0.1742417E-008  0.3857951E+03  0.7957747E-01  0.3426307E+00
         13   -1    0    0    0    0  0.00000000000E+00  0.00000000000E+00  0.14999999963E+04  0.15000000000E+04  0.10566000000E+00 0. -1.
        994   -1    0    0    0    0 -0.00000000000E+00 -0.00000000000E+00  0.11368683772E-12  0.17120000000E+03  0.17120000000E+03 0.  0.
         13    1    1    2    0    0  0.98098694350E+01  0.69312479977E+01  0.57959350696E+02  0.59190989469E+02  0.10566000000E+00 0. -1.
        994    1    1    2    0    0 -0.66500107291E+01 -0.85195474612E+01  0.16191271045E+01  0.17154843894E+03  0.17120000000E+03 0.  0.
        998    1    1    2    0    0 -0.31598587059E+01  0.15882994635E+01  0.14404215185E+04  0.14404605716E+04  0.10000000000E+02 0. -1.
</event>
<event>
 5    1  0.1640179E-008  0.3859305E+03  0.7957747E-01  0.3425735E+00
         13   -1    0    0    0    0  0.00000000000E+00  0.00000000000E+00  0.14999999963E+04  0.15000000000E+04  0.10566000000E+00 0. -1.
        994   -1    0    0    0    0 -0.00000000000E+00 -0.00000000000E+00  0.11368683772E-12  0.17120000000E+03  0.17120000000E+03 0.  0.
         13    1    1    2    0    0  0.13113675888E+02 -0.24467959407E+01  0.80427927489E+02  0.81526793080E+02  0.10566000000E+00 0. -1.
        994    1    1    2    0    0 -0.36062223645E+01 -0.65235888433E+00  0.12128780243E+01  0.17124351516E+03  0.17120000000E+03 0.  0.
        998    1    1    2    0    0 -0.95074535238E+01  0.30991548251E+01  0.14183591908E+04  0.14184296918E+04  0.10000000000E+02 0. -1.
</event>
<event>
 5    1  0.1640179E-008  0.3850268E+03  0.7957747E-01  0.3429559E+00
         13   -1    0    0    0    0  0.00000000000E+00  0.00000000000E+00  0.14999999963E+04  0.15000000000E+04  0.10566000000E+00 0. -1.
        994   -1    0    0    0    0 -0.00000000000E+00 -0.00000000000E+00  0.11368683772E-12  0.17120000000E+03  0.17120000000E+03 0.  0.
         13    1    1    2    0    0  0.99475671681E+01 -0.22431330262E+01  0.32935844870E+02  0.34478497353E+02  0.10566000000E+00 0. -1.
        994    1    1    2    0    0 -0.11220757435E+00  0.14946864831E+01  0.16242287503E+01  0.17121426575E+03  0.17120000000E+03 0.  0.
        998    1    1    2    0    0 -0.98353595938E+01  0.74844654303E+00  0.14654399227E+04  0.14655072369E+04  0.10000000000E+02 0. -1.
</event>
<event>
 5    1  0.1640179E-008  0.3798066E+03  0.7957747E-01  0.3452001E+00
         13   -1    0    0    0    0  0.00000000000E+00  0.00000000000E+00  0.14999999963E+04  0.15000000000E+04  0.10566000000E+00 0.  1.
        994   -1    0    0    0    0 -0.00000000000E+00 -0.00000000000E+00  0.11368683772E-12  0.17120000000E+03  0.17120000000E+03 0.  0.
         13    1    1    2    0    0 -0.20106744636E+02 -0.18192732305E+02  0.81712585620E+02  0.86094218745E+02  0.10566000000E+00 0.  1.
        994    1    1    2    0    0  0.17169809858E+02  0.20343768232E+02  0.66049488977E+01  0.17338320745E+03  0.17120000000E+03 0.  0.
        998    1    1    2    0    0  0.29369347778E+01 -0.21510359271E+01  0.14116824618E+04  0.14117225738E+04  0.10000000000E+02 0.  1.
</event>
<event>
 5    1  0.1640179E-008  0.3703371E+03  0.7957747E-01  0.3494343E+00
         13   -1    0    0    0    0  0.00000000000E+00  0.00000000000E+00  0.14999999963E+04  0.15000000000E+04  0.10566000000E+00 0. -1.
        994   -1    0    0    0    0 -0.00000000000E+00 -0.00000000000E+00  0.11368683772E-12  0.17120000000E+03  0.17120000000E+03 0.  0.
         13    1    1    2    0    0 -0.10223627672E+02 -0.63837653155E+02  0.21316352808E+03  0.22275203566E+03  0.10566000000E+00 0. -1.
        994    1    1    2    0    0  0.42145591342E+02  0.44208723198E+02  0.22089759816E+02  0.18310668902E+03  0.17120000000E+03 0.  0.
        998    1    1    2    0    0 -0.31921963670E+02  0.19628929957E+02  0.12647467084E+04  0.12653412753E+04  0.10000000000E+02 0. -1.
</event>
<event>
 5    1  0.1640179E-008  0.3853043E+03  0.7957747E-01  0.3428383E+00
         13   -1    0    0    0    0  0.00000000000E+00  0.00000000000E+00  0.14999999963E+04  0.15000000000E+04  0.10566000000E+00 0.  1.
        994   -1    0    0    0    0 -0.00000000000E+00 -0.00000000000E+00  0.11368683772E-12  0.17120000000E+03  0.17120000000E+03 0.  0.
         13    1    1    2    0    0  0.11313633090E+02 -0.10683819102E+02  0.78359389998E+02  0.79889595375E+02  0.10566000000E+00 0.  1.
        994    1    1    2    0    0 -0.97213364755E+01  0.13943542066E+02  0.24289733455E+01  0.17205890462E+03  0.17120000000E+03 0.  0.
        998    1    1    2    0    0 -0.15922966142E+01 -0.32597229639E+01  0.14192116329E+04  0.14192515000E+04  0.10000000000E+02 0.  1.
</event>
<event>
 5    1  0.1640179E-008  0.3819280E+03  0.7957747E-01  0.3442806E+00
         13   -1    0    0    0    0  0.00000000000E+00  0.00000000000E+00  0.14999999963E+04  0.15000000000E+04  0.10566000000E+00 0.  1.
        994   -1    0    0    0    0 -0.00000000000E+00 -0.00000000000E+00  0.11368683772E-12  0.17120000000E+03  0.17120000000E+03 0.  0.
         13    1    1    2    0    0  0.15968543632E+02  0.76801537693E+01  0.48420222634E+02  0.51560724119E+02  0.10566000000E+00 0.  1.
        994    1    1    2    0    0 -0.14219737284E+02  0.11747891892E+01  0.38396139744E+01  0.17183644460E+03  0.17120000000E+03 0.  0.
        998    1    1    2    0    0 -0.17488063483E+01 -0.88549429585E+01  0.14477401597E+04  0.14478028313E+04  0.10000000000E+02 0.  1.
</event>
<event>
 5    1  0.1640179E-008  0.3855982E+03  0.7957747E-01  0.3427139E+00
         13   -1    0    0    0    0  0.00000000000E+00  0.00000000000E+00  0.14999999963E+04  0.15000000000E+04  0.10566000000E+00 0.  1.
        994   -1    0    0    0    0 -0.00000000000E+00 -0.00000000000E+00  0.11368683772E-12  0.17120000000E+03  0.17120000000E+03 0.  0.
         13    1    1    2    0    0 -0.13514498181E+02  0.91238476443E+01  0.95976889199E+02  0.97352250519E+02  0.10566000000E+00 0.  1.
        994    1    1    2    0    0  0.16243822213E+02 -0.41056389811E+01  0.22553502950E+01  0.17203268479E+03  0.17120000000E+03 0.  0.
        998    1    1    2    0    0 -0.27293240320E+01 -0.50182086632E+01  0.14017677568E+04  0.14018150647E+04  0.10000000000E+02 0.  1.
</event>
<event>
 5    1  0.1640179E-008  0.3826597E+03  0.7957747E-01  0.3439659E+00
         13   -1    0    0    0    0  0.00000000000E+00  0.00000000000E+00  0.14999999963E+04  0.15000000000E+04  0.10566000000E+00 0. -1.
        994   -1    0    0    0    0 -0.00000000000E+00 -0.00000000000E+00  0.11368683772E-12  0.17120000000E+03  0.17120000000E+03 0.  0.
         13    1    1    2    0    0 -0.11402137117E+02 -0.23316522069E+02  0.11525794690E+03  0.11814429491E+03  0.10566000000E+00 0. -1.
        994    1    1    2    0    0  0.50775659087E+01  0.21419607547E+02  0.44039788963E+01  0.17266561989E+03  0.17120000000E+03 0.  0.
        998    1    1    2    0    0  0.63245712081E+01  0.18969145220E+01  0.13803380705E+04  0.13803900852E+04  0.10000000000E+02 0. -1.
</event>
<event>
 5    1  0.1640179E-008  0.3754244E+03  0.7957747E-01  0.3471327E+00
         13   -1    0    0    0    0  0.00000000000E+00  0.00000000000E+00  0.14999999963E+04  0.15000000000E+04  0.10566000000E+00 0.  1.
        994   -1    0    0    0    0 -0.00000000000E+00 -0.00000000000E+00  0.11368683772E-12  0.17120000000E+03  0.17120000000E+03 0.  0.
         13    1    1    2    0    0  0.25698016864E+02 -0.35664272127E+02  0.11399500805E+03  0.12217692663E+03  0.10566000000E+00 0.  1.
        994    1    1    2    0    0 -0.65741113131E+02  0.55461266811E+02  0.32001065044E+02  0.19424560287E+03  0.17120000000E+03 0.  0.
        998    1    1    2    0    0  0.40043096267E+02 -0.19796994684E+02  0.13540039232E+04  0.13547774705E+04  0.10000000000E+02 0.  1.
</event>
<event>
 5    1  0.1640179E-008  0.3854324E+03  0.7957747E-01  0.3427841E+00
         13   -1    0    0    0    0  0.00000000000E+00  0.00000000000E+00  0.14999999963E+04  0.15000000000E+04  0.10566000000E+00 0. -1.
        994   -1    0    0    0    0 -0.00000000000E+00 -0.00000000000E+00  0.11368683772E-12  0.17120000000E+03  0.17120000000E+03 0.  0.
         13    1    1    2    0    0  0.49994827049E+01 -0.11490713101E+02  0.58634078911E+02  0.59958299581E+02  0.10566000000E+00 0. -1.
        994    1    1    2    0    0 -0.24291235351E+01 -0.58561781673E+00  0.14361295271E+01  0.17122425663E+03  0.17120000000E+03 0.  0.
        998    1    1    2    0    0 -0.25703591698E+01  0.12076330918E+02  0.14399297878E+04  0.14400174438E+04  0.10000000000E+02 0. -1.
</event>
<event>
 5    1  0.1640179E-008  0.3755102E+03  0.7957747E-01  0.3470944E+00
         13   -1    0    0    0    0  0.00000000000E+00  0.00000000000E+00  0.14999999963E+04  0.15000000000E+04  0.10566000000E+00 0.  1.
        994   -1    0    0    0    0 -0.00000000000E+00 -0.00000000000E+00  0.11368683772E-12  0.17120000000E+03  0.17120000000E+03 0.  0.
         13    1    1    2    0    0 -0.76375025251E+02  0.92520297123E+01  0.36079503761E+03  0.36890624129E+03  0.10566000000E+00 0.  1.
        994    1    1    2    0    0  0.70863329311E+02 -0.23966101949E+02  0.25649321284E+02  0.18858237767E+03  0.17120000000E+03 0.  0.
        998    1    1    2    0    0  0.55116959396E+01  0.14714072237E+02  0.11135556374E+04  0.11137113810E+04  0.10000000000E+02 0.  1.
</event>
<event>
 5    1  0.1640179E-008  0.3849009E+03  0.7957747E-01  0.3430093E+00
         13   -1    0    0    0    0  0.00000000000E+00  0.00000000000E+00  0.14999999963E+04  0.15000000000E+04  0.10566000000E+00 0.  1.
        994   -1    0    0    0    0 -0.00000000000E+00 -0.00000000000E+00  0.11368683772E-12  0.17120000000E+03  0.17120000000E+03 0.  0.
         13    1    1    2    0    0 -0.14653361340E+02  0.62078034842E-01  0.62644800144E+02  0.64335892015E+02  0.10566000000E+00 0.  1.
        994    1    1    2    0    0  0.12895919826E+02  0.24624528887E+01  0.22465961065E+01  0.17171737133E+03  0.17120000000E+03 0.  0.
        998    1    1    2    0    0  0.17574415140E+01 -0.25245309235E+01  0.14351086000E+04  0.14351467367E+04  0.10000000000E+02 0.  1.
</event>
<event>
 5    1  0.1640179E-008  0.3824238E+03  0.7957747E-01  0.3440672E+00
         13   -1    0    0    0    0  0.00000000000E+00  0.00000000000E+00  0.14999999963E+04  0.15000000000E+04  0.10566000000E+00 0.  1.
        994   -1    0    0    0    0 -0.00000000000E+00 -0.00000000000E+00  0.11368683772E-12  0.17120000000E+03  0.17120000000E+03 0.  0.
         13    1    1    2    0    0  0.12668826953E+02 -0.15966724085E+02  0.75432146956E+02  0.78137413656E+02  0.10566000000E+00 0.  1.
        994    1    1    2    0    0  0.31965221806E+01  0.22628151016E+01  0.29654679659E+01  0.17127046472E+03  0.17120000000E+03 0.  0.
        998    1    1    2    0    0 -0.15865349134E+02  0.13703908984E+02  0.14216023814E+04  0.14217921216E+04  0.10000000000E+02 0.  1.
</event>
<event>
 5    1  0.1640179E-008  0.3731745E+03  0.7957747E-01  0.3481428E+00
         13   -1    0    0    0    0  0.00000000000E+00  0.00000000000E+00  0.14999999963E+04  0.15000000000E+04  0.10566000000E+00 0.  1.
        994   -1    0    0    0    0 -0.00000000000E+00 -0.00000000000E+00  0.11368683772E-12  0.17120000000E+03  0.17120000000E+03 0.  0.
         13    1    1    2    0    0 -0.19100883623E+02 -0.45216540022E+01  0.22944246019E+02  0.30195011169E+02  0.10566000000E+00 0.  1.
        994    1    1    2    0    0 -0.50455959384E+01  0.99252619071E+01  0.80432854756E+01  0.17175011879E+03  0.17120000000E+03 0.  0.
        998    1    1    2    0    0  0.24146479562E+02 -0.54036079049E+01  0.14690124648E+04  0.14692548700E+04  0.10000000000E+02 0.  1.
</event>
<event>
 5    1  0.1640179E-008  0.3841573E+03  0.7957747E-01  0.3433254E+00
         13   -1    0    0    0    0  0.00000000000E+00  0.00000000000E+00  0.14999999963E+04  0.15000000000E+04  0.10566000000E+00 0.  1.
        994   -1    0    0    0    0 -0.00000000000E+00 -0.00000000000E+00  0.11368683772E-12  0.17120000000E+03  0.17120000000E+03 0.  0.
         13    1    1    2    0    0  0.10079559952E+02  0.26858977549E+00  0.23668035795E+02  0.25726576758E+02  0.10566000000E+00 0.  1.
        994    1    1    2    0    0 -0.13340479131E+02  0.47729205178E+01  0.27113945457E+01  0.17180669607E+03  0.17120000000E+03 0.  0.
        998    1    1    2    0    0  0.32609191796E+01 -0.50415102933E+01  0.14736205659E+04  0.14736667272E+04  0.10000000000E+02 0.  1.
</event>
<event>
 5    1  0.1640179E-008  0.3763309E+03  0.7957747E-01  0.3467292E+00
         13   -1    0    0    0    0  0.00000000000E+00  0.00000000000E+00  0.14999999963E+04  0.15000000000E+04  0.10566000000E+00 0.  1.
        994   -1    0    0    0    0 -0.00000000000E+00 -0.00000000000E+00  0.11368683772E-12  0.17120000000E+03  0.17120000000E+03 0.  0.
         13    1    1    2    0    0 -0.26998034160E+02  0.30378239616E+02  0.13019587306E+03  0.13639174395E+03  0.10566000000E+00 0.  1.
        994    1    1    2    0    0  0.21260168738E+02 -0.24497468513E+02  0.95654876253E+01  0.17450804936E+03  0.17120000000E+03 0.  0.
        998    1    1    2    0    0  0.57378654222E+01 -0.58807711029E+01  0.13602386356E+04  0.13603002067E+04  0.10000000000E+02 0.  1.
</event>
<event>
 5    1  0.1640179E-008  0.3836227E+03  0.7957747E-01  0.3435535E+00
         13   -1    0    0    0    0  0.00000000000E+00  0.00000000000E+00  0.14999999963E+04  0.15000000000E+04  0.10566000000E+00 0. -1.
        994   -1    0    0    0    0 -0.00000000000E+00 -0.00000000000E+00  0.11368683772E-12  0.17120000000E+03  0.17120000000E+03 0.  0.
         13    1    1    2    0    0  0.30398999736E+02 -0.31525231287E+01  0.16770155936E+03  0.17046366698E+03  0.10566000000E+00 0. -1.
        994    1    1    2    0    0 -0.39698831428E+02  0.53777641421E+00  0.75400973104E+01  0.17590502974E+03  0.17120000000E+03 0.  0.
        998    1    1    2    0    0  0.92998316921E+01  0.26147467144E+01  0.13247583396E+04  0.13248313033E+04  0.10000000000E+02 0. -1.
</event>
<event>
 5    1  0.1640179E-008  0.3714857E+03  0.7957747E-01  0.3489091E+00
         13   -1    0    0    0    0  0.00000000000E+00  0.00000000000E+00  0.14999999963E+04  0.15000000000E+04  0.10566000000E+00 0.  1.
        994   -1    0    0    0    0 -0.00000000000E+00 -0.00000000000E+00  0.11368683772E-12  0.17120000000E+03  0.17120000000E+03 0.  0.
         13    1    1    2    0    0 -0.61467392342E+02  0.41829324023E+02  0.32809409519E+03  0.33641295922E+03  0.10566000000E+00 0.  1.
        994    1    1    2    0    0  0.17719564220E+02 -0.47832554089E+02  0.17498973619E+02  0.17949259111E+03  0.17120000000E+03 0.  0.
        998    1    1    2    0    0  0.43747828122E+02  0.60032300659E+01  0.11544069275E+04  0.11552944497E+04  0.10000000000E+02 0.  1.
</event>
<event>
 5    1  0.1640179E-008  0.3849634E+03  0.7957747E-01  0.3429827E+00
         13   -1    0    0    0    0  0.00000000000E+00  0.00000000000E+00  0.14999999963E+04  0.15000000000E+04  0.10566000000E+00 0. -1.
        994   -1    0    0    0    0 -0.00000000000E+00 -0.00000000000E+00  0.11368683772E-12  0.17120000000E+03  0.17120000000E+03 0.  0.
         13    1    1    2    0    0  0.43559747423E+01  0.12288760959E+02  0.54657851453E+02  0.56191458882E+02  0.10566000000E+00 0. -1.
        994    1    1    2    0    0 -0.89204819576E-01  0.15862583949E+01  0.16565999481E+01  0.17121538627E+03  0.17120000000E+03 0.  0.
        998    1    1    2    0    0 -0.42667699227E+01 -0.13875019353E+02  0.14436855449E+04  0.14437931548E+04  0.10000000000E+02 0. -1.
</event>
<event>
 5    1  0.1640179E-008  0.3815958E+03  0.7957747E-01  0.3444239E+00
         13   -1    0    0    0    0  0.00000000000E+00  0.00000000000E+00  0.14999999963E+04  0.15000000000E+04  0.10566000000E+00 0. -1.
        994   -1    0    0    0    0 -0.00000000000E+00 -0.00000000000E+00  0.11368683772E-12  0.17120000000E+03  0.17120000000E+03 0.  0.
         13    1    1    2    0    0 -0.50120864970E+02 -0.16827693463E+03  0.94342845372E+03  0.95962830632E+03  0.10566000000E+00 0. -1.
        994    1    1    2    0    0  0.36635052179E+02  0.18822177510E+03  0.13718165714E+03  0.29137228888E+03  0.17120000000E+03 0.  0.
        998    1    1    2    0    0  0.13485812791E+02 -0.19944840465E+02  0.41938988542E+03  0.42019940480E+03  0.10000000000E+02 0.  1.
</event>
<event>
 5    1  0.1640179E-008  0.3830766E+03  0.7957747E-01  0.3437871E+00
         13   -1    0    0    0    0  0.00000000000E+00  0.00000000000E+00  0.14999999963E+04  0.15000000000E+04  0.10566000000E+00 0. -1.
        994   -1    0    0    0    0 -0.00000000000E+00 -0.00000000000E+00  0.11368683772E-12  0.17120000000E+03  0.17120000000E+03 0.  0.
         13    1    1    2    0    0  0.39757686875E+01  0.93567267469E+01  0.19075852803E+02  0.21616068011E+02  0.10566000000E+00 0. -1.
        994    1    1    2    0    0 -0.15185785141E+01 -0.57430565544E+01  0.27048804407E+01  0.17132438576E+03  0.17120000000E+03 0.  0.
        998    1    1    2    0    0 -0.24571901734E+01 -0.36136701925E+01  0.14782192630E+04  0.14782595462E+04  0.10000000000E+02 0. -1.
</event>
<event>
 5    1  0.1640179E-008  0.3801350E+03  0.7957747E-01  0.3450571E+00
         13   -1    0    0    0    0  0.00000000000E+00  0.00000000000E+00  0.14999999963E+04  0.15000000000E+04  0.10566000000E+00 0. -1.
        994   -1    0    0    0    0 -0.00000000000E+00 -0.00000000000E+00  0.11368683772E-12  0.17120000000E+03  0.17120000000E+03 0.  0.
         13    1    1    2    0    0 -0.60209642603E+02 -0.20437711615E+03  0.97350030169E+03  0.99654305236E+03  0.10566000000E+00 0. -1.
        994    1    1    2    0    0  0.80271432445E+02  0.21031819759E+03  0.19776498723E+03  0.34510531332E+03  0.17120000000E+03 0.  0.
        998    1    1    2    0    0 -0.20061789842E+02 -0.59410814362E+01  0.32873470736E+03  0.32955163432E+03  0.10000000000E+02 0.  1.
</event>
<event>
 5    1  0.1640179E-008  0.3858405E+03  0.7957747E-01  0.3426115E+00
         13   -1    0    0    0    0  0.00000000000E+00  0.00000000000E+00  0.14999999963E+04  0.15000000000E+04  0.10566000000E+00 0. -1.
        994   -1    0    0    0    0 -0.00000000000E+00 -0.00000000000E+00  0.11368683772E-12  0.17120000000E+03  0.17120000000E+03 0.  0.
         13    1    1    2    0    0  0.11963478938E+02  0.82063145116E+01  0.81333658669E+02  0.82617453499E+02  0.10566000000E+00 0. -1.
        994    1    1    2    0    0 -0.10291680057E+02 -0.18052878215E+02  0.26309480233E+01  0.17247662734E+03  0.17120000000E+03 0.  0.
        998    1    1    2    0    0 -0.16717988813E+01  0.98465637038E+01  0.14160353896E+04  0.14161059192E+04  0.10000000000E+02 0. -1.
</event>
<event>
 5    1  0.1640179E-008  0.3702220E+03  0.7957747E-01  0.3494871E+00
         13   -1    0    0    0    0  0.00000000000E+00  0.00000000000E+00  0.14999999963E+04  0.15000000000E+04  0.10566000000E+00 0. -1.
        994   -1    0    0    0    0 -0.00000000000E+00 -0.00000000000E+00  0.11368683772E-12  0.17120000000E+03  0.17120000000E+03 0.  0.
         13    1    1    2    0    0 -0.79091739297E+02 -0.49254762585E+00  0.23317176112E+03  0.24622109409E+03  0.10566000000E+00 0. -1.
        994    1    1    2    0    0  0.81045031849E+02  0.95364371041E-01  0.34405021592E+02  0.19251351068E+03  0.17120000000E+03 0.  0.
        998    1    1    2    0    0 -0.19532925527E+01  0.39718325481E+00  0.12324232136E+04  0.12324653952E+04  0.10000000000E+02 0.  0.
</event>
<event>
 5    1  0.1640179E-008  0.3846128E+03  0.7957747E-01  0.3431316E+00
         13   -1    0    0    0    0  0.00000000000E+00  0.00000000000E+00  0.14999999963E+04  0.15000000000E+04  0.10566000000E+00 0.  1.
        994   -1    0    0    0    0 -0.00000000000E+00 -0.00000000000E+00  0.11368683772E-12  0.17120000000E+03  0.17120000000E+03 0.  0.
         13    1    1    2    0    0  0.88575410417E+01  0.50537458451E+01  0.28240366959E+02  0.30025420404E+02  0.10566000000E+00 0.  1.
        994    1    1    2    0    0 -0.53604044982E+01 -0.27501952583E+01  0.19420162740E+01  0.17131698380E+03  0.17120000000E+03 0.  0.
        998    1    1    2    0    0 -0.34971365434E+01 -0.23035505868E+01  0.14698176130E+04  0.14698575958E+04  0.10000000000E+02 0.  1.
</event>
<event>
 5    1  0.1640179E-008  0.3823721E+03  0.7957747E-01  0.3440894E+00
         13   -1    0    0    0    0  0.00000000000E+00  0.00000000000E+00  0.14999999963E+04  0.15000000000E+04  0.10566000000E+00 0. -1.
        994   -1    0    0    0    0 -0.00000000000E+00 -0.00000000000E+00  0.11368683772E-12  0.17120000000E+03  0.17120000000E+03 0.  0.
         13    1    1    2    0    0 -0.88453377165E+00  0.11671928519E+02  0.21864626129E+02  0.24800995043E+02  0.10566000000E+00 0. -1.
        994    1    1    2    0    0 -0.25168597405E+00 -0.12826351620E+02  0.34865493163E+01  0.17171538856E+03  0.17120000000E+03 0.  0.
        998    1    1    2    0    0  0.11362197457E+01  0.11544231009E+01  0.14746488208E+04  0.14746836164E+04  0.10000000000E+02 0. -1.
</event>
<event>
 5    1  0.1640179E-008  0.3844271E+03  0.7957747E-01  0.3432105E+00
         13   -1    0    0    0    0  0.00000000000E+00  0.00000000000E+00  0.14999999963E+04  0.15000000000E+04  0.10566000000E+00 0.  1.
        994   -1    0    0    0    0 -0.00000000000E+00 -0.00000000000E+00  0.11368683772E-12  0.17120000000E+03  0.17120000000E+03 0.  0.
         13    1    1    2    0    0 -0.14678817186E+02 -0.19891977968E+01  0.54528292488E+02  0.56504605366E+02  0.10566000000E+00 0.  1.
        994    1    1    2    0    0  0.18068005371E+02  0.14232633644E+01  0.29978315828E+01  0.17218276769E+03  0.17120000000E+03 0.  0.
        998    1    1    2    0    0 -0.33891881844E+01  0.56593443239E+00  0.14424738722E+04  0.14425126269E+04  0.10000000000E+02 0.  1.
</event>
<event>
 5    1  0.1640179E-008  0.3796165E+03  0.7957747E-01  0.3452830E+00
         13   -1    0    0    0    0  0.00000000000E+00  0.00000000000E+00  0.14999999963E+04  0.15000000000E+04  0.10566000000E+00 0.  1.
        994   -1    0    0    0    0 -0.00000000000E+00 -0.00000000000E+00  0.11368683772E-12  0.17120000000E+03  0.17120000000E+03 0.  0.
         13    1    1    2    0    0 -0.31993446034E+02 -0.49489685502E+01  0.12833763701E+03  0.13235797338E+03  0.10566000000E+00 0.  1.
        994    1    1    2    0    0  0.64036383462E+01  0.54630373476E+01  0.45640274780E+01  0.17146755293E+03  0.17120000000E+03 0.  0.
        998    1    1    2    0    0  0.25589807688E+02 -0.51406879737E+00  0.13670983318E+04  0.13673744737E+04  0.10000000000E+02 0.  1.
</event>
<event>
 5    1  0.1640179E-008  0.3805213E+03  0.7957747E-01  0.3448892E+00
         13   -1    0    0    0    0  0.00000000000E+00  0.00000000000E+00  0.14999999963E+04  0.15000000000E+04  0.10566000000E+00 0. -1.
        994   -1    0    0    0    0 -0.00000000000E+00 -0.00000000000E+00  0.11368683772E-12  0.17120000000E+03  0.17120000000E+03 0.  0.
         13    1    1    2    0    0 -0.19125508373E+02  0.27765897588E+02  0.16403074072E+03  0.16745992119E+03  0.10566000000E+00 0. -1.
        994    1    1    2    0    0 -0.23908425040E+01 -0.49025546914E+01  0.39695121174E+01  0.17133285790E+03  0.17120000000E+03 0.  0.
        998    1    1    2    0    0  0.21516350877E+02 -0.22863342897E+02  0.13319997434E+04  0.13324072209E+04  0.10000000000E+02 0. -1.
</event>
<event>
 5    1  0.1640179E-008  0.3847895E+03  0.7957747E-01  0.3430566E+00
         13   -1    0    0    0    0  0.00000000000E+00  0.00000000000E+00  0.14999999963E+04  0.15000000000E+04  0.10566000000E+00 0.  1.
        994   -1    0    0    0    0 -0.00000000000E+00 -0.00000000000E+00  0.11368683772E-12  0.17120000000E+03  0.17120000000E+03 0.  0.
         13    1    1    2    0    0 -0.11085947293E+02 -0.99350179760E+01  0.62585838970E+02  0.64331961055E+02  0.10566000000E+00 0.  1.
        994    1    1    2    0    0  0.61074606126E+01  0.12604957413E+02  0.23805927302E+01  0.17178851314E+03  0.17120000000E+03 0.  0.
        998    1    1    2    0    0  0.49784866805E+01 -0.26699394366E+01  0.14350335646E+04  0.14350795258E+04  0.10000000000E+02 0.  1.
</event>
<event>
 5    1  0.1640179E-008  0.3739929E+03  0.7957747E-01  0.3477739E+00
         13   -1    0    0    0    0  0.00000000000E+00  0.00000000000E+00  0.14999999963E+04  0.15000000000E+04  0.10566000000E+00 0.  1.
        994   -1    0    0    0    0 -0.00000000000E+00 -0.00000000000E+00  0.11368683772E-12  0.17120000000E+03  0.17120000000E+03 0.  0.
         13    1    1    2    0    0  0.40852413001E+02  0.25367908322E+02  0.14126338313E+03  0.14922400945E+03  0.10566000000E+00 0.  1.
        994    1    1    2    0    0 -0.43909974130E+02 -0.28273114335E+02  0.16557209538E+02  0.17975270794E+03  0.17120000000E+03 0.  0.
        998    1    1    2    0    0  0.30575611294E+01  0.29052060131E+01  0.13421794036E+04  0.13422232826E+04  0.10000000000E+02 0.  1.
</event>
<event>
 5    1  0.1640179E-008  0.3737911E+03  0.7957747E-01  0.3478647E+00
         13   -1    0    0    0    0  0.00000000000E+00  0.00000000000E+00  0.14999999963E+04  0.15000000000E+04  0.10566000000E+00 0. -1.
        994   -1    0    0    0    0 -0.00000000000E+00 -0.00000000000E+00  0.11368683772E-12  0.17120000000E+03  0.17120000000E+03 0.  0.
         13    1    1    2    0    0 -0.46017872664E+02  0.30865764187E+02  0.19631519099E+03  0.20398530677E+03  0.10566000000E+00 0. -1.
        994    1    1    2    0    0  0.19992674818E+02 -0.47497934507E+02  0.16419990664E+02  0.17954057180E+03  0.17120000000E+03 0.  0.
        998    1    1    2    0    0  0.26025197846E+02  0.16632170321E+02  0.12872648146E+04  0.12876741214E+04  0.10000000000E+02 0. -1.
</event>
<event>
 5    1  0.1640179E-008  0.3778786E+03  0.7957747E-01  0.3460448E+00
         13   -1    0    0    0    0  0.00000000000E+00  0.00000000000E+00  0.14999999963E+04  0.15000000000E+04  0.10566000000E+00 0.  1.
        994   -1    0    0    0    0 -0.00000000000E+00 -0.00000000000E+00  0.11368683772E-12  0.17120000000E+03  0.17120000000E+03 0.  0.
         13    1    1    2    0    0 -0.15334525264E+02  0.29109612835E+02  0.10828949867E+03  0.11317748854E+03  0.10566000000E+00 0.  1.
        994    1    1    2    0    0 -0.27968046558E+01 -0.10409072473E+02  0.55990647857E+01  0.17163030162E+03  0.17120000000E+03 0.  0.
        998    1    1    2    0    0  0.18131329920E+02 -0.18700540362E+02  0.13861114328E+04  0.13863922098E+04  0.10000000000E+02 0.  1.
</event>
<event>
 5    1  0.1640179E-008  0.3810384E+03  0.7957747E-01  0.3446650E+00
         13   -1    0    0    0    0  0.00000000000E+00  0.00000000000E+00  0.14999999963E+04  0.15000000000E+04  0.10566000000E+00 0.  1.
        994   -1    0    0    0    0 -0.00000000000E+00 -0.00000000000E+00  0.11368683772E-12  0.17120000000E+03  0.17120000000E+03 0.  0.
         13    1    1    2    0    0  0.21560966639E+02 -0.30420808667E+02  0.21869058810E+03  0.22184653562E+03  0.10566000000E+00 0.  1.
        994    1    1    2    0    0 -0.30487310603E+01  0.49352166995E+01  0.37220093073E+01  0.17133868354E+03  0.17120000000E+03 0.  0.
        998    1    1    2    0    0 -0.18512235579E+02  0.25485591967E+02  0.12775873989E+04  0.12780147808E+04  0.10000000000E+02 0.  1.
</event>
<event>
 5    1  0.1965534E-008  0.3861678E+03  0.7957747E-01  0.3424734E+00
         13   -1    0    0    0    0  0.00000000000E+00  0.00000000000E+00  0.14999999963E+04  0.15000000000E+04  0.10566000000E+00 0. -1.
        994   -1    0    0    0    0 -0.00000000000E+00 -0.00000000000E+00  0.11368683772E-12  0.17120000000E+03  0.17120000000E+03 0.  0.
         13    1    1    2    0    0  0.71469381990E+01  0.81453435749E+01  0.58108897731E+02  0.59110747814E+02  0.10566000000E+00 0. -1.
        994    1    1    2    0    0 -0.29368577623E+01 -0.26014057941E+01  0.11018593621E+01  0.17124849354E+03  0.17120000000E+03 0.  0.
        998    1    1    2    0    0 -0.42100804367E+01 -0.55439377808E+01  0.14407892392E+04  0.14408407586E+04  0.10000000000E+02 0. -1.
</event>
<event>
 5    1  0.1640179E-008  0.3720826E+03  0.7957747E-01  0.3486374E+00
         13   -1    0    0    0    0  0.00000000000E+00  0.00000000000E+00  0.14999999963E+04  0.15000000000E+04  0.10566000000E+00 0. -1.
        994   -1    0    0    0    0 -0.00000000000E+00 -0.00000000000E+00  0.11368683772E-12  0.17120000000E+03  0.17120000000E+03 0.  0.
         13    1    1    2    0    0  0.18645738898E+01 -0.36873916708E+02  0.60862984682E+02  0.71186209603E+02  0.10566000000E+00 0. -1.
        994    1    1    2    0    0  0.76796805818E+02 -0.28508218414E+02  0.36068217024E+02  0.19318598340E+03  0.17120000000E+03 0.  0.
        998    1    1    2    0    0 -0.78661379708E+02  0.65382135121E+02  0.14030687946E+04  0.14068278070E+04  0.10000000000E+02 0. -1.
</event>
<event>
 5    1  0.1640179E-008  0.3831011E+03  0.7957747E-01  0.3437766E+00
         13   -1    0    0    0    0  0.00000000000E+00  0.00000000000E+00  0.14999999963E+04  0.15000000000E+04  0.10566000000E+00 0.  1.
        994   -1    0    0    0    0 -0.00000000000E+00 -0.00000000000E+00  0.11368683772E-12  0.17120000000E+03  0.17120000000E+03 0.  0.
         13    1    1    2    0    0 -0.77934182064E+00 -0.13128407507E+02  0.32320294507E+02  0.34893768189E+02  0.10566000000E+00 0.  1.
        994    1    1    2    0    0 -0.81055535801E+01  0.12832137872E+02  0.33384938108E+01  0.17190389554E+03  0.17120000000E+03 0.  0.
        998    1    1    2    0    0  0.88848954007E+01  0.29626963526E+00  0.14643412080E+04  0.14644023363E+04  0.10000000000E+02 0.  1.
</event>
<event>
 5    1  0.1640179E-008  0.3830962E+03  0.7957747E-01  0.3437787E+00
         13   -1    0    0    0    0  0.00000000000E+00  0.00000000000E+00  0.14999999963E+04  0.15000000000E+04  0.10566000000E+00 0.  1.
        994   -1    0    0    0    0 -0.00000000000E+00 -0.00000000000E+00  0.11368683772E-12  0.17120000000E+03  0.17120000000E+03 0.  0.
         13    1    1    2    0    0 -0.10351125333E+02 -0.56292562781E+01  0.25935723082E+02  0.28486965751E+02  0.10566000000E+00 0.  1.
        994    1    1    2    0    0  0.98818937749E+01  0.10600693417E+01  0.29052405814E+01  0.17151284498E+03  0.17120000000E+03 0.  0.
        998    1    1    2    0    0  0.46923155787E+00  0.45691869364E+01  0.14711590326E+04  0.14712001893E+04  0.10000000000E+02 0.  1.
</event>
<event>
 5    1  0.1640179E-008  0.3810574E+03  0.7957747E-01  0.3446567E+00
         13   -1    0    0    0    0  0.00000000000E+00  0.00000000000E+00  0.14999999963E+04  0.15000000000E+04  0.10566000000E+00 0. -1.
        994   -1    0    0    0    0 -0.00000000000E+00 -0.00000000000E+00  0.11368683772E-12  0.17120000000E+03  0.17120000000E+03 0.  0.
         13    1    1    2    0    0  0.12054328471E+01 -0.18355385461E+02  0.48221083229E+02  0.51610631420E+02  0.10566000000E+00 0. -1.
        994    1    1    2    0    0  0.43156720281E+00 -0.16739783159E+01  0.36102855341E+01  0.17124678863E+03  0.17120000000E+03 0.  0.
        998    1    1    2    0    0 -0.16370000499E+01  0.20029363777E+02  0.14481686275E+04  0.14483425800E+04  0.10000000000E+02 0. -1.
</event>
<event>
 5    1  0.1640179E-008  0.3844205E+03  0.7957747E-01  0.3432134E+00
         13   -1    0    0    0    0  0.00000000000E+00  0.00000000000E+00  0.14999999963E+04  0.15000000000E+04  0.10566000000E+00 0.  1.
        994   -1    0    0    0    0 -0.00000000000E+00 -0.00000000000E+00  0.11368683772E-12  0.17120000000E+03  0.17120000000E+03 0.  0.
         13    1    1    2    0    0 -0.40889473366E+01  0.10499901988E+02  0.32073444470E+02  0.33995359040E+02  0.10566000000E+00 0.  1.
        994    1    1    2    0    0  0.72648003185E+01 -0.10080871171E+02  0.24270330490E+01  0.17166750355E+03  0.17120000000E+03 0.  0.
        998    1    1    2    0    0 -0.31758529820E+01 -0.41903081730E+00  0.14654995188E+04  0.14655371374E+04  0.10000000000E+02 0.  1.
</event>
<event>
 5    1  0.1640179E-008  0.3694474E+03  0.7957747E-01  0.3498434E+00
         13   -1    0    0    0    0  0.00000000000E+00  0.00000000000E+00  0.14999999963E+04  0.15000000000E+04  0.10566000000E+00 0.  1.
        994   -1    0    0    0    0 -0.00000000000E+00 -0.00000000000E+00  0.11368683772E-12  0.17120000000E+03  0.17120000000E+03 0.  0.
         13    1    1    2    0    0 -0.56053151675E+02 -0.94510950616E+01  0.13627246773E+03  0.14765322765E+03  0.10566000000E+00 0.  1.
        994    1    1    2    0    0  0.55224318250E+02  0.53452809199E+01  0.21466188540E+02  0.18124164699E+03  0.17120000000E+03 0.  0.
        998    1    1    2    0    0  0.82883342485E+00  0.41058141417E+01  0.13422613400E+04  0.13423051254E+04  0.10000000000E+02 0.  1.
</event>
<event>
 5    1  0.1640179E-008  0.3780817E+03  0.7957747E-01  0.3459554E+00
         13   -1    0    0    0    0  0.00000000000E+00  0.00000000000E+00  0.14999999963E+04  0.15000000000E+04  0.10566000000E+00 0.  1.
        994   -1    0    0    0    0 -0.00000000000E+00 -0.00000000000E+00  0.11368683772E-12  0.17120000000E+03  0.17120000000E+03 0.  0.
         13    1    1    2    0    0  0.22212394595E+03 -0.42614742723E+02  0.10002191233E+04  0.10254722666E+04  0.10566000000E+00 0.  1.
        994    1    1    2    0    0 -0.22220720478E+03  0.46326214870E+02  0.20441000314E+03  0.35016431775E+03  0.17120000000E+03 0.  0.
        998    1    1    2    0    0  0.83258831492E-01 -0.37114721472E+01  0.29537086982E+03  0.29556341569E+03  0.10000000000E+02 0. -1.
</event>
<event>
 5    1  0.1640179E-008  0.3774437E+03  0.7957747E-01  0.3462365E+00
         13   -1    0    0    0    0  0.00000000000E+00  0.00000000000E+00  0.14999999963E+04  0.15000000000E+04  0.10566000000E+00 0. -1.
        994   -1    0    0    0    0 -0.00000000000E+00 -0.00000000000E+00  0.11368683772E-12  0.17120000000E+03  0.17120000000E+03 0.  0.
         13    1    1    2    0    0 -0.11411555593E+00 -0.12834549059E+02  0.12795102471E+02  0.18123589137E+02  0.10566000000E+00 0. -1.
        994    1    1    2    0    0 -0.23485713190E+01  0.85761950878E+01  0.56957568767E+01  0.17152535835E+03  0.17120000000E+03 0.  0.
        998    1    1    2    0    0  0.24626868749E+01  0.42583539712E+01  0.14815091369E+04  0.14815510525E+04  0.10000000000E+02 0. -1.
</event>
<event>
 5    1  0.1640179E-008  0.3724567E+03  0.7957747E-01  0.3484676E+00
         13   -1    0    0    0    0  0.00000000000E+00  0.00000000000E+00  0.14999999963E+04  0.15000000000E+04  0.10566000000E+00 0. -1.
        994   -1    0    0    0    0 -0.00000000000E+00 -0.00000000000E+00  0.11368683772E-12  0.17120000000E+03  0.17120000000E+03 0.  0.
         13    1    1    2    0    0  0.21053205254E+02 -0.29043241219E+02  0.86920414633E+02  0.94031467902E+02  0.10566000000E+00 0. -1.
        994    1    1    2    0    0  0.10390325612E+02 -0.21058514798E+01  0.83760661565E+01  0.17173232649E+03  0.17120000000E+03 0.  0.
        998    1    1    2    0    0 -0.31443530866E+02  0.31149092698E+02  0.14047035155E+04  0.14054362056E+04  0.10000000000E+02 0. -1.
</event>
<event>
 5    1  0.1640179E-008  0.3847624E+03  0.7957747E-01  0.3430680E+00
         13   -1    0    0    0    0  0.00000000000E+00  0.00000000000E+00  0.14999999963E+04  0.15000000000E+04  0.10566000000E+00 0. -1.
        994   -1    0    0    0    0 -0.00000000000E+00 -0.00000000000E+00  0.11368683772E-12  0.17120000000E+03  0.17120000000E+03 0.  0.
         13    1    1    2    0    0  0.83141192566E+01 -0.60101905409E+01  0.29784428981E+02  0.31501910151E+02  0.10566000000E+00 0. -1.
        994    1    1    2    0    0 -0.48352448161E+01  0.51149703639E+01  0.19112135442E+01  0.17135528953E+03  0.17120000000E+03 0.  0.
        998    1    1    2    0    0 -0.34788744405E+01  0.89522017701E+00  0.14683043538E+04  0.14683428003E+04  0.10000000000E+02 0. -1.
</event>
<event>
 5    1  0.2354430E-008  0.3864652E+03  0.7957747E-01  0.3423482E+00
         13   -1    0    0    0    0  0.00000000000E+00  0.00000000000E+00  0.14999999963E+04  0.15000000000E+04  0.10566000000E+00 0. -1.
        994   -1    0    0    0    0 -0.00000000000E+00 -0.00000000000E+00  0.11368683772E-12  0.17120000000E+03  0.17120000000E+03 0.  0.
         13    1    1    2    0    0  0.10164292354E+02  0.39576100170E+01  0.63142671396E+02  0.64077949648E+02  0.10566000000E+00 0. -1.
        994    1    1    2    0    0 -0.16348690476E+02  0.10110086417E+01  0.17830917522E+01  0.17199104987E+03  0.17120000000E+03 0.  0.
        998    1    1    2    0    0  0.61843981222E+01 -0.49686186587E+01  0.14350742331E+04  0.14351310005E+04  0.10000000000E+02 0. -1.
</event>
<event>
 5    1  0.1640179E-008  0.3779184E+03  0.7957747E-01  0.3460273E+00
         13   -1    0    0    0    0  0.00000000000E+00  0.00000000000E+00  0.14999999963E+04  0.15000000000E+04  0.10566000000E+00 0.  1.
        994   -1    0    0    0    0 -0.00000000000E+00 -0.00000000000E+00  0.11368683772E-12  0.17120000000E+03  0.17120000000E+03 0.  0.
         13    1    1    2    0    0  0.13372270502E+02  0.57200756433E+01  0.17926771790E+02  0.23084999342E+02  0.10566000000E+00 0.  1.
        994    1    1    2    0    0 -0.12882547460E+02 -0.93880447409E+01  0.60434112962E+01  0.17204667458E+03  0.17120000000E+03 0.  0.
        998    1    1    2    0    0 -0.48972304195E+00  0.36679690976E+01  0.14760298132E+04  0.14760683261E+04  0.10000000000E+02 0.  1.
</event>
<event>
 5    1  0.1640179E-008  0.3837616E+03  0.7957747E-01  0.3434941E+00
         13   -1    0    0    0    0  0.00000000000E+00  0.00000000000E+00  0.14999999963E+04  0.15000000000E+04  0.10566000000E+00 0.  1.
        994   -1    0    0    0    0 -0.00000000000E+00 -0.00000000000E+00  0.11368683772E-12  0.17120000000E+03  0.17120000000E+03 0.  0.
         13    1    1    2    0    0  0.49219910563E+01 -0.16289318918E+02  0.62746600042E+02  0.65013190105E+02  0.10566000000E+00 0.  1.
        994    1    1    2    0    0  0.14944593114E+01  0.15724120053E+02  0.30704095626E+01  0.17195449623E+03  0.17120000000E+03 0.  0.
        998    1    1    2    0    0 -0.64164503677E+01  0.56519886523E+00  0.14341829867E+04  0.14342323137E+04  0.10000000000E+02 0.  1.
</event>
<event>
 5    1  0.1640179E-008  0.3853979E+03  0.7957747E-01  0.3427987E+00
         13   -1    0    0    0    0  0.00000000000E+00  0.00000000000E+00  0.14999999963E+04  0.15000000000E+04  0.10566000000E+00 0.  1.
        994   -1    0    0    0    0 -0.00000000000E+00 -0.00000000000E+00  0.11368683772E-12  0.17120000000E+03  0.17120000000E+03 0.  0.
         13    1    1    2    0    0  0.13957771115E+02  0.64474480310E+01  0.78728049830E+02  0.80215372309E+02  0.10566000000E+00 0.  1.
        994    1    1    2    0    0 -0.17828244333E+02 -0.19358420076E+01  0.24896876620E+01  0.17215467558E+03  0.17120000000E+03 0.  0.
        998    1    1    2    0    0  0.38704732179E+01 -0.45116060234E+01  0.14187822588E+04  0.14188299521E+04  0.10000000000E+02 0.  1.
</event>
<event>
 5    1  0.1640179E-008  0.3826687E+03  0.7957747E-01  0.3439620E+00
         13   -1    0    0    0    0  0.00000000000E+00  0.00000000000E+00  0.14999999963E+04  0.15000000000E+04  0.10566000000E+00 0.  1.
        994   -1    0    0    0    0 -0.00000000000E+00 -0.00000000000E+00  0.11368683772E-12  0.17120000000E+03  0.17120000000E+03 0.  0.
         13    1    1    2    0    0 -0.51533226599E+01 -0.18031607390E+02  0.71996191500E+02  0.74398644840E+02  0.10566000000E+00 0.  1.
        994    1    1    2    0    0  0.11421114941E+02 -0.19252730797E+02  0.44542947472E+01  0.17271476559E+03  0.17120000000E+03 0.  0.
        998    1    1    2    0    0 -0.62677922810E+01  0.37284338187E+02  0.14235495100E+04  0.14240865896E+04  0.10000000000E+02 0.  1.
</event>
<event>
 5    1  0.1640179E-008  0.3841110E+03  0.7957747E-01  0.3433451E+00
         13   -1    0    0    0    0  0.00000000000E+00  0.00000000000E+00  0.14999999963E+04  0.15000000000E+04  0.10566000000E+00 0. -1.
        994   -1    0    0    0    0 -0.00000000000E+00 -0.00000000000E+00  0.11368683772E-12  0.17120000000E+03  0.17120000000E+03 0.  0.
         13    1    1    2    0    0 -0.13605558173E+02  0.86549341510E+00  0.43826914444E+02  0.45898473676E+02  0.10566000000E+00 0. -1.
        994    1    1    2    0    0  0.11889996970E+02  0.31300528340E+00  0.25388956470E+01  0.17163145397E+03  0.17120000000E+03 0.  0.
        998    1    1    2    0    0  0.17155612027E+01 -0.11784986985E+01  0.14536341862E+04  0.14536700724E+04  0.10000000000E+02 0. -1.
</event>
<event>
 5    1  0.1640179E-008  0.3813198E+03  0.7957747E-01  0.3445432E+00
         13   -1    0    0    0    0  0.00000000000E+00  0.00000000000E+00  0.14999999963E+04  0.15000000000E+04  0.10566000000E+00 0. -1.
        994   -1    0    0    0    0 -0.00000000000E+00 -0.00000000000E+00  0.11368683772E-12  0.17120000000E+03  0.17120000000E+03 0.  0.
         13    1    1    2    0    0  0.20137965932E+02 -0.55816754586E+02  0.33692584422E+03  0.34211121501E+03  0.10566000000E+00 0. -1.
        994    1    1    2    0    0 -0.18335743206E+02  0.72194968322E+02  0.22161106154E+02  0.18801294518E+03  0.17120000000E+03 0.  0.
        998    1    1    2    0    0 -0.18022227255E+01 -0.16378213736E+02  0.11409130459E+04  0.11410758398E+04  0.10000000000E+02 0. -1.
</event>
<event>
 5    1  0.1640179E-008  0.3800440E+03  0.7957747E-01  0.3450967E+00
         13   -1    0    0    0    0  0.00000000000E+00  0.00000000000E+00  0.14999999963E+04  0.15000000000E+04  0.10566000000E+00 0. -1.
        994   -1    0    0    0    0 -0.00000000000E+00 -0.00000000000E+00  0.11368683772E-12  0.17120000000E+03  0.17120000000E+03 0.  0.
         13    1    1    2    0    0  0.12140796854E+02  0.18604466727E+02  0.55157311234E+02  0.59463142172E+02  0.10566000000E+00 0. -1.
        994    1    1    2    0    0 -0.27703052317E+02 -0.17126959025E+02  0.76646697394E+01  0.17443904091E+03  0.17120000000E+03 0.  0.
        998    1    1    2    0    0  0.15562255463E+02 -0.14775077022E+01  0.14371780153E+04  0.14372978169E+04  0.10000000000E+02 0. -1.
</event>
<event>
 5    1  0.1640179E-008  0.3802249E+03  0.7957747E-01  0.3450180E+00
         13   -1    0    0    0    0  0.00000000000E+00  0.00000000000E+00  0.14999999963E+04  0.15000000000E+04  0.10566000000E+00 0. -1.
        994   -1    0    0    0    0 -0.00000000000E+00 -0.00000000000E+00  0.11368683772E-12  0.17120000000E+03  0.17120000000E+03 0.  0.
         13    1    1    2    0    0 -0.14066570132E+02  0.57659323956E+01  0.27826637686E+02  0.31708789012E+02  0.10566000000E+00 0. -1.
        994    1    1    2    0    0 -0.33824648533E+00 -0.65148895592E+01  0.41618598195E+01  0.17137479183E+03  0.17120000000E+03 0.  0.
        998    1    1    2    0    0  0.14404816618E+02  0.74895716360E+00  0.14680114988E+04  0.14681164192E+04  0.10000000000E+02 0. -1.
</event>
<event>
 5    1  0.1640179E-008  0.3834545E+03  0.7957747E-01  0.3436253E+00
         13   -1    0    0    0    0  0.00000000000E+00  0.00000000000E+00  0.14999999963E+04  0.15000000000E+04  0.10566000000E+00 0.  1.
        994   -1    0    0    0    0 -0.00000000000E+00 -0.00000000000E+00  0.11368683772E-12  0.17120000000E+03  0.17120000000E+03 0.  0.
         13    1    1    2    0    0 -0.22380518030E+01 -0.15141252049E+02  0.49317191234E+02  0.51637804995E+02  0.10566000000E+00 0.  1.
        994    1    1    2    0    0  0.15122571907E+02  0.30278151714E+01  0.31859787604E+01  0.17192280333E+03  0.17120000000E+03 0.  0.
        998    1    1    2    0    0 -0.12884520104E+02  0.12113436878E+02  0.14474968263E+04  0.14476393917E+04  0.10000000000E+02 0.  1.
</event>
<event>
 5    1  0.1640179E-008  0.3855784E+03  0.7957747E-01  0.3427223E+00
         13   -1    0    0    0    0  0.00000000000E+00  0.00000000000E+00  0.14999999963E+04  0.15000000000E+04  0.10566000000E+00 0. -1.
        994   -1    0    0    0    0 -0.00000000000E+00 -0.00000000000E+00  0.11368683772E-12  0.17120000000E+03  0.17120000000E+03 0.  0.
         13    1    1    2    0    0 -0.12296587165E+02  0.52094674946E+01  0.73404067330E+02  0.74609066956E+02  0.10566000000E+00 0. -1.
        994    1    1    2    0    0 -0.36373499971E+01  0.10197281181E+01  0.13900701613E+01  0.17124731372E+03  0.17120000000E+03 0.  0.
        998    1    1    2    0    0  0.15933937162E+02 -0.62291956126E+01  0.14252058588E+04  0.14253436193E+04  0.10000000000E+02 0. -1.
</event>
<event>
 5    1  0.1640179E-008  0.3830883E+03  0.7957747E-01  0.3437821E+00
         13   -1    0    0    0    0  0.00000000000E+00  0.00000000000E+00  0.14999999963E+04  0.15000000000E+04  0.10566000000E+00 0. -1.
        994   -1    0    0    0    0 -0.00000000000E+00 -0.00000000000E+00  0.11368683772E-12  0.17120000000E+03  0.17120000000E+03 0.  0.
         13    1    1    2    0    0  0.10945490693E+02  0.70444227004E+01  0.32856345531E+02  0.35340886567E+02  0.10566000000E+00 0. -1.
        994    1    1    2    0    0 -0.41790085788E+01  0.36192794418E+01  0.26833899664E+01  0.17131025620E+03  0.17120000000E+03 0.  0.
        998    1    1    2    0    0 -0.67664821143E+01 -0.10663702142E+02  0.14644602608E+04  0.14645488572E+04  0.10000000000E+02 0. -1.
</event>
<event>
 5    1  0.1640179E-008  0.3875343E+03  0.7957747E-01  0.3418994E+00
         13   -1    0    0    0    0  0.00000000000E+00  0.00000000000E+00  0.14999999963E+04  0.15000000000E+04  0.10566000000E+00 0. -1.
        994   -1    0    0    0    0 -0.00000000000E+00 -0.00000000000E+00  0.11368683772E-12  0.17120000000E+03  0.17120000000E+03 0.  0.
         13    1    1    2    0    0  0.84390580530E+02 -0.18919695698E+02  0.15525362689E+03  0.17771726083E+03  0.10566000000E+00 0. -1.
        994    1    1    2    0    0 -0.90240824186E+02  0.11646949943E+02  0.52088989637E+02  0.20075298412E+03  0.17120000000E+03 0.  0.
        998    1    1    2    0    0  0.58502436567E+01  0.72727457544E+01  0.12926573797E+04  0.12927297551E+04  0.10000000000E+02 0. -1.
</event>
<event>
 5    1  0.1640179E-008  0.3709416E+03  0.7957747E-01  0.3491575E+00
         13   -1    0    0    0    0  0.00000000000E+00  0.00000000000E+00  0.14999999963E+04  0.15000000000E+04  0.10566000000E+00 0. -1.
        994   -1    0    0    0    0 -0.00000000000E+00 -0.00000000000E+00  0.11368683772E-12  0.17120000000E+03  0.17120000000E+03 0.  0.
         13    1    1    2    0    0 -0.66763978213E+01  0.23433674164E+02  0.29530380172E+02  0.38285322120E+02  0.10566000000E+00 0. -1.
        994    1    1    2    0    0  0.92492328403E+00 -0.26634931109E+02  0.11229558593E+02  0.17362551087E+03  0.17120000000E+03 0.  0.
        998    1    1    2    0    0  0.57514745372E+01  0.32012569455E+01  0.14592400575E+04  0.14592891670E+04  0.10000000000E+02 0. -1.
</event>
<event>
 5    1  0.1640179E-008  0.3854885E+03  0.7957747E-01  0.3427603E+00
         13   -1    0    0    0    0  0.00000000000E+00  0.00000000000E+00  0.14999999963E+04  0.15000000000E+04  0.10566000000E+00 0.  1.
        994   -1    0    0    0    0 -0.00000000000E+00 -0.00000000000E+00  0.11368683772E-12  0.17120000000E+03  0.17120000000E+03 0.  0.
         13    1    1    2    0    0  0.60298886983E+01  0.96033372032E+01  0.43416833182E+02  0.44873335186E+02  0.10566000000E+00 0.  1.
        994    1    1    2    0    0 -0.20802403052E+02 -0.10690552700E+02  0.31859901749E+01  0.17281961238E+03  0.17120000000E+03 0.  0.
        998    1    1    2    0    0  0.14772514353E+02  0.10872154964E+01  0.14533971729E+04  0.14535070524E+04  0.10000000000E+02 0.  1.
</event>
<event>
 5    1  0.1640179E-008  0.3735911E+03  0.7957747E-01  0.3479548E+00
         13   -1    0    0    0    0  0.00000000000E+00  0.00000000000E+00  0.14999999963E+04  0.15000000000E+04  0.10566000000E+00 0. -1.
        994   -1    0    0    0    0 -0.00000000000E+00 -0.00000000000E+00  0.11368683772E-12  0.17120000000E+03  0.17120000000E+03 0.  0.
         13    1    1    2    0    0  0.50362292063E+01  0.89676829094E+01  0.37291146607E+01  0.10940767869E+02  0.10566000000E+00 0. -1.
        994    1    1    2    0    0  0.26136261692E+00 -0.61641276735E+01  0.75340219333E+01  0.17147672223E+03  0.17120000000E+03 0.  0.
        998    1    1    2    0    0 -0.52975918233E+01 -0.28035552359E+01  0.14887368597E+04  0.14887825099E+04  0.10000000000E+02 0. -1.
</event>
<event>
 5    1  0.1640179E-008  0.3789588E+03  0.7957747E-01  0.3455705E+00
         13   -1    0    0    0    0  0.00000000000E+00  0.00000000000E+00  0.14999999963E+04  0.15000000000E+04  0.10566000000E+00 0.  1.
        994   -1    0    0    0    0 -0.00000000000E+00 -0.00000000000E+00  0.11368683772E-12  0.17120000000E+03  0.17120000000E+03 0.  0.
         13    1    1    2    0    0  0.23452295218E+01 -0.16621871464E+02  0.27694507889E+02  0.32384929269E+02  0.10566000000E+00 0.  1.
        994    1    1    2    0    0 -0.23657936773E+01  0.19358039991E+02  0.59365013931E+01  0.17240943344E+03  0.17120000000E+03 0.  0.
        998    1    1    2    0    0  0.20564155469E-01 -0.27361685275E+01  0.14663689870E+04  0.14664056373E+04  0.10000000000E+02 0.  1.
</event>
<event>
 5    1  0.1640179E-008  0.3697490E+03  0.7957747E-01  0.3497045E+00
         13   -1    0    0    0    0  0.00000000000E+00  0.00000000000E+00  0.14999999963E+04  0.15000000000E+04  0.10566000000E+00 0. -1.
        994   -1    0    0    0    0 -0.00000000000E+00 -0.00000000000E+00  0.11368683772E-12  0.17120000000E+03  0.17120000000E+03 0.  0.
         13    1    1    2    0    0 -0.21194419256E+02  0.24207825095E+02  0.46841514397E+02  0.56827465530E+02  0.10566000000E+00 0. -1.
        994    1    1    2    0    0  0.68649056497E+01 -0.65148012602E+02  0.24401510358E+02  0.18492231932E+03  0.17120000000E+03 0.  0.
        998    1    1    2    0    0  0.14329513606E+02  0.40940187507E+02  0.14287569715E+04  0.14294502151E+04  0.10000000000E+02 0. -1.
</event>
<event>
 5    1  0.1640179E-008  0.3829419E+03  0.7957747E-01  0.3438448E+00
         13   -1    0    0    0    0  0.00000000000E+00  0.00000000000E+00  0.14999999963E+04  0.15000000000E+04  0.10566000000E+00 0. -1.
        994   -1    0    0    0    0 -0.00000000000E+00 -0.00000000000E+00  0.11368683772E-12  0.17120000000E+03  0.17120000000E+03 0.  0.
         13    1    1    2    0    0 -0.17306166745E+01 -0.14021374053E+02  0.38264799085E+02  0.40789704307E+02  0.10566000000E+00 0. -1.
        994    1    1    2    0    0 -0.58914656109E+01 -0.14419969493E-01  0.27703334464E+01  0.17132374127E+03  0.17120000000E+03 0.  0.
        998    1    1    2    0    0  0.76220822855E+01  0.14035794022E+02  0.14589648637E+04  0.14590865544E+04  0.10000000000E+02 0. -1.
</event>
<event>
 5    1  0.1640179E-008  0.3686348E+03  0.7957747E-01  0.3502189E+00
         13   -1    0    0    0    0  0.00000000000E+00  0.00000000000E+00  0.14999999963E+04  0.15000000000E+04  0.10566000000E+00 0. -1.
        994   -1    0    0    0    0 -0.00000000000E+00 -0.00000000000E+00  0.11368683772E-12  0.17120000000E+03  0.17120000000E+03 0.  0.
         13    1    1    2    0    0  0.69677934600E+02  0.20055015320E+01  0.29283574538E+03  0.30101797545E+03  0.10566000000E+00 0. -1.
        994    1    1    2    0    0 -0.61644709060E+01 -0.33467701380E+02  0.14258852873E+02  0.17513092994E+03  0.17120000000E+03 0.  0.
        998    1    1    2    0    0 -0.63513463694E+02  0.31462199848E+02  0.11929053980E+04  0.11950510946E+04  0.10000000000E+02 0. -1.
</event>
<event>
 5    1  0.1640179E-008  0.3839464E+03  0.7957747E-01  0.3434153E+00
         13   -1    0    0    0    0  0.00000000000E+00  0.00000000000E+00  0.14999999963E+04  0.15000000000E+04  0.10566000000E+00 0.  1.
        994   -1    0    0    0    0 -0.00000000000E+00 -0.00000000000E+00  0.11368683772E-12  0.17120000000E+03  0.17120000000E+03 0.  0.
         13    1    1    2    0    0 -0.18960002975E+02 -0.15321821813E+02  0.14467685837E+03  0.14671620377E+03  0.10566000000E+00 0.  1.
        994    1    1    2    0    0  0.93665204437E+01  0.23857019005E+01  0.24624684757E+01  0.17149031177E+03  0.17120000000E+03 0.  0.
        998    1    1    2    0    0  0.95934825309E+01  0.12936119912E+02  0.13528606694E+04  0.13529934845E+04  0.10000000000E+02 0.  1.
</event>
<event>
 5    1  0.1640179E-008  0.3837709E+03  0.7957747E-01  0.3434902E+00
         13   -1    0    0    0    0  0.00000000000E+00  0.00000000000E+00  0.14999999963E+04  0.15000000000E+04  0.10566000000E+00 0. -1.
        994   -1    0    0    0    0 -0.00000000000E+00 -0.00000000000E+00  0.11368683772E-12  0.17120000000E+03  0.17120000000E+03 0.  0.
         13    1    1    2    0    0  0.21095484555E+02  0.10874853055E+02  0.13300450913E+03  0.13510548660E+03  0.10566000000E+00 0. -1.
        994    1    1    2    0    0 -0.15867000338E+01 -0.12148814881E+02  0.27373705779E+01  0.17165967645E+03  0.17120000000E+03 0.  0.
        998    1    1    2    0    0 -0.19508784521E+02  0.12739618265E+01  0.13642581166E+04  0.13644348370E+04  0.10000000000E+02 0. -1.
</event>
<event>
 5    1  0.1640179E-008  0.3825553E+03  0.7957747E-01  0.3440107E+00
         13   -1    0    0    0    0  0.00000000000E+00  0.00000000000E+00  0.14999999963E+04  0.15000000000E+04  0.10566000000E+00 0.  1.
        994   -1    0    0    0    0 -0.00000000000E+00 -0.00000000000E+00  0.11368683772E-12  0.17120000000E+03  0.17120000000E+03 0.  0.
         13    1    1    2    0    0 -0.49790561209E+01  0.12728272139E+02  0.32515458863E+02  0.35271321787E+02  0.10566000000E+00 0.  1.
        994    1    1    2    0    0  0.21137559429E+01 -0.24797278452E+01  0.28839457155E+01  0.17125528943E+03  0.17120000000E+03 0.  0.
        998    1    1    2    0    0  0.28653001780E+01 -0.10248544293E+02  0.14646005917E+04  0.14646733888E+04  0.10000000000E+02 0.  1.
</event>
<event>
 5    1  0.1640179E-008  0.3686179E+03  0.7957747E-01  0.3502267E+00
         13   -1    0    0    0    0  0.00000000000E+00  0.00000000000E+00  0.14999999963E+04  0.15000000000E+04  0.10566000000E+00 0. -1.
        994   -1    0    0    0    0 -0.00000000000E+00 -0.00000000000E+00  0.11368683772E-12  0.17120000000E+03  0.17120000000E+03 0.  0.
         13    1    1    2    0    0  0.92426712471E+01  0.95441822116E+01  0.42920466888E+01  0.13962493140E+02  0.10566000000E+00 0. -1.
        994    1    1    2    0    0 -0.42026405267E+01 -0.53791125830E+01  0.10155213011E+02  0.17163672506E+03  0.17120000000E+03 0.  0.
        998    1    1    2    0    0 -0.50400307204E+01 -0.41650696286E+01  0.14855527366E+04  0.14856007818E+04  0.10000000000E+02 0. -1.
</event>
<event>
 5    1  0.1640179E-008  0.3803304E+03  0.7957747E-01  0.3449721E+00
         13   -1    0    0    0    0  0.00000000000E+00  0.00000000000E+00  0.14999999963E+04  0.15000000000E+04  0.10566000000E+00 0. -1.
        994   -1    0    0    0    0 -0.00000000000E+00 -0.00000000000E+00  0.11368683772E-12  0.17120000000E+03  0.17120000000E+03 0.  0.
         13    1    1    2    0    0 -0.29846567679E+00 -0.14860638346E+02  0.25689997877E+02  0.29680209041E+02  0.10566000000E+00 0. -1.
        994    1    1    2    0    0  0.27377762755E+01  0.17568016671E+02  0.50228312819E+01  0.17219407499E+03  0.17120000000E+03 0.  0.
        998    1    1    2    0    0 -0.24393105987E+01 -0.27073783256E+01  0.14692871671E+04  0.14693257160E+04  0.10000000000E+02 0. -1.
</event>
<event>
 5    1  0.1640179E-008  0.3853630E+03  0.7957747E-01  0.3428134E+00
         13   -1    0    0    0    0  0.00000000000E+00  0.00000000000E+00  0.14999999963E+04  0.15000000000E+04  0.10566000000E+00 0. -1.
        994   -1    0    0    0    0 -0.00000000000E+00 -0.00000000000E+00  0.11368683772E-12  0.17120000000E+03  0.17120000000E+03 0.  0.
         13    1    1    2    0    0  0.10870085122E+02  0.99569239630E+01  0.77015928785E+02  0.78414051904E+02  0.10566000000E+00 0. -1.
        994    1    1    2    0    0 -0.45581682434E+01 -0.45150992299E+01  0.15852371553E+01  0.17132751091E+03  0.17120000000E+03 0.  0.
        998    1    1    2    0    0 -0.63119168791E+01 -0.54418247330E+01  0.14213988303E+04  0.14214584372E+04  0.10000000000E+02 0. -1.
</event>
<event>
 5    1  0.1640179E-008  0.3791682E+03  0.7957747E-01  0.3454788E+00
         13   -1    0    0    0    0  0.00000000000E+00  0.00000000000E+00  0.14999999963E+04  0.15000000000E+04  0.10566000000E+00 0.  1.
        994   -1    0    0    0    0 -0.00000000000E+00 -0.00000000000E+00  0.11368683772E-12  0.17120000000E+03  0.17120000000E+03 0.  0.
         13    1    1    2    0    0  0.21897401896E+02 -0.43573642390E+02  0.22875035396E+03  0.23389077392E+03  0.10566000000E+00 0.  1.
        994    1    1    2    0    0 -0.20268677610E+02  0.39987420182E+02  0.11320418555E+02  0.17733416180E+03  0.17120000000E+03 0.  0.
        998    1    1    2    0    0 -0.16287242862E+01  0.35862222087E+01  0.12599292238E+04  0.12599750643E+04  0.10000000000E+02 0.  1.
</event>
<event>
 5    1  0.1640179E-008  0.3689398E+03  0.7957747E-01  0.3500777E+00
         13   -1    0    0    0    0  0.00000000000E+00  0.00000000000E+00  0.14999999963E+04  0.15000000000E+04  0.10566000000E+00 0. -1.
        994   -1    0    0    0    0 -0.00000000000E+00 -0.00000000000E+00  0.11368683772E-12  0.17120000000E+03  0.17120000000E+03 0.  0.
         13    1    1    2    0    0 -0.32990685989E+01 -0.31455162022E+02  0.44795399274E+02  0.54835663866E+02  0.10566000000E+00 0. -1.
        994    1    1    2    0    0  0.10717810431E+01  0.39475694340E+02  0.15255653580E+02  0.17635661066E+03  0.17120000000E+03 0.  0.
        998    1    1    2    0    0  0.22272875558E+01 -0.80205323184E+01  0.14399489434E+04  0.14400077255E+04  0.10000000000E+02 0. -1.
</event>
<event>
 5    1  0.1640179E-008  0.3792540E+03  0.7957747E-01  0.3454413E+00
         13   -1    0    0    0    0  0.00000000000E+00  0.00000000000E+00  0.14999999963E+04  0.15000000000E+04  0.10566000000E+00 0.  1.
        994   -1    0    0    0    0 -0.00000000000E+00 -0.00000000000E+00  0.11368683772E-12  0.17120000000E+03  0.17120000000E+03 0.  0.
         13    1    1    2    0    0 -0.25024427755E+02 -0.21313706521E+01  0.67655432793E+02  0.72166706145E+02  0.10566000000E+00 0.  1.
        994    1    1    2    0    0  0.18575215260E+02 -0.44968312676E+01  0.57351977186E+01  0.17235890637E+03  0.17120000000E+03 0.  0.
        998    1    1    2    0    0  0.64492124954E+01  0.66282019197E+01  0.14266093658E+04  0.14266743875E+04  0.10000000000E+02 0.  1.
</event>
<event>
 5    1  0.1640179E-008  0.3839428E+03  0.7957747E-01  0.3434168E+00
         13   -1    0    0    0    0  0.00000000000E+00  0.00000000000E+00  0.14999999963E+04  0.15000000000E+04  0.10566000000E+00 0.  1.
        994   -1    0    0    0    0 -0.00000000000E+00 -0.00000000000E+00  0.11368683772E-12  0.17120000000E+03  0.17120000000E+03 0.  0.
         13    1    1    2    0    0 -0.10608967212E+02  0.20272307180E+02  0.12119839865E+03  0.12333928662E+03  0.10566000000E+00 0.  1.
        994    1    1    2    0    0  0.16653157209E+02 -0.71250279752E+01  0.32393614253E+01  0.17218602478E+03  0.17120000000E+03 0.  0.
        998    1    1    2    0    0 -0.60441899965E+01 -0.13147279205E+02  0.13755622362E+04  0.13756746886E+04  0.10000000000E+02 0.  1.
</event>
<event>
 5    1  0.1640179E-008  0.3837034E+03  0.7957747E-01  0.3435190E+00
         13   -1    0    0    0    0  0.00000000000E+00  0.00000000000E+00  0.14999999963E+04  0.15000000000E+04  0.10566000000E+00 0.  1.
        994   -1    0    0    0    0 -0.00000000000E+00 -0.00000000000E+00  0.11368683772E-12  0.17120000000E+03  0.17120000000E+03 0.  0.
         13    1    1    2    0    0  0.15080257011E+02 -0.12978685622E+01  0.52318193134E+02  0.54463777974E+02  0.10566000000E+00 0.  1.
        994    1    1    2    0    0 -0.74347869245E+00 -0.87606185858E+01  0.25305832417E+01  0.17144429139E+03  0.17120000000E+03 0.  0.
        998    1    1    2    0    0 -0.14336778319E+02  0.10058487148E+02  0.14451512199E+04  0.14452919306E+04  0.10000000000E+02 0.  1.
</event>
<event>
 5    1  0.1640179E-008  0.3707937E+03  0.7957747E-01  0.3492251E+00
         13   -1    0    0    0    0  0.00000000000E+00  0.00000000000E+00  0.14999999963E+04  0.15000000000E+04  0.10566000000E+00 0.  1.
        994   -1    0    0    0    0 -0.00000000000E+00 -0.00000000000E+00  0.11368683772E-12  0.17120000000E+03  0.17120000000E+03 0.  0.
         13    1    1    2    0    0  0.56996292391E+01 -0.11877783594E+03  0.47891644655E+03  0.49345884735E+03  0.10566000000E+00 0.  1.
        994    1    1    2    0    0  0.12219981436E+02  0.10232793595E+03  0.49582207664E+02  0.20588387440E+03  0.17120000000E+03 0.  0.
        998    1    1    2    0    0 -0.17919610675E+02  0.16449899987E+02  0.97150134206E+03  0.97185727825E+03  0.10000000000E+02 0.  1.
</event>
<event>
 5    1  0.1640179E-008  0.3852179E+03  0.7957747E-01  0.3428748E+00
         13   -1    0    0    0    0  0.00000000000E+00  0.00000000000E+00  0.14999999963E+04  0.15000000000E+04  0.10566000000E+00 0.  1.
        994   -1    0    0    0    0 -0.00000000000E+00 -0.00000000000E+00  0.11368683772E-12  0.17120000000E+03  0.17120000000E+03 0.  0.
         13    1    1    2    0    0  0.92634363118E+01 -0.68803092446E+01  0.42327434097E+02  0.43872232094E+02  0.10566000000E+00 0.  1.
        994    1    1    2    0    0 -0.13967356761E+02  0.47061057578E+01  0.22361983286E+01  0.17184782533E+03  0.17120000000E+03 0.  0.
        998    1    1    2    0    0  0.47039204490E+01  0.21742034869E+01  0.14554363639E+04  0.14554799426E+04  0.10000000000E+02 0.  1.
</event>
<event>
 5    1  0.1640179E-008  0.3707010E+03  0.7957747E-01  0.3492675E+00
         13   -1    0    0    0    0  0.00000000000E+00  0.00000000000E+00  0.14999999963E+04  0.15000000000E+04  0.10566000000E+00 0.  1.
        994   -1    0    0    0    0 -0.00000000000E+00 -0.00000000000E+00  0.11368683772E-12  0.17120000000E+03  0.17120000000E+03 0.  0.
         13    1    1    2    0    0  0.13806379874E+02  0.29254426062E+02  0.40456548009E+02  0.51799430598E+02  0.10566000000E+00 0.  1.
        994    1    1    2    0    0 -0.21466283453E+02 -0.28633949801E+02  0.15811606016E+02  0.17561364210E+03  0.17120000000E+03 0.  0.
        998    1    1    2    0    0  0.76599035793E+01 -0.62047626157E+00  0.14437318423E+04  0.14437869273E+04  0.10000000000E+02 0.  1.
</event>
<event>
 5    1  0.1640179E-008  0.3822167E+03  0.7957747E-01  0.3441563E+00
         13   -1    0    0    0    0  0.00000000000E+00  0.00000000000E+00  0.14999999963E+04  0.15000000000E+04  0.10566000000E+00 0.  1.
        994   -1    0    0    0    0 -0.00000000000E+00 -0.00000000000E+00  0.11368683772E-12  0.17120000000E+03  0.17120000000E+03 0.  0.
         13    1    1    2    0    0  0.71139525396E+01  0.16896773269E+02  0.52592514761E+02  0.55696436516E+02  0.10566000000E+00 0.  1.
        994    1    1    2    0    0 -0.42273631334E+01 -0.20948602227E+02  0.45354575045E+01  0.17258831046E+03  0.17120000000E+03 0.  0.
        998    1    1    2    0    0 -0.28865894062E+01  0.40518289577E+01  0.14428720240E+04  0.14429152530E+04  0.10000000000E+02 0.  1.
</event>
<event>
 5    1  0.1640179E-008  0.3780863E+03  0.7957747E-01  0.3459534E+00
         13   -1    0    0    0    0  0.00000000000E+00  0.00000000000E+00  0.14999999963E+04  0.15000000000E+04  0.10566000000E+00 0. -1.
        994   -1    0    0    0    0 -0.00000000000E+00 -0.00000000000E+00  0.11368683772E-12  0.17120000000E+03  0.17120000000E+03 0.  0.
         13    1    1    2    0    0 -0.47935493547E+01 -0.17699342971E+02  0.30780359862E+02  0.35828572038E+02  0.10566000000E+00 0. -1.
        994    1    1    2    0    0  0.57502613210E+01  0.12530680736E+02  0.57420218137E+01  0.17185020884E+03  0.17120000000E+03 0.  0.
        998    1    1    2    0    0 -0.95671196624E+00  0.51686622343E+01  0.14634776146E+04  0.14635212191E+04  0.10000000000E+02 0. -1.
</event>
<event>
 5    1  0.1640179E-008  0.3735718E+03  0.7957747E-01  0.3479635E+00
         13   -1    0    0    0    0  0.00000000000E+00  0.00000000000E+00  0.14999999963E+04  0.15000000000E+04  0.10566000000E+00 0.  1.
        994   -1    0    0    0    0 -0.00000000000E+00 -0.00000000000E+00  0.11368683772E-12  0.17120000000E+03  0.17120000000E+03 0.  0.
         13    1    1    2    0    0  0.44315091423E+02 -0.38712317296E+02  0.19191600841E+03  0.20073424294E+03  0.10566000000E+00 0.  1.
        994    1    1    2    0    0 -0.33360676746E+02  0.66119672095E+02  0.26386011486E+02  0.18838897896E+03  0.17120000000E+03 0.  0.
        998    1    1    2    0    0 -0.10954414677E+02 -0.27407354800E+02  0.12816979764E+04  0.12820767781E+04  0.10000000000E+02 0. -1.
</event>
<event>
 5    1  0.1640179E-008  0.3809972E+03  0.7957747E-01  0.3446828E+00
         13   -1    0    0    0    0  0.00000000000E+00  0.00000000000E+00  0.14999999963E+04  0.15000000000E+04  0.10566000000E+00 0.  1.
        994   -1    0    0    0    0 -0.00000000000E+00 -0.00000000000E+00  0.11368683772E-12  0.17120000000E+03  0.17120000000E+03 0.  0.
         13    1    1    2    0    0  0.59106930176E+02 -0.18449602450E+02  0.97131758644E+02  0.11518943843E+03  0.10566000000E+00 0.  1.
        994    1    1    2    0    0 -0.73077988429E+02  0.16444128813E+02  0.37577639997E+02  0.19061039004E+03  0.17120000000E+03 0.  0.
        998    1    1    2    0    0  0.13971058253E+02  0.20054736377E+01  0.13652905976E+04  0.13654001715E+04  0.10000000000E+02 0.  1.
</event>
<event>
 5    1  0.1640179E-008  0.3813100E+03  0.7957747E-01  0.3445474E+00
         13   -1    0    0    0    0  0.00000000000E+00  0.00000000000E+00  0.14999999963E+04  0.15000000000E+04  0.10566000000E+00 0. -1.
        994   -1    0    0    0    0 -0.00000000000E+00 -0.00000000000E+00  0.11368683772E-12  0.17120000000E+03  0.17120000000E+03 0.  0.
         13    1    1    2    0    0 -0.18197365416E+02 -0.43957557189E+01  0.48303569858E+02  0.51804563520E+02  0.10566000000E+00 0. -1.
        994    1    1    2    0    0  0.16597055748E+02  0.36511043024E+01  0.44351417538E+01  0.17209852790E+03  0.17120000000E+03 0.  0.
        998    1    1    2    0    0  0.16003096685E+01  0.74465141651E+00  0.14472612847E+04  0.14472969086E+04  0.10000000000E+02 0. -1.
</event>
<event>
 5    1  0.1640179E-008  0.3753133E+03  0.7957747E-01  0.3471823E+00
         13   -1    0    0    0    0  0.00000000000E+00  0.00000000000E+00  0.14999999963E+04  0.15000000000E+04  0.10566000000E+00 0.  1.
        994   -1    0    0    0    0 -0.00000000000E+00 -0.00000000000E+00  0.11368683772E-12  0.17120000000E+03  0.17120000000E+03 0.  0.
         13    1    1    2    0    0 -0.26992113114E+02  0.17273648218E+02  0.96355772500E+02  0.10154505971E+03  0.10566000000E+00 0.  1.
        994    1    1    2    0    0 -0.35604129290E+02  0.78518345239E+01  0.11045069718E+02  0.17538739662E+03  0.17120000000E+03 0.  0.
        998    1    1    2    0    0  0.62596242404E+02 -0.25125482742E+02  0.13925991541E+04  0.13942675437E+04  0.10000000000E+02 0.  1.
</event>
<event>
 5    1  0.1640179E-008  0.3800711E+03  0.7957747E-01  0.3450849E+00
         13   -1    0    0    0    0  0.00000000000E+00  0.00000000000E+00  0.14999999963E+04  0.15000000000E+04  0.10566000000E+00 0.  1.
        994   -1    0    0    0    0 -0.00000000000E+00 -0.00000000000E+00  0.11368683772E-12  0.17120000000E+03  0.17120000000E+03 0.  0.
         13    1    1    2    0    0 -0.18410501858E+02 -0.31071118272E+02  0.18167040774E+03  0.18522556298E+03  0.10566000000E+00 0.  1.
        994    1    1    2    0    0 -0.23188776946E+02  0.16843523218E+02  0.68474162739E+01  0.17371744518E+03  0.17120000000E+03 0.  0.
        998    1    1    2    0    0  0.41599278803E+02  0.14227595054E+02  0.13114821723E+04  0.13122569918E+04  0.10000000000E+02 0.  1.
</event>
<event>
 5    1  0.1640179E-008  0.3716660E+03  0.7957747E-01  0.3488269E+00
         13   -1    0    0    0    0  0.00000000000E+00  0.00000000000E+00  0.14999999963E+04  0.15000000000E+04  0.10566000000E+00 0.  1.
        994   -1    0    0    0    0 -0.00000000000E+00 -0.00000000000E+00  0.11368683772E-12  0.17120000000E+03  0.17120000000E+03 0.  0.
         13    1    1    2    0    0 -0.20728908843E+00 -0.72495106175E+02  0.19329820301E+03  0.20644560988E+03  0.10566000000E+00 0.  1.
        994    1    1    2    0    0  0.35726557725E+02  0.70206771504E+02  0.33976328156E+02  0.19149205876E+03  0.17120000000E+03 0.  0.
        998    1    1    2    0    0 -0.35519268636E+02  0.22883346703E+01  0.12727254651E+04  0.12732623314E+04  0.10000000000E+02 0.  1.
</event>
<event>
 5    1  0.1640179E-008  0.3848589E+03  0.7957747E-01  0.3430271E+00
         13   -1    0    0    0    0  0.00000000000E+00  0.00000000000E+00  0.14999999963E+04  0.15000000000E+04  0.10566000000E+00 0.  1.
        994   -1    0    0    0    0 -0.00000000000E+00 -0.00000000000E+00  0.11368683772E-12  0.17120000000E+03  0.17120000000E+03 0.  0.
         13    1    1    2    0    0  0.20080483161E+02  0.24501303249E+01  0.12083532859E+03  0.12251700593E+03  0.10566000000E+00 0.  1.
        994    1    1    2    0    0 -0.11784125802E+02 -0.39150308209E+01  0.22076929696E+01  0.17166393621E+03  0.17120000000E+03 0.  0.
        998    1    1    2    0    0 -0.82963573589E+01  0.14649004959E+01  0.13769569747E+04  0.13770190579E+04  0.10000000000E+02 0.  1.
</event>
<event>
 5    1  0.1640179E-008  0.3765766E+03  0.7957747E-01  0.3466201E+00
         13   -1    0    0    0    0  0.00000000000E+00  0.00000000000E+00  0.14999999963E+04  0.15000000000E+04  0.10566000000E+00 0.  1.
        994   -1    0    0    0    0 -0.00000000000E+00 -0.00000000000E+00  0.11368683772E-12  0.17120000000E+03  0.17120000000E+03 0.  0.
         13    1    1    2    0    0  0.74294393364E+02 -0.25816467843E+02  0.39703512858E+03  0.40475060394E+03  0.10566000000E+00 0.  1.
        994    1    1    2    0    0 -0.71980779339E+02  0.22672730132E+02  0.25377715249E+02  0.18880877553E+03  0.17120000000E+03 0.  0.
        998    1    1    2    0    0 -0.23136140253E+01  0.31437377103E+01  0.10775871524E+04  0.10776406205E+04  0.10000000000E+02 0.  0.
</event>
<event>
 5    1  0.1640179E-008  0.3848126E+03  0.7957747E-01  0.3430467E+00
         13   -1    0    0    0    0  0.00000000000E+00  0.00000000000E+00  0.14999999963E+04  0.15000000000E+04  0.10566000000E+00 0. -1.
        994   -1    0    0    0    0 -0.00000000000E+00 -0.00000000000E+00  0.11368683772E-12  0.17120000000E+03  0.17120000000E+03 0.  0.
         13    1    1    2    0    0  0.67986933273E+01  0.98572874435E+01  0.43987207834E+02  0.45588090152E+02  0.10566000000E+00 0. -1.
        994    1    1    2    0    0 -0.20771945794E+02  0.17976299334E+02  0.42103475778E+01  0.17344102195E+03  0.17120000000E+03 0.  0.
        998    1    1    2    0    0  0.13973252466E+02 -0.27833586777E+02  0.14518024409E+04  0.14521708879E+04  0.10000000000E+02 0. -1.
</event>
<event>
 5    1  0.1640179E-008  0.3740779E+03  0.7957747E-01  0.3477357E+00
         13   -1    0    0    0    0  0.00000000000E+00  0.00000000000E+00  0.14999999963E+04  0.15000000000E+04  0.10566000000E+00 0.  1.
        994   -1    0    0    0    0 -0.00000000000E+00 -0.00000000000E+00  0.11368683772E-12  0.17120000000E+03  0.17120000000E+03 0.  0.
         13    1    1    2    0    0 -0.11045819756E+02  0.88602694828E+02  0.25184123021E+03  0.26720116778E+03  0.10566000000E+00 0.  1.
        994    1    1    2    0    0  0.16788931988E+02 -0.85464106135E+02  0.40530390278E+02  0.19631131962E+03  0.17120000000E+03 0.  0.
        998    1    1    2    0    0 -0.57431122322E+01 -0.31385886928E+01  0.12076283758E+04  0.12076875126E+04  0.10000000000E+02 0.  1.
</event>
<event>
 5    1  0.1640179E-008  0.3827221E+03  0.7957747E-01  0.3439391E+00
         13   -1    0    0    0    0  0.00000000000E+00  0.00000000000E+00  0.14999999963E+04  0.15000000000E+04  0.10566000000E+00 0. -1.
        994   -1    0    0    0    0 -0.00000000000E+00 -0.00000000000E+00  0.11368683772E-12  0.17120000000E+03  0.17120000000E+03 0.  0.
         13    1    1    2    0    0 -0.12924642091E+02 -0.16668489390E+02  0.77510198153E+02  0.80328867124E+02  0.10566000000E+00 0. -1.
        994    1    1    2    0    0  0.67945434130E+01  0.17916668281E+02  0.39827537442E+01  0.17231504621E+03  0.17120000000E+03 0.  0.
        998    1    1    2    0    0  0.61300986777E+01 -0.12481788906E+01  0.14185070444E+04  0.14185560867E+04  0.10000000000E+02 0. -1.
</event>
<event>
 5    1  0.1640179E-008  0.3831051E+03  0.7957747E-01  0.3437749E+00
         13   -1    0    0    0    0  0.00000000000E+00  0.00000000000E+00  0.14999999963E+04  0.15000000000E+04  0.10566000000E+00 0. -1.
        994   -1    0    0    0    0 -0.00000000000E+00 -0.00000000000E+00  0.11368683772E-12  0.17120000000E+03  0.17120000000E+03 0.  0.
         13    1    1    2    0    0  0.86399447009E+01 -0.11825671365E+02  0.41776269704E+02  0.44269210769E+02  0.10566000000E+00 0. -1.
        994    1    1    2    0    0 -0.57384092562E+01  0.15435550911E+01  0.26907268254E+01  0.17132423038E+03  0.17120000000E+03 0.  0.
        998    1    1    2    0    0 -0.29015354447E+01  0.10282116274E+02  0.14555329997E+04  0.14556065589E+04  0.10000000000E+02 0. -1.
</event>
<event>
 5    1  0.1640179E-008  0.3849283E+03  0.7957747E-01  0.3429977E+00
         13   -1    0    0    0    0  0.00000000000E+00  0.00000000000E+00  0.14999999963E+04  0.15000000000E+04  0.10566000000E+00 0. -1.
        994   -1    0    0    0    0 -0.00000000000E+00 -0.00000000000E+00  0.11368683772E-12  0.17120000000E+03  0.17120000000E+03 0.  0.
         13    1    1    2    0    0  0.12507841271E+02 -0.79851936232E+01  0.68263610679E+02  0.69858006824E+02  0.10566000000E+00 0. -1.
        994    1    1    2    0    0 -0.49853530251E+01  0.96934503816E+00  0.17506137274E+01  0.17128426087E+03  0.17120000000E+03 0.  0.
        998    1    1    2    0    0 -0.75224882455E+01  0.70158485850E+01  0.14299857719E+04  0.14300577323E+04  0.10000000000E+02 0. -1.
</event>
<event>
 5    1  0.1640179E-008  0.3792921E+03  0.7957747E-01  0.3454247E+00
         13   -1    0    0    0    0  0.00000000000E+00  0.00000000000E+00  0.14999999963E+04  0.15000000000E+04  0.10566000000E+00 0.  1.
        994   -1    0    0    0    0 -0.00000000000E+00 -0.00000000000E+00  0.11368683772E-12  0.17120000000E+03  0.17120000000E+03 0.  0.
         13    1    1    2    0    0  0.70921757604E+01  0.42474448336E+02  0.24169262610E+03  0.24549890915E+03  0.10566000000E+00 0.  1.
        994    1    1    2    0    0 -0.15702426624E+01 -0.43032225752E+01  0.45612375761E+01  0.17132200172E+03  0.17120000000E+03 0.  0.
        998    1    1    2    0    0 -0.55219330980E+01 -0.38171225761E+02  0.12537461326E+04  0.12543790891E+04  0.10000000000E+02 0.  1.
</event>
<event>
 5    1  0.1640179E-008  0.3853401E+03  0.7957747E-01  0.3428231E+00
         13   -1    0    0    0    0  0.00000000000E+00  0.00000000000E+00  0.14999999963E+04  0.15000000000E+04  0.10566000000E+00 0.  1.
        994   -1    0    0    0    0 -0.00000000000E+00 -0.00000000000E+00  0.11368683772E-12  0.17120000000E+03  0.17120000000E+03 0.  0.
         13    1    1    2    0    0 -0.13916918149E+02  0.49387394165E+01  0.79780590815E+02  0.81135846533E+02  0.10566000000E+00 0.  1.
        994    1    1    2    0    0  0.72404970070E+01  0.15532570394E+02  0.24267162342E+01  0.17207270118E+03  0.17120000000E+03 0.  0.
        998    1    1    2    0    0  0.66764211417E+01 -0.20471309811E+02  0.14177926892E+04  0.14179914523E+04  0.10000000000E+02 0.  1.
</event>
<event>
 5    1  0.1640179E-008  0.3843176E+03  0.7957747E-01  0.3432571E+00
         13   -1    0    0    0    0  0.00000000000E+00  0.00000000000E+00  0.14999999963E+04  0.15000000000E+04  0.10566000000E+00 0. -1.
        994   -1    0    0    0    0 -0.00000000000E+00 -0.00000000000E+00  0.11368683772E-12  0.17120000000E+03  0.17120000000E+03 0.  0.
         13    1    1    2    0    0 -0.13461997023E+02 -0.39151860095E+01  0.51469976700E+02  0.53345325108E+02  0.10566000000E+00 0. -1.
        994    1    1    2    0    0  0.27651914831E+01 -0.21303198270E+01  0.20094637747E+01  0.17124737222E+03  0.17120000000E+03 0.  0.
        998    1    1    2    0    0  0.10696805540E+02  0.60455058365E+01  0.14465205558E+04  0.14466073027E+04  0.10000000000E+02 0. -1.
</event>
<event>
 5    1  0.1640179E-008  0.3703709E+03  0.7957747E-01  0.3494188E+00
         13   -1    0    0    0    0  0.00000000000E+00  0.00000000000E+00  0.14999999963E+04  0.15000000000E+04  0.10566000000E+00 0. -1.
        994   -1    0    0    0    0 -0.00000000000E+00 -0.00000000000E+00  0.11368683772E-12  0.17120000000E+03  0.17120000000E+03 0.  0.
         13    1    1    2    0    0  0.21952675921E+02 -0.47491941329E+02  0.16099074494E+03  0.16927916467E+03  0.10566000000E+00 0. -1.
        994    1    1    2    0    0  0.15756675532E+01  0.15451104972E+02  0.99087391179E+01  0.17218839242E+03  0.17120000000E+03 0.  0.
        998    1    1    2    0    0 -0.23528343475E+02  0.32040836356E+02  0.13291005122E+04  0.13297324429E+04  0.10000000000E+02 0.  1.
</event>
<event>
 5    1  0.2723099E-008  0.3863416E+03  0.7957747E-01  0.3424002E+00
         13   -1    0    0    0    0  0.00000000000E+00  0.00000000000E+00  0.14999999963E+04  0.15000000000E+04  0.10566000000E+00 0. -1.
        994   -1    0    0    0    0 -0.00000000000E+00 -0.00000000000E+00  0.11368683772E-12  0.17120000000E+03  0.17120000000E+03 0.  0.
         13    1    1    2    0    0 -0.10620492682E+02 -0.10167140605E+01  0.62681787854E+02  0.63583380414E+02  0.10566000000E+00 0. -1.
        994    1    1    2    0    0  0.23606089678E+01 -0.53225038207E+01  0.10765068157E+01  0.17130236539E+03  0.17120000000E+03 0.  0.
        998    1    1    2    0    0  0.82598837145E+01  0.63392178812E+01  0.14362417016E+04  0.14363142542E+04  0.10000000000E+02 0. -1.
</event>
<event>
 5    1  0.1640179E-008  0.3721424E+03  0.7957747E-01  0.3486103E+00
         13   -1    0    0    0    0  0.00000000000E+00  0.00000000000E+00  0.14999999963E+04  0.15000000000E+04  0.10566000000E+00 0.  1.
        994   -1    0    0    0    0 -0.00000000000E+00 -0.00000000000E+00  0.11368683772E-12  0.17120000000E+03  0.17120000000E+03 0.  0.
         13    1    1    2    0    0  0.69674930268E+02  0.33643059983E+02  0.30722256932E+03  0.31681567142E+03  0.10566000000E+00 0.  1.
        994    1    1    2    0    0 -0.66962497973E+02 -0.20863039596E+02  0.25231575040E+02  0.18672256140E+03  0.17120000000E+03 0.  0.
        998    1    1    2    0    0 -0.27124322945E+01 -0.12780020388E+02  0.11675458519E+04  0.11676617672E+04  0.10000000000E+02 0.  1.
</event>
<event>
 5    1  0.1640179E-008  0.3812601E+03  0.7957747E-01  0.3445690E+00
         13   -1    0    0    0    0  0.00000000000E+00  0.00000000000E+00  0.14999999963E+04  0.15000000000E+04  0.10566000000E+00 0.  1.
        994   -1    0    0    0    0 -0.00000000000E+00 -0.00000000000E+00  0.11368683772E-12  0.17120000000E+03  0.17120000000E+03 0.  0.
         13    1    1    2    0    0 -0.16374229061E+01 -0.17737447257E+02  0.43468787979E+02  0.46977067611E+02  0.10566000000E+00 0.  1.
        994    1    1    2    0    0  0.11494803852E+02  0.14519875101E+02  0.46409833706E+01  0.17226124351E+03  0.17120000000E+03 0.  0.
        998    1    1    2    0    0 -0.98573809460E+01  0.32175721558E+01  0.14518902249E+04  0.14519616889E+04  0.10000000000E+02 0.  1.
</event>
<event>
 5    1  0.1640179E-008  0.3839135E+03  0.7957747E-01  0.3434293E+00
         13   -1    0    0    0    0  0.00000000000E+00  0.00000000000E+00  0.14999999963E+04  0.15000000000E+04  0.10566000000E+00 0.  1.
        994   -1    0    0    0    0 -0.00000000000E+00 -0.00000000000E+00  0.11368683772E-12  0.17120000000E+03  0.17120000000E+03 0.  0.
         13    1    1    2    0    0  0.14734309632E+02  0.97235289539E+01  0.68492980639E+02  0.70731509644E+02  0.10566000000E+00 0.  1.
        994    1    1    2    0    0 -0.23374571845E+02  0.12993129962E+01  0.39813391409E+01  0.17283908668E+03  0.17120000000E+03 0.  0.
        998    1    1    2    0    0  0.86402622125E+01 -0.11022841950E+02  0.14275256765E+04  0.14276294037E+04  0.10000000000E+02 0.  1.
</event>
<event>
 5    1  0.1640179E-008  0.3713878E+03  0.7957747E-01  0.3489537E+00
         13   -1    0    0    0    0  0.00000000000E+00  0.00000000000E+00  0.14999999963E+04  0.15000000000E+04  0.10566000000E+00 0. -1.
        994   -1    0    0    0    0 -0.00000000000E+00 -0.00000000000E+00  0.11368683772E-12  0.17120000000E+03  0.17120000000E+03 0.  0.
         13    1    1    2    0    0 -0.31464407962E+02  0.20267111037E+02  0.83835396277E+02  0.91810400234E+02  0.10566000000E+00 0. -1.
        994    1    1    2    0    0  0.90914235160E+01  0.18926180733E+01  0.88423111247E+01  0.17167953416E+03  0.17120000000E+03 0.  0.
        998    1    1    2    0    0  0.22372984446E+02 -0.22159729111E+02  0.14073222889E+04  0.14077100656E+04  0.10000000000E+02 0. -1.
</event>
<event>
 5    1  0.1640179E-008  0.3802121E+03  0.7957747E-01  0.3450236E+00
         13   -1    0    0    0    0  0.00000000000E+00  0.00000000000E+00  0.14999999963E+04  0.15000000000E+04  0.10566000000E+00 0. -1.
        994   -1    0    0    0    0 -0.00000000000E+00 -0.00000000000E+00  0.11368683772E-12  0.17120000000E+03  0.17120000000E+03 0.  0.
         13    1    1    2    0    0  0.12644012782E+02  0.10273453775E+02  0.29824506112E+02  0.33984220464E+02  0.10566000000E+00 0. -1.
        994    1    1    2    0    0 -0.17270463190E+02 -0.22172090729E+02  0.66692220432E+01  0.17361966775E+03  0.17120000000E+03 0.  0.
        998    1    1    2    0    0  0.46264504075E+01  0.11898636954E+02  0.14635062681E+04  0.14635961118E+04  0.10000000000E+02 0. -1.
</event>
<event>
 5    1  0.1640179E-008  0.3721284E+03  0.7957747E-01  0.3486166E+00
         13   -1    0    0    0    0  0.00000000000E+00  0.00000000000E+00  0.14999999963E+04  0.15000000000E+04  0.10566000000E+00 0. -1.
        994   -1    0    0    0    0 -0.00000000000E+00 -0.00000000000E+00  0.11368683772E-12  0.17120000000E+03  0.17120000000E+03 0.  0.
         13    1    1    2    0    0 -0.18972943768E+02 -0.45204189027E+01  0.20334410515E+02  0.28176341092E+02  0.10566000000E+00 0. -1.
        994    1    1    2    0    0  0.10333136431E+02 -0.36080950056E+02  0.13011267221E+02  0.17574794946E+03  0.17120000000E+03 0.  0.
        998    1    1    2    0    0  0.86398073375E+01  0.40601368959E+02  0.14666543185E+04  0.14672757094E+04  0.10000000000E+02 0. -1.
</event>
<event>
 5    1  0.1640179E-008  0.3855085E+03  0.7957747E-01  0.3427519E+00
         13   -1    0    0    0    0  0.00000000000E+00  0.00000000000E+00  0.14999999963E+04  0.15000000000E+04  0.10566000000E+00 0.  1.
        994   -1    0    0    0    0 -0.00000000000E+00 -0.00000000000E+00  0.11368683772E-12  0.17120000000E+03  0.17120000000E+03 0.  0.
         13    1    1    2    0    0 -0.53678667028E+01  0.10635471971E+02  0.50029029806E+02  0.51428029754E+02  0.10566000000E+00 0.  1.
        994    1    1    2    0    0 -0.60462027943E+00 -0.15598744566E+02  0.21783859678E+01  0.17192402905E+03  0.17120000000E+03 0.  0.
        998    1    1    2    0    0  0.59724869822E+01  0.49632725957E+01  0.14477925805E+04  0.14478479412E+04  0.10000000000E+02 0.  1.
</event>
<event>
 5    1  0.2142597E-008  0.3842809E+03  0.7957747E-01  0.3432728E+00
         13   -1    0    0    0    0  0.00000000000E+00  0.00000000000E+00  0.14999999963E+04  0.15000000000E+04  0.10566000000E+00 0.  1.
        994   -1    0    0    0    0 -0.00000000000E+00 -0.00000000000E+00  0.11368683772E-12  0.17120000000E+03  0.17120000000E+03 0.  0.
         13    1    1    2    0    0  0.22429697332E+01 -0.14561903805E+02  0.52727028198E+02  0.54746969070E+02  0.10566000000E+00 0.  1.
        994    1    1    2    0    0 -0.12019000941E+01  0.15251049796E+02  0.27594046483E+01  0.17190431466E+03  0.17120000000E+03 0.  0.
        998    1    1    2    0    0 -0.10410696391E+01 -0.68914599106E+00  0.14445135634E+04  0.14445487163E+04  0.10000000000E+02 0.  1.
</event>
<event>
 5    1  0.1640179E-008  0.3816919E+03  0.7957747E-01  0.3443825E+00
         13   -1    0    0    0    0  0.00000000000E+00  0.00000000000E+00  0.14999999963E+04  0.15000000000E+04  0.10566000000E+00 0.  1.
        994   -1    0    0    0    0 -0.00000000000E+00 -0.00000000000E+00  0.11368683772E-12  0.17120000000E+03  0.17120000000E+03 0.  0.
         13    1    1    2    0    0  0.30806174055E+02  0.23251556767E+01  0.15077829998E+03  0.15391079760E+03  0.10566000000E+00 0.  1.
        994    1    1    2    0    0 -0.12954992751E+02  0.85963435379E+01  0.40855140185E+01  0.17195307611E+03  0.17120000000E+03 0.  0.
        998    1    1    2    0    0 -0.17851181303E+02 -0.10921499215E+02  0.13451361823E+04  0.13453361263E+04  0.10000000000E+02 0.  1.
</event>
<event>
 5    1  0.1640179E-008  0.3860937E+03  0.7957747E-01  0.3425047E+00
         13   -1    0    0    0    0  0.00000000000E+00  0.00000000000E+00  0.14999999963E+04  0.15000000000E+04  0.10566000000E+00 0.  1.
        994   -1    0    0    0    0 -0.00000000000E+00 -0.00000000000E+00  0.11368683772E-12  0.17120000000E+03  0.17120000000E+03 0.  0.
         13    1    1    2    0    0 -0.10908880477E+02 -0.52346337552E+01  0.66185001375E+02  0.67282023118E+02  0.10566000000E+00 0.  1.
        994    1    1    2    0    0  0.87263320230E+01  0.93232160520E+01  0.16226954932E+01  0.17168326759E+03  0.17120000000E+03 0.  0.
        998    1    1    2    0    0  0.21825484544E+01 -0.40885822968E+01  0.14321922994E+04  0.14322347093E+04  0.10000000000E+02 0.  1.
</event>
<event>
 5    1  0.1640179E-008  0.3829129E+03  0.7957747E-01  0.3438572E+00
         13   -1    0    0    0    0  0.00000000000E+00  0.00000000000E+00  0.14999999963E+04  0.15000000000E+04  0.10566000000E+00 0. -1.
        994   -1    0    0    0    0 -0.00000000000E+00 -0.00000000000E+00  0.11368683772E-12  0.17120000000E+03  0.17120000000E+03 0.  0.
         13    1    1    2    0    0  0.11485908369E+02 -0.30051871974E+02  0.17529888861E+03  0.17822668884E+03  0.10566000000E+00 0. -1.
        994    1    1    2    0    0 -0.83106230939E+00  0.32630965782E+02  0.62057324695E+01  0.17439444288E+03  0.17120000000E+03 0.  0.
        998    1    1    2    0    0 -0.10654846060E+02 -0.25790938085E+01  0.13184953752E+04  0.13185788683E+04  0.10000000000E+02 0. -1.
</event>
<event>
 5    1  0.1640179E-008  0.3833927E+03  0.7957747E-01  0.3436518E+00
         13   -1    0    0    0    0  0.00000000000E+00  0.00000000000E+00  0.14999999963E+04  0.15000000000E+04  0.10566000000E+00 0. -1.
        994   -1    0    0    0    0 -0.00000000000E+00 -0.00000000000E+00  0.11368683772E-12  0.17120000000E+03  0.17120000000E+03 0.  0.
         13    1    1    2    0    0 -0.13278625461E+02 -0.26553171020E+01  0.37828518985E+02  0.40179355591E+02  0.10566000000E+00 0. -1.
        994    1    1    2    0    0  0.31980389275E+01  0.32479580584E+01  0.24989134095E+01  0.17127889903E+03  0.17120000000E+03 0.  0.
        998    1    1    2    0    0  0.10080586534E+02 -0.59264095644E+00  0.14596725639E+04  0.14597417454E+04  0.10000000000E+02 0. -1.
</event>
<event>
 5    1  0.1640179E-008  0.3806078E+03  0.7957747E-01  0.3448516E+00
         13   -1    0    0    0    0  0.00000000000E+00  0.00000000000E+00  0.14999999963E+04  0.15000000000E+04  0.10566000000E+00 0.  1.
        994   -1    0    0    0    0 -0.00000000000E+00 -0.00000000000E+00  0.11368683772E-12  0.17120000000E+03  0.17120000000E+03 0.  0.
         13    1    1    2    0    0 -0.26031152683E+01  0.13430750686E+02  0.22830404318E+02  0.26615781004E+02  0.10566000000E+00 0.  1.
        994    1    1    2    0    0  0.19522473341E+01 -0.10442454125E+02  0.42032713420E+01  0.17158077867E+03  0.17120000000E+03 0.  0.
        998    1    1    2    0    0  0.65086793420E+00 -0.29882965617E+01  0.14729663206E+04  0.14730034403E+04  0.10000000000E+02 0.  1.
</event>
<event>
 5    1  0.1640179E-008  0.3751411E+03  0.7957747E-01  0.3472592E+00
         13   -1    0    0    0    0  0.00000000000E+00  0.00000000000E+00  0.14999999963E+04  0.15000000000E+04  0.10566000000E+00 0. -1.
        994   -1    0    0    0    0 -0.00000000000E+00 -0.00000000000E+00  0.11368683772E-12  0.17120000000E+03  0.17120000000E+03 0.  0.
         13    1    1    2    0    0  0.15275626482E+02  0.61730059891E+02  0.21944982307E+03  0.22847796626E+03  0.10566000000E+00 0. -1.
        994    1    1    2    0    0 -0.42539554612E+01 -0.91899187141E+02  0.35928442104E+02  0.19764576820E+03  0.17120000000E+03 0.  0.
        998    1    1    2    0    0 -0.11021671021E+02  0.30169127250E+02  0.12446217311E+04  0.12450762655E+04  0.10000000000E+02 0. -1.
</event>
<event>
 5    1  0.1640179E-008  0.3763813E+03  0.7957747E-01  0.3467068E+00
         13   -1    0    0    0    0  0.00000000000E+00  0.00000000000E+00  0.14999999963E+04  0.15000000000E+04  0.10566000000E+00 0.  1.
        994   -1    0    0    0    0 -0.00000000000E+00 -0.00000000000E+00  0.11368683772E-12  0.17120000000E+03  0.17120000000E+03 0.  0.
         13    1    1    2    0    0 -0.11975942758E+03  0.75344173959E+02  0.42186249846E+03  0.44495735055E+03  0.10566000000E+00 0.  1.
        994    1    1    2    0    0  0.12433911173E+03 -0.95185395932E+02  0.10813479654E+03  0.25597470290E+03  0.17120000000E+03 0.  0.
        998    1    1    2    0    0 -0.45796841519E+01  0.19841221972E+02  0.97000270128E+03  0.97026794654E+03  0.10000000000E+02 0.  1.
</event>
<event>
 5    1  0.1640179E-008  0.3695757E+03  0.7957747E-01  0.3497843E+00
         13   -1    0    0    0    0  0.00000000000E+00  0.00000000000E+00  0.14999999963E+04  0.15000000000E+04  0.10566000000E+00 0.  1.
        994   -1    0    0    0    0 -0.00000000000E+00 -0.00000000000E+00  0.11368683772E-12  0.17120000000E+03  0.17120000000E+03 0.  0.
         13    1    1    2    0    0 -0.18267249452E+02 -0.16996204870E+01  0.13331522142E+02  0.22678663078E+02  0.10566000000E+00 0.  1.
        994    1    1    2    0    0  0.21170040789E+02 -0.21973631927E+01  0.11061197662E+02  0.17287217568E+03  0.17120000000E+03 0.  0.
        998    1    1    2    0    0 -0.29027913370E+01  0.38969836796E+01  0.14756072765E+04  0.14756491612E+04  0.10000000000E+02 0.  1.
</event>
<event>
 5    1  0.1640179E-008  0.3842060E+03  0.7957747E-01  0.3433047E+00
         13   -1    0    0    0    0  0.00000000000E+00  0.00000000000E+00  0.14999999963E+04  0.15000000000E+04  0.10566000000E+00 0.  1.
        994   -1    0    0    0    0 -0.00000000000E+00 -0.00000000000E+00  0.11368683772E-12  0.17120000000E+03  0.17120000000E+03 0.  0.
         13    1    1    2    0    0 -0.74809822473E+01 -0.95043838009E+01  0.35603429866E+02  0.37602045012E+02  0.10566000000E+00 0.  1.
        994    1    1    2    0    0  0.58190316479E+01  0.62270812295E+01  0.22643924185E+01  0.17142696737E+03  0.17120000000E+03 0.  0.
        998    1    1    2    0    0  0.16619505994E+01  0.32773025714E+01  0.14621321740E+04  0.14621709876E+04  0.10000000000E+02 0.  1.
</event>
<event>
 5    1  0.1640179E-008  0.3805427E+03  0.7957747E-01  0.3448799E+00
         13   -1    0    0    0    0  0.00000000000E+00  0.00000000000E+00  0.14999999963E+04  0.15000000000E+04  0.10566000000E+00 0.  1.
        994   -1    0    0    0    0 -0.00000000000E+00 -0.00000000000E+00  0.11368683772E-12  0.17120000000E+03  0.17120000000E+03 0.  0.
         13    1    1    2    0    0 -0.24530692019E+01  0.19724644406E+02  0.49493432725E+02  0.53335637171E+02  0.10566000000E+00 0.  1.
        994    1    1    2    0    0  0.59346224377E+01 -0.13796769832E+02  0.46125412235E+01  0.17191941757E+03  0.17120000000E+03 0.  0.
        998    1    1    2    0    0 -0.34815532357E+01 -0.59278745731E+01  0.14458940223E+04  0.14459449453E+04  0.10000000000E+02 0.  1.
</event>
<event>
 5    1  0.1640179E-008  0.3821264E+03  0.7957747E-01  0.3441951E+00
         13   -1    0    0    0    0  0.00000000000E+00  0.00000000000E+00  0.14999999963E+04  0.15000000000E+04  0.10566000000E+00 0.  1.
        994   -1    0    0    0    0 -0.00000000000E+00 -0.00000000000E+00  0.11368683772E-12  0.17120000000E+03  0.17120000000E+03 0.  0.
         13    1    1    2    0    0 -0.92546854784E+01  0.86775995140E+01  0.25695498097E+02  0.28656931502E+02  0.10566000000E+00 0.  1.
        994    1    1    2    0    0  0.24097777187E+01  0.20476177628E+00  0.30829850371E+01  0.17124483570E+03  0.17120000000E+03 0.  0.
        998    1    1    2    0    0  0.68449077597E+01 -0.88823612903E+01  0.14712215131E+04  0.14712982328E+04  0.10000000000E+02 0.  1.
</event>
<event>
 5    1  0.1640179E-008  0.3849793E+03  0.7957747E-01  0.3429760E+00
         13   -1    0    0    0    0  0.00000000000E+00  0.00000000000E+00  0.14999999963E+04  0.15000000000E+04  0.10566000000E+00 0. -1.
        994   -1    0    0    0    0 -0.00000000000E+00 -0.00000000000E+00  0.11368683772E-12  0.17120000000E+03  0.17120000000E+03 0.  0.
         13    1    1    2    0    0 -0.41950675320E+01 -0.11408279883E+02  0.45680650366E+02  0.47270291128E+02  0.10566000000E+00 0. -1.
        994    1    1    2    0    0  0.55624128637E+01  0.33840011115E+01  0.17798749192E+01  0.17133300866E+03  0.17120000000E+03 0.  0.
        998    1    1    2    0    0 -0.13673453316E+01  0.80242787710E+01  0.14525394710E+04  0.14525967002E+04  0.10000000000E+02 0. -1.
</event>
<event>
 5    1  0.1640179E-008  0.3807657E+03  0.7957747E-01  0.3447831E+00
         13   -1    0    0    0    0  0.00000000000E+00  0.00000000000E+00  0.14999999963E+04  0.15000000000E+04  0.10566000000E+00 0.  1.
        994   -1    0    0    0    0 -0.00000000000E+00 -0.00000000000E+00  0.11368683772E-12  0.17120000000E+03  0.17120000000E+03 0.  0.
         13    1    1    2    0    0 -0.19415196971E+01 -0.18374760422E+02  0.46772801689E+02  0.50290232265E+02  0.10566000000E+00 0.  1.
        994    1    1    2    0    0 -0.17896085909E+02 -0.89119259313E+00  0.48184586655E+01  0.17220255997E+03  0.17120000000E+03 0.  0.
        998    1    1    2    0    0  0.19837605606E+02  0.19265953015E+02  0.14484087359E+04  0.14487072078E+04  0.10000000000E+02 0.  1.
</event>
<event>
 5    1  0.1640179E-008  0.3761708E+03  0.7957747E-01  0.3468003E+00
         13   -1    0    0    0    0  0.00000000000E+00  0.00000000000E+00  0.14999999963E+04  0.15000000000E+04  0.10566000000E+00 0. -1.
        994   -1    0    0    0    0 -0.00000000000E+00 -0.00000000000E+00  0.11368683772E-12  0.17120000000E+03  0.17120000000E+03 0.  0.
         13    1    1    2    0    0 -0.10962075114E+03 -0.96213893517E+02  0.51243183052E+03  0.53278533621E+03  0.10566000000E+00 0. -1.
        994    1    1    2    0    0  0.10923353778E+03  0.78305127757E+02  0.81959342090E+02  0.23257349927E+03  0.17120000000E+03 0.  0.
        998    1    1    2    0    0  0.38721336010E+00  0.17908765760E+02  0.90560882367E+03  0.90584116452E+03  0.10000000000E+02 0.  0.
</event>
<event>
 5    1  0.1640179E-008  0.3699853E+03  0.7957747E-01  0.3495959E+00
         13   -1    0    0    0    0  0.00000000000E+00  0.00000000000E+00  0.14999999963E+04  0.15000000000E+04  0.10566000000E+00 0.  1.
        994   -1    0    0    0    0 -0.00000000000E+00 -0.00000000000E+00  0.11368683772E-12  0.17120000000E+03  0.17120000000E+03 0.  0.
         13    1    1    2    0    0  0.20109940082E+02 -0.16673099930E+02  0.30309157043E+02  0.40013224265E+02  0.10566000000E+00 0.  1.
        994    1    1    2    0    0 -0.21609540987E+02  0.52974878584E+02  0.20681887242E+02  0.18168789305E+03  0.17120000000E+03 0.  0.
        998    1    1    2    0    0  0.14996009050E+01 -0.36301778654E+02  0.14490089520E+04  0.14494988827E+04  0.10000000000E+02 0.  1.
</event>
<event>
 5    1  0.1640179E-008  0.3784250E+03  0.7957747E-01  0.3458045E+00
         13   -1    0    0    0    0  0.00000000000E+00  0.00000000000E+00  0.14999999963E+04  0.15000000000E+04  0.10566000000E+00 0. -1.
        994   -1    0    0    0    0 -0.00000000000E+00 -0.00000000000E+00  0.11368683772E-12  0.17120000000E+03  0.17120000000E+03 0.  0.
         13    1    1    2    0    0 -0.19150594170E+02  0.25243993594E+02  0.10382598015E+03  0.10855344208E+03  0.10566000000E+00 0. -1.
        994    1    1    2    0    0  0.31436968992E+02  0.83471017968E+01  0.84936637589E+01  0.17446930805E+03  0.17120000000E+03 0.  0.
        998    1    1    2    0    0 -0.12286374822E+02 -0.33591095391E+02  0.13876803524E+04  0.13881772499E+04  0.10000000000E+02 0. -1.
</event>
<event>
 5    1  0.1640179E-008  0.3698339E+03  0.7957747E-01  0.3496655E+00
         13   -1    0    0    0    0  0.00000000000E+00  0.00000000000E+00  0.14999999963E+04  0.15000000000E+04  0.10566000000E+00 0. -1.
        994   -1    0    0    0    0 -0.00000000000E+00 -0.00000000000E+00  0.11368683772E-12  0.17120000000E+03  0.17120000000E+03 0.  0.
         13    1    1    2    0    0 -0.12926940138E+03  0.87441184546E+01  0.52806043324E+03  0.54372315571E+03  0.10566000000E+00 0. -1.
        994    1    1    2    0    0  0.11922025758E+03 -0.41064079841E+01  0.62368361378E+02  0.21778334396E+03  0.17120000000E+03 0.  0.
        998    1    1    2    0    0  0.10049143796E+02 -0.46377104706E+01  0.90957120166E+03  0.90969350033E+03  0.10000000000E+02 0. -1.
</event>
<event>
 5    1  0.1640179E-008  0.3775200E+03  0.7957747E-01  0.3462028E+00
         13   -1    0    0    0    0  0.00000000000E+00  0.00000000000E+00  0.14999999963E+04  0.15000000000E+04  0.10566000000E+00 0.  1.
        994   -1    0    0    0    0 -0.00000000000E+00 -0.00000000000E+00  0.11368683772E-12  0.17120000000E+03  0.17120000000E+03 0.  0.
         13    1    1    2    0    0 -0.39268802210E+02  0.29129263512E+02  0.18199638993E+03  0.18844959520E+03  0.10566000000E+00 0.  1.
        994    1    1    2    0    0  0.40172229967E+02 -0.45865034138E+02  0.18024236184E+02  0.18262453972E+03  0.17120000000E+03 0.  0.
        998    1    1    2    0    0 -0.90342775710E+00  0.16735770626E+02  0.12999793702E+04  0.13001258651E+04  0.10000000000E+02 0.  1.
</event>
<event>
 5    1  0.1640179E-008  0.3795904E+03  0.7957747E-01  0.3452944E+00
         13   -1    0    0    0    0  0.00000000000E+00  0.00000000000E+00  0.14999999963E+04  0.15000000000E+04  0.10566000000E+00 0. -1.
        994   -1    0    0    0    0 -0.00000000000E+00 -0.00000000000E+00  0.11368683772E-12  0.17120000000E+03  0.17120000000E+03 0.  0.
         13    1    1    2    0    0  0.46573478546E+02 -0.26256705359E+02  0.27101714977E+03  0.27624049325E+03  0.10566000000E+00 0. -1.
        994    1    1    2    0    0 -0.47461148881E+02  0.24316214898E+02  0.13919139922E+02  0.17985277706E+03  0.17120000000E+03 0.  0.
        998    1    1    2    0    0  0.88767033552E+00  0.19404904612E+01  0.12150637066E+04  0.12151067297E+04  0.10000000000E+02 0. -1.
</event>
<event>
 5    1  0.1640179E-008  0.3823720E+03  0.7957747E-01  0.3440895E+00
         13   -1    0    0    0    0  0.00000000000E+00  0.00000000000E+00  0.14999999963E+04  0.15000000000E+04  0.10566000000E+00 0.  1.
        994   -1    0    0    0    0 -0.00000000000E+00 -0.00000000000E+00  0.11368683772E-12  0.17120000000E+03  0.17120000000E+03 0.  0.
         13    1    1    2    0    0 -0.13362004750E+02 -0.22821994855E+02  0.11030903531E+03  0.11343491991E+03  0.10566000000E+00 0.  1.
        994    1    1    2    0    0  0.11920604056E+02  0.24231599958E+02  0.53632231240E+01  0.17339975605E+03  0.17120000000E+03 0.  0.
        998    1    1    2    0    0  0.14414006935E+01 -0.14096051025E+01  0.13843277378E+04  0.13843653240E+04  0.10000000000E+02 0.  1.
</event>
<event>
 5    1  0.1640179E-008  0.3820322E+03  0.7957747E-01  0.3442357E+00
         13   -1    0    0    0    0  0.00000000000E+00  0.00000000000E+00  0.14999999963E+04  0.15000000000E+04  0.10566000000E+00 0. -1.
        994   -1    0    0    0    0 -0.00000000000E+00 -0.00000000000E+00  0.11368683772E-12  0.17120000000E+03  0.17120000000E+03 0.  0.
         13    1    1    2    0    0  0.70346961527E+01  0.19584545783E+02  0.11272529140E+03  0.11463003039E+03  0.10566000000E+00 0. -1.
        994    1    1    2    0    0  0.21723163241E+02  0.55833675457E+02  0.15122445348E+02  0.18200940495E+03  0.17120000000E+03 0.  0.
        998    1    1    2    0    0 -0.28757859393E+02 -0.75418221240E+02  0.13721522595E+04  0.13745605647E+04  0.10000000000E+02 0. -1.
</event>
<event>
 5    1  0.1640179E-008  0.3804956E+03  0.7957747E-01  0.3449003E+00
         13   -1    0    0    0    0  0.00000000000E+00  0.00000000000E+00  0.14999999963E+04  0.15000000000E+04  0.10566000000E+00 0.  1.
        994   -1    0    0    0    0 -0.00000000000E+00 -0.00000000000E+00  0.11368683772E-12  0.17120000000E+03  0.17120000000E+03 0.  0.
         13    1    1    2    0    0 -0.20159836743E+02  0.71482495935E+01  0.56161279667E+02  0.60096730257E+02  0.10566000000E+00 0.  1.
        994    1    1    2    0    0  0.17928257837E+02 -0.82338227350E+01  0.51832588026E+01  0.17241091740E+03  0.17120000000E+03 0.  0.
        998    1    1    2    0    0  0.22315789062E+01  0.10855731416E+01  0.14386554578E+04  0.14386923523E+04  0.10000000000E+02 0.  1.
</event>
<event>
 5    1  0.1640179E-008  0.3757487E+03  0.7957747E-01  0.3469881E+00
         13   -1    0    0    0    0  0.00000000000E+00  0.00000000000E+00  0.14999999963E+04  0.15000000000E+04  0.10566000000E+00 0.  1.
        994   -1    0    0    0    0 -0.00000000000E+00 -0.00000000000E+00  0.11368683772E-12  0.17120000000E+03  0.17120000000E+03 0.  0.
         13    1    1    2    0    0 -0.12179970361E+02 -0.10086088031E+02  0.16963003792E+02  0.23191280936E+02  0.10566000000E+00 0.  1.
        994    1    1    2    0    0  0.93902223500E+01  0.12885300632E+02  0.71571636602E+01  0.17208972148E+03  0.17120000000E+03 0.  0.
        998    1    1    2    0    0  0.27897480114E+01 -0.27992126006E+01  0.14758798288E+04  0.14759189976E+04  0.10000000000E+02 0.  1.
</event>
<event>
 5    1  0.1640179E-008  0.3826085E+03  0.7957747E-01  0.3439879E+00
         13   -1    0    0    0    0  0.00000000000E+00  0.00000000000E+00  0.14999999963E+04  0.15000000000E+04  0.10566000000E+00 0. -1.
        994   -1    0    0    0    0 -0.00000000000E+00 -0.00000000000E+00  0.11368683772E-12  0.17120000000E+03  0.17120000000E+03 0.  0.
         13    1    1    2    0    0  0.71533149595E+01  0.27720824688E+02  0.13962523059E+02  0.31852429271E+02  0.10566000000E+00 0. -1.
        994    1    1    2    0    0 -0.47225460463E+02 -0.50255944467E+02  0.35381334334E+02  0.18792866436E+03  0.17120000000E+03 0.  0.
        998    1    1    2    0    0  0.40072145504E+02  0.22535119779E+02  0.14506561389E+04  0.14514189064E+04  0.10000000000E+02 0. -1.
</event>
<event>
 5    1  0.1640179E-008  0.3780336E+03  0.7957747E-01  0.3459766E+00
         13   -1    0    0    0    0  0.00000000000E+00  0.00000000000E+00  0.14999999963E+04  0.15000000000E+04  0.10566000000E+00 0.  1.
        994   -1    0    0    0    0 -0.00000000000E+00 -0.00000000000E+00  0.11368683772E-12  0.17120000000E+03  0.17120000000E+03 0.  0.
         13    1    1    2    0    0 -0.11230188673E+02  0.19024125554E+02  0.46410987390E+02  0.51400636234E+02  0.10566000000E+00 0.  1.
        994    1    1    2    0    0  0.15828932791E+01 -0.97577962067E+01  0.54579451133E+01  0.17157199452E+03  0.17120000000E+03 0.  0.
        998    1    1    2    0    0  0.96472953935E+01 -0.92663293476E+01  0.14481310638E+04  0.14482273692E+04  0.10000000000E+02 0.  1.
</event>
<event>
 5    1  0.1640179E-008  0.3953429E+03  0.7957747E-01  0.3386957E+00
         13   -1    0    0    0    0  0.00000000000E+00  0.00000000000E+00  0.14999999963E+04  0.15000000000E+04  0.10566000000E+00 0.  1.
        994   -1    0    0    0    0 -0.00000000000E+00 -0.00000000000E+00  0.11368683772E-12  0.17120000000E+03  0.17120000000E+03 0.  0.
         13    1    1    2    0    0 -0.41319867508E+02  0.13678424489E+02  0.26629821050E+02  0.51025378789E+02  0.10566000000E+00 0.  1.
        994    1    1    2    0    0  0.50810880601E+02 -0.27229407692E+02  0.37904672322E+02  0.18457895442E+03  0.17120000000E+03 0.  0.
        998    1    1    2    0    0 -0.94910130928E+01  0.13550983203E+02  0.14354655029E+04  0.14355956668E+04  0.10000000000E+02 0.  1.
</event>
<event>
 5    1  0.1640179E-008  0.3849384E+03  0.7957747E-01  0.3429933E+00
         13   -1    0    0    0    0  0.00000000000E+00  0.00000000000E+00  0.14999999963E+04  0.15000000000E+04  0.10566000000E+00 0. -1.
        994   -1    0    0    0    0 -0.00000000000E+00 -0.00000000000E+00  0.11368683772E-12  0.17120000000E+03  0.17120000000E+03 0.  0.
         13    1    1    2    0    0  0.12938461603E+02  0.14877656308E+02  0.11696547980E+03  0.11861569489E+03  0.10566000000E+00 0. -1.
        994    1    1    2    0    0 -0.58855787089E+01 -0.11465682543E+02  0.22072614399E+01  0.17169861361E+03  0.17120000000E+03 0.  0.
        998    1    1    2    0    0 -0.70528828942E+01 -0.34119737648E+01  0.13808272550E+04  0.13808856915E+04  0.10000000000E+02 0. -1.
</event>
<event>
 5    1  0.1640179E-008  0.3787820E+03  0.7957747E-01  0.3456479E+00
         13   -1    0    0    0    0  0.00000000000E+00  0.00000000000E+00  0.14999999963E+04  0.15000000000E+04  0.10566000000E+00 0.  1.
        994   -1    0    0    0    0 -0.00000000000E+00 -0.00000000000E+00  0.11368683772E-12  0.17120000000E+03  0.17120000000E+03 0.  0.
         13    1    1    2    0    0  0.34901155820E+01  0.15460122262E+02  0.25410614411E+02  0.29948401893E+02  0.10566000000E+00 0.  1.
        994    1    1    2    0    0  0.65520272395E+02 -0.10883164326E+02  0.19701094497E+02  0.18468601053E+03  0.17120000000E+03 0.  0.
        998    1    1    2    0    0 -0.69010387977E+02 -0.45769579357E+01  0.14548882874E+04  0.14565655876E+04  0.10000000000E+02 0.  1.
</event>
<event>
 5    1  0.1640179E-008  0.3774309E+03  0.7957747E-01  0.3462422E+00
         13   -1    0    0    0    0  0.00000000000E+00  0.00000000000E+00  0.14999999963E+04  0.15000000000E+04  0.10566000000E+00 0.  1.
        994   -1    0    0    0    0 -0.00000000000E+00 -0.00000000000E+00  0.11368683772E-12  0.17120000000E+03  0.17120000000E+03 0.  0.
         13    1    1    2    0    0 -0.18562340666E+02 -0.15911543403E+02  0.53561147590E+02  0.58877375957E+02  0.10566000000E+00 0.  1.
        994    1    1    2    0    0 -0.12297179432E+01  0.20419570878E+02  0.68478294745E+01  0.17255377089E+03  0.17120000000E+03 0.  0.
        998    1    1    2    0    0  0.19792058609E+02 -0.45080274758E+01  0.14395910192E+04  0.14397688531E+04  0.10000000000E+02 0.  1.
</event>
<event>
 5    1  0.1640179E-008  0.3727526E+03  0.7957747E-01  0.3483335E+00
         13   -1    0    0    0    0  0.00000000000E+00  0.00000000000E+00  0.14999999963E+04  0.15000000000E+04  0.10566000000E+00 0.  1.
        994   -1    0    0    0    0 -0.00000000000E+00 -0.00000000000E+00  0.11368683772E-12  0.17120000000E+03  0.17120000000E+03 0.  0.
         13    1    1    2    0    0  0.11825623943E+02 -0.10456180059E+02  0.43460066955E+01  0.16373027249E+02  0.10566000000E+00 0.  1.
        994    1    1    2    0    0 -0.10121433382E+02  0.14616290884E+02  0.13518265654E+02  0.17265069614E+03  0.17120000000E+03 0.  0.
        998    1    1    2    0    0 -0.17041905611E+01 -0.41601108242E+01  0.14821357239E+04  0.14821762766E+04  0.10000000000E+02 0.  1.
</event>
<event>
 5    1  0.1640179E-008  0.3863453E+03  0.7957747E-01  0.3423986E+00
         13   -1    0    0    0    0  0.00000000000E+00  0.00000000000E+00  0.14999999963E+04  0.15000000000E+04  0.10566000000E+00 0. -1.
        994   -1    0    0    0    0 -0.00000000000E+00 -0.00000000000E+00  0.11368683772E-12  0.17120000000E+03  0.17120000000E+03 0.  0.
         13    1    1    2    0    0 -0.31761530196E+01  0.98340916683E+01  0.55451732676E+02  0.56406587627E+02  0.10566000000E+00 0.  1.
        994    1    1    2    0    0  0.25024970824E+01 -0.89500293825E+01  0.12465029102E+01  0.17145658135E+03  0.17120000000E+03 0.  0.
        998    1    1    2    0    0  0.67365593725E+00 -0.88406228576E+00  0.14433017607E+04  0.14433368310E+04  0.10000000000E+02 0. -1.
</event>
<event>
 5    1  0.1640179E-008  0.3859831E+03  0.7957747E-01  0.3425513E+00
         13   -1    0    0    0    0  0.00000000000E+00  0.00000000000E+00  0.14999999963E+04  0.15000000000E+04  0.10566000000E+00 0. -1.
        994   -1    0    0    0    0 -0.00000000000E+00 -0.00000000000E+00  0.11368683772E-12  0.17120000000E+03  0.17120000000E+03 0.  0.
         13    1    1    2    0    0 -0.10740100386E+02  0.51639139192E+01  0.63447629928E+02  0.64557173659E+02  0.10566000000E+00 0. -1.
        994    1    1    2    0    0  0.86644835784E+01  0.24904229492E+01  0.14092898342E+01  0.17144299805E+03  0.17120000000E+03 0.  0.
        998    1    1    2    0    0  0.20756168077E+01 -0.76543368684E+01  0.14351430765E+04  0.14351998283E+04  0.10000000000E+02 0. -1.
</event>
<event>
 5    1  0.1640179E-008  0.3812362E+03  0.7957747E-01  0.3445793E+00
         13   -1    0    0    0    0  0.00000000000E+00  0.00000000000E+00  0.14999999963E+04  0.15000000000E+04  0.10566000000E+00 0. -1.
        994   -1    0    0    0    0 -0.00000000000E+00 -0.00000000000E+00  0.11368683772E-12  0.17120000000E+03  0.17120000000E+03 0.  0.
         13    1    1    2    0    0  0.14325985415E+02  0.18773574605E+02  0.82681313059E+02  0.85987741306E+02  0.10566000000E+00 0. -1.
        994    1    1    2    0    0 -0.18158174747E+02  0.85982651928E+01  0.48554273790E+01  0.17244322152E+03  0.17120000000E+03 0.  0.
        998    1    1    2    0    0  0.38321893316E+01 -0.27371839798E+02  0.14124632558E+04  0.14127690372E+04  0.10000000000E+02 0. -1.
</event>
<event>
 5    1  0.1640179E-008  0.3750792E+03  0.7957747E-01  0.3472869E+00
         13   -1    0    0    0    0  0.00000000000E+00  0.00000000000E+00  0.14999999963E+04  0.15000000000E+04  0.10566000000E+00 0. -1.
        994   -1    0    0    0    0 -0.00000000000E+00 -0.00000000000E+00  0.11368683772E-12  0.17120000000E+03  0.17120000000E+03 0.  0.
         13    1    1    2    0    0 -0.10873367176E+03  0.85626838704E+02  0.49781864861E+03  0.51669951127E+03  0.10566000000E+00 0. -1.
        994    1    1    2    0    0  0.91419744419E+02 -0.86057650020E+02  0.72112614926E+02  0.22421676572E+03  0.17120000000E+03 0.  0.
        998    1    1    2    0    0  0.17313927337E+02  0.43081131618E+00  0.93006873274E+03  0.93028372301E+03  0.10000000000E+02 0. -1.
</event>
<event>
 5    1  0.1640179E-008  0.3780140E+03  0.7957747E-01  0.3459852E+00
         13   -1    0    0    0    0  0.00000000000E+00  0.00000000000E+00  0.14999999963E+04  0.15000000000E+04  0.10566000000E+00 0. -1.
        994   -1    0    0    0    0 -0.00000000000E+00 -0.00000000000E+00  0.11368683772E-12  0.17120000000E+03  0.17120000000E+03 0.  0.
         13    1    1    2    0    0  0.13113583260E+02  0.17197952309E+01  0.14746302855E+02  0.19808795356E+02  0.10566000000E+00 0. -1.
        994    1    1    2    0    0 -0.10211975181E+02 -0.19186880806E+01  0.55024059959E+01  0.17160326999E+03  0.17120000000E+03 0.  0.
        998    1    1    2    0    0 -0.29016080788E+01  0.19889284971E+00  0.14797512874E+04  0.14797879346E+04  0.10000000000E+02 0. -1.
</event>
<event>
 5    1  0.1640179E-008  0.3739271E+03  0.7957747E-01  0.3478035E+00
         13   -1    0    0    0    0  0.00000000000E+00  0.00000000000E+00  0.14999999963E+04  0.15000000000E+04  0.10566000000E+00 0.  1.
        994   -1    0    0    0    0 -0.00000000000E+00 -0.00000000000E+00  0.11368683772E-12  0.17120000000E+03  0.17120000000E+03 0.  0.
         13    1    1    2    0    0  0.19704352839E+03  0.34669663876E+02  0.75471061922E+03  0.78077926945E+03  0.10566000000E+00 0.  1.
        994    1    1    2    0    0 -0.21494318997E+03 -0.57744461698E+02  0.20115037037E+03  0.34540687496E+03  0.17120000000E+03 0.  0.
        998    1    1    2    0    0  0.17899661588E+02  0.23074797822E+02  0.54413900669E+03  0.54501385558E+03  0.10000000000E+02 0.  1.
</event>
<event>
 5    1  0.1640179E-008  0.3801773E+03  0.7957747E-01  0.3450387E+00
         13   -1    0    0    0    0  0.00000000000E+00  0.00000000000E+00  0.14999999963E+04  0.15000000000E+04  0.10566000000E+00 0.  1.
        994   -1    0    0    0    0 -0.00000000000E+00 -0.00000000000E+00  0.11368683772E-12  0.17120000000E+03  0.17120000000E+03 0.  0.
         13    1    1    2    0    0  0.11277717630E+02  0.65523024227E+01  0.19310098232E+02  0.23302588693E+02  0.10566000000E+00 0.  1.
        994    1    1    2    0    0 -0.65948797095E+01 -0.83921011208E+01  0.44243657501E+01  0.17158943677E+03  0.17120000000E+03 0.  0.
        998    1    1    2    0    0 -0.46828379208E+01  0.18397986981E+01  0.14762655323E+04  0.14763079745E+04  0.10000000000E+02 0.  1.
</event>
<event>
 5    1  0.1640179E-008  0.3767450E+03  0.7957747E-01  0.3465455E+00
         13   -1    0    0    0    0  0.00000000000E+00  0.00000000000E+00  0.14999999963E+04  0.15000000000E+04  0.10566000000E+00 0. -1.
        994   -1    0    0    0    0 -0.00000000000E+00 -0.00000000000E+00  0.11368683772E-12  0.17120000000E+03  0.17120000000E+03 0.  0.
         13    1    1    2    0    0 -0.17103967877E+02  0.30857481193E+02  0.38933808928E+02  0.52541245744E+02  0.10566000000E+00 0. -1.
        994    1    1    2    0    0 -0.23065607248E+02 -0.18449956920E+02  0.17680899124E+02  0.17462667993E+03  0.17120000000E+03 0.  0.
        998    1    1    2    0    0  0.40169575124E+02 -0.12407524272E+02  0.14433852882E+04  0.14440320743E+04  0.10000000000E+02 0. -1.
</event>
<event>
 5    1  0.1640179E-008  0.3845858E+03  0.7957747E-01  0.3431431E+00
         13   -1    0    0    0    0  0.00000000000E+00  0.00000000000E+00  0.14999999963E+04  0.15000000000E+04  0.10566000000E+00 0. -1.
        994   -1    0    0    0    0 -0.00000000000E+00 -0.00000000000E+00  0.11368683772E-12  0.17120000000E+03  0.17120000000E+03 0.  0.
         13    1    1    2    0    0  0.79641980788E+01  0.16047498053E+02  0.87513769200E+02  0.89328727789E+02  0.10566000000E+00 0. -1.
        994    1    1    2    0    0 -0.59073663527E+01 -0.93906635369E+01  0.22413509856E+01  0.17157373107E+03  0.17120000000E+03 0.  0.
        998    1    1    2    0    0 -0.20568317262E+01 -0.66568345162E+01  0.14102448761E+04  0.14102975411E+04  0.10000000000E+02 0. -1.
</event>
<event>
 5    1  0.1640179E-008  0.3751715E+03  0.7957747E-01  0.3472456E+00
         13   -1    0    0    0    0  0.00000000000E+00  0.00000000000E+00  0.14999999963E+04  0.15000000000E+04  0.10566000000E+00 0. -1.
        994   -1    0    0    0    0 -0.00000000000E+00 -0.00000000000E+00  0.11368683772E-12  0.17120000000E+03  0.17120000000E+03 0.  0.
         13    1    1    2    0    0  0.19570829969E+02  0.29363289951E+02  0.91987149000E+02  0.98523433393E+02  0.10566000000E+00 0. -1.
        994    1    1    2    0    0 -0.58236343073E+01 -0.22706111693E+02  0.84596508258E+01  0.17300430028E+03  0.17120000000E+03 0.  0.
        998    1    1    2    0    0 -0.13747195662E+02 -0.66571782572E+01  0.13995531965E+04  0.13996722663E+04  0.10000000000E+02 0. -1.
</event>
<event>
 5    1  0.1640179E-008  0.3171242E+03  0.7957747E-01  0.3780876E+00
         13   -1    0    0    0    0  0.00000000000E+00  0.00000000000E+00  0.14999999963E+04  0.15000000000E+04  0.10566000000E+00 0. -1.
        994   -1    0    0    0    0 -0.00000000000E+00 -0.00000000000E+00  0.11368683772E-12  0.17120000000E+03  0.17120000000E+03 0.  0.
         13    1    1    2    0    0 -0.19162381982E+03 -0.15017227110E+03  0.39830459543E+03  0.46681683907E+03  0.10566000000E+00 0. -1.
        994    1    1    2    0    0  0.21124115926E+03  0.21078819279E+03  0.54869028208E+03  0.64763026121E+03  0.17120000000E+03 0.  0.
        998    1    1    2    0    0 -0.19617339433E+02 -0.60615921694E+02  0.55300511876E+03  0.55675289972E+03  0.10000000000E+02 0. -1.
</event>
<event>
 5    1  0.1640179E-008  0.3796636E+03  0.7957747E-01  0.3452625E+00
         13   -1    0    0    0    0  0.00000000000E+00  0.00000000000E+00  0.14999999963E+04  0.15000000000E+04  0.10566000000E+00 0.  1.
        994   -1    0    0    0    0 -0.00000000000E+00 -0.00000000000E+00  0.11368683772E-12  0.17120000000E+03  0.17120000000E+03 0.  0.
         13    1    1    2    0    0  0.11879420232E+02  0.38403614153E+02  0.16257341774E+03  0.16746965554E+03  0.10566000000E+00 0.  1.
        994    1    1    2    0    0 -0.17755645915E+02 -0.41497301205E+02  0.11151472442E+02  0.17740091405E+03  0.17120000000E+03 0.  0.
        998    1    1    2    0    0  0.58762256835E+01  0.30936870520E+01  0.13262751061E+04  0.13263294304E+04  0.10000000000E+02 0.  1.
</event>
<event>
 5    1  0.1640179E-008  0.3845071E+03  0.7957747E-01  0.3431765E+00
         13   -1    0    0    0    0  0.00000000000E+00  0.00000000000E+00  0.14999999963E+04  0.15000000000E+04  0.10566000000E+00 0.  1.
        994   -1    0    0    0    0 -0.00000000000E+00 -0.00000000000E+00  0.11368683772E-12  0.17120000000E+03  0.17120000000E+03 0.  0.
         13    1    1    2    0    0  0.87362152702E+01  0.99791255180E+01  0.46001433815E+02  0.47875332693E+02  0.10566000000E+00 0.  1.
        994    1    1    2    0    0 -0.74274732006E+01 -0.87773862174E+01  0.23106749813E+01  0.17160125025E+03  0.17120000000E+03 0.  0.
        998    1    1    2    0    0 -0.13087420696E+01 -0.12017393005E+01  0.14516878875E+04  0.14517234171E+04  0.10000000000E+02 0.  1.
</event>
<event>
 5    1  0.1640179E-008  0.3833874E+03  0.7957747E-01  0.3436540E+00
         13   -1    0    0    0    0  0.00000000000E+00  0.00000000000E+00  0.14999999963E+04  0.15000000000E+04  0.10566000000E+00 0. -1.
        994   -1    0    0    0    0 -0.00000000000E+00 -0.00000000000E+00  0.11368683772E-12  0.17120000000E+03  0.17120000000E+03 0.  0.
         13    1    1    2    0    0 -0.36763850995E+02 -0.59186609608E+01  0.19737212257E+03  0.20085411925E+03  0.10566000000E+00 0. -1.
        994    1    1    2    0    0  0.64989672785E+02 -0.31413879182E+01  0.16556705228E+02  0.18389423693E+03  0.17120000000E+03 0.  0.
        998    1    1    2    0    0 -0.28225821790E+02  0.90600488790E+01  0.12860711685E+04  0.12864516438E+04  0.10000000000E+02 0. -1.
</event>
<event>
 5    1  0.1640179E-008  0.3716332E+03  0.7957747E-01  0.3488418E+00
         13   -1    0    0    0    0  0.00000000000E+00  0.00000000000E+00  0.14999999963E+04  0.15000000000E+04  0.10566000000E+00 0. -1.
        994   -1    0    0    0    0 -0.00000000000E+00 -0.00000000000E+00  0.11368683772E-12  0.17120000000E+03  0.17120000000E+03 0.  0.
         13    1    1    2    0    0 -0.48339355312E+02 -0.76708569025E+02  0.50703300551E+03  0.51507608921E+03  0.10566000000E+00 0. -1.
        994    1    1    2    0    0 -0.18836733753E+02  0.25142804752E+02  0.15283211361E+02  0.17472835980E+03  0.17120000000E+03 0.  0.
        998    1    1    2    0    0  0.67176089066E+02  0.51565764273E+02  0.97768377940E+03  0.98139555099E+03  0.10000000000E+02 0. -1.
</event>
<event>
 5    1  0.1640179E-008  0.3829411E+03  0.7957747E-01  0.3438451E+00
         13   -1    0    0    0    0  0.00000000000E+00  0.00000000000E+00  0.14999999963E+04  0.15000000000E+04  0.10566000000E+00 0. -1.
        994   -1    0    0    0    0 -0.00000000000E+00 -0.00000000000E+00  0.11368683772E-12  0.17120000000E+03  0.17120000000E+03 0.  0.
         13    1    1    2    0    0  0.20965361835E+02 -0.20009658718E+02  0.13607856586E+03  0.13913058646E+03  0.10566000000E+00 0. -1.
        994    1    1    2    0    0 -0.25625158080E+01  0.54758019245E+02  0.12669067094E+02  0.18020808090E+03  0.17120000000E+03 0.  0.
        998    1    1    2    0    0 -0.18402846027E+02 -0.34748360527E+02  0.13512523633E+04  0.13518613326E+04  0.10000000000E+02 0. -1.
</event>
<event>
 5    1  0.1640179E-008  0.4032249E+03  0.7957747E-01  0.3355874E+00
         13   -1    0    0    0    0  0.00000000000E+00  0.00000000000E+00  0.14999999963E+04  0.15000000000E+04  0.10566000000E+00 0. -1.
        994   -1    0    0    0    0 -0.00000000000E+00 -0.00000000000E+00  0.11368683772E-12  0.17120000000E+03  0.17120000000E+03 0.  0.
         13    1    1    2    0    0 -0.20456660049E+02 -0.10753983347E+03  0.22365188708E+03  0.24900495674E+03  0.10566000000E+00 0. -1.
        994    1    1    2    0    0  0.27738176518E+02  0.29919590072E+02  0.36350933785E+02  0.17970926157E+03  0.17120000000E+03 0.  0.
        998    1    1    2    0    0 -0.72815164689E+01  0.77620243397E+02  0.12399971754E+04  0.12424857817E+04  0.10000000000E+02 0. -1.
</event>
<event>
 5    1  0.1640179E-008  0.3833984E+03  0.7957747E-01  0.3436493E+00
         13   -1    0    0    0    0  0.00000000000E+00  0.00000000000E+00  0.14999999963E+04  0.15000000000E+04  0.10566000000E+00 0.  1.
        994   -1    0    0    0    0 -0.00000000000E+00 -0.00000000000E+00  0.11368683772E-12  0.17120000000E+03  0.17120000000E+03 0.  0.
         13    1    1    2    0    0  0.43444923060E+02  0.28276209497E+02  0.69486525509E+02  0.86691370704E+02  0.10566000000E+00 0.  1.
        994    1    1    2    0    0 -0.32705102806E+02  0.39776944960E+01  0.22199559289E+02  0.17574898644E+03  0.17120000000E+03 0.  0.
        998    1    1    2    0    0 -0.10739820254E+02 -0.32253903993E+02  0.14083139115E+04  0.14087596429E+04  0.10000000000E+02 0.  1.
</event>
<event>
 5    1  0.1640179E-008  0.3998225E+03  0.7957747E-01  0.3369142E+00
         13   -1    0    0    0    0  0.00000000000E+00  0.00000000000E+00  0.14999999963E+04  0.15000000000E+04  0.10566000000E+00 0.  1.
        994   -1    0    0    0    0 -0.00000000000E+00 -0.00000000000E+00  0.11368683772E-12  0.17120000000E+03  0.17120000000E+03 0.  0.
         13    1    1    2    0    0 -0.97731214154E+02 -0.82981740022E+02  0.31142047780E+03  0.33677898473E+03  0.10566000000E+00 0.  1.
        994    1    1    2    0    0  0.79597941714E+01  0.92783786745E+02  0.62475717029E+02  0.20465787213E+03  0.17120000000E+03 0.  0.
        998    1    1    2    0    0  0.89771419983E+02 -0.98020467233E+01  0.11261038014E+04  0.11297631431E+04  0.10000000000E+02 0.  1.
</event>
<event>
 5    1  0.1640179E-008  0.3860024E+03  0.7957747E-01  0.3425432E+00
         13   -1    0    0    0    0  0.00000000000E+00  0.00000000000E+00  0.14999999963E+04  0.15000000000E+04  0.10566000000E+00 0. -1.
        994   -1    0    0    0    0 -0.00000000000E+00 -0.00000000000E+00  0.11368683772E-12  0.17120000000E+03  0.17120000000E+03 0.  0.
         13    1    1    2    0    0 -0.12056965048E+02 -0.16562409675E+01  0.62395770824E+02  0.63571667597E+02  0.10566000000E+00 0. -1.
        994    1    1    2    0    0  0.16407606919E+02 -0.14554740291E+01  0.20231900262E+01  0.17200250367E+03  0.17120000000E+03 0.  0.
        998    1    1    2    0    0 -0.43506418714E+01  0.31117149966E+01  0.14355810354E+04  0.14356258287E+04  0.10000000000E+02 0. -1.
</event>
<event>
 5    1  0.1640179E-008  0.3745104E+03  0.7957747E-01  0.3475415E+00
         13   -1    0    0    0    0  0.00000000000E+00  0.00000000000E+00  0.14999999963E+04  0.15000000000E+04  0.10566000000E+00 0.  1.
        994   -1    0    0    0    0 -0.00000000000E+00 -0.00000000000E+00  0.11368683772E-12  0.17120000000E+03  0.17120000000E+03 0.  0.
         13    1    1    2    0    0 -0.85219544611E+02 -0.66278699727E+02  0.56657601921E+03  0.57677000055E+03  0.10566000000E+00 0.  1.
        994    1    1    2    0    0  0.89158306996E+02  0.47881114337E+02  0.42644417497E+02  0.20339565177E+03  0.17120000000E+03 0.  0.
        998    1    1    2    0    0 -0.39387623857E+01  0.18397585390E+02  0.89077955957E+03  0.89103434768E+03  0.10000000000E+02 0.  1.
</event>
<event>
 5    1  0.1640179E-008  0.3851754E+03  0.7957747E-01  0.3428929E+00
         13   -1    0    0    0    0  0.00000000000E+00  0.00000000000E+00  0.14999999963E+04  0.15000000000E+04  0.10566000000E+00 0. -1.
        994   -1    0    0    0    0 -0.00000000000E+00 -0.00000000000E+00  0.11368683772E-12  0.17120000000E+03  0.17120000000E+03 0.  0.
         13    1    1    2    0    0 -0.14799474588E+01 -0.10695551607E+02  0.39291861494E+02  0.40748578041E+02  0.10566000000E+00 0. -1.
        994    1    1    2    0    0  0.56624431059E+00 -0.78672205501E+00  0.15461662326E+01  0.17120972576E+03  0.17120000000E+03 0.  0.
        998    1    1    2    0    0  0.91370314824E+00  0.11482273662E+02  0.14591619686E+04  0.14592416962E+04  0.10000000000E+02 0. -1.
</event>
<event>
 5    1  0.1640179E-008  0.3838484E+03  0.7957747E-01  0.3434571E+00
         13   -1    0    0    0    0  0.00000000000E+00  0.00000000000E+00  0.14999999963E+04  0.15000000000E+04  0.10566000000E+00 0. -1.
        994   -1    0    0    0    0 -0.00000000000E+00 -0.00000000000E+00  0.11368683772E-12  0.17120000000E+03  0.17120000000E+03 0.  0.
         13    1    1    2    0    0 -0.17622741335E+02 -0.37793877703E+01  0.77956654244E+02  0.80013098234E+02  0.10566000000E+00 0. -1.
        994    1    1    2    0    0  0.14816792317E+01 -0.41695721078E+00  0.22107914285E+01  0.17122119269E+03  0.17120000000E+03 0.  0.
        998    1    1    2    0    0  0.16141062103E+02  0.41963449811E+01  0.14198325506E+04  0.14199657091E+04  0.10000000000E+02 0. -1.
</event>
<event>
 5    1  0.1640179E-008  0.3769770E+03  0.7957747E-01  0.3464428E+00
         13   -1    0    0    0    0  0.00000000000E+00  0.00000000000E+00  0.14999999963E+04  0.15000000000E+04  0.10566000000E+00 0. -1.
        994   -1    0    0    0    0 -0.00000000000E+00 -0.00000000000E+00  0.11368683772E-12  0.17120000000E+03  0.17120000000E+03 0.  0.
         13    1    1    2    0    0  0.44201774306E+02  0.16267786932E+02  0.23460182263E+03  0.23928322985E+03  0.10566000000E+00 0. -1.
        994    1    1    2    0    0  0.13613857178E+01 -0.60312706923E+01  0.57960771182E+01  0.17140963831E+03  0.17120000000E+03 0.  0.
        998    1    1    2    0    0 -0.45563160024E+02 -0.10236516240E+02  0.12596020965E+04  0.12605071318E+04  0.10000000000E+02 0. -1.
</event>
<event>
 5    1  0.1640179E-008  0.3846496E+03  0.7957747E-01  0.3431160E+00
         13   -1    0    0    0    0  0.00000000000E+00  0.00000000000E+00  0.14999999963E+04  0.15000000000E+04  0.10566000000E+00 0.  1.
        994   -1    0    0    0    0 -0.00000000000E+00 -0.00000000000E+00  0.11368683772E-12  0.17120000000E+03  0.17120000000E+03 0.  0.
         13    1    1    2    0    0  0.15450432966E+02  0.87980505595E+01  0.99369942290E+02  0.10094809640E+03  0.10566000000E+00 0.  1.
        994    1    1    2    0    0  0.25630944814E+01  0.61411961535E+01  0.19500413319E+01  0.17134038171E+03  0.17120000000E+03 0.  0.
        998    1    1    2    0    0 -0.18013527447E+02 -0.14939246713E+02  0.13986800127E+04  0.13989115219E+04  0.10000000000E+02 0.  1.
</event>
<event>
 5    1  0.1640179E-008  0.3881895E+03  0.7957747E-01  0.3416257E+00
         13   -1    0    0    0    0  0.00000000000E+00  0.00000000000E+00  0.14999999963E+04  0.15000000000E+04  0.10566000000E+00 0. -1.
        994   -1    0    0    0    0 -0.00000000000E+00 -0.00000000000E+00  0.11368683772E-12  0.17120000000E+03  0.17120000000E+03 0.  0.
         13    1    1    2    0    0  0.12489085087E+03  0.19948514521E+02  0.32534191216E+03  0.34906022236E+03  0.10566000000E+00 0. -1.
        994    1    1    2    0    0 -0.10130830738E+03 -0.31388553142E+02  0.64269461327E+02  0.21139682607E+03  0.17120000000E+03 0.  0.
        998    1    1    2    0    0 -0.23582543491E+02  0.11440038621E+02  0.11103886228E+04  0.11107429516E+04  0.10000000000E+02 0. -1.
</event>
<event>
 5    1  0.1640179E-008  0.3825236E+03  0.7957747E-01  0.3440243E+00
         13   -1    0    0    0    0  0.00000000000E+00  0.00000000000E+00  0.14999999963E+04  0.15000000000E+04  0.10566000000E+00 0.  1.
        994   -1    0    0    0    0 -0.00000000000E+00 -0.00000000000E+00  0.11368683772E-12  0.17120000000E+03  0.17120000000E+03 0.  0.
         13    1    1    2    0    0  0.34115182011E+02 -0.46154163671E+01  0.16865520635E+03  0.17213290651E+03  0.10566000000E+00 0.  1.
        994    1    1    2    0    0 -0.44495479770E+02  0.16745421843E+02  0.10394438317E+02  0.17798241829E+03  0.17120000000E+03 0.  0.
        998    1    1    2    0    0  0.10380297759E+02 -0.12130005476E+02  0.13209503516E+04  0.13210846752E+04  0.10000000000E+02 0.  1.
</event>
<event>
 5    1  0.1640179E-008  0.3747392E+03  0.7957747E-01  0.3474390E+00
         13   -1    0    0    0    0  0.00000000000E+00  0.00000000000E+00  0.14999999963E+04  0.15000000000E+04  0.10566000000E+00 0. -1.
        994   -1    0    0    0    0 -0.00000000000E+00 -0.00000000000E+00  0.11368683772E-12  0.17120000000E+03  0.17120000000E+03 0.  0.
         13    1    1    2    0    0  0.18055291078E+02 -0.40454313884E+02  0.12625453705E+03  0.13380121202E+03  0.10566000000E+00 0. -1.
        994    1    1    2    0    0 -0.20727863165E+02  0.46984069144E+02  0.15838266145E+02  0.17943644485E+03  0.17120000000E+03 0.  0.
        998    1    1    2    0    0  0.26725720872E+01 -0.65297552605E+01  0.13579071931E+04  0.13579623431E+04  0.10000000000E+02 0. -1.
</event>
<event>
 5    1  0.1640179E-008  0.3840762E+03  0.7957747E-01  0.3433600E+00
         13   -1    0    0    0    0  0.00000000000E+00  0.00000000000E+00  0.14999999963E+04  0.15000000000E+04  0.10566000000E+00 0. -1.
        994   -1    0    0    0    0 -0.00000000000E+00 -0.00000000000E+00  0.11368683772E-12  0.17120000000E+03  0.17120000000E+03 0.  0.
         13    1    1    2    0    0 -0.10670466486E+02 -0.22659244387E+02  0.13568957494E+03  0.13798178185E+03  0.10566000000E+00 0. -1.
        994    1    1    2    0    0  0.82983237497E+01  0.26417361299E+02  0.46226887165E+01  0.17348645021E+03  0.17120000000E+03 0.  0.
        998    1    1    2    0    0  0.23721427366E+01 -0.37581169115E+01  0.13596877326E+04  0.13597317679E+04  0.10000000000E+02 0. -1.
</event>
<event>
 5    1  0.1640179E-008  0.3792936E+03  0.7957747E-01  0.3454240E+00
         13   -1    0    0    0    0  0.00000000000E+00  0.00000000000E+00  0.14999999963E+04  0.15000000000E+04  0.10566000000E+00 0. -1.
        994   -1    0    0    0    0 -0.00000000000E+00 -0.00000000000E+00  0.11368683772E-12  0.17120000000E+03  0.17120000000E+03 0.  0.
         13    1    1    2    0    0  0.36801834087E+02  0.36423021016E+02  0.29931730069E+03  0.30376285011E+03  0.10566000000E+00 0. -1.
        994    1    1    2    0    0 -0.66444507206E+02  0.16840839051E+02  0.20397949339E+02  0.18553706566E+03  0.17120000000E+03 0.  0.
        998    1    1    2    0    0  0.29642673119E+02 -0.53263860068E+02  0.11802847462E+04  0.11819000842E+04  0.10000000000E+02 0. -1.
</event>
<event>
 5    1  0.1640179E-008  0.3774182E+03  0.7957747E-01  0.3462478E+00
         13   -1    0    0    0    0  0.00000000000E+00  0.00000000000E+00  0.14999999963E+04  0.15000000000E+04  0.10566000000E+00 0.  1.
        994   -1    0    0    0    0 -0.00000000000E+00 -0.00000000000E+00  0.11368683772E-12  0.17120000000E+03  0.17120000000E+03 0.  0.
         13    1    1    2    0    0 -0.67893993071E+01 -0.43837245679E+02  0.19739304680E+03  0.20231615393E+03  0.10566000000E+00 0.  1.
        994    1    1    2    0    0  0.58615118248E+02  0.59563296948E+01  0.17236865977E+02  0.18187292129E+03  0.17120000000E+03 0.  0.
        998    1    1    2    0    0 -0.51825718941E+02  0.37880915984E+02  0.12853700835E+04  0.12870109248E+04  0.10000000000E+02 0.  1.
</event>
<event>
 5    1  0.1640179E-008  0.3851925E+03  0.7957747E-01  0.3428856E+00
         13   -1    0    0    0    0  0.00000000000E+00  0.00000000000E+00  0.14999999963E+04  0.15000000000E+04  0.10566000000E+00 0. -1.
        994   -1    0    0    0    0 -0.00000000000E+00 -0.00000000000E+00  0.11368683772E-12  0.17120000000E+03  0.17120000000E+03 0.  0.
         13    1    1    2    0    0 -0.29636071179E+01 -0.14767479851E+02  0.78063241782E+02  0.79503096228E+02  0.10566000000E+00 0. -1.
        994    1    1    2    0    0 -0.39070960968E+00  0.27024004039E+01  0.15591241929E+01  0.17122887166E+03  0.17120000000E+03 0.  0.
        998    1    1    2    0    0  0.33543167276E+01  0.12065079447E+02  0.14203776303E+04  0.14204680321E+04  0.10000000000E+02 0. -1.
</event>
<event>
 5    1  0.1640179E-008  0.3852355E+03  0.7957747E-01  0.3428674E+00
         13   -1    0    0    0    0  0.00000000000E+00  0.00000000000E+00  0.14999999963E+04  0.15000000000E+04  0.10566000000E+00 0.  1.
        994   -1    0    0    0    0 -0.00000000000E+00 -0.00000000000E+00  0.11368683772E-12  0.17120000000E+03  0.17120000000E+03 0.  0.
         13    1    1    2    0    0  0.97550325559E+01 -0.11822380920E+02  0.72642143338E+02  0.74241642651E+02  0.10566000000E+00 0.  1.
        994    1    1    2    0    0 -0.11600688381E+02  0.16480424764E+02  0.28491426512E+01  0.17240573652E+03  0.17120000000E+03 0.  0.
        998    1    1    2    0    0  0.18456558253E+01 -0.46580438441E+01  0.14245087103E+04  0.14245526208E+04  0.10000000000E+02 0.  1.
</event>
<event>
 5    1  0.1640179E-008  0.3853688E+03  0.7957747E-01  0.3428110E+00
         13   -1    0    0    0    0  0.00000000000E+00  0.00000000000E+00  0.14999999963E+04  0.15000000000E+04  0.10566000000E+00 0. -1.
        994   -1    0    0    0    0 -0.00000000000E+00 -0.00000000000E+00  0.11368683772E-12  0.17120000000E+03  0.17120000000E+03 0.  0.
         13    1    1    2    0    0  0.91765402021E+01  0.90918870774E+01  0.61699114627E+02  0.63036998743E+02  0.10566000000E+00 0. -1.
        994    1    1    2    0    0  0.10490847975E+01  0.56482244374E+00  0.14518131394E+01  0.17121030157E+03  0.17120000000E+03 0.  0.
        998    1    1    2    0    0 -0.10225625000E+02 -0.96567095211E+01  0.14368490685E+04  0.14369526997E+04  0.10000000000E+02 0. -1.
</event>
<event>
 5    1  0.1640179E-008  0.3851618E+03  0.7957747E-01  0.3428986E+00
         13   -1    0    0    0    0  0.00000000000E+00  0.00000000000E+00  0.14999999963E+04  0.15000000000E+04  0.10566000000E+00 0. -1.
        994   -1    0    0    0    0 -0.00000000000E+00 -0.00000000000E+00  0.11368683772E-12  0.17120000000E+03  0.17120000000E+03 0.  0.
         13    1    1    2    0    0 -0.10765334376E+02 -0.32807380508E+01  0.40674847245E+02  0.42203199272E+02  0.10566000000E+00 0. -1.
        994    1    1    2    0    0  0.73103128882E+01  0.43194170509E+01  0.17868679946E+01  0.17141975072E+03  0.17120000000E+03 0.  0.
        998    1    1    2    0    0  0.34550214874E+01 -0.10386790000E+01  0.14575382810E+04  0.14575770500E+04  0.10000000000E+02 0. -1.
</event>
<event>
 5    1  0.1640179E-008  0.3793449E+03  0.7957747E-01  0.3454016E+00
         13   -1    0    0    0    0  0.00000000000E+00  0.00000000000E+00  0.14999999963E+04  0.15000000000E+04  0.10566000000E+00 0. -1.
        994   -1    0    0    0    0 -0.00000000000E+00 -0.00000000000E+00  0.11368683772E-12  0.17120000000E+03  0.17120000000E+03 0.  0.
         13    1    1    2    0    0 -0.13579707450E+02 -0.25632428075E+02  0.11090590584E+03  0.11463664744E+03  0.10566000000E+00 0. -1.
        994    1    1    2    0    0 -0.10010323054E+02 -0.12548109828E+02  0.53278636877E+01  0.17203339141E+03  0.17120000000E+03 0.  0.
        998    1    1    2    0    0  0.23590030503E+02  0.38180537903E+02  0.13837662268E+04  0.13845299611E+04  0.10000000000E+02 0. -1.
</event>
<event>
 5    1  0.1640179E-008  0.3829294E+03  0.7957747E-01  0.3438502E+00
         13   -1    0    0    0    0  0.00000000000E+00  0.00000000000E+00  0.14999999963E+04  0.15000000000E+04  0.10566000000E+00 0.  1.
        994   -1    0    0    0    0 -0.00000000000E+00 -0.00000000000E+00  0.11368683772E-12  0.17120000000E+03  0.17120000000E+03 0.  0.
         13    1    1    2    0    0 -0.72248188320E+01 -0.27016484424E+02  0.16290158168E+03  0.16528467840E+03  0.10566000000E+00 0.  1.
        994    1    1    2    0    0 -0.14219780974E+01  0.39986988461E+01  0.27212957888E+01  0.17127421600E+03  0.17120000000E+03 0.  0.
        998    1    1    2    0    0  0.86467969293E+01  0.23017785578E+02  0.13343771188E+04  0.13346411056E+04  0.10000000000E+02 0.  1.
</event>
<event>
 5    1  0.1640179E-008  0.3791374E+03  0.7957747E-01  0.3454923E+00
         13   -1    0    0    0    0  0.00000000000E+00  0.00000000000E+00  0.14999999963E+04  0.15000000000E+04  0.10566000000E+00 0. -1.
        994   -1    0    0    0    0 -0.00000000000E+00 -0.00000000000E+00  0.11368683772E-12  0.17120000000E+03  0.17120000000E+03 0.  0.
         13    1    1    2    0    0  0.19215428516E+02  0.48228200105E+02  0.72882931991E+02  0.89482539738E+02  0.10566000000E+00 0. -1.
        994    1    1    2    0    0 -0.94888882728E+02 -0.28773946211E+02  0.52289300735E+02  0.20463492130E+03  0.17120000000E+03 0.  0.
        998    1    1    2    0    0  0.75673454212E+02 -0.19454253894E+02  0.13748277636E+04  0.13770825390E+04  0.10000000000E+02 0. -1.
</event>
<event>
 5    1  0.1640179E-008  0.3845083E+03  0.7957747E-01  0.3431760E+00
         13   -1    0    0    0    0  0.00000000000E+00  0.00000000000E+00  0.14999999963E+04  0.15000000000E+04  0.10566000000E+00 0.  1.
        994   -1    0    0    0    0 -0.00000000000E+00 -0.00000000000E+00  0.11368683772E-12  0.17120000000E+03  0.17120000000E+03 0.  0.
         13    1    1    2    0    0 -0.17968172900E+02 -0.14031674638E+02  0.12944667552E+03  0.13143894437E+03  0.10566000000E+00 0.  1.
        994    1    1    2    0    0  0.17643972357E+02  0.13296498097E+02  0.34838873044E+01  0.17265481196E+03  0.17120000000E+03 0.  0.
        998    1    1    2    0    0  0.32420054323E+00  0.73517654123E+00  0.13670694335E+04  0.13671062437E+04  0.10000000000E+02 0.  0.
</event>
<event>
 5    1  0.1640179E-008  0.3786778E+03  0.7957747E-01  0.3456936E+00
         13   -1    0    0    0    0  0.00000000000E+00  0.00000000000E+00  0.14999999963E+04  0.15000000000E+04  0.10566000000E+00 0.  1.
        994   -1    0    0    0    0 -0.00000000000E+00 -0.00000000000E+00  0.11368683772E-12  0.17120000000E+03  0.17120000000E+03 0.  0.
         13    1    1    2    0    0 -0.18808391079E+02 -0.31752693775E+02  0.17383860351E+03  0.17771285933E+03  0.10566000000E+00 0.  1.
        994    1    1    2    0    0  0.74784415802E+01 -0.16719192088E+02  0.59291935924E+01  0.17227899991E+03  0.17120000000E+03 0.  0.
        998    1    1    2    0    0  0.11329949499E+02  0.48471885863E+02  0.13202321992E+04  0.13212081408E+04  0.10000000000E+02 0.  1.
</event>
<event>
 5    1  0.1640179E-008  0.3919817E+03  0.7957747E-01  0.3400591E+00
         13   -1    0    0    0    0  0.00000000000E+00  0.00000000000E+00  0.14999999963E+04  0.15000000000E+04  0.10566000000E+00 0. -1.
        994   -1    0    0    0    0 -0.00000000000E+00 -0.00000000000E+00  0.11368683772E-12  0.17120000000E+03  0.17120000000E+03 0.  0.
         13    1    1    2    0    0  0.31393932607E+01  0.60833252813E+02  0.82237980786E+02  0.10234078896E+03  0.10566000000E+00 0. -1.
        994    1    1    2    0    0 -0.24488805322E+02  0.29151755338E+01  0.25380015025E+02  0.17481929241E+03  0.17120000000E+03 0.  0.
        998    1    1    2    0    0  0.21349412061E+02 -0.63748428346E+02  0.13923820005E+04  0.13940399186E+04  0.10000000000E+02 0. -1.
</event>
<event>
 5    1  0.1640179E-008  0.3764812E+03  0.7957747E-01  0.3466625E+00
         13   -1    0    0    0    0  0.00000000000E+00  0.00000000000E+00  0.14999999963E+04  0.15000000000E+04  0.10566000000E+00 0.  1.
        994   -1    0    0    0    0 -0.00000000000E+00 -0.00000000000E+00  0.11368683772E-12  0.17120000000E+03  0.17120000000E+03 0.  0.
         13    1    1    2    0    0  0.44429445127E+02 -0.26542322642E+01  0.17879048477E+03  0.18424730433E+03  0.10566000000E+00 0.  1.
        994    1    1    2    0    0 -0.13506692030E+02 -0.85768632737E+01  0.67863901399E+01  0.17207988960E+03  0.17120000000E+03 0.  0.
        998    1    1    2    0    0 -0.30922753097E+02  0.11231095538E+02  0.13144231214E+04  0.13148728061E+04  0.10000000000E+02 0.  1.
</event>
<event>
 5    1  0.1640179E-008  0.4404834E+03  0.7957747E-01  0.3223807E+00
         13   -1    0    0    0    0  0.00000000000E+00  0.00000000000E+00  0.14999999963E+04  0.15000000000E+04  0.10566000000E+00 0. -1.
        994   -1    0    0    0    0 -0.00000000000E+00 -0.00000000000E+00  0.11368683772E-12  0.17120000000E+03  0.17120000000E+03 0.  0.
         13    1    1    2    0    0 -0.65562964801E+02 -0.44313689520E+02  0.38541598136E+02  0.88020857661E+02  0.10566000000E+00 0. -1.
        994    1    1    2    0    0  0.83729554409E+02  0.20726322027E+02  0.90725898531E+02  0.21208688637E+03  0.17120000000E+03 0.  0.
        998    1    1    2    0    0 -0.18166589608E+02  0.23587367494E+02  0.13707324996E+04  0.13710922560E+04  0.10000000000E+02 0. -1.
</event>
<event>
 5    1  0.1640179E-008  0.3714532E+03  0.7957747E-01  0.3489239E+00
         13   -1    0    0    0    0  0.00000000000E+00  0.00000000000E+00  0.14999999963E+04  0.15000000000E+04  0.10566000000E+00 0.  1.
        994   -1    0    0    0    0 -0.00000000000E+00 -0.00000000000E+00  0.11368683772E-12  0.17120000000E+03  0.17120000000E+03 0.  0.
         13    1    1    2    0    0  0.18196589430E+02  0.54446975133E+02  0.15359618744E+03  0.16397374463E+03  0.10566000000E+00 0.  1.
        994    1    1    2    0    0 -0.11251700757E+02 -0.46328118612E+01  0.12229751688E+02  0.17206705246E+03  0.17120000000E+03 0.  0.
        998    1    1    2    0    0 -0.69448886728E+01 -0.49814163272E+02  0.13341740572E+04  0.13351592029E+04  0.10000000000E+02 0.  1.
</event>
<event>
 5    1  0.1640179E-008  0.3842196E+03  0.7957747E-01  0.3432989E+00
         13   -1    0    0    0    0  0.00000000000E+00  0.00000000000E+00  0.14999999963E+04  0.15000000000E+04  0.10566000000E+00 0.  1.
        994   -1    0    0    0    0 -0.00000000000E+00 -0.00000000000E+00  0.11368683772E-12  0.17120000000E+03  0.17120000000E+03 0.  0.
         13    1    1    2    0    0  0.62305393752E+01  0.17787248600E+02  0.93373541529E+02  0.95256680897E+02  0.10566000000E+00 0.  1.
        994    1    1    2    0    0 -0.19041332933E+02  0.30473791454E+01  0.32450410510E+01  0.17231317179E+03  0.17120000000E+03 0.  0.
        998    1    1    2    0    0  0.12810793558E+02 -0.20834627745E+02  0.14033814137E+04  0.14036301473E+04  0.10000000000E+02 0.  1.
</event>
<event>
 5    1  0.1640179E-008  0.3885430E+03  0.7957747E-01  0.3414784E+00
         13   -1    0    0    0    0  0.00000000000E+00  0.00000000000E+00  0.14999999963E+04  0.15000000000E+04  0.10566000000E+00 0.  1.
        994   -1    0    0    0    0 -0.00000000000E+00 -0.00000000000E+00  0.11368683772E-12  0.17120000000E+03  0.17120000000E+03 0.  0.
         13    1    1    2    0    0  0.78306289875E+02  0.14001359165E+02  0.13252542233E+03  0.15456685227E+03  0.10566000000E+00 0.  1.
        994    1    1    2    0    0 -0.76366029857E+02 -0.72790063293E+01  0.43469113317E+02  0.19257143678E+03  0.17120000000E+03 0.  0.
        998    1    1    2    0    0 -0.19402600178E+01 -0.67223528353E+01  0.13240054606E+04  0.13240617110E+04  0.10000000000E+02 0.  1.
</event>
<event>
 5    1  0.1640179E-008  0.3757770E+03  0.7957747E-01  0.3469755E+00
         13   -1    0    0    0    0  0.00000000000E+00  0.00000000000E+00  0.14999999963E+04  0.15000000000E+04  0.10566000000E+00 0. -1.
        994   -1    0    0    0    0 -0.00000000000E+00 -0.00000000000E+00  0.11368683772E-12  0.17120000000E+03  0.17120000000E+03 0.  0.
         13    1    1    2    0    0  0.11100354159E+02  0.58281398352E+01  0.96456683188E+01  0.15818822894E+02  0.10566000000E+00 0. -1.
        994    1    1    2    0    0 -0.97171413261E+01 -0.52774985494E+01  0.66949206123E+01  0.17168732274E+03  0.17120000000E+03 0.  0.
        998    1    1    2    0    0 -0.13832128325E+01 -0.55064128579E+00  0.14836594073E+04  0.14836938544E+04  0.10000000000E+02 0. -1.
</event>
<event>
 5    1  0.1640179E-008  0.3826630E+03  0.7957747E-01  0.3439645E+00
         13   -1    0    0    0    0  0.00000000000E+00  0.00000000000E+00  0.14999999963E+04  0.15000000000E+04  0.10566000000E+00 0.  1.
        994   -1    0    0    0    0 -0.00000000000E+00 -0.00000000000E+00  0.11368683772E-12  0.17120000000E+03  0.17120000000E+03 0.  0.
         13    1    1    2    0    0 -0.14078786182E+02  0.20155126501E+02  0.11737844508E+03  0.11992560976E+03  0.10566000000E+00 0.  1.
        994    1    1    2    0    0 -0.11976379796E+02 -0.10860377601E+02  0.36615267020E+01  0.17200066352E+03  0.17120000000E+03 0.  0.
        998    1    1    2    0    0  0.26055165978E+02 -0.92947488997E+01  0.13789600245E+04  0.13792737267E+04  0.10000000000E+02 0.  1.
</event>
<event>
 5    1  0.1640179E-008  0.3825133E+03  0.7957747E-01  0.3440287E+00
         13   -1    0    0    0    0  0.00000000000E+00  0.00000000000E+00  0.14999999963E+04  0.15000000000E+04  0.10566000000E+00 0. -1.
        994   -1    0    0    0    0 -0.00000000000E+00 -0.00000000000E+00  0.11368683772E-12  0.17120000000E+03  0.17120000000E+03 0.  0.
         13    1    1    2    0    0  0.14729044249E+02  0.37817959163E+01  0.40826679937E+02  0.43566910420E+02  0.10566000000E+00 0. -1.
        994    1    1    2    0    0  0.17328927341E+00 -0.38657961847E+01  0.29194218741E+01  0.17126861193E+03  0.17120000000E+03 0.  0.
        998    1    1    2    0    0 -0.14902333522E+02  0.84000268429E-01  0.14562538945E+04  0.14563644776E+04  0.10000000000E+02 0. -1.
</event>
<event>
 5    1  0.1640179E-008  0.3854534E+03  0.7957747E-01  0.3427752E+00
         13   -1    0    0    0    0  0.00000000000E+00  0.00000000000E+00  0.14999999963E+04  0.15000000000E+04  0.10566000000E+00 0. -1.
        994   -1    0    0    0    0 -0.00000000000E+00 -0.00000000000E+00  0.11368683772E-12  0.17120000000E+03  0.17120000000E+03 0.  0.
         13    1    1    2    0    0  0.87022924811E+01  0.81984582916E+01  0.53526435151E+02  0.54845556217E+02  0.10566000000E+00 0. -1.
        994    1    1    2    0    0  0.14697428764E+01 -0.22287113951E+01  0.14286231735E+01  0.17122677437E+03  0.17120000000E+03 0.  0.
        998    1    1    2    0    0 -0.10172035357E+02 -0.59697468965E+01  0.14450449380E+04  0.14451276694E+04  0.10000000000E+02 0. -1.
</event>
<event>
 5    1  0.1640179E-008  0.3791378E+03  0.7957747E-01  0.3454921E+00
         13   -1    0    0    0    0  0.00000000000E+00  0.00000000000E+00  0.14999999963E+04  0.15000000000E+04  0.10566000000E+00 0. -1.
        994   -1    0    0    0    0 -0.00000000000E+00 -0.00000000000E+00  0.11368683772E-12  0.17120000000E+03  0.17120000000E+03 0.  0.
         13    1    1    2    0    0 -0.18507063447E+01  0.18558902737E+02  0.38530378837E+02  0.42807233526E+02  0.10566000000E+00 0. -1.
        994    1    1    2    0    0  0.20221397264E+02  0.80908942219E+01  0.61609022539E+01  0.17268979180E+03  0.17120000000E+03 0.  0.
        998    1    1    2    0    0 -0.18370690920E+02 -0.26649796959E+02  0.14553087152E+04  0.14557029747E+04  0.10000000000E+02 0. -1.
</event>
<event>
 5    1  0.1640179E-008  0.2826204E+03  0.7957747E-01  0.4028478E+00
         13   -1    0    0    0    0  0.00000000000E+00  0.00000000000E+00  0.14999999963E+04  0.15000000000E+04  0.10566000000E+00 0. -1.
        994   -1    0    0    0    0 -0.00000000000E+00 -0.00000000000E+00  0.11368683772E-12  0.17120000000E+03  0.17120000000E+03 0.  0.
         13    1    1    2    0    0  0.10704441698E+03 -0.10888361691E+03  0.59958839625E+03  0.61872482196E+03  0.10566000000E+00 0. -1.
        994    1    1    2    0    0 -0.60441957220E+02  0.11854515846E+03  0.80760454984E+02  0.23138253149E+03  0.17120000000E+03 0.  0.
        998    1    1    2    0    0 -0.46602459756E+02 -0.96615415572E+01  0.81965114505E+03  0.82109264655E+03  0.10000000000E+02 0. -1.
</event>
<event>
 5    1  0.1949446E-008  0.3861872E+03  0.7957747E-01  0.3424653E+00
         13   -1    0    0    0    0  0.00000000000E+00  0.00000000000E+00  0.14999999963E+04  0.15000000000E+04  0.10566000000E+00 0.  1.
        994   -1    0    0    0    0 -0.00000000000E+00 -0.00000000000E+00  0.11368683772E-12  0.17120000000E+03  0.17120000000E+03 0.  0.
         13    1    1    2    0    0 -0.91425994455E+01  0.72486004455E+01  0.64879227692E+02  0.65920062826E+02  0.10566000000E+00 0.  1.
        994    1    1    2    0    0  0.94471105942E+01 -0.50976152114E+01  0.14194408891E+01  0.17154208927E+03  0.17120000000E+03 0.  0.
        998    1    1    2    0    0 -0.30451114874E+00 -0.21509852341E+01  0.14337013277E+04  0.14337378479E+04  0.10000000000E+02 0.  1.
</event>
<event>
 5    1  0.1640179E-008  0.3825554E+03  0.7957747E-01  0.3440106E+00
         13   -1    0    0    0    0  0.00000000000E+00  0.00000000000E+00  0.14999999963E+04  0.15000000000E+04  0.10566000000E+00 0.  1.
        994   -1    0    0    0    0 -0.00000000000E+00 -0.00000000000E+00  0.11368683772E-12  0.17120000000E+03  0.17120000000E+03 0.  0.
         13    1    1    2    0    0  0.89087642103E+01 -0.11434043672E+02  0.35427391481E+02  0.38278122545E+02  0.10566000000E+00 0.  1.
        994    1    1    2    0    0 -0.41774623416E+01  0.13657376144E+02  0.35251534127E+01  0.17183085236E+03  0.17120000000E+03 0.  0.
        998    1    1    2    0    0 -0.47313018687E+01 -0.22233324728E+01  0.14610474514E+04  0.14610910251E+04  0.10000000000E+02 0.  1.
</event>
<event>
 5    1  0.1640179E-008  0.3827728E+03  0.7957747E-01  0.3439173E+00
         13   -1    0    0    0    0  0.00000000000E+00  0.00000000000E+00  0.14999999963E+04  0.15000000000E+04  0.10566000000E+00 0.  1.
        994   -1    0    0    0    0 -0.00000000000E+00 -0.00000000000E+00  0.11368683772E-12  0.17120000000E+03  0.17120000000E+03 0.  0.
         13    1    1    2    0    0  0.13577820603E+02  0.13046571049E+01  0.33477910637E+02  0.36150255976E+02  0.10566000000E+00 0.  1.
        994    1    1    2    0    0 -0.54482651677E+01 -0.17546840594E+01  0.28484873476E+01  0.17131934038E+03  0.17120000000E+03 0.  0.
        998    1    1    2    0    0 -0.81295554353E+01  0.45002695451E+00  0.14636735983E+04  0.14637304036E+04  0.10000000000E+02 0.  1.
</event>
<event>
 5    1  0.1640179E-008  0.3852975E+03  0.7957747E-01  0.3428412E+00
         13   -1    0    0    0    0  0.00000000000E+00  0.00000000000E+00  0.14999999963E+04  0.15000000000E+04  0.10566000000E+00 0. -1.
        994   -1    0    0    0    0 -0.00000000000E+00 -0.00000000000E+00  0.11368683772E-12  0.17120000000E+03  0.17120000000E+03 0.  0.
         13    1    1    2    0    0  0.38155584643E+01 -0.10384173174E+02  0.41662539769E+02  0.43106471938E+02  0.10566000000E+00 0. -1.
        994    1    1    2    0    0  0.23540119066E+01  0.71124520757E+01  0.16669471540E+01  0.17137195529E+03  0.17120000000E+03 0.  0.
        998    1    1    2    0    0 -0.61695703708E+01  0.32717210982E+01  0.14566705094E+04  0.14567215728E+04  0.10000000000E+02 0. -1.
</event>
<event>
 5    1  0.1640179E-008  0.3856439E+03  0.7957747E-01  0.3426946E+00
         13   -1    0    0    0    0  0.00000000000E+00  0.00000000000E+00  0.14999999963E+04  0.15000000000E+04  0.10566000000E+00 0.  1.
        994   -1    0    0    0    0 -0.00000000000E+00 -0.00000000000E+00  0.11368683772E-12  0.17120000000E+03  0.17120000000E+03 0.  0.
         13    1    1    2    0    0 -0.14086025696E+02 -0.43297310942E+01  0.87454093267E+02  0.88687046881E+02  0.10566000000E+00 0.  1.
        994    1    1    2    0    0  0.42818887568E+01 -0.93330510352E+00  0.13738432968E+01  0.17126159253E+03  0.17120000000E+03 0.  0.
        998    1    1    2    0    0  0.98041369394E+01  0.52630361977E+01  0.14111720597E+04  0.14112513606E+04  0.10000000000E+02 0.  1.
</event>
<event>
 5    1  0.1640179E-008  0.3805298E+03  0.7957747E-01  0.3448855E+00
         13   -1    0    0    0    0  0.00000000000E+00  0.00000000000E+00  0.14999999963E+04  0.15000000000E+04  0.10566000000E+00 0.  1.
        994   -1    0    0    0    0 -0.00000000000E+00 -0.00000000000E+00  0.11368683772E-12  0.17120000000E+03  0.17120000000E+03 0.  0.
         13    1    1    2    0    0 -0.14200894233E+01  0.11284760128E+02  0.15369864011E+02  0.19120835465E+02  0.10566000000E+00 0.  1.
        994    1    1    2    0    0 -0.59628279564E+01 -0.15333980735E+01  0.39924411433E+01  0.17135718897E+03  0.17120000000E+03 0.  0.
        998    1    1    2    0    0  0.73829173797E+01 -0.97513620546E+01  0.14806376911E+04  0.14807219756E+04  0.10000000000E+02 0.  1.
</event>
<event>
 5    1  0.1640179E-008  0.3802734E+03  0.7957747E-01  0.3449969E+00
         13   -1    0    0    0    0  0.00000000000E+00  0.00000000000E+00  0.14999999963E+04  0.15000000000E+04  0.10566000000E+00 0. -1.
        994   -1    0    0    0    0 -0.00000000000E+00 -0.00000000000E+00  0.11368683772E-12  0.17120000000E+03  0.17120000000E+03 0.  0.
         13    1    1    2    0    0  0.12178926373E+02 -0.34892209895E+02  0.18864308730E+03  0.19222907717E+03  0.10566000000E+00 0. -1.
        994    1    1    2    0    0 -0.35262867592E+01  0.62645877042E+01  0.41678403588E+01  0.17140154798E+03  0.17120000000E+03 0.  0.
        998    1    1    2    0    0 -0.86526396138E+01  0.28627622191E+02  0.13071890686E+04  0.13075693748E+04  0.10000000000E+02 0. -1.
</event>
<event>
 5    1  0.1640179E-008  0.3835643E+03  0.7957747E-01  0.3435784E+00
         13   -1    0    0    0    0  0.00000000000E+00  0.00000000000E+00  0.14999999963E+04  0.15000000000E+04  0.10566000000E+00 0.  1.
        994   -1    0    0    0    0 -0.00000000000E+00 -0.00000000000E+00  0.11368683772E-12  0.17120000000E+03  0.17120000000E+03 0.  0.
         13    1    1    2    0    0 -0.84027195092E+01  0.20337259791E+02  0.10053622715E+03  0.10291624733E+03  0.10566000000E+00 0.  1.
        994    1    1    2    0    0  0.12076624305E+02 -0.13337196050E+02  0.34149480651E+01  0.17217673340E+03  0.17120000000E+03 0.  0.
        998    1    1    2    0    0 -0.36739047955E+01 -0.70000637417E+01  0.13960488211E+04  0.13961070193E+04  0.10000000000E+02 0.  1.
</event>
<event>
 5    1  0.1640179E-008  0.3829252E+03  0.7957747E-01  0.3438519E+00
         13   -1    0    0    0    0  0.00000000000E+00  0.00000000000E+00  0.14999999963E+04  0.15000000000E+04  0.10566000000E+00 0. -1.
        994   -1    0    0    0    0 -0.00000000000E+00 -0.00000000000E+00  0.11368683772E-12  0.17120000000E+03  0.17120000000E+03 0.  0.
         13    1    1    2    0    0  0.99542859226E+01  0.72652583881E+01  0.28104887940E+02  0.30688233540E+02  0.10566000000E+00 0. -1.
        994    1    1    2    0    0  0.15528379250E+01 -0.74094599692E+01  0.28535062323E+01  0.17139105549E+03  0.17120000000E+03 0.  0.
        998    1    1    2    0    0 -0.11507123848E+02  0.14420158109E+00  0.14690416021E+04  0.14691207110E+04  0.10000000000E+02 0. -1.
</event>
<event>
 5    1  0.1640179E-008  0.3730988E+03  0.7957747E-01  0.3481770E+00
         13   -1    0    0    0    0  0.00000000000E+00  0.00000000000E+00  0.14999999963E+04  0.15000000000E+04  0.10566000000E+00 0. -1.
        994   -1    0    0    0    0 -0.00000000000E+00 -0.00000000000E+00  0.11368683772E-12  0.17120000000E+03  0.17120000000E+03 0.  0.
         13    1    1    2    0    0  0.39099399583E+02  0.68128144460E+02  0.22912416833E+03  0.24221499291E+03  0.10566000000E+00 0. -1.
        994    1    1    2    0    0 -0.15358051023E+02 -0.57189133854E+02  0.25085412169E+02  0.18288024679E+03  0.17120000000E+03 0.  0.
        998    1    1    2    0    0 -0.23741348560E+02 -0.10939010606E+02  0.12457904158E+04  0.12461047603E+04  0.10000000000E+02 0. -1.
</event>
<event>
 5    1  0.1640179E-008  0.3856666E+03  0.7957747E-01  0.3426850E+00
         13   -1    0    0    0    0  0.00000000000E+00  0.00000000000E+00  0.14999999963E+04  0.15000000000E+04  0.10566000000E+00 0.  1.
        994   -1    0    0    0    0 -0.00000000000E+00 -0.00000000000E+00  0.11368683772E-12  0.17120000000E+03  0.17120000000E+03 0.  0.
         13    1    1    2    0    0 -0.92602293293E+01 -0.11143832991E+02  0.85789539287E+02  0.87004557789E+02  0.10566000000E+00 0.  1.
        994    1    1    2    0    0  0.23525767012E+01  0.18766727611E+01  0.13292867097E+01  0.17123160783E+03  0.17120000000E+03 0.  0.
        998    1    1    2    0    0  0.69076526281E+01  0.92671602301E+01  0.14128811703E+04  0.14129638344E+04  0.10000000000E+02 0.  1.
</event>
<event>
 5    1  0.1640179E-008  0.3843469E+03  0.7957747E-01  0.3432447E+00
         13   -1    0    0    0    0  0.00000000000E+00  0.00000000000E+00  0.14999999963E+04  0.15000000000E+04  0.10566000000E+00 0. -1.
        994   -1    0    0    0    0 -0.00000000000E+00 -0.00000000000E+00  0.11368683772E-12  0.17120000000E+03  0.17120000000E+03 0.  0.
         13    1    1    2    0    0  0.17160674180E+02 -0.52149897831E+01  0.78298835648E+02  0.80326855314E+02  0.10566000000E+00 0. -1.
        994    1    1    2    0    0 -0.18609505463E+02  0.35821010291E+01  0.31392584828E+01  0.17227431638E+03  0.17120000000E+03 0.  0.
        998    1    1    2    0    0  0.14488312823E+01  0.16328887540E+01  0.14185619021E+04  0.14185988283E+04  0.10000000000E+02 0.  0.
</event>
<event>
 5    1  0.1640179E-008  0.3735727E+03  0.7957747E-01  0.3479631E+00
         13   -1    0    0    0    0  0.00000000000E+00  0.00000000000E+00  0.14999999963E+04  0.15000000000E+04  0.10566000000E+00 0.  1.
        994   -1    0    0    0    0 -0.00000000000E+00 -0.00000000000E+00  0.11368683772E-12  0.17120000000E+03  0.17120000000E+03 0.  0.
         13    1    1    2    0    0  0.13032521573E+02  0.18655888269E+02  0.31950790992E+02  0.39226942204E+02  0.10566000000E+00 0.  1.
        994    1    1    2    0    0 -0.36442349560E+01 -0.15667118238E+02  0.82977404899E+01  0.17215409243E+03  0.17120000000E+03 0.  0.
        998    1    1    2    0    0 -0.93882866168E+01 -0.29887700313E+01  0.14597514648E+04  0.14598189654E+04  0.10000000000E+02 0.  1.
</event>
<event>
 5    1  0.1640179E-008  0.3760548E+03  0.7957747E-01  0.3468519E+00
         13   -1    0    0    0    0  0.00000000000E+00  0.00000000000E+00  0.14999999963E+04  0.15000000000E+04  0.10566000000E+00 0. -1.
        994   -1    0    0    0    0 -0.00000000000E+00 -0.00000000000E+00  0.11368683772E-12  0.17120000000E+03  0.17120000000E+03 0.  0.
         13    1    1    2    0    0  0.18770193492E+02 -0.32428176134E+02  0.10627159884E+03  0.11268349771E+03  0.10566000000E+00 0. -1.
        994    1    1    2    0    0 -0.24481516891E+02  0.26128956951E+02  0.10492919521E+02  0.17521874449E+03  0.17120000000E+03 0.  0.
        998    1    1    2    0    0  0.57113233989E+01  0.62992191831E+01  0.13832354779E+04  0.13832977578E+04  0.10000000000E+02 0. -1.
</event>
<event>
 5    1  0.1640179E-008  0.3820177E+03  0.7957747E-01  0.3442420E+00
         13   -1    0    0    0    0  0.00000000000E+00  0.00000000000E+00  0.14999999963E+04  0.15000000000E+04  0.10566000000E+00 0. -1.
        994   -1    0    0    0    0 -0.00000000000E+00 -0.00000000000E+00  0.11368683772E-12  0.17120000000E+03  0.17120000000E+03 0.  0.
         13    1    1    2    0    0 -0.26654782588E+01 -0.20436659673E+02  0.67410720406E+02  0.70490979725E+02  0.10566000000E+00 0. -1.
        994    1    1    2    0    0  0.86342656298E+01  0.11188191647E+02  0.37815875546E+01  0.17182394065E+03  0.17120000000E+03 0.  0.
        998    1    1    2    0    0 -0.59687873711E+01  0.92484680266E+01  0.14288076883E+04  0.14288850796E+04  0.10000000000E+02 0. -1.
</event>
<event>
 5    1  0.1640179E-008  0.3817043E+03  0.7957747E-01  0.3443771E+00
         13   -1    0    0    0    0  0.00000000000E+00  0.00000000000E+00  0.14999999963E+04  0.15000000000E+04  0.10566000000E+00 0.  1.
        994   -1    0    0    0    0 -0.00000000000E+00 -0.00000000000E+00  0.11368683772E-12  0.17120000000E+03  0.17120000000E+03 0.  0.
         13    1    1    2    0    0  0.12426518241E+02 -0.61899742537E+01  0.27914141498E+02  0.31176025989E+02  0.10566000000E+00 0.  1.
        994    1    1    2    0    0 -0.13887862612E+02  0.42727119930E-02  0.39167179064E+01  0.17180702380E+03  0.17120000000E+03 0.  0.
        998    1    1    2    0    0  0.14613443701E+01  0.61857015417E+01  0.14681691369E+04  0.14682169502E+04  0.10000000000E+02 0.  1.
</event>
<event>
 5    1  0.1640179E-008  0.3848492E+03  0.7957747E-01  0.3430312E+00
         13   -1    0    0    0    0  0.00000000000E+00  0.00000000000E+00  0.14999999963E+04  0.15000000000E+04  0.10566000000E+00 0.  1.
        994   -1    0    0    0    0 -0.00000000000E+00 -0.00000000000E+00  0.11368683772E-12  0.17120000000E+03  0.17120000000E+03 0.  0.
         13    1    1    2    0    0 -0.14562792835E+02 -0.12062374742E+02  0.98229675467E+02  0.10003327509E+03  0.10566000000E+00 0.  1.
        994    1    1    2    0    0  0.19911222289E+02  0.84321494655E+01  0.32449210110E+01  0.17259063541E+03  0.17120000000E+03 0.  0.
        998    1    1    2    0    0 -0.53484294536E+01  0.36302252766E+01  0.13985253998E+04  0.13985760895E+04  0.10000000000E+02 0.  1.
</event>
<event>
 5    1  0.1640179E-008  0.3782339E+03  0.7957747E-01  0.3458885E+00
         13   -1    0    0    0    0  0.00000000000E+00  0.00000000000E+00  0.14999999963E+04  0.15000000000E+04  0.10566000000E+00 0. -1.
        994   -1    0    0    0    0 -0.00000000000E+00 -0.00000000000E+00  0.11368683772E-12  0.17120000000E+03  0.17120000000E+03 0.  0.
         13    1    1    2    0    0 -0.52740189068E+02  0.11680917753E+02  0.19553438378E+03  0.20285876315E+03  0.10566000000E+00 0. -1.
        994    1    1    2    0    0  0.86990991688E+02 -0.34525523565E+02  0.35070520487E+02  0.19823931452E+03  0.17120000000E+03 0.  0.
        998    1    1    2    0    0 -0.34250802621E+02  0.22844605812E+02  0.12693950920E+04  0.12701019223E+04  0.10000000000E+02 0. -1.
</event>
<event>
 5    1  0.1640179E-008  0.3822721E+03  0.7957747E-01  0.3441325E+00
         13   -1    0    0    0    0  0.00000000000E+00  0.00000000000E+00  0.14999999963E+04  0.15000000000E+04  0.10566000000E+00 0. -1.
        994   -1    0    0    0    0 -0.00000000000E+00 -0.00000000000E+00  0.11368683772E-12  0.17120000000E+03  0.17120000000E+03 0.  0.
         13    1    1    2    0    0  0.26948852491E+02  0.23391210969E+01  0.13738722512E+03  0.14002490110E+03  0.10566000000E+00 0. -1.
        994    1    1    2    0    0  0.10736864173E+01 -0.19059190582E+00  0.29945460096E+01  0.17122965991E+03  0.17120000000E+03 0.  0.
        998    1    1    2    0    0 -0.28022538908E+02 -0.21485291911E+01  0.13596182252E+04  0.13599454390E+04  0.10000000000E+02 0. -1.
</event>
<event>
 5    1  0.1640179E-008  0.3733185E+03  0.7957747E-01  0.3480777E+00
         13   -1    0    0    0    0  0.00000000000E+00  0.00000000000E+00  0.14999999963E+04  0.15000000000E+04  0.10566000000E+00 0.  1.
        994   -1    0    0    0    0 -0.00000000000E+00 -0.00000000000E+00  0.11368683772E-12  0.17120000000E+03  0.17120000000E+03 0.  0.
         13    1    1    2    0    0  0.13018066946E+02 -0.32675406106E+02  0.72998749901E+02  0.81030740354E+02  0.10566000000E+00 0.  1.
        994    1    1    2    0    0 -0.81871257699E+01  0.45638403751E+02  0.14930225632E+02  0.17799506893E+03  0.17120000000E+03 0.  0.
        998    1    1    2    0    0 -0.48309411764E+01 -0.12962997645E+02  0.14120710207E+04  0.14121741907E+04  0.10000000000E+02 0.  1.
</event>
<event>
 5    1  0.1640179E-008  0.2909094E+03  0.7957747E-01  0.3963134E+00
         13   -1    0    0    0    0  0.00000000000E+00  0.00000000000E+00  0.14999999963E+04  0.15000000000E+04  0.10566000000E+00 0. -1.
        994   -1    0    0    0    0 -0.00000000000E+00 -0.00000000000E+00  0.11368683772E-12  0.17120000000E+03  0.17120000000E+03 0.  0.
         13    1    1    2    0    0  0.12702360683E+03 -0.71365014304E+01  0.76847817159E+03  0.77893814756E+03  0.10566000000E+00 0. -1.
        994    1    1    2    0    0 -0.30396082462E+02  0.43710134591E+02  0.28403965412E+02  0.18152333995E+03  0.17120000000E+03 0.  0.
        998    1    1    2    0    0 -0.96627524370E+02 -0.36573633161E+02  0.70311785928E+03  0.71073851249E+03  0.10000000000E+02 0. -1.
</event>
<event>
 5    1  0.1640179E-008  0.3725633E+03  0.7957747E-01  0.3484193E+00
         13   -1    0    0    0    0  0.00000000000E+00  0.00000000000E+00  0.14999999963E+04  0.15000000000E+04  0.10566000000E+00 0.  1.
        994   -1    0    0    0    0 -0.00000000000E+00 -0.00000000000E+00  0.11368683772E-12  0.17120000000E+03  0.17120000000E+03 0.  0.
         13    1    1    2    0    0  0.10870932316E+02 -0.24831838485E+02  0.23801289795E+02  0.36073673668E+02  0.10566000000E+00 0.  1.
        994    1    1    2    0    0 -0.18326567873E+02  0.31505070934E+02  0.17001470213E+02  0.17586052023E+03  0.17120000000E+03 0.  0.
        998    1    1    2    0    0  0.74556355564E+01 -0.66732324496E+01  0.14591972363E+04  0.14592658061E+04  0.10000000000E+02 0.  1.
</event>
<event>
 5    1  0.1640179E-008  0.3807821E+03  0.7957747E-01  0.3447760E+00
         13   -1    0    0    0    0  0.00000000000E+00  0.00000000000E+00  0.14999999963E+04  0.15000000000E+04  0.10566000000E+00 0.  1.
        994   -1    0    0    0    0 -0.00000000000E+00 -0.00000000000E+00  0.11368683772E-12  0.17120000000E+03  0.17120000000E+03 0.  0.
         13    1    1    2    0    0  0.27770603242E+02 -0.23507621062E+02  0.32000104711E+02  0.48454437547E+02  0.10566000000E+00 0.  1.
        994    1    1    2    0    0 -0.25300655950E+02  0.29475635536E+02  0.22260725774E+02  0.17695738525E+03  0.17120000000E+03 0.  0.
        998    1    1    2    0    0 -0.24699472920E+01 -0.59680144738E+01  0.14457391658E+04  0.14457881772E+04  0.10000000000E+02 0.  1.
</event>
<event>
 5    1  0.1640179E-008  0.3703081E+03  0.7957747E-01  0.3494476E+00
         13   -1    0    0    0    0  0.00000000000E+00  0.00000000000E+00  0.14999999963E+04  0.15000000000E+04  0.10566000000E+00 0.  1.
        994   -1    0    0    0    0 -0.00000000000E+00 -0.00000000000E+00  0.11368683772E-12  0.17120000000E+03  0.17120000000E+03 0.  0.
         13    1    1    2    0    0  0.31765723226E+02 -0.71037089062E+02  0.36705681773E+03  0.37521466896E+03  0.10566000000E+00 0.  1.
        994    1    1    2    0    0  0.17367371092E+02  0.10856009124E+02  0.12571246033E+02  0.17287843920E+03  0.17120000000E+03 0.  0.
        998    1    1    2    0    0 -0.49133094318E+02  0.60181079939E+02  0.11203719325E+04  0.11231068918E+04  0.10000000000E+02 0.  1.
</event>
<event>
 5    1  0.1640179E-008  0.3716303E+03  0.7957747E-01  0.3488432E+00
         13   -1    0    0    0    0  0.00000000000E+00  0.00000000000E+00  0.14999999963E+04  0.15000000000E+04  0.10566000000E+00 0. -1.
        994   -1    0    0    0    0 -0.00000000000E+00 -0.00000000000E+00  0.11368683772E-12  0.17120000000E+03  0.17120000000E+03 0.  0.
         13    1    1    2    0    0 -0.10629439246E+02  0.15851794325E+02  0.10078416933E+02  0.21583558879E+02  0.10566000000E+00 0. -1.
        994    1    1    2    0    0  0.69616448490E+01 -0.19190222037E+02  0.13270034950E+02  0.17292270802E+03  0.17120000000E+03 0.  0.
        998    1    1    2    0    0  0.36677943967E+01  0.33384277119E+01  0.14766515444E+04  0.14766937331E+04  0.10000000000E+02 0. -1.
</event>
<event>
 5    1  0.1640179E-008  0.3745879E+03  0.7957747E-01  0.3475068E+00
         13   -1    0    0    0    0  0.00000000000E+00  0.00000000000E+00  0.14999999963E+04  0.15000000000E+04  0.10566000000E+00 0. -1.
        994   -1    0    0    0    0 -0.00000000000E+00 -0.00000000000E+00  0.11368683772E-12  0.17120000000E+03  0.17120000000E+03 0.  0.
         13    1    1    2    0    0  0.16646612850E+02 -0.44879926738E+02  0.19254297511E+03  0.19840394646E+03  0.10566000000E+00 0. -1.
        994    1    1    2    0    0  0.23127350561E+02  0.10091817662E+02  0.90608788882E+01  0.17328663726E+03  0.17120000000E+03 0.  0.
        998    1    1    2    0    0 -0.39773963412E+02  0.34788109076E+02  0.12983961423E+04  0.12995094163E+04  0.10000000000E+02 0. -1.
</event>
<event>
 5    1  0.1640179E-008  0.3696594E+03  0.7957747E-01  0.3497458E+00
         13   -1    0    0    0    0  0.00000000000E+00  0.00000000000E+00  0.14999999963E+04  0.15000000000E+04  0.10566000000E+00 0.  1.
        994   -1    0    0    0    0 -0.00000000000E+00 -0.00000000000E+00  0.11368683772E-12  0.17120000000E+03  0.17120000000E+03 0.  0.
         13    1    1    2    0    0 -0.85447319951E+02  0.48110699700E+01  0.27449938119E+03  0.28753141102E+03  0.10566000000E+00 0.  1.
        994    1    1    2    0    0  0.85358754844E+02 -0.25674571549E+01  0.36677003508E+02  0.19480079941E+03  0.17120000000E+03 0.  0.
        998    1    1    2    0    0  0.88565106454E-01 -0.22436128151E+01  0.11888236116E+04  0.11888677896E+04  0.10000000000E+02 0.  0.
</event>
<event>
 5    1  0.1640179E-008  0.3854224E+03  0.7957747E-01  0.3427883E+00
         13   -1    0    0    0    0  0.00000000000E+00  0.00000000000E+00  0.14999999963E+04  0.15000000000E+04  0.10566000000E+00 0.  1.
        994   -1    0    0    0    0 -0.00000000000E+00 -0.00000000000E+00  0.11368683772E-12  0.17120000000E+03  0.17120000000E+03 0.  0.
         13    1    1    2    0    0 -0.22521682420E+00  0.19610038767E+02  0.10384476608E+03  0.10568041895E+03  0.10566000000E+00 0.  1.
        994    1    1    2    0    0  0.18352032840E+02 -0.45758900129E+02  0.94443719328E+01  0.17840770783E+03  0.17120000000E+03 0.  0.
        998    1    1    2    0    0 -0.18126816016E+02  0.26148861362E+02  0.13867108583E+04  0.13871118732E+04  0.10000000000E+02 0.  1.
</event>
<event>
 5    1  0.1640179E-008  0.3855866E+03  0.7957747E-01  0.3427188E+00
         13   -1    0    0    0    0  0.00000000000E+00  0.00000000000E+00  0.14999999963E+04  0.15000000000E+04  0.10566000000E+00 0. -1.
        994   -1    0    0    0    0 -0.00000000000E+00 -0.00000000000E+00  0.11368683772E-12  0.17120000000E+03  0.17120000000E+03 0.  0.
         13    1    1    2    0    0 -0.13627459059E+02  0.14306939845E+01  0.77697411527E+02  0.78896472974E+02  0.10566000000E+00 0. -1.
        994    1    1    2    0    0 -0.43439388414E+01 -0.98000167486E+01  0.17164340250E+01  0.17154386109E+03  0.17120000000E+03 0.  0.
        998    1    1    2    0    0  0.17971397901E+02  0.83693227641E+01  0.14205861507E+04  0.14207596659E+04  0.10000000000E+02 0. -1.
</event>
<event>
 5    1  0.1645854E-008  0.3859739E+03  0.7957747E-01  0.3425552E+00
         13   -1    0    0    0    0  0.00000000000E+00  0.00000000000E+00  0.14999999963E+04  0.15000000000E+04  0.10566000000E+00 0. -1.
        994   -1    0    0    0    0 -0.00000000000E+00 -0.00000000000E+00  0.11368683772E-12  0.17120000000E+03  0.17120000000E+03 0.  0.
         13    1    1    2    0    0  0.70224607019E+01 -0.87976758349E+01  0.55159454110E+02  0.56296452785E+02  0.10566000000E+00 0. -1.
        994    1    1    2    0    0 -0.41163279167E+01  0.86850491228E+01  0.14502704686E+01  0.17147570533E+03  0.17120000000E+03 0.  0.
        998    1    1    2    0    0 -0.29061327852E+01  0.11262671212E+00  0.14433902717E+04  0.14434278419E+04  0.10000000000E+02 0. -1.
</event>
<event>
 5    1  0.1640179E-008  0.3808376E+03  0.7957747E-01  0.3447519E+00
         13   -1    0    0    0    0  0.00000000000E+00  0.00000000000E+00  0.14999999963E+04  0.15000000000E+04  0.10566000000E+00 0. -1.
        994   -1    0    0    0    0 -0.00000000000E+00 -0.00000000000E+00  0.11368683772E-12  0.17120000000E+03  0.17120000000E+03 0.  0.
         13    1    1    2    0    0 -0.17017002616E+02  0.31480772132E+02  0.14752844207E+03  0.15180668555E+03  0.10566000000E+00 0. -1.
        994    1    1    2    0    0  0.16021583866E+02 -0.41681657455E+02  0.10387204827E+02  0.17723257528E+03  0.17120000000E+03 0.  0.
        998    1    1    2    0    0  0.99541875008E+00  0.10200885323E+02  0.13420843494E+04  0.13421607392E+04  0.10000000000E+02 0. -1.
</event>
<event>
 5    1  0.1640179E-008  0.3744008E+03  0.7957747E-01  0.3475907E+00
         13   -1    0    0    0    0  0.00000000000E+00  0.00000000000E+00  0.14999999963E+04  0.15000000000E+04  0.10566000000E+00 0.  1.
        994   -1    0    0    0    0 -0.00000000000E+00 -0.00000000000E+00  0.11368683772E-12  0.17120000000E+03  0.17120000000E+03 0.  0.
         13    1    1    2    0    0 -0.21768334661E+02 -0.69758328757E+00  0.31035078629E+02  0.37914829367E+02  0.10566000000E+00 0.  1.
        994    1    1    2    0    0  0.15313370759E+02  0.44653788503E+01  0.78538606756E+01  0.17212077754E+03  0.17120000000E+03 0.  0.
        998    1    1    2    0    0  0.64549639019E+01 -0.37677955627E+01  0.14611110570E+04  0.14611643931E+04  0.10000000000E+02 0.  1.
</event>
<event>
 5    1  0.1640179E-008  0.3772660E+03  0.7957747E-01  0.3463150E+00
         13   -1    0    0    0    0  0.00000000000E+00  0.00000000000E+00  0.14999999963E+04  0.15000000000E+04  0.10566000000E+00 0. -1.
        994   -1    0    0    0    0 -0.00000000000E+00 -0.00000000000E+00  0.11368683772E-12  0.17120000000E+03  0.17120000000E+03 0.  0.
         13    1    1    2    0    0  0.91014125824E+00 -0.40768553433E+02  0.14627173017E+03  0.15184970700E+03  0.10566000000E+00 0. -1.
        994    1    1    2    0    0 -0.27568834452E+01  0.27039405808E+02  0.80157356080E+01  0.17352931133E+03  0.17120000000E+03 0.  0.
        998    1    1    2    0    0  0.18467421869E+01  0.13729147625E+02  0.13457125305E+04  0.13458209817E+04  0.10000000000E+02 0. -1.
</event>
<event>
 5    1  0.1640179E-008  0.3849750E+03  0.7957747E-01  0.3429778E+00
         13   -1    0    0    0    0  0.00000000000E+00  0.00000000000E+00  0.14999999963E+04  0.15000000000E+04  0.10566000000E+00 0. -1.
        994   -1    0    0    0    0 -0.00000000000E+00 -0.00000000000E+00  0.11368683772E-12  0.17120000000E+03  0.17120000000E+03 0.  0.
         13    1    1    2    0    0 -0.30970503368E+01  0.17614533582E+02  0.10568171230E+03  0.10718441581E+03  0.10566000000E+00 0. -1.
        994    1    1    2    0    0 -0.72863076783E+00 -0.16149869416E+01  0.16529015544E+01  0.17121714625E+03  0.17120000000E+03 0.  0.
        998    1    1    2    0    0  0.38256811046E+01 -0.15999546640E+02  0.13926653824E+04  0.13927984379E+04  0.10000000000E+02 0. -1.
</event>
<event>
 5    1  0.1640179E-008  0.3718535E+03  0.7957747E-01  0.3487416E+00
         13   -1    0    0    0    0  0.00000000000E+00  0.00000000000E+00  0.14999999963E+04  0.15000000000E+04  0.10566000000E+00 0.  1.
        994   -1    0    0    0    0 -0.00000000000E+00 -0.00000000000E+00  0.11368683772E-12  0.17120000000E+03  0.17120000000E+03 0.  0.
         13    1    1    2    0    0  0.81935858177E+02 -0.20428257243E+02  0.24679684244E+03  0.26084380604E+03  0.10566000000E+00 0.  1.
        994    1    1    2    0    0 -0.78672566847E+02  0.31531254273E+02  0.37649390984E+02  0.19470621308E+03  0.17120000000E+03 0.  0.
        998    1    1    2    0    0 -0.32632913295E+01 -0.11102997030E+02  0.12155537629E+04  0.12156499809E+04  0.10000000000E+02 0.  0.
</event>
<event>
 5    1  0.1640179E-008  0.3782652E+03  0.7957747E-01  0.3458747E+00
         13   -1    0    0    0    0  0.00000000000E+00  0.00000000000E+00  0.14999999963E+04  0.15000000000E+04  0.10566000000E+00 0. -1.
        994   -1    0    0    0    0 -0.00000000000E+00 -0.00000000000E+00  0.11368683772E-12  0.17120000000E+03  0.17120000000E+03 0.  0.
         13    1    1    2    0    0 -0.58306849211E+02 -0.21398000066E+02  0.30570120646E+03  0.31194679333E+03  0.10566000000E+00 0. -1.
        994    1    1    2    0    0  0.57656749545E+02  0.23862507670E+02  0.18216500690E+02  0.18312564249E+03  0.17120000000E+03 0.  0.
        998    1    1    2    0    0  0.65009966579E+00 -0.24645076046E+01  0.11760822891E+04  0.11761275642E+04  0.10000000000E+02 0.  0.
</event>
<event>
 5    1  0.1640179E-008  0.3782646E+03  0.7957747E-01  0.3458750E+00
         13   -1    0    0    0    0  0.00000000000E+00  0.00000000000E+00  0.14999999963E+04  0.15000000000E+04  0.10566000000E+00 0. -1.
        994   -1    0    0    0    0 -0.00000000000E+00 -0.00000000000E+00  0.11368683772E-12  0.17120000000E+03  0.17120000000E+03 0.  0.
         13    1    1    2    0    0 -0.74895723811E+02 -0.88956404605E+02  0.62133832124E+03  0.63212651580E+03  0.10566000000E+00 0. -1.
        994    1    1    2    0    0  0.79074612565E+02  0.10304347031E+03  0.64007820823E+02  0.22422576179E+03  0.17120000000E+03 0.  0.
        998    1    1    2    0    0 -0.41788887546E+01 -0.14087065703E+02  0.81465385421E+03  0.81484772241E+03  0.10000000000E+02 0. -1.
</event>
<event>
 5    1  0.1640179E-008  0.3773243E+03  0.7957747E-01  0.3462893E+00
         13   -1    0    0    0    0  0.00000000000E+00  0.00000000000E+00  0.14999999963E+04  0.15000000000E+04  0.10566000000E+00 0. -1.
        994   -1    0    0    0    0 -0.00000000000E+00 -0.00000000000E+00  0.11368683772E-12  0.17120000000E+03  0.17120000000E+03 0.  0.
         13    1    1    2    0    0  0.92326355057E+01  0.11588142541E+02  0.17656777987E+02  0.23049936634E+02  0.10566000000E+00 0. -1.
        994    1    1    2    0    0 -0.63291084876E+01 -0.75340411858E+01  0.58165912593E+01  0.17158115317E+03  0.17120000000E+03 0.  0.
        998    1    1    2    0    0 -0.29035270181E+01 -0.40541013554E+01  0.14765266270E+04  0.14765689102E+04  0.10000000000E+02 0. -1.
</event>
<event>
 5    1  0.1640179E-008  0.3768636E+03  0.7957747E-01  0.3464930E+00
         13   -1    0    0    0    0  0.00000000000E+00  0.00000000000E+00  0.14999999963E+04  0.15000000000E+04  0.10566000000E+00 0. -1.
        994   -1    0    0    0    0 -0.00000000000E+00 -0.00000000000E+00  0.11368683772E-12  0.17120000000E+03  0.17120000000E+03 0.  0.
         13    1    1    2    0    0 -0.87271452497E+02  0.16293615401E+03  0.94453815719E+03  0.96245355122E+03  0.10566000000E+00 0. -1.
        994    1    1    2    0    0  0.71955626348E+02 -0.16909796742E+03  0.12993030478E+03  0.28277740159E+03  0.17120000000E+03 0.  0.
        998    1    1    2    0    0  0.15315826149E+02  0.61618134037E+01  0.42553153431E+03  0.42596904720E+03  0.10000000000E+02 0. -1.
</event>
<event>
 5    1  0.1640179E-008  0.3289898E+03  0.7957747E-01  0.3708584E+00
         13   -1    0    0    0    0  0.00000000000E+00  0.00000000000E+00  0.14999999963E+04  0.15000000000E+04  0.10566000000E+00 0. -1.
        994   -1    0    0    0    0 -0.00000000000E+00 -0.00000000000E+00  0.11368683772E-12  0.17120000000E+03  0.17120000000E+03 0.  0.
         13    1    1    2    0    0 -0.12254642763E+02  0.20987833837E+03  0.10273096248E+04  0.10486010535E+04  0.10566000000E+00 0. -1.
        994    1    1    2    0    0  0.67947888314E+02 -0.12407023347E+03  0.11431553178E+03  0.24977553757E+03  0.17120000000E+03 0.  0.
        998    1    1    2    0    0 -0.55693245551E+02 -0.85808104902E+02  0.35837483972E+03  0.37282340889E+03  0.10000000000E+02 0. -1.
</event>
<event>
 5    1  0.1640179E-008  0.3853937E+03  0.7957747E-01  0.3428004E+00
         13   -1    0    0    0    0  0.00000000000E+00  0.00000000000E+00  0.14999999963E+04  0.15000000000E+04  0.10566000000E+00 0.  1.
        994   -1    0    0    0    0 -0.00000000000E+00 -0.00000000000E+00  0.11368683772E-12  0.17120000000E+03  0.17120000000E+03 0.  0.
         13    1    1    2    0    0  0.10811855250E+02 -0.36048803795E+01  0.46926815595E+02  0.48291081603E+02  0.10566000000E+00 0.  1.
        994    1    1    2    0    0  0.10058650110E+01  0.91912588892E+01  0.17156577984E+01  0.17145808376E+03  0.17120000000E+03 0.  0.
        998    1    1    2    0    0 -0.11817720261E+02 -0.55863785097E+01  0.14513575229E+04  0.14514508346E+04  0.10000000000E+02 0.  1.
</event>
<event>
 5    1  0.1640179E-008  0.3745222E+03  0.7957747E-01  0.3475363E+00
         13   -1    0    0    0    0  0.00000000000E+00  0.00000000000E+00  0.14999999963E+04  0.15000000000E+04  0.10566000000E+00 0.  1.
        994   -1    0    0    0    0 -0.00000000000E+00 -0.00000000000E+00  0.11368683772E-12  0.17120000000E+03  0.17120000000E+03 0.  0.
         13    1    1    2    0    0  0.73860809698E+01 -0.13111382274E+02  0.32436036427E+01  0.15394631072E+02  0.10566000000E+00 0.  1.
        994    1    1    2    0    0  0.24287068331E+02 -0.64559975947E+02  0.30450595777E+02  0.18706825216E+03  0.17120000000E+03 0.  0.
        998    1    1    2    0    0 -0.31673149301E+02  0.77671358221E+02  0.14663057969E+04  0.14687371168E+04  0.10000000000E+02 0.  1.
</event>
<event>
 5    1  0.1640179E-008  0.3843800E+03  0.7957747E-01  0.3432306E+00
         13   -1    0    0    0    0  0.00000000000E+00  0.00000000000E+00  0.14999999963E+04  0.15000000000E+04  0.10566000000E+00 0.  1.
        994   -1    0    0    0    0 -0.00000000000E+00 -0.00000000000E+00  0.11368683772E-12  0.17120000000E+03  0.17120000000E+03 0.  0.
         13    1    1    2    0    0 -0.87755580642E+01 -0.74532348636E+01  0.34316833093E+02  0.36196924273E+02  0.10566000000E+00 0.  1.
        994    1    1    2    0    0  0.26131068043E+01  0.32630873022E+01  0.19958796884E+01  0.17126266260E+03  0.17120000000E+03 0.  0.
        998    1    1    2    0    0  0.61624512598E+01  0.41901475614E+01  0.14636872835E+04  0.14637404131E+04  0.10000000000E+02 0.  1.
</event>
<event>
 5    1  0.1640179E-008  0.3721034E+03  0.7957747E-01  0.3486280E+00
         13   -1    0    0    0    0  0.00000000000E+00  0.00000000000E+00  0.14999999963E+04  0.15000000000E+04  0.10566000000E+00 0. -1.
        994   -1    0    0    0    0 -0.00000000000E+00 -0.00000000000E+00  0.11368683772E-12  0.17120000000E+03  0.17120000000E+03 0.  0.
         13    1    1    2    0    0  0.22454126487E+02  0.57742532255E+02  0.30449700441E+03  0.31073594045E+03  0.10566000000E+00 0. -1.
        994    1    1    2    0    0 -0.19038228583E+02  0.84414387620E+01  0.96640172298E+01  0.17273258310E+03  0.17120000000E+03 0.  0.
        998    1    1    2    0    0 -0.34158979039E+01 -0.66183971017E+02  0.11858389746E+04  0.11877314764E+04  0.10000000000E+02 0.  1.
</event>
<event>
 5    1  0.1640179E-008  0.3826866E+03  0.7957747E-01  0.3439543E+00
         13   -1    0    0    0    0  0.00000000000E+00  0.00000000000E+00  0.14999999963E+04  0.15000000000E+04  0.10566000000E+00 0.  1.
        994   -1    0    0    0    0 -0.00000000000E+00 -0.00000000000E+00  0.11368683772E-12  0.17120000000E+03  0.17120000000E+03 0.  0.
         13    1    1    2    0    0  0.10422802165E+02  0.47761158420E+01  0.22696743511E+02  0.25428319204E+02  0.10566000000E+00 0.  1.
        994    1    1    2    0    0 -0.41413107260E+01 -0.62743130916E+01  0.29703519230E+01  0.17139072452E+03  0.17120000000E+03 0.  0.
        998    1    1    2    0    0 -0.62814914394E+01  0.14981972496E+01  0.14743329008E+04  0.14743809563E+04  0.10000000000E+02 0.  1.
</event>
<event>
 5    1  0.1640179E-008  0.3849810E+03  0.7957747E-01  0.3429753E+00
         13   -1    0    0    0    0  0.00000000000E+00  0.00000000000E+00  0.14999999963E+04  0.15000000000E+04  0.10566000000E+00 0.  1.
        994   -1    0    0    0    0 -0.00000000000E+00 -0.00000000000E+00  0.11368683772E-12  0.17120000000E+03  0.17120000000E+03 0.  0.
         13    1    1    2    0    0 -0.10098232208E+02  0.78952015154E+01  0.43925237983E+02  0.45757471484E+02  0.10566000000E+00 0.  1.
        994    1    1    2    0    0  0.31512194433E+02 -0.14816141311E+02  0.56376109096E+01  0.17479633605E+03  0.17120000000E+03 0.  0.
        998    1    1    2    0    0 -0.21413962225E+02  0.69209397954E+01  0.14504371474E+04  0.14506461925E+04  0.10000000000E+02 0.  1.
</event>
<event>
 5    1  0.1640179E-008  0.3841276E+03  0.7957747E-01  0.3433381E+00
         13   -1    0    0    0    0  0.00000000000E+00  0.00000000000E+00  0.14999999963E+04  0.15000000000E+04  0.10566000000E+00 0. -1.
        994   -1    0    0    0    0 -0.00000000000E+00 -0.00000000000E+00  0.11368683772E-12  0.17120000000E+03  0.17120000000E+03 0.  0.
         13    1    1    2    0    0 -0.98263233114E+01  0.50070096697E+01  0.29446415566E+02  0.31444066680E+02  0.10566000000E+00 0. -1.
        994    1    1    2    0    0  0.96446587002E+01  0.12380627692E+02  0.28766078432E+01  0.17194189209E+03  0.17120000000E+03 0.  0.
        998    1    1    2    0    0  0.18166461119E+00 -0.17387637362E+02  0.14676769729E+04  0.14678140412E+04  0.10000000000E+02 0. -1.
</event>
<event>
 5    1  0.1640179E-008  0.3808782E+03  0.7957747E-01  0.3447343E+00
         13   -1    0    0    0    0  0.00000000000E+00  0.00000000000E+00  0.14999999963E+04  0.15000000000E+04  0.10566000000E+00 0.  1.
        994   -1    0    0    0    0 -0.00000000000E+00 -0.00000000000E+00  0.11368683772E-12  0.17120000000E+03  0.17120000000E+03 0.  0.
         13    1    1    2    0    0 -0.16558448993E+02  0.57848323842E+01  0.43561541340E+02  0.46960255182E+02  0.10566000000E+00 0.  1.
        994    1    1    2    0    0 -0.56510727330E+01  0.11742581313E+02  0.42567393516E+01  0.17174802086E+03  0.17120000000E+03 0.  0.
        998    1    1    2    0    0  0.22209521726E+02 -0.17527413697E+02  0.14521817156E+04  0.14524917240E+04  0.10000000000E+02 0.  1.
</event>
<event>
 5    1  0.1640179E-008  0.3835669E+03  0.7957747E-01  0.3435773E+00
         13   -1    0    0    0    0  0.00000000000E+00  0.00000000000E+00  0.14999999963E+04  0.15000000000E+04  0.10566000000E+00 0. -1.
        994   -1    0    0    0    0 -0.00000000000E+00 -0.00000000000E+00  0.11368683772E-12  0.17120000000E+03  0.17120000000E+03 0.  0.
         13    1    1    2    0    0 -0.89895482036E+00  0.83788077067E+02  0.15848810951E+03  0.17927560346E+03  0.10566000000E+00 0. -1.
        994    1    1    2    0    0 -0.73673178482E+01 -0.96164096351E+02  0.53313896371E+02  0.20360162658E+03  0.17120000000E+03 0.  0.
        998    1    1    2    0    0  0.82662726686E+01  0.12376019284E+02  0.12881979904E+04  0.12883227700E+04  0.10000000000E+02 0. -1.
</event>
<event>
 5    1  0.1640179E-008  0.3930683E+03  0.7957747E-01  0.3396158E+00
         13   -1    0    0    0    0  0.00000000000E+00  0.00000000000E+00  0.14999999963E+04  0.15000000000E+04  0.10566000000E+00 0.  1.
        994   -1    0    0    0    0 -0.00000000000E+00 -0.00000000000E+00  0.11368683772E-12  0.17120000000E+03  0.17120000000E+03 0.  0.
         13    1    1    2    0    0  0.34571591615E+02  0.60469885647E+02  0.11801787754E+03  0.13704025905E+03  0.10566000000E+00 0.  1.
        994    1    1    2    0    0  0.44933049126E+02  0.24877440930E+01  0.31449430499E+02  0.17978785958E+03  0.17120000000E+03 0.  0.
        998    1    1    2    0    0 -0.79504640741E+02 -0.62957629740E+02  0.13505326882E+04  0.13543718814E+04  0.10000000000E+02 0.  1.
</event>
<event>
 5    1  0.1640179E-008  0.3856316E+03  0.7957747E-01  0.3426998E+00
         13   -1    0    0    0    0  0.00000000000E+00  0.00000000000E+00  0.14999999963E+04  0.15000000000E+04  0.10566000000E+00 0.  1.
        994   -1    0    0    0    0 -0.00000000000E+00 -0.00000000000E+00  0.11368683772E-12  0.17120000000E+03  0.17120000000E+03 0.  0.
         13    1    1    2    0    0  0.78570524053E+01  0.13374492275E+02  0.81689951089E+02  0.83149681834E+02  0.10566000000E+00 0.  1.
        994    1    1    2    0    0 -0.23134102115E+02 -0.16198925407E+02  0.39388813517E+01  0.17355848193E+03  0.17120000000E+03 0.  0.
        998    1    1    2    0    0  0.15277049710E+02  0.28244331320E+01  0.14143711638E+04  0.14144918362E+04  0.10000000000E+02 0.  1.
</event>
<event>
 5    1  0.1640179E-008  0.3855632E+03  0.7957747E-01  0.3427287E+00
         13   -1    0    0    0    0  0.00000000000E+00  0.00000000000E+00  0.14999999963E+04  0.15000000000E+04  0.10566000000E+00 0.  1.
        994   -1    0    0    0    0 -0.00000000000E+00 -0.00000000000E+00  0.11368683772E-12  0.17120000000E+03  0.17120000000E+03 0.  0.
         13    1    1    2    0    0  0.97868512804E+01 -0.89567246238E+01  0.69627303493E+02  0.70880024899E+02  0.10566000000E+00 0.  1.
        994    1    1    2    0    0  0.75161442398E+01  0.91313668171E+01  0.18100811679E+01  0.17161757101E+03  0.17120000000E+03 0.  0.
        998    1    1    2    0    0 -0.17302995520E+02 -0.17464219334E+00  0.14285626116E+04  0.14287024041E+04  0.10000000000E+02 0.  1.
</event>
<event>
 5    1  0.1640179E-008  0.4002787E+03  0.7957747E-01  0.3367350E+00
         13   -1    0    0    0    0  0.00000000000E+00  0.00000000000E+00  0.14999999963E+04  0.15000000000E+04  0.10566000000E+00 0. -1.
        994   -1    0    0    0    0 -0.00000000000E+00 -0.00000000000E+00  0.11368683772E-12  0.17120000000E+03  0.17120000000E+03 0.  0.
         13    1    1    2    0    0 -0.13142928642E+03  0.12124359912E+02  0.53976428891E+03  0.55566730710E+03  0.10566000000E+00 0. -1.
        994    1    1    2    0    0 -0.38278025006E+01 -0.95581565293E+01  0.28363206743E+02  0.17383878142E+03  0.17120000000E+03 0.  0.
        998    1    1    2    0    0  0.13525708892E+03 -0.25662033822E+01  0.93187250062E+03  0.94169391148E+03  0.10000000000E+02 0. -1.
</event>
<event>
 5    1  0.1640179E-008  0.3754157E+03  0.7957747E-01  0.3471366E+00
         13   -1    0    0    0    0  0.00000000000E+00  0.00000000000E+00  0.14999999963E+04  0.15000000000E+04  0.10566000000E+00 0. -1.
        994   -1    0    0    0    0 -0.00000000000E+00 -0.00000000000E+00  0.11368683772E-12  0.17120000000E+03  0.17120000000E+03 0.  0.
         13    1    1    2    0    0 -0.36543130767E+01  0.11374227681E+03  0.48494765760E+03  0.49812137207E+03  0.10566000000E+00 0. -1.
        994    1    1    2    0    0  0.71783756725E+01 -0.14119035756E+03  0.77647799504E+02  0.23521238682E+03  0.17120000000E+03 0.  0.
        998    1    1    2    0    0 -0.35240625959E+01  0.27448080751E+02  0.93740453917E+03  0.93786624111E+03  0.10000000000E+02 0. -1.
</event>
<event>
 5    1  0.1640179E-008  0.3767445E+03  0.7957747E-01  0.3465457E+00
         13   -1    0    0    0    0  0.00000000000E+00  0.00000000000E+00  0.14999999963E+04  0.15000000000E+04  0.10566000000E+00 0.  1.
        994   -1    0    0    0    0 -0.00000000000E+00 -0.00000000000E+00  0.11368683772E-12  0.17120000000E+03  0.17120000000E+03 0.  0.
         13    1    1    2    0    0  0.85887159552E+02 -0.15484578409E+02  0.43677622267E+03  0.44540976213E+03  0.10566000000E+00 0.  1.
        994    1    1    2    0    0 -0.90060845795E+02  0.20867356884E+02  0.35235279972E+02  0.19773054262E+03  0.17120000000E+03 0.  0.
        998    1    1    2    0    0  0.41736862430E+01 -0.53827784743E+01  0.10279884936E+04  0.10280596953E+04  0.10000000000E+02 0.  1.
</event>
<event>
 5    1  0.1640179E-008  0.3835005E+03  0.7957747E-01  0.3436057E+00
         13   -1    0    0    0    0  0.00000000000E+00  0.00000000000E+00  0.14999999963E+04  0.15000000000E+04  0.10566000000E+00 0. -1.
        994   -1    0    0    0    0 -0.00000000000E+00 -0.00000000000E+00  0.11368683772E-12  0.17120000000E+03  0.17120000000E+03 0.  0.
         13    1    1    2    0    0  0.26872644228E+02  0.15315143621E+02  0.18401410405E+03  0.18659553662E+03  0.10566000000E+00 0. -1.
        994    1    1    2    0    0 -0.22064856540E+02 -0.17624995529E+02  0.50164286271E+01  0.17358601014E+03  0.17120000000E+03 0.  0.
        998    1    1    2    0    0 -0.48077876878E+01  0.23098519077E+01  0.13109694636E+04  0.13110184532E+04  0.10000000000E+02 0. -1.
</event>
<event>
 5    1  0.1640179E-008  0.3836037E+03  0.7957747E-01  0.3435616E+00
         13   -1    0    0    0    0  0.00000000000E+00  0.00000000000E+00  0.14999999963E+04  0.15000000000E+04  0.10566000000E+00 0.  1.
        994   -1    0    0    0    0 -0.00000000000E+00 -0.00000000000E+00  0.11368683772E-12  0.17120000000E+03  0.17120000000E+03 0.  0.
         13    1    1    2    0    0  0.70190218747E+01  0.15783720769E+02  0.61611607904E+02  0.63987451128E+02  0.10566000000E+00 0.  1.
        994    1    1    2    0    0 -0.15965550243E+02 -0.11933489673E+02  0.36386029034E+01  0.17239485608E+03  0.17120000000E+03 0.  0.
        998    1    1    2    0    0  0.89465283679E+01 -0.38502310955E+01  0.14347497855E+04  0.14348176928E+04  0.10000000000E+02 0.  1.
</event>
<event>
 5    1  0.1640179E-008  0.3789152E+03  0.7957747E-01  0.3455896E+00
         13   -1    0    0    0    0  0.00000000000E+00  0.00000000000E+00  0.14999999963E+04  0.15000000000E+04  0.10566000000E+00 0.  1.
        994   -1    0    0    0    0 -0.00000000000E+00 -0.00000000000E+00  0.11368683772E-12  0.17120000000E+03  0.17120000000E+03 0.  0.
         13    1    1    2    0    0  0.22452710250E+02  0.51737127163E+01  0.54677250635E+02  0.59333838590E+02  0.10566000000E+00 0.  1.
        994    1    1    2    0    0 -0.16773518533E+02  0.75319677060E+00  0.56281483036E+01  0.17211343435E+03  0.17120000000E+03 0.  0.
        998    1    1    2    0    0 -0.56791917171E+01 -0.59269094869E+01  0.14396945973E+04  0.14397527271E+04  0.10000000000E+02 0.  1.
</event>
<event>
 5    1  0.1640179E-008  0.3836296E+03  0.7957747E-01  0.3435505E+00
         13   -1    0    0    0    0  0.00000000000E+00  0.00000000000E+00  0.14999999963E+04  0.15000000000E+04  0.10566000000E+00 0. -1.
        994   -1    0    0    0    0 -0.00000000000E+00 -0.00000000000E+00  0.11368683772E-12  0.17120000000E+03  0.17120000000E+03 0.  0.
         13    1    1    2    0    0  0.56665511631E+00 -0.12550348668E+02  0.32352604709E+02  0.34706404960E+02  0.10566000000E+00 0. -1.
        994    1    1    2    0    0  0.11780233369E+02  0.17642969441E+02  0.38001149296E+01  0.17255123628E+03  0.17120000000E+03 0.  0.
        998    1    1    2    0    0 -0.12346888485E+02 -0.50926207724E+01  0.14638472766E+04  0.14639423588E+04  0.10000000000E+02 0. -1.
</event>
<event>
 5    1  0.1640179E-008  0.3701455E+03  0.7957747E-01  0.3495222E+00
         13   -1    0    0    0    0  0.00000000000E+00  0.00000000000E+00  0.14999999963E+04  0.15000000000E+04  0.10566000000E+00 0.  1.
        994   -1    0    0    0    0 -0.00000000000E+00 -0.00000000000E+00  0.11368683772E-12  0.17120000000E+03  0.17120000000E+03 0.  0.
         13    1    1    2    0    0 -0.15357704792E+02  0.17883702283E+02  0.20695300798E+02  0.31368655422E+02  0.10566000000E+00 0.  1.
        994    1    1    2    0    0  0.81792807905E+01 -0.11953007202E+02  0.11749832591E+02  0.17221287287E+03  0.17120000000E+03 0.  0.
        998    1    1    2    0    0  0.71784240019E+01 -0.59306950812E+01  0.14675548629E+04  0.14676184717E+04  0.10000000000E+02 0.  1.
</event>
<event>
 5    1  0.1640179E-008  0.4161797E+03  0.7957747E-01  0.3307322E+00
         13   -1    0    0    0    0  0.00000000000E+00  0.00000000000E+00  0.14999999963E+04  0.15000000000E+04  0.10566000000E+00 0. -1.
        994   -1    0    0    0    0 -0.00000000000E+00 -0.00000000000E+00  0.11368683772E-12  0.17120000000E+03  0.17120000000E+03 0.  0.
         13    1    1    2    0    0  0.22898630927E+02 -0.68072217542E+02  0.59413020601E+02  0.93209936597E+02  0.10566000000E+00 0. -1.
        994    1    1    2    0    0  0.96604085865E+00  0.38596264618E+02  0.44103959306E+02  0.18095635967E+03  0.17120000000E+03 0.  0.
        998    1    1    2    0    0 -0.23864671786E+02  0.29475952924E+02  0.13964830164E+04  0.13970337037E+04  0.10000000000E+02 0. -1.
</event>
<event>
 5    1  0.1640179E-008  0.3832796E+03  0.7957747E-01  0.3437002E+00
         13   -1    0    0    0    0  0.00000000000E+00  0.00000000000E+00  0.14999999963E+04  0.15000000000E+04  0.10566000000E+00 0. -1.
        994   -1    0    0    0    0 -0.00000000000E+00 -0.00000000000E+00  0.11368683772E-12  0.17120000000E+03  0.17120000000E+03 0.  0.
         13    1    1    2    0    0 -0.29113798821E+02 -0.19416978193E+01  0.17088062071E+03  0.17335391882E+03  0.10566000000E+00 0. -1.
        994    1    1    2    0    0  0.16402943803E+02  0.15451713847E+02  0.41678893714E+01  0.17272701968E+03  0.17120000000E+03 0.  0.
        998    1    1    2    0    0  0.12710855019E+02 -0.13510016028E+02  0.13249514862E+04  0.13251190615E+04  0.10000000000E+02 0. -1.
</event>
<event>
 5    1  0.1640179E-008  0.3839481E+03  0.7957747E-01  0.3434146E+00
         13   -1    0    0    0    0  0.00000000000E+00  0.00000000000E+00  0.14999999963E+04  0.15000000000E+04  0.10566000000E+00 0. -1.
        994   -1    0    0    0    0 -0.00000000000E+00 -0.00000000000E+00  0.11368683772E-12  0.17120000000E+03  0.17120000000E+03 0.  0.
         13    1    1    2    0    0  0.11209914795E+02  0.10746752721E+02  0.52361892398E+02  0.54616241388E+02  0.10566000000E+00 0. -1.
        994    1    1    2    0    0 -0.14461212956E+02 -0.16703062457E+02  0.37656834592E+01  0.17266076378E+03  0.17120000000E+03 0.  0.
        998    1    1    2    0    0  0.32512981606E+01  0.59563097362E+01  0.14438724204E+04  0.14439229948E+04  0.10000000000E+02 0. -1.
</event>
<event>
 5    1  0.1640179E-008  0.3690680E+03  0.7957747E-01  0.3500185E+00
         13   -1    0    0    0    0  0.00000000000E+00  0.00000000000E+00  0.14999999963E+04  0.15000000000E+04  0.10566000000E+00 0. -1.
        994   -1    0    0    0    0 -0.00000000000E+00 -0.00000000000E+00  0.11368683772E-12  0.17120000000E+03  0.17120000000E+03 0.  0.
         13    1    1    2    0    0  0.72464769230E+02  0.15881668345E+02  0.23159730978E+03  0.24318860013E+03  0.10566000000E+00 0. -1.
        994    1    1    2    0    0 -0.73490878797E+02 -0.26314613984E+02  0.31202027053E+02  0.19072591504E+03  0.17120000000E+03 0.  0.
        998    1    1    2    0    0  0.10261095667E+01  0.10432945639E+02  0.12372006594E+04  0.12372854848E+04  0.10000000000E+02 0. -1.
</event>
<event>
 5    1  0.1640179E-008  0.3833544E+03  0.7957747E-01  0.3436682E+00
         13   -1    0    0    0    0  0.00000000000E+00  0.00000000000E+00  0.14999999963E+04  0.15000000000E+04  0.10566000000E+00 0. -1.
        994   -1    0    0    0    0 -0.00000000000E+00 -0.00000000000E+00  0.11368683772E-12  0.17120000000E+03  0.17120000000E+03 0.  0.
         13    1    1    2    0    0  0.23392652525E+02 -0.18256296834E+01  0.10730788417E+03  0.10984326235E+03  0.10566000000E+00 0. -1.
        994    1    1    2    0    0 -0.20402455672E+02  0.22361526280E+01  0.38434123098E+01  0.17246875773E+03  0.17120000000E+03 0.  0.
        998    1    1    2    0    0 -0.29901968529E+01 -0.41052294459E+00  0.13888486998E+04  0.13888879799E+04  0.10000000000E+02 0. -1.
</event>
<event>
 5    1  0.1640179E-008  0.3820108E+03  0.7957747E-01  0.3442449E+00
         13   -1    0    0    0    0  0.00000000000E+00  0.00000000000E+00  0.14999999963E+04  0.15000000000E+04  0.10566000000E+00 0. -1.
        994   -1    0    0    0    0 -0.00000000000E+00 -0.00000000000E+00  0.11368683772E-12  0.17120000000E+03  0.17120000000E+03 0.  0.
         13    1    1    2    0    0  0.25273500895E+02  0.24214647900E+02  0.18530338126E+03  0.18858009781E+03  0.10566000000E+00 0. -1.
        994    1    1    2    0    0 -0.51095205825E+01 -0.34685360383E+02  0.72142201757E+01  0.17490187649E+03  0.17120000000E+03 0.  0.
        998    1    1    2    0    0 -0.20163980312E+02  0.10470712484E+02  0.13074823948E+04  0.13077180257E+04  0.10000000000E+02 0. -1.
</event>
<event>
 5    1  0.1640179E-008  0.3778330E+03  0.7957747E-01  0.3460649E+00
         13   -1    0    0    0    0  0.00000000000E+00  0.00000000000E+00  0.14999999963E+04  0.15000000000E+04  0.10566000000E+00 0.  1.
        994   -1    0    0    0    0 -0.00000000000E+00 -0.00000000000E+00  0.11368683772E-12  0.17120000000E+03  0.17120000000E+03 0.  0.
         13    1    1    2    0    0  0.26148342587E+02 -0.80267880751E+00  0.62498082854E+02  0.67752502816E+02  0.10566000000E+00 0.  1.
        994    1    1    2    0    0 -0.20933092108E+02 -0.57718807573E+01  0.68202724373E+01  0.17270629713E+03  0.17120000000E+03 0.  0.
        998    1    1    2    0    0 -0.52152504797E+01  0.65745595648E+01  0.14306816410E+04  0.14307412001E+04  0.10000000000E+02 0.  1.
</event>
<event>
 5    1  0.1640179E-008  0.4151491E+03  0.7957747E-01  0.3311075E+00
         13   -1    0    0    0    0  0.00000000000E+00  0.00000000000E+00  0.14999999963E+04  0.15000000000E+04  0.10566000000E+00 0. -1.
        994   -1    0    0    0    0 -0.00000000000E+00 -0.00000000000E+00  0.11368683772E-12  0.17120000000E+03  0.17120000000E+03 0.  0.
         13    1    1    2    0    0 -0.73025420844E+02  0.88825609604E+01  0.60189320081E+02  0.95049341894E+02  0.10566000000E+00 0. -1.
        994    1    1    2    0    0  0.63673119725E+02 -0.28968440111E+01  0.54328264865E+02  0.19058766551E+03  0.17120000000E+03 0.  0.
        998    1    1    2    0    0  0.93523011186E+01 -0.59857169493E+01  0.13854824113E+04  0.13855629926E+04  0.10000000000E+02 0. -1.
</event>
<event>
 5    1  0.1640179E-008  0.3834534E+03  0.7957747E-01  0.3436258E+00
         13   -1    0    0    0    0  0.00000000000E+00  0.00000000000E+00  0.14999999963E+04  0.15000000000E+04  0.10566000000E+00 0.  1.
        994   -1    0    0    0    0 -0.00000000000E+00 -0.00000000000E+00  0.11368683772E-12  0.17120000000E+03  0.17120000000E+03 0.  0.
         13    1    1    2    0    0  0.31874741528E+01 -0.15219933333E+02  0.52245555542E+02  0.54510692529E+02  0.10566000000E+00 0.  1.
        994    1    1    2    0    0 -0.18498277201E+01 -0.36291193058E+00  0.24117069685E+01  0.17122736317E+03  0.17120000000E+03 0.  0.
        998    1    1    2    0    0 -0.13376464327E+01  0.15582845263E+02  0.14453427338E+04  0.14454619443E+04  0.10000000000E+02 0.  1.
</event>
<event>
 5    1  0.1640179E-008  0.3819391E+03  0.7957747E-01  0.3442758E+00
         13   -1    0    0    0    0  0.00000000000E+00  0.00000000000E+00  0.14999999963E+04  0.15000000000E+04  0.10566000000E+00 0.  1.
        994   -1    0    0    0    0 -0.00000000000E+00 -0.00000000000E+00  0.11368683772E-12  0.17120000000E+03  0.17120000000E+03 0.  0.
         13    1    1    2    0    0 -0.11227473402E+02  0.24392726793E+02  0.12389341058E+03  0.12677006598E+03  0.10566000000E+00 0.  1.
        994    1    1    2    0    0 -0.26352949368E+01 -0.39036307625E+01  0.32311823180E+01  0.17129525286E+03  0.17120000000E+03 0.  0.
        998    1    1    2    0    0  0.13862768339E+02 -0.20489096030E+02  0.13728754034E+04  0.13731346812E+04  0.10000000000E+02 0.  1.
</event>
<event>
 5    1  0.1640179E-008  0.3804227E+03  0.7957747E-01  0.3449320E+00
         13   -1    0    0    0    0  0.00000000000E+00  0.00000000000E+00  0.14999999963E+04  0.15000000000E+04  0.10566000000E+00 0.  1.
        994   -1    0    0    0    0 -0.00000000000E+00 -0.00000000000E+00  0.11368683772E-12  0.17120000000E+03  0.17120000000E+03 0.  0.
         13    1    1    2    0    0 -0.57487540000E+01 -0.28322267070E+02  0.98524717392E+02  0.10267584957E+03  0.10566000000E+00 0.  1.
        994    1    1    2    0    0 -0.50720153256E+00  0.30953985650E+02  0.71259485513E+01  0.17412244434E+03  0.17120000000E+03 0.  0.
        998    1    1    2    0    0  0.62559555326E+01 -0.26317185803E+01  0.13943493303E+04  0.13944017061E+04  0.10000000000E+02 0.  1.
</event>
<event>
 5    1  0.1640179E-008  0.3973548E+03  0.7957747E-01  0.3378906E+00
         13   -1    0    0    0    0  0.00000000000E+00  0.00000000000E+00  0.14999999963E+04  0.15000000000E+04  0.10566000000E+00 0. -1.
        994   -1    0    0    0    0 -0.00000000000E+00 -0.00000000000E+00  0.11368683772E-12  0.17120000000E+03  0.17120000000E+03 0.  0.
         13    1    1    2    0    0 -0.10318397522E+02  0.31209483034E+01 -0.97449343601E+01  0.14532190319E+02  0.10566000000E+00 0. -1.
        994    1    1    2    0    0  0.12756425606E+02 -0.12867179245E+02  0.27480522530E+02  0.17433562405E+03  0.17120000000E+03 0.  0.
        998    1    1    2    0    0 -0.24380280840E+01  0.97462309421E+01  0.14822644081E+04  0.14823321856E+04  0.10000000000E+02 0. -1.
</event>
<event>
 5    1  0.1640179E-008  0.3845555E+03  0.7957747E-01  0.3431560E+00
         13   -1    0    0    0    0  0.00000000000E+00  0.00000000000E+00  0.14999999963E+04  0.15000000000E+04  0.10566000000E+00 0.  1.
        994   -1    0    0    0    0 -0.00000000000E+00 -0.00000000000E+00  0.11368683772E-12  0.17120000000E+03  0.17120000000E+03 0.  0.
         13    1    1    2    0    0 -0.11587186067E+02  0.16759198405E+02  0.10518612674E+03  0.10714133673E+03  0.10566000000E+00 0.  1.
        994    1    1    2    0    0  0.21094567241E+02 -0.11293568730E+02  0.37388107345E+01  0.17290443652E+03  0.17120000000E+03 0.  0.
        998    1    1    2    0    0 -0.95073811744E+01 -0.54656296751E+01  0.13910750588E+04  0.13911542268E+04  0.10000000000E+02 0.  1.
</event>
<event>
 5    1  0.1640179E-008  0.3838646E+03  0.7957747E-01  0.3434502E+00
         13   -1    0    0    0    0  0.00000000000E+00  0.00000000000E+00  0.14999999963E+04  0.15000000000E+04  0.10566000000E+00 0. -1.
        994   -1    0    0    0    0 -0.00000000000E+00 -0.00000000000E+00  0.11368683772E-12  0.17120000000E+03  0.17120000000E+03 0.  0.
         13    1    1    2    0    0 -0.18619882290E+02 -0.33735949959E+01  0.76187588057E+02  0.78502489755E+02  0.10566000000E+00 0. -1.
        994    1    1    2    0    0  0.22181494935E+02  0.48541051188E+01  0.38985690333E+01  0.17274321953E+03  0.17120000000E+03 0.  0.
        998    1    1    2    0    0 -0.35616126454E+01 -0.14805101230E+01  0.14199138392E+04  0.14199542907E+04  0.10000000000E+02 0. -1.
</event>
<event>
 5    1  0.1640179E-008  0.3748851E+03  0.7957747E-01  0.3473737E+00
         13   -1    0    0    0    0  0.00000000000E+00  0.00000000000E+00  0.14999999963E+04  0.15000000000E+04  0.10566000000E+00 0.  1.
        994   -1    0    0    0    0 -0.00000000000E+00 -0.00000000000E+00  0.11368683772E-12  0.17120000000E+03  0.17120000000E+03 0.  0.
         13    1    1    2    0    0  0.25448815173E+02 -0.44725818364E+01  0.48829719215E+02  0.55244898630E+02  0.10566000000E+00 0.  1.
        994    1    1    2    0    0 -0.15161562754E+00  0.23257656895E+02  0.85794119896E+01  0.17298551356E+03  0.17120000000E+03 0.  0.
        998    1    1    2    0    0 -0.25297199545E+02 -0.18785075059E+02  0.14425908651E+04  0.14429695878E+04  0.10000000000E+02 0.  1.
</event>
<event>
 5    1  0.1640179E-008  0.3856309E+03  0.7957747E-01  0.3427001E+00
         13   -1    0    0    0    0  0.00000000000E+00  0.00000000000E+00  0.14999999963E+04  0.15000000000E+04  0.10566000000E+00 0. -1.
        994   -1    0    0    0    0 -0.00000000000E+00 -0.00000000000E+00  0.11368683772E-12  0.17120000000E+03  0.17120000000E+03 0.  0.
         13    1    1    2    0    0  0.68175415743E+01  0.11627045377E+02  0.72466595746E+02  0.73709468323E+02  0.10566000000E+00 0. -1.
        994    1    1    2    0    0  0.65687316688E+00 -0.40301632287E+01  0.13719310688E+01  0.17125418504E+03  0.17120000000E+03 0.  0.
        998    1    1    2    0    0 -0.74744147412E+01 -0.75968821479E+01  0.14261614695E+04  0.14262363466E+04  0.10000000000E+02 0. -1.
</event>
<event>
 5    1  0.1640179E-008  0.3848271E+03  0.7957747E-01  0.3430406E+00
         13   -1    0    0    0    0  0.00000000000E+00  0.00000000000E+00  0.14999999963E+04  0.15000000000E+04  0.10566000000E+00 0. -1.
        994   -1    0    0    0    0 -0.00000000000E+00 -0.00000000000E+00  0.11368683772E-12  0.17120000000E+03  0.17120000000E+03 0.  0.
         13    1    1    2    0    0  0.15953359556E+02  0.11654004382E+02  0.11537471515E+03  0.11705409673E+03  0.10566000000E+00 0. -1.
        994    1    1    2    0    0  0.94503196558E+01 -0.34352908643E+02  0.59042606308E+01  0.17496780037E+03  0.17120000000E+03 0.  0.
        998    1    1    2    0    0 -0.25403679212E+02  0.22698904261E+02  0.13787210205E+04  0.13791781029E+04  0.10000000000E+02 0. -1.
</event>
<event>
 5    1  0.1640179E-008  0.3709837E+03  0.7957747E-01  0.3491382E+00
         13   -1    0    0    0    0  0.00000000000E+00  0.00000000000E+00  0.14999999963E+04  0.15000000000E+04  0.10566000000E+00 0. -1.
        994   -1    0    0    0    0 -0.00000000000E+00 -0.00000000000E+00  0.11368683772E-12  0.17120000000E+03  0.17120000000E+03 0.  0.
         13    1    1    2    0    0  0.41216683326E+02  0.15379217674E+02  0.76509207936E+02  0.88255341955E+02  0.10566000000E+00 0. -1.
        994    1    1    2    0    0 -0.44698796878E+02 -0.65486942665E+01  0.18653883291E+02  0.17804009436E+03  0.17120000000E+03 0.  0.
        998    1    1    2    0    0  0.34821135529E+01 -0.88305234075E+01  0.14048369051E+04  0.14049045637E+04  0.10000000000E+02 0. -1.
</event>
<event>
 5    1  0.1640179E-008  0.3838433E+03  0.7957747E-01  0.3434593E+00
         13   -1    0    0    0    0  0.00000000000E+00  0.00000000000E+00  0.14999999963E+04  0.15000000000E+04  0.10566000000E+00 0.  1.
        994   -1    0    0    0    0 -0.00000000000E+00 -0.00000000000E+00  0.11368683772E-12  0.17120000000E+03  0.17120000000E+03 0.  0.
         13    1    1    2    0    0 -0.10311573167E+02  0.98158344647E+01  0.48725685820E+02  0.50763005921E+02  0.10566000000E+00 0.  1.
        994    1    1    2    0    0  0.72664562444E+00  0.80108935777E+01  0.24191255879E+01  0.17140593513E+03  0.17120000000E+03 0.  0.
        998    1    1    2    0    0  0.95849275423E+01 -0.17826728042E+02  0.14488551849E+04  0.14490310589E+04  0.10000000000E+02 0.  1.
</event>
<event>
 5    1  0.1640179E-008  0.3792165E+03  0.7957747E-01  0.3454577E+00
         13   -1    0    0    0    0  0.00000000000E+00  0.00000000000E+00  0.14999999963E+04  0.15000000000E+04  0.10566000000E+00 0. -1.
        994   -1    0    0    0    0 -0.00000000000E+00 -0.00000000000E+00  0.11368683772E-12  0.17120000000E+03  0.17120000000E+03 0.  0.
         13    1    1    2    0    0  0.12346536973E+02  0.95691245590E+01  0.24505708059E+02  0.29061073820E+02  0.10566000000E+00 0. -1.
        994    1    1    2    0    0 -0.16037274206E+02 -0.10316930765E+02  0.57488467942E+01  0.17235464155E+03  0.17120000000E+03 0.  0.
        998    1    1    2    0    0  0.36907372334E+01  0.74780620609E+00  0.14697454414E+04  0.14697842846E+04  0.10000000000E+02 0. -1.
</event>
<event>
 5    1  0.1640179E-008  0.3821265E+03  0.7957747E-01  0.3441951E+00
         13   -1    0    0    0    0  0.00000000000E+00  0.00000000000E+00  0.14999999963E+04  0.15000000000E+04  0.10566000000E+00 0. -1.
        994   -1    0    0    0    0 -0.00000000000E+00 -0.00000000000E+00  0.11368683772E-12  0.17120000000E+03  0.17120000000E+03 0.  0.
         13    1    1    2    0    0 -0.25504877281E+02 -0.11856792473E+02  0.12838842874E+03  0.13143318489E+03  0.10566000000E+00 0. -1.
        994    1    1    2    0    0  0.15286168355E+02  0.64982805807E+01  0.39799008980E+01  0.17204991777E+03  0.17120000000E+03 0.  0.
        998    1    1    2    0    0  0.10218708926E+02  0.53585118922E+01  0.13676316666E+04  0.13677168973E+04  0.10000000000E+02 0. -1.
</event>
<event>
 5    1  0.1640179E-008  0.3810079E+03  0.7957747E-01  0.3446782E+00
         13   -1    0    0    0    0  0.00000000000E+00  0.00000000000E+00  0.14999999963E+04  0.15000000000E+04  0.10566000000E+00 0. -1.
        994   -1    0    0    0    0 -0.00000000000E+00 -0.00000000000E+00  0.11368683772E-12  0.17120000000E+03  0.17120000000E+03 0.  0.
         13    1    1    2    0    0 -0.21855077740E+02  0.11200915319E+02  0.95900039207E+02  0.98994614050E+02  0.10566000000E+00 0. -1.
        994    1    1    2    0    0 -0.23459715192E+02 -0.17386541387E+02  0.64713148521E+01  0.17379288816E+03  0.17120000000E+03 0.  0.
        998    1    1    2    0    0  0.45314792932E+02  0.61856260676E+01  0.13976286422E+04  0.13984124978E+04  0.10000000000E+02 0. -1.
</event>
<event>
 5    1  0.1640179E-008  0.3689581E+03  0.7957747E-01  0.3500693E+00
         13   -1    0    0    0    0  0.00000000000E+00  0.00000000000E+00  0.14999999963E+04  0.15000000000E+04  0.10566000000E+00 0. -1.
        994   -1    0    0    0    0 -0.00000000000E+00 -0.00000000000E+00  0.11368683772E-12  0.17120000000E+03  0.17120000000E+03 0.  0.
         13    1    1    2    0    0  0.40034326093E+01  0.49692935655E+02  0.11502536798E+03  0.12536451559E+03  0.10566000000E+00 0. -1.
        994    1    1    2    0    0  0.13727529433E+02 -0.49876273539E+02  0.19159132649E+02  0.17986828539E+03  0.17120000000E+03 0.  0.
        998    1    1    2    0    0 -0.17730962042E+02  0.18333788412E+00  0.13658154956E+04  0.13659671990E+04  0.10000000000E+02 0. -1.
</event>
<event>
 5    1  0.1640179E-008  0.4021210E+03  0.7957747E-01  0.3360154E+00
         13   -1    0    0    0    0  0.00000000000E+00  0.00000000000E+00  0.14999999963E+04  0.15000000000E+04  0.10566000000E+00 0.  1.
        994   -1    0    0    0    0 -0.00000000000E+00 -0.00000000000E+00  0.11368683772E-12  0.17120000000E+03  0.17120000000E+03 0.  0.
         13    1    1    2    0    0 -0.85097620059E+02 -0.12462756296E+03  0.41153243302E+03  0.43832931567E+03  0.10566000000E+00 0.  1.
        994    1    1    2    0    0  0.57489075951E+02  0.58024199306E+02  0.55916460309E+02  0.19775715434E+03  0.17120000000E+03 0.  0.
        998    1    1    2    0    0  0.27608544109E+02  0.66603363651E+02  0.10325511030E+04  0.10351135300E+04  0.10000000000E+02 0. -1.
</event>
<event>
 5    1  0.1640179E-008  0.3755377E+03  0.7957747E-01  0.3470821E+00
         13   -1    0    0    0    0  0.00000000000E+00  0.00000000000E+00  0.14999999963E+04  0.15000000000E+04  0.10566000000E+00 0. -1.
        994   -1    0    0    0    0 -0.00000000000E+00 -0.00000000000E+00  0.11368683772E-12  0.17120000000E+03  0.17120000000E+03 0.  0.
         13    1    1    2    0    0  0.42340663348E+02  0.52094619039E+02  0.29386766021E+03  0.30143787749E+03  0.10566000000E+00 0. -1.
        994    1    1    2    0    0 -0.41269928218E+02 -0.46167182320E+02  0.19526946993E+02  0.18309931010E+03  0.17120000000E+03 0.  0.
        998    1    1    2    0    0 -0.10707351299E+01 -0.59274367197E+01  0.11866053891E+04  0.11866628124E+04  0.10000000000E+02 0.  0.
</event>
<event>
 5    1  0.1640179E-008  0.3839674E+03  0.7957747E-01  0.3434063E+00
         13   -1    0    0    0    0  0.00000000000E+00  0.00000000000E+00  0.14999999963E+04  0.15000000000E+04  0.10566000000E+00 0.  1.
        994   -1    0    0    0    0 -0.00000000000E+00 -0.00000000000E+00  0.11368683772E-12  0.17120000000E+03  0.17120000000E+03 0.  0.
         13    1    1    2    0    0  0.23977086389E+02 -0.58239169664E+01  0.14504763177E+03  0.14713138798E+03  0.10566000000E+00 0.  1.
        994    1    1    2    0    0 -0.11597856851E+02  0.33760184774E+01  0.26252789621E+01  0.17164568120E+03  0.17120000000E+03 0.  0.
        998    1    1    2    0    0 -0.12379229538E+02  0.24478984890E+01  0.13523270855E+04  0.13524229308E+04  0.10000000000E+02 0.  1.
</event>
<event>
 5    1  0.1640179E-008  0.3745109E+03  0.7957747E-01  0.3475413E+00
         13   -1    0    0    0    0  0.00000000000E+00  0.00000000000E+00  0.14999999963E+04  0.15000000000E+04  0.10566000000E+00 0. -1.
        994   -1    0    0    0    0 -0.00000000000E+00 -0.00000000000E+00  0.11368683772E-12  0.17120000000E+03  0.17120000000E+03 0.  0.
         13    1    1    2    0    0 -0.27867974655E+02 -0.11580323305E+02  0.59689899475E+02  0.66885149044E+02  0.10566000000E+00 0. -1.
        994    1    1    2    0    0  0.32317562513E+02  0.15900761511E+02  0.11359822640E+02  0.17531612771E+03  0.17120000000E+03 0.  0.
        998    1    1    2    0    0 -0.44495878577E+01 -0.43204382066E+01  0.14289502742E+04  0.14289987233E+04  0.10000000000E+02 0. -1.
</event>
<event>
 5    1  0.1640179E-008  0.3824816E+03  0.7957747E-01  0.3440424E+00
         13   -1    0    0    0    0  0.00000000000E+00  0.00000000000E+00  0.14999999963E+04  0.15000000000E+04  0.10566000000E+00 0. -1.
        994   -1    0    0    0    0 -0.00000000000E+00 -0.00000000000E+00  0.11368683772E-12  0.17120000000E+03  0.17120000000E+03 0.  0.
         13    1    1    2    0    0  0.26793906099E+02  0.19053748168E+02  0.18970299953E+03  0.19253103105E+03  0.10566000000E+00 0. -1.
        994    1    1    2    0    0 -0.12945735139E+02 -0.11373113956E+02  0.38708462954E+01  0.17210857977E+03  0.17120000000E+03 0.  0.
        998    1    1    2    0    0 -0.13848170960E+02 -0.76806342113E+01  0.13064261505E+04  0.13065603892E+04  0.10000000000E+02 0. -1.
</event>
<event>
 5    1  0.1640179E-008  0.3832574E+03  0.7957747E-01  0.3437096E+00
         13   -1    0    0    0    0  0.00000000000E+00  0.00000000000E+00  0.14999999963E+04  0.15000000000E+04  0.10566000000E+00 0.  1.
        994   -1    0    0    0    0 -0.00000000000E+00 -0.00000000000E+00  0.11368683772E-12  0.17120000000E+03  0.17120000000E+03 0.  0.
         13    1    1    2    0    0  0.80403727515E+01  0.10017243298E+02  0.30924837999E+02  0.33486557401E+02  0.10566000000E+00 0.  1.
        994    1    1    2    0    0 -0.25180869425E+02 -0.52346519209E+01  0.46885611456E+01  0.17318458468E+03  0.17120000000E+03 0.  0.
        998    1    1    2    0    0  0.17140496673E+02 -0.47825913775E+01  0.14643865971E+04  0.14645288579E+04  0.10000000000E+02 0.  1.
</event>
<event>
 5    1  0.1640179E-008  0.3788918E+03  0.7957747E-01  0.3455998E+00
         13   -1    0    0    0    0  0.00000000000E+00  0.00000000000E+00  0.14999999963E+04  0.15000000000E+04  0.10566000000E+00 0. -1.
        994   -1    0    0    0    0 -0.00000000000E+00 -0.00000000000E+00  0.11368683772E-12  0.17120000000E+03  0.17120000000E+03 0.  0.
         13    1    1    2    0    0 -0.19635064829E+02  0.27743576994E+01  0.40550754538E+02  0.45139868067E+02  0.10566000000E+00 0. -1.
        994    1    1    2    0    0  0.97382324916E+01  0.10793282820E+01  0.50157408707E+01  0.17155347790E+03  0.17120000000E+03 0.  0.
        998    1    1    2    0    0  0.98968323372E+01 -0.38536859814E+01  0.14544335009E+04  0.14545066540E+04  0.10000000000E+02 0. -1.
</event>
<event>
 5    1  0.1640179E-008  0.3720342E+03  0.7957747E-01  0.3486594E+00
         13   -1    0    0    0    0  0.00000000000E+00  0.00000000000E+00  0.14999999963E+04  0.15000000000E+04  0.10566000000E+00 0.  1.
        994   -1    0    0    0    0 -0.00000000000E+00 -0.00000000000E+00  0.11368683772E-12  0.17120000000E+03  0.17120000000E+03 0.  0.
         13    1    1    2    0    0 -0.35049850045E+02  0.62007998794E+02  0.26649721000E+03  0.27585187693E+03  0.10566000000E+00 0.  1.
        994    1    1    2    0    0  0.34450817534E+02 -0.52957519768E+02  0.22041242892E+02  0.18381135470E+03  0.17120000000E+03 0.  0.
        998    1    1    2    0    0  0.59903251111E+00 -0.90504790261E+01  0.12114615434E+04  0.12115367684E+04  0.10000000000E+02 0.  0.
</event>
<event>
 5    1  0.1640179E-008  0.3827692E+03  0.7957747E-01  0.3439189E+00
         13   -1    0    0    0    0  0.00000000000E+00  0.00000000000E+00  0.14999999963E+04  0.15000000000E+04  0.10566000000E+00 0.  1.
        994   -1    0    0    0    0 -0.00000000000E+00 -0.00000000000E+00  0.11368683772E-12  0.17120000000E+03  0.17120000000E+03 0.  0.
         13    1    1    2    0    0  0.26201170053E+02 -0.17527768210E+02  0.17820569734E+03  0.18097238933E+03  0.10566000000E+00 0.  1.
        994    1    1    2    0    0 -0.10427172767E+02  0.20751380961E+02  0.45304294782E+01  0.17282740100E+03  0.17120000000E+03 0.  0.
        998    1    1    2    0    0 -0.15773997286E+02 -0.32236127508E+01  0.13172638695E+04  0.13174002097E+04  0.10000000000E+02 0.  1.
</event>
<event>
 5    1  0.1640179E-008  0.3835353E+03  0.7957747E-01  0.3435908E+00
         13   -1    0    0    0    0  0.00000000000E+00  0.00000000000E+00  0.14999999963E+04  0.15000000000E+04  0.10566000000E+00 0. -1.
        994   -1    0    0    0    0 -0.00000000000E+00 -0.00000000000E+00  0.11368683772E-12  0.17120000000E+03  0.17120000000E+03 0.  0.
         13    1    1    2    0    0  0.59517856910E+00 -0.14533745474E+02  0.43345934074E+02  0.45721604956E+02  0.10566000000E+00 0. -1.
        994    1    1    2    0    0 -0.42633809222E+01  0.13943675058E+02  0.30618887379E+01  0.17184707636E+03  0.17120000000E+03 0.  0.
        998    1    1    2    0    0  0.36682023531E+01  0.59007041573E+00  0.14535921735E+04  0.14536313187E+04  0.10000000000E+02 0. -1.
</event>
<event>
 5    1  0.1640179E-008  0.3810754E+03  0.7957747E-01  0.3446489E+00
         13   -1    0    0    0    0  0.00000000000E+00  0.00000000000E+00  0.14999999963E+04  0.15000000000E+04  0.10566000000E+00 0.  1.
        994   -1    0    0    0    0 -0.00000000000E+00 -0.00000000000E+00  0.11368683772E-12  0.17120000000E+03  0.17120000000E+03 0.  0.
         13    1    1    2    0    0 -0.22103123230E+02 -0.90583919249E+01  0.84600737522E+02  0.87908466452E+02  0.10566000000E+00 0.  1.
        994    1    1    2    0    0  0.20180706806E+01 -0.61450018149E+01  0.37306203249E+01  0.17136274737E+03  0.17120000000E+03 0.  0.
        998    1    1    2    0    0  0.20085052549E+02  0.15203393740E+02  0.14116686384E+04  0.14119287862E+04  0.10000000000E+02 0.  1.
</event>
<event>
 5    1  0.1640179E-008  0.3852106E+03  0.7957747E-01  0.3428779E+00
         13   -1    0    0    0    0  0.00000000000E+00  0.00000000000E+00  0.14999999963E+04  0.15000000000E+04  0.10566000000E+00 0. -1.
        994   -1    0    0    0    0 -0.00000000000E+00 -0.00000000000E+00  0.11368683772E-12  0.17120000000E+03  0.17120000000E+03 0.  0.
         13    1    1    2    0    0  0.96059244718E+01  0.72087593960E+01  0.48025724522E+02  0.49504761153E+02  0.10566000000E+00 0. -1.
        994    1    1    2    0    0 -0.68070154432E+01  0.58014533813E-01  0.16779113222E+01  0.17134349772E+03  0.17120000000E+03 0.  0.
        998    1    1    2    0    0 -0.27989090286E+01 -0.72667739298E+01  0.14502963604E+04  0.14503517411E+04  0.10000000000E+02 0. -1.
</event>
<event>
 5    1  0.1640179E-008  0.3807064E+03  0.7957747E-01  0.3448088E+00
         13   -1    0    0    0    0  0.00000000000E+00  0.00000000000E+00  0.14999999963E+04  0.15000000000E+04  0.10566000000E+00 0. -1.
        994   -1    0    0    0    0 -0.00000000000E+00 -0.00000000000E+00  0.11368683772E-12  0.17120000000E+03  0.17120000000E+03 0.  0.
         13    1    1    2    0    0  0.49882879948E+01  0.12476860903E+02  0.20479992516E+02  0.24494822568E+02  0.10566000000E+00 0. -1.
        994    1    1    2    0    0 -0.20551644941E+02 -0.35405771808E+02  0.93867334377E+01  0.17627674138E+03  0.17120000000E+03 0.  0.
        998    1    1    2    0    0  0.15563356946E+02  0.22928910905E+02  0.14701332703E+04  0.14704284361E+04  0.10000000000E+02 0. -1.
</event>
<event>
 5    1  0.1640179E-008  0.3828276E+03  0.7957747E-01  0.3438938E+00
         13   -1    0    0    0    0  0.00000000000E+00  0.00000000000E+00  0.14999999963E+04  0.15000000000E+04  0.10566000000E+00 0.  1.
        994   -1    0    0    0    0 -0.00000000000E+00 -0.00000000000E+00  0.11368683772E-12  0.17120000000E+03  0.17120000000E+03 0.  0.
         13    1    1    2    0    0 -0.16271122455E+02 -0.14836256606E+02  0.90685182905E+02  0.93320295212E+02  0.10566000000E+00 0.  1.
        994    1    1    2    0    0  0.20531917779E+01  0.12397631611E+02  0.32357428818E+01  0.17169107984E+03  0.17120000000E+03 0.  0.
        998    1    1    2    0    0  0.14217930677E+02  0.24386249944E+01  0.14060790705E+04  0.14061886249E+04  0.10000000000E+02 0.  1.
</event>
<event>
 5    1  0.1640179E-008  0.3833468E+03  0.7957747E-01  0.3436714E+00
         13   -1    0    0    0    0  0.00000000000E+00  0.00000000000E+00  0.14999999963E+04  0.15000000000E+04  0.10566000000E+00 0. -1.
        994   -1    0    0    0    0 -0.00000000000E+00 -0.00000000000E+00  0.11368683772E-12  0.17120000000E+03  0.17120000000E+03 0.  0.
         13    1    1    2    0    0 -0.10176832136E+02 -0.13466810645E+01  0.21648934781E+02  0.23959737131E+02  0.10566000000E+00 0. -1.
        994    1    1    2    0    0 -0.78203927794E+01 -0.13930110330E+01  0.26618173479E+01  0.17140485493E+03  0.17120000000E+03 0.  0.
        998    1    1    2    0    0  0.17997224916E+02  0.27396920976E+01  0.14756892441E+04  0.14758354079E+04  0.10000000000E+02 0. -1.
</event>
<event>
 5    1  0.1640179E-008  0.3820040E+03  0.7957747E-01  0.3442479E+00
         13   -1    0    0    0    0  0.00000000000E+00  0.00000000000E+00  0.14999999963E+04  0.15000000000E+04  0.10566000000E+00 0. -1.
        994   -1    0    0    0    0 -0.00000000000E+00 -0.00000000000E+00  0.11368683772E-12  0.17120000000E+03  0.17120000000E+03 0.  0.
         13    1    1    2    0    0  0.24545220146E+02 -0.15300961614E+02  0.14592988235E+03  0.14876870970E+03  0.10566000000E+00 0. -1.
        994    1    1    2    0    0 -0.49865114235E+01 -0.71790230714E-01  0.32075258213E+01  0.17130265226E+03  0.17120000000E+03 0.  0.
        998    1    1    2    0    0 -0.19558708722E+02  0.15372751845E+02  0.13508625881E+04  0.13511286380E+04  0.10000000000E+02 0. -1.
</event>
<event>
 5    1  0.1640179E-008  0.3824351E+03  0.7957747E-01  0.3440624E+00
         13   -1    0    0    0    0  0.00000000000E+00  0.00000000000E+00  0.14999999963E+04  0.15000000000E+04  0.10566000000E+00 0.  1.
        994   -1    0    0    0    0 -0.00000000000E+00 -0.00000000000E+00  0.11368683772E-12  0.17120000000E+03  0.17120000000E+03 0.  0.
         13    1    1    2    0    0  0.13068792651E+02  0.19158210645E+02  0.88284208627E+02  0.91279477614E+02  0.10566000000E+00 0.  1.
        994    1    1    2    0    0 -0.12303697664E+02 -0.16897782346E+02  0.43592158895E+01  0.17252640026E+03  0.17120000000E+03 0.  0.
        998    1    1    2    0    0 -0.76509498626E+00 -0.22604282996E+01  0.14073565718E+04  0.14073941221E+04  0.10000000000E+02 0.  1.
</event>
<event>
 5    1  0.1640179E-008  0.3843058E+03  0.7957747E-01  0.3432622E+00
         13   -1    0    0    0    0  0.00000000000E+00  0.00000000000E+00  0.14999999963E+04  0.15000000000E+04  0.10566000000E+00 0.  1.
        994   -1    0    0    0    0 -0.00000000000E+00 -0.00000000000E+00  0.11368683772E-12  0.17120000000E+03  0.17120000000E+03 0.  0.
         13    1    1    2    0    0 -0.16572291208E+02 -0.17008101837E+01  0.74800305312E+02  0.76633089655E+02  0.10566000000E+00 0.  1.
        994    1    1    2    0    0  0.12655629908E+01 -0.98459549690E+01  0.23000796936E+01  0.17150298786E+03  0.17120000000E+03 0.  0.
        998    1    1    2    0    0  0.15306728217E+02  0.11546765153E+02  0.14228996113E+04  0.14230639225E+04  0.10000000000E+02 0.  1.
</event>
<event>
 5    1  0.1640179E-008  0.3797512E+03  0.7957747E-01  0.3452243E+00
         13   -1    0    0    0    0  0.00000000000E+00  0.00000000000E+00  0.14999999963E+04  0.15000000000E+04  0.10566000000E+00 0. -1.
        994   -1    0    0    0    0 -0.00000000000E+00 -0.00000000000E+00  0.11368683772E-12  0.17120000000E+03  0.17120000000E+03 0.  0.
         13    1    1    2    0    0 -0.27213761727E+02  0.10746958142E+01  0.83744601531E+02  0.88061985260E+02  0.10566000000E+00 0. -1.
        994    1    1    2    0    0  0.20834217695E+02 -0.32458640364E+02  0.92519903776E+01  0.17573465022E+03  0.17120000000E+03 0.  0.
        998    1    1    2    0    0  0.63795440321E+01  0.31383944550E+02  0.14070034044E+04  0.14074033645E+04  0.10000000000E+02 0. -1.
</event>
<event>
 5    1  0.1640179E-008  0.3856495E+03  0.7957747E-01  0.3426922E+00
         13   -1    0    0    0    0  0.00000000000E+00  0.00000000000E+00  0.14999999963E+04  0.15000000000E+04  0.10566000000E+00 0. -1.
        994   -1    0    0    0    0 -0.00000000000E+00 -0.00000000000E+00  0.11368683772E-12  0.17120000000E+03  0.17120000000E+03 0.  0.
         13    1    1    2    0    0 -0.22383799444E+01  0.11376575408E+02  0.49702419890E+02  0.51037030867E+02  0.10566000000E+00 0. -1.
        994    1    1    2    0    0  0.16923717226E+01 -0.14224949062E+02  0.19817557025E+01  0.17180972223E+03  0.17120000000E+03 0.  0.
        998    1    1    2    0    0  0.54600822187E+00  0.28483736541E+01  0.14483158207E+04  0.14483532469E+04  0.10000000000E+02 0. -1.
</event>
<event>
 5    1  0.1640179E-008  0.3811300E+03  0.7957747E-01  0.3446253E+00
         13   -1    0    0    0    0  0.00000000000E+00  0.00000000000E+00  0.14999999963E+04  0.15000000000E+04  0.10566000000E+00 0.  1.
        994   -1    0    0    0    0 -0.00000000000E+00 -0.00000000000E+00  0.11368683772E-12  0.17120000000E+03  0.17120000000E+03 0.  0.
         13    1    1    2    0    0  0.26254024510E+02 -0.11211980102E+02  0.11533927451E+03  0.11881978669E+03  0.10566000000E+00 0.  1.
        994    1    1    2    0    0  0.17772354717E+01  0.44387067504E+02  0.10164172420E+02  0.17716128451E+03  0.17120000000E+03 0.  0.
        998    1    1    2    0    0 -0.28031259982E+02 -0.33175087401E+02  0.13744965494E+04  0.13752189288E+04  0.10000000000E+02 0.  1.
</event>
<event>
 5    1  0.1640179E-008  0.3832778E+03  0.7957747E-01  0.3437009E+00
         13   -1    0    0    0    0  0.00000000000E+00  0.00000000000E+00  0.14999999963E+04  0.15000000000E+04  0.10566000000E+00 0. -1.
        994   -1    0    0    0    0 -0.00000000000E+00 -0.00000000000E+00  0.11368683772E-12  0.17120000000E+03  0.17120000000E+03 0.  0.
         13    1    1    2    0    0  0.60935210049E+00  0.24330260431E+02  0.10528094535E+03  0.10805749164E+03  0.10566000000E+00 0. -1.
        994    1    1    2    0    0 -0.20742837803E+01 -0.32974619155E+02  0.61061353011E+01  0.17446590799E+03  0.17120000000E+03 0.  0.
        998    1    1    2    0    0  0.14649316799E+01  0.86443587235E+01  0.13886129156E+04  0.13886766004E+04  0.10000000000E+02 0. -1.
</event>
<event>
 5    1  0.1640179E-008  0.3790100E+03  0.7957747E-01  0.3455481E+00
         13   -1    0    0    0    0  0.00000000000E+00  0.00000000000E+00  0.14999999963E+04  0.15000000000E+04  0.10566000000E+00 0. -1.
        994   -1    0    0    0    0 -0.00000000000E+00 -0.00000000000E+00  0.11368683772E-12  0.17120000000E+03  0.17120000000E+03 0.  0.
         13    1    1    2    0    0  0.34546805216E+02  0.43355184265E+02  0.26797868521E+03  0.27365259115E+03  0.10566000000E+00 0. -1.
        994    1    1    2    0    0 -0.85888907924E+02 -0.12620572638E+02  0.30339403144E+02  0.19433502706E+03  0.17120000000E+03 0.  0.
        998    1    1    2    0    0  0.51342102707E+02 -0.30734611627E+02  0.12016819079E+04  0.12032123818E+04  0.10000000000E+02 0. -1.
</event>
<event>
 5    1  0.1640179E-008  0.3790410E+03  0.7957747E-01  0.3455345E+00
         13   -1    0    0    0    0  0.00000000000E+00  0.00000000000E+00  0.14999999963E+04  0.15000000000E+04  0.10566000000E+00 0.  1.
        994   -1    0    0    0    0 -0.00000000000E+00 -0.00000000000E+00  0.11368683772E-12  0.17120000000E+03  0.17120000000E+03 0.  0.
         13    1    1    2    0    0 -0.12021223175E+03  0.26491005679E+01  0.46951605055E+03  0.48466826932E+03  0.10566000000E+00 0.  1.
        994    1    1    2    0    0  0.19098961002E+03 -0.51776967745E+02  0.14964253248E+03  0.30143027892E+03  0.17120000000E+03 0.  0.
        998    1    1    2    0    0 -0.70777378267E+02  0.49127867177E+02  0.88084141325E+03  0.88510145176E+03  0.10000000000E+02 0.  1.
</event>
<event>
 5    1  0.1640179E-008  0.3756184E+03  0.7957747E-01  0.3470462E+00
         13   -1    0    0    0    0  0.00000000000E+00  0.00000000000E+00  0.14999999963E+04  0.15000000000E+04  0.10566000000E+00 0. -1.
        994   -1    0    0    0    0 -0.00000000000E+00 -0.00000000000E+00  0.11368683772E-12  0.17120000000E+03  0.17120000000E+03 0.  0.
         13    1    1    2    0    0 -0.23697323120E+02 -0.11093809789E+02  0.49889580435E+02  0.56334866102E+02  0.10566000000E+00 0. -1.
        994    1    1    2    0    0  0.19647803954E+02  0.19508402268E+02  0.89663544577E+01  0.17365612420E+03  0.17120000000E+03 0.  0.
        998    1    1    2    0    0  0.40495191657E+01 -0.84145924785E+01  0.14411440614E+04  0.14412090097E+04  0.10000000000E+02 0. -1.
</event>
<event>
 5    1  0.1640179E-008  0.3828084E+03  0.7957747E-01  0.3439021E+00
         13   -1    0    0    0    0  0.00000000000E+00  0.00000000000E+00  0.14999999963E+04  0.15000000000E+04  0.10566000000E+00 0. -1.
        994   -1    0    0    0    0 -0.00000000000E+00 -0.00000000000E+00  0.11368683772E-12  0.17120000000E+03  0.17120000000E+03 0.  0.
         13    1    1    2    0    0  0.56253186893E+01  0.11429397048E+02  0.26514448835E+02  0.29416024345E+02  0.10566000000E+00 0. -1.
        994    1    1    2    0    0 -0.27454912900E+02 -0.23874287455E+02  0.71190786214E+01  0.17516813387E+03  0.17120000000E+03 0.  0.
        998    1    1    2    0    0  0.21829594211E+02  0.12444890407E+02  0.14663664688E+04  0.14666158418E+04  0.10000000000E+02 0. -1.
</event>
<event>
 5    1  0.1640179E-008  0.3836796E+03  0.7957747E-01  0.3435292E+00
         13   -1    0    0    0    0  0.00000000000E+00  0.00000000000E+00  0.14999999963E+04  0.15000000000E+04  0.10566000000E+00 0. -1.
        994   -1    0    0    0    0 -0.00000000000E+00 -0.00000000000E+00  0.11368683772E-12  0.17120000000E+03  0.17120000000E+03 0.  0.
         13    1    1    2    0    0 -0.21055306665E+02 -0.28089979614E+02  0.20570089789E+03  0.20867497083E+03  0.10566000000E+00 0. -1.
        994    1    1    2    0    0  0.29472837636E+02  0.39134353668E+02  0.10254990708E+02  0.17836689892E+03  0.17120000000E+03 0.  0.
        998    1    1    2    0    0 -0.84175309706E+01 -0.11044374054E+02  0.12840441077E+04  0.12841581303E+04  0.10000000000E+02 0. -1.
</event>
<event>
 5    1  0.2601984E-008  0.3848057E+03  0.7957747E-01  0.3430496E+00
         13   -1    0    0    0    0  0.00000000000E+00  0.00000000000E+00  0.14999999963E+04  0.15000000000E+04  0.10566000000E+00 0. -1.
        994   -1    0    0    0    0 -0.00000000000E+00 -0.00000000000E+00  0.11368683772E-12  0.17120000000E+03  0.17120000000E+03 0.  0.
         13    1    1    2    0    0 -0.72726087708E+01  0.71125020293E+01  0.29164062119E+02  0.30887411785E+02  0.10566000000E+00 0. -1.
        994    1    1    2    0    0  0.70322837699E+01 -0.83163470399E+01  0.21170359177E+01  0.17155913407E+03  0.17120000000E+03 0.  0.
        998    1    1    2    0    0  0.24032500084E+00  0.12038450106E+01  0.14687188982E+04  0.14687534541E+04  0.10000000000E+02 0. -1.
</event>
<event>
 5    1  0.1640179E-008  0.3600654E+03  0.7957747E-01  0.3542833E+00
         13   -1    0    0    0    0  0.00000000000E+00  0.00000000000E+00  0.14999999963E+04  0.15000000000E+04  0.10566000000E+00 0.  1.
        994   -1    0    0    0    0 -0.00000000000E+00 -0.00000000000E+00  0.11368683772E-12  0.17120000000E+03  0.17120000000E+03 0.  0.
         13    1    1    2    0    0 -0.71866209813E+02 -0.27238902655E+03  0.87121631480E+03  0.91563006298E+03  0.10566000000E+00 0.  1.
        994    1    1    2    0    0  0.68416065010E+02  0.28145694596E+03  0.38466188990E+03  0.51105085845E+03  0.17120000000E+03 0.  0.
        998    1    1    2    0    0  0.34501448033E+01 -0.90679194136E+01  0.24412179157E+03  0.24451907857E+03  0.10000000000E+02 0. -1.
</event>
<event>
 5    1  0.1640179E-008  0.3825968E+03  0.7957747E-01  0.3439929E+00
         13   -1    0    0    0    0  0.00000000000E+00  0.00000000000E+00  0.14999999963E+04  0.15000000000E+04  0.10566000000E+00 0. -1.
        994   -1    0    0    0    0 -0.00000000000E+00 -0.00000000000E+00  0.11368683772E-12  0.17120000000E+03  0.17120000000E+03 0.  0.
         13    1    1    2    0    0  0.21118989075E+01  0.21903429785E+02  0.88467348639E+02  0.91163058816E+02  0.10566000000E+00 0. -1.
        994    1    1    2    0    0  0.50398741638E+01 -0.68882434802E+01  0.30694995620E+01  0.17144010633E+03  0.17120000000E+03 0.  0.
        998    1    1    2    0    0 -0.71517730713E+01 -0.15015186305E+02  0.14084631481E+04  0.14085968349E+04  0.10000000000E+02 0. -1.
</event>
<event>
 5    1  0.1640179E-008  0.3847245E+03  0.7957747E-01  0.3430842E+00
         13   -1    0    0    0    0  0.00000000000E+00  0.00000000000E+00  0.14999999963E+04  0.15000000000E+04  0.10566000000E+00 0.  1.
        994   -1    0    0    0    0 -0.00000000000E+00 -0.00000000000E+00  0.11368683772E-12  0.17120000000E+03  0.17120000000E+03 0.  0.
         13    1    1    2    0    0  0.12838086006E+02 -0.71718084776E+01  0.63664327008E+02  0.65340714616E+02  0.10566000000E+00 0.  1.
        994    1    1    2    0    0  0.33367874405E+00  0.64390573760E+01  0.19038512193E+01  0.17133195105E+03  0.17120000000E+03 0.  0.
        998    1    1    2    0    0 -0.13171764750E+02  0.73275110155E+00  0.14344318181E+04  0.14345273343E+04  0.10000000000E+02 0.  1.
</event>
<event>
 5    1  0.1640179E-008  0.3737273E+03  0.7957747E-01  0.3478935E+00
         13   -1    0    0    0    0  0.00000000000E+00  0.00000000000E+00  0.14999999963E+04  0.15000000000E+04  0.10566000000E+00 0. -1.
        994   -1    0    0    0    0 -0.00000000000E+00 -0.00000000000E+00  0.11368683772E-12  0.17120000000E+03  0.17120000000E+03 0.  0.
         13    1    1    2    0    0  0.94242426690E+01 -0.35423010793E+02  0.90397630499E+02  0.97546649391E+02  0.10566000000E+00 0. -1.
        994    1    1    2    0    0 -0.29047871697E+01  0.18602638596E+02  0.85448826266E+01  0.17244405171E+03  0.17120000000E+03 0.  0.
        998    1    1    2    0    0 -0.65194554993E+01  0.16820372197E+02  0.14010574832E+04  0.14012092989E+04  0.10000000000E+02 0. -1.
</event>
<event>
 5    1  0.1640179E-008  0.3730229E+03  0.7957747E-01  0.3482112E+00
         13   -1    0    0    0    0  0.00000000000E+00  0.00000000000E+00  0.14999999963E+04  0.15000000000E+04  0.10566000000E+00 0. -1.
        994   -1    0    0    0    0 -0.00000000000E+00 -0.00000000000E+00  0.11368683772E-12  0.17120000000E+03  0.17120000000E+03 0.  0.
         13    1    1    2    0    0 -0.61039866261E+02 -0.73846631418E+01  0.22082809380E+03  0.22922795793E+03  0.10566000000E+00 0. -1.
        994    1    1    2    0    0  0.60301442234E+02 -0.44975579694E+02  0.27318073160E+02  0.18898355438E+03  0.17120000000E+03 0.  0.
        998    1    1    2    0    0  0.73842402620E+00  0.52360242836E+02  0.12518538293E+04  0.12529884877E+04  0.10000000000E+02 0. -1.
</event>
<event>
 5    1  0.1640179E-008  0.3853540E+03  0.7957747E-01  0.3428172E+00
         13   -1    0    0    0    0  0.00000000000E+00  0.00000000000E+00  0.14999999963E+04  0.15000000000E+04  0.10566000000E+00 0. -1.
        994   -1    0    0    0    0 -0.00000000000E+00 -0.00000000000E+00  0.11368683772E-12  0.17120000000E+03  0.17120000000E+03 0.  0.
         13    1    1    2    0    0  0.13876873795E+02 -0.82951619433E+01  0.87168047392E+02  0.88654706520E+02  0.10566000000E+00 0. -1.
        994    1    1    2    0    0 -0.12187978679E+02  0.85851117860E+01  0.21849010887E+01  0.17186176061E+03  0.17120000000E+03 0.  0.
        998    1    1    2    0    0 -0.16888951162E+01 -0.28994984267E+00  0.14106470478E+04  0.14106835329E+04  0.10000000000E+02 0. -1.
</event>
<event>
 5    1  0.1640179E-008  0.3845955E+03  0.7957747E-01  0.3431390E+00
         13   -1    0    0    0    0  0.00000000000E+00  0.00000000000E+00  0.14999999963E+04  0.15000000000E+04  0.10566000000E+00 0.  1.
        994   -1    0    0    0    0 -0.00000000000E+00 -0.00000000000E+00  0.11368683772E-12  0.17120000000E+03  0.17120000000E+03 0.  0.
         13    1    1    2    0    0 -0.62098292633E+01 -0.10195331261E+02  0.38511372421E+02  0.40319272424E+02  0.10566000000E+00 0.  1.
        994    1    1    2    0    0  0.38482448094E+01  0.76829079369E+01  0.20742864261E+01  0.17142805700E+03  0.17120000000E+03 0.  0.
        998    1    1    2    0    0  0.23615844539E+01  0.25124233243E+01  0.14594143374E+04  0.14594526706E+04  0.10000000000E+02 0.  1.
</event>
<event>
 5    1  0.1640179E-008  0.3775951E+03  0.7957747E-01  0.3461697E+00
         13   -1    0    0    0    0  0.00000000000E+00  0.00000000000E+00  0.14999999963E+04  0.15000000000E+04  0.10566000000E+00 0. -1.
        994   -1    0    0    0    0 -0.00000000000E+00 -0.00000000000E+00  0.11368683772E-12  0.17120000000E+03  0.17120000000E+03 0.  0.
         13    1    1    2    0    0  0.39180004764E+02 -0.39069619952E+02  0.97352848577E+02  0.11197810619E+03  0.10566000000E+00 0. -1.
        994    1    1    2    0    0 -0.21722676772E+02  0.27885701361E+02  0.19513647850E+02  0.17589687171E+03  0.17120000000E+03 0.  0.
        998    1    1    2    0    0 -0.17457327991E+02  0.11183918591E+02  0.13831334999E+04  0.13833250221E+04  0.10000000000E+02 0. -1.
</event>
<event>
 5    1  0.1640179E-008  0.3750084E+03  0.7957747E-01  0.3473185E+00
         13   -1    0    0    0    0  0.00000000000E+00  0.00000000000E+00  0.14999999963E+04  0.15000000000E+04  0.10566000000E+00 0. -1.
        994   -1    0    0    0    0 -0.00000000000E+00 -0.00000000000E+00  0.11368683772E-12  0.17120000000E+03  0.17120000000E+03 0.  0.
         13    1    1    2    0    0  0.91587827471E+01  0.29300229616E+02  0.64229896025E+02  0.71189026292E+02  0.10566000000E+00 0. -1.
        994    1    1    2    0    0 -0.61712650047E+01 -0.36138568355E+02  0.11256738966E+02  0.17544296739E+03  0.17120000000E+03 0.  0.
        998    1    1    2    0    0 -0.29875177424E+01  0.68383387399E+01  0.14245133613E+04  0.14245680063E+04  0.10000000000E+02 0. -1.
</event>
<event>
 5    1  0.1640179E-008  0.3861531E+03  0.7957747E-01  0.3424796E+00
         13   -1    0    0    0    0  0.00000000000E+00  0.00000000000E+00  0.14999999963E+04  0.15000000000E+04  0.10566000000E+00 0. -1.
        994   -1    0    0    0    0 -0.00000000000E+00 -0.00000000000E+00  0.11368683772E-12  0.17120000000E+03  0.17120000000E+03 0.  0.
         13    1    1    2    0    0  0.59270745911E+01  0.97925352476E+01  0.58574454856E+02  0.59682509041E+02  0.10566000000E+00 0. -1.
        994    1    1    2    0    0 -0.12911509935E+02 -0.12248583791E+02  0.20971629272E+01  0.17213533335E+03  0.17120000000E+03 0.  0.
        998    1    1    2    0    0  0.69844353438E+01  0.24560485437E+01  0.14393283785E+04  0.14393821576E+04  0.10000000000E+02 0. -1.
</event>
<event>
 5    1  0.1640179E-008  0.3710425E+03  0.7957747E-01  0.3491113E+00
         13   -1    0    0    0    0  0.00000000000E+00  0.00000000000E+00  0.14999999963E+04  0.15000000000E+04  0.10566000000E+00 0.  1.
        994   -1    0    0    0    0 -0.00000000000E+00 -0.00000000000E+00  0.11368683772E-12  0.17120000000E+03  0.17120000000E+03 0.  0.
         13    1    1    2    0    0  0.41604590790E+02 -0.78194581237E+02  0.32222178808E+03  0.33417394631E+03  0.10566000000E+00 0.  1.
        994    1    1    2    0    0 -0.52116972260E+02  0.84466645928E+02  0.43469957701E+02  0.20260767580E+03  0.17120000000E+03 0.  0.
        998    1    1    2    0    0  0.10512381469E+02 -0.62720646910E+01  0.11343082505E+04  0.11344183779E+04  0.10000000000E+02 0.  1.
</event>
<event>
 5    1  0.1640179E-008  0.3848530E+03  0.7957747E-01  0.3430296E+00
         13   -1    0    0    0    0  0.00000000000E+00  0.00000000000E+00  0.14999999963E+04  0.15000000000E+04  0.10566000000E+00 0.  1.
        994   -1    0    0    0    0 -0.00000000000E+00 -0.00000000000E+00  0.11368683772E-12  0.17120000000E+03  0.17120000000E+03 0.  0.
         13    1    1    2    0    0 -0.10741552857E+02 -0.10626728514E+02  0.70465480575E+02  0.72067353451E+02  0.10566000000E+00 0.  1.
        994    1    1    2    0    0  0.28990049954E+01  0.64287608105E-01  0.17307949684E+01  0.17123330288E+03  0.17120000000E+03 0.  0.
        998    1    1    2    0    0  0.78425478617E+01  0.10562440906E+02  0.14278037207E+04  0.14278993437E+04  0.10000000000E+02 0.  1.
</event>
<event>
 5    1  0.1640179E-008  0.4049411E+03  0.7957747E-01  0.3349266E+00
         13   -1    0    0    0    0  0.00000000000E+00  0.00000000000E+00  0.14999999963E+04  0.15000000000E+04  0.10566000000E+00 0.  1.
        994   -1    0    0    0    0 -0.00000000000E+00 -0.00000000000E+00  0.11368683772E-12  0.17120000000E+03  0.17120000000E+03 0.  0.
         13    1    1    2    0    0  0.27008247468E+02 -0.58597019175E+02  0.57916769981E+02  0.86703053560E+02  0.10566000000E+00 0.  1.
        994    1    1    2    0    0 -0.35093996911E+02  0.35126800492E+02  0.40679910895E+02  0.18283811387E+03  0.17120000000E+03 0.  0.
        998    1    1    2    0    0  0.80857494430E+01  0.23470218683E+02  0.14014033154E+04  0.14016588326E+04  0.10000000000E+02 0.  1.
</event>
<event>
 5    1  0.1640179E-008  0.3778482E+03  0.7957747E-01  0.3460582E+00
         13   -1    0    0    0    0  0.00000000000E+00  0.00000000000E+00  0.14999999963E+04  0.15000000000E+04  0.10566000000E+00 0. -1.
        994   -1    0    0    0    0 -0.00000000000E+00 -0.00000000000E+00  0.11368683772E-12  0.17120000000E+03  0.17120000000E+03 0.  0.
         13    1    1    2    0    0  0.26121834571E+02  0.16411888778E+03  0.91664227913E+03  0.93158490682E+03  0.10566000000E+00 0. -1.
        994    1    1    2    0    0 -0.38105472734E+02 -0.16078665941E+03  0.10346774033E+03  0.25945980457E+03  0.17120000000E+03 0.  0.
        998    1    1    2    0    0  0.11983638163E+02 -0.33322283684E+01  0.47988997682E+03  0.48015528861E+03  0.10000000000E+02 0.  1.
</event>
<event>
 5    1  0.1640179E-008  0.3795071E+03  0.7957747E-01  0.3453307E+00
         13   -1    0    0    0    0  0.00000000000E+00  0.00000000000E+00  0.14999999963E+04  0.15000000000E+04  0.10566000000E+00 0.  1.
        994   -1    0    0    0    0 -0.00000000000E+00 -0.00000000000E+00  0.11368683772E-12  0.17120000000E+03  0.17120000000E+03 0.  0.
         13    1    1    2    0    0  0.82823791031E+01  0.39520655050E+02  0.16509739531E+03  0.16996364636E+03  0.10566000000E+00 0.  1.
        994    1    1    2    0    0 -0.12770402808E+02 -0.39213298553E+02  0.10098067684E+02  0.17638644206E+03  0.17120000000E+03 0.  0.
        998    1    1    2    0    0  0.44880237045E+01 -0.30735649653E+00  0.13248045333E+04  0.13248499116E+04  0.10000000000E+02 0.  1.
</event>
<event>
 5    1  0.1640179E-008  0.3850173E+03  0.7957747E-01  0.3429599E+00
         13   -1    0    0    0    0  0.00000000000E+00  0.00000000000E+00  0.14999999963E+04  0.15000000000E+04  0.10566000000E+00 0. -1.
        994   -1    0    0    0    0 -0.00000000000E+00 -0.00000000000E+00  0.11368683772E-12  0.17120000000E+03  0.17120000000E+03 0.  0.
         13    1    1    2    0    0 -0.10934721856E+02  0.12667719559E+02  0.82867493724E+02  0.84540356878E+02  0.10566000000E+00 0. -1.
        994    1    1    2    0    0  0.25041361157E+02 -0.11193028416E+01  0.36904744513E+01  0.17306467638E+03  0.17120000000E+03 0.  0.
        998    1    1    2    0    0 -0.14106639301E+02 -0.11548416717E+02  0.14134420281E+04  0.14135949667E+04  0.10000000000E+02 0. -1.
</event>
<event>
 5    1  0.1640179E-008  0.3851604E+03  0.7957747E-01  0.3428992E+00
         13   -1    0    0    0    0  0.00000000000E+00  0.00000000000E+00  0.14999999963E+04  0.15000000000E+04  0.10566000000E+00 0. -1.
        994   -1    0    0    0    0 -0.00000000000E+00 -0.00000000000E+00  0.11368683772E-12  0.17120000000E+03  0.17120000000E+03 0.  0.
         13    1    1    2    0    0 -0.15058886921E+02  0.79194077973E+01  0.95742023746E+02  0.97242137832E+02  0.10566000000E+00 0. -1.
        994    1    1    2    0    0  0.79239039551E+01 -0.20713526984E+01  0.17710470515E+01  0.17140494556E+03  0.17120000000E+03 0.  0.
        998    1    1    2    0    0  0.71349829655E+01 -0.58480550990E+01  0.14024869255E+04  0.14025529166E+04  0.10000000000E+02 0. -1.
</event>
<event>
 5    1  0.1640179E-008  0.3807095E+03  0.7957747E-01  0.3448075E+00
         13   -1    0    0    0    0  0.00000000000E+00  0.00000000000E+00  0.14999999963E+04  0.15000000000E+04  0.10566000000E+00 0.  1.
        994   -1    0    0    0    0 -0.00000000000E+00 -0.00000000000E+00  0.11368683772E-12  0.17120000000E+03  0.17120000000E+03 0.  0.
         13    1    1    2    0    0 -0.35091432776E+01  0.25060427612E+02  0.10296338602E+03  0.10602739808E+03  0.10566000000E+00 0.  1.
        994    1    1    2    0    0 -0.59196504677E+01  0.21145579798E+02  0.53851731321E+01  0.17268647282E+03  0.17120000000E+03 0.  0.
        998    1    1    2    0    0  0.94287937453E+01 -0.46206007410E+02  0.13916514371E+04  0.13924861291E+04  0.10000000000E+02 0.  1.
</event>
<event>
 5    1  0.1640179E-008  0.3737278E+03  0.7957747E-01  0.3478932E+00
         13   -1    0    0    0    0  0.00000000000E+00  0.00000000000E+00  0.14999999963E+04  0.15000000000E+04  0.10566000000E+00 0.  1.
        994   -1    0    0    0    0 -0.00000000000E+00 -0.00000000000E+00  0.11368683772E-12  0.17120000000E+03  0.17120000000E+03 0.  0.
         13    1    1    2    0    0 -0.16164709169E+02 -0.39726319228E+02  0.10649602568E+03  0.11480806989E+03  0.10566000000E+00 0.  1.
        994    1    1    2    0    0  0.42909854984E+02  0.47790147710E+02  0.21549585309E+02  0.18411675236E+03  0.17120000000E+03 0.  0.
        998    1    1    2    0    0 -0.26745145814E+02 -0.80638284825E+01  0.13719543853E+04  0.13722751778E+04  0.10000000000E+02 0.  1.
</event>
<event>
 5    1  0.1885486E-008  0.3856748E+03  0.7957747E-01  0.3426815E+00
         13   -1    0    0    0    0  0.00000000000E+00  0.00000000000E+00  0.14999999963E+04  0.15000000000E+04  0.10566000000E+00 0. -1.
        994   -1    0    0    0    0 -0.00000000000E+00 -0.00000000000E+00  0.11368683772E-12  0.17120000000E+03  0.17120000000E+03 0.  0.
         13    1    1    2    0    0 -0.14293942432E+01 -0.10602042528E+02  0.45841997707E+02  0.47073839779E+02  0.10566000000E+00 0. -1.
        994    1    1    2    0    0 -0.38490465119E+00  0.21222835789E+01  0.13107355437E+01  0.17121860374E+03  0.17120000000E+03 0.  0.
        998    1    1    2    0    0  0.18142988944E+01  0.84797589493E+01  0.14528472630E+04  0.14529075565E+04  0.10000000000E+02 0. -1.
</event>
<event>
 5    1  0.1640179E-008  0.3754829E+03  0.7957747E-01  0.3471066E+00
         13   -1    0    0    0    0  0.00000000000E+00  0.00000000000E+00  0.14999999963E+04  0.15000000000E+04  0.10566000000E+00 0.  1.
        994   -1    0    0    0    0 -0.00000000000E+00 -0.00000000000E+00  0.11368683772E-12  0.17120000000E+03  0.17120000000E+03 0.  0.
         13    1    1    2    0    0  0.10128292197E+02 -0.63291696583E+01  0.81037151150E+01  0.14433366000E+02  0.10566000000E+00 0.  1.
        994    1    1    2    0    0 -0.16063177618E+01  0.20098874825E+02  0.78118431440E+01  0.17256016319E+03  0.17120000000E+03 0.  0.
        998    1    1    2    0    0 -0.85219744356E+01 -0.13769705167E+02  0.14840844380E+04  0.14842064708E+04  0.10000000000E+02 0.  1.
</event>
<event>
 5    1  0.1640179E-008  0.4037046E+03  0.7957747E-01  0.3354021E+00
         13   -1    0    0    0    0  0.00000000000E+00  0.00000000000E+00  0.14999999963E+04  0.15000000000E+04  0.10566000000E+00 0.  1.
        994   -1    0    0    0    0 -0.00000000000E+00 -0.00000000000E+00  0.11368683772E-12  0.17120000000E+03  0.17120000000E+03 0.  0.
         13    1    1    2    0    0 -0.38659169382E+02  0.10576558521E+03  0.15976984555E+03  0.19546689005E+03  0.10566000000E+00 0.  1.
        994    1    1    2    0    0 -0.29587373572E+01 -0.14967403046E+03  0.12607324865E+03  0.26002879369E+03  0.17120000000E+03 0.  0.
        998    1    1    2    0    0  0.41617906739E+02  0.43908445247E+02  0.12141569021E+04  0.12157043163E+04  0.10000000000E+02 0.  1.
</event>
<event>
 5    1  0.1640179E-008  0.3843222E+03  0.7957747E-01  0.3432552E+00
         13   -1    0    0    0    0  0.00000000000E+00  0.00000000000E+00  0.14999999963E+04  0.15000000000E+04  0.10566000000E+00 0. -1.
        994   -1    0    0    0    0 -0.00000000000E+00 -0.00000000000E+00  0.11368683772E-12  0.17120000000E+03  0.17120000000E+03 0.  0.
         13    1    1    2    0    0  0.42688360074E+01  0.10197018665E+02  0.31219927095E+02  0.33119437833E+02  0.10566000000E+00 0. -1.
        994    1    1    2    0    0  0.42404082932E+01 -0.46007331215E+01  0.20960744004E+01  0.17132711792E+03  0.17120000000E+03 0.  0.
        998    1    1    2    0    0 -0.85092443006E+01 -0.55962855431E+01  0.14666839948E+04  0.14667534442E+04  0.10000000000E+02 0. -1.
</event>
<event>
 5    1  0.1640179E-008  0.3770942E+03  0.7957747E-01  0.3463910E+00
         13   -1    0    0    0    0  0.00000000000E+00  0.00000000000E+00  0.14999999963E+04  0.15000000000E+04  0.10566000000E+00 0. -1.
        994   -1    0    0    0    0 -0.00000000000E+00 -0.00000000000E+00  0.11368683772E-12  0.17120000000E+03  0.17120000000E+03 0.  0.
         13    1    1    2    0    0 -0.10050044489E+03 -0.83333862612E+02  0.63352302479E+03  0.64683560986E+03  0.10566000000E+00 0. -1.
        994    1    1    2    0    0  0.11411573370E+03  0.95509287005E+02  0.84426234868E+02  0.24203647187E+03  0.17120000000E+03 0.  0.
        998    1    1    2    0    0 -0.13615288813E+02 -0.12175424393E+02  0.78205073662E+03  0.78232791826E+03  0.10000000000E+02 0.  1.
</event>
<event>
 5    1  0.1640179E-008  0.3739927E+03  0.7957747E-01  0.3477740E+00
         13   -1    0    0    0    0  0.00000000000E+00  0.00000000000E+00  0.14999999963E+04  0.15000000000E+04  0.10566000000E+00 0. -1.
        994   -1    0    0    0    0 -0.00000000000E+00 -0.00000000000E+00  0.11368683772E-12  0.17120000000E+03  0.17120000000E+03 0.  0.
         13    1    1    2    0    0  0.54867857738E+02 -0.59351838343E+02  0.39663412458E+03  0.40478607001E+03  0.10566000000E+00 0. -1.
        994    1    1    2    0    0 -0.40798139592E+02  0.45859473933E+02  0.20158096000E+02  0.18298461241E+03  0.17120000000E+03 0.  0.
        998    1    1    2    0    0 -0.14069718146E+02  0.13492364410E+02  0.10832077757E+04  0.10834293176E+04  0.10000000000E+02 0. -1.
</event>
<event>
 5    1  0.1640179E-008  0.3849467E+03  0.7957747E-01  0.3429898E+00
         13   -1    0    0    0    0  0.00000000000E+00  0.00000000000E+00  0.14999999963E+04  0.15000000000E+04  0.10566000000E+00 0.  1.
        994   -1    0    0    0    0 -0.00000000000E+00 -0.00000000000E+00  0.11368683772E-12  0.17120000000E+03  0.17120000000E+03 0.  0.
         13    1    1    2    0    0 -0.67128985276E+01 -0.90737061716E+01  0.38121794168E+02  0.39757735159E+02  0.10566000000E+00 0.  1.
        994    1    1    2    0    0  0.48964387245E+01  0.69327082555E+01  0.18936036939E+01  0.17142072013E+03  0.17120000000E+03 0.  0.
        998    1    1    2    0    0  0.18164598030E+01  0.21409979161E+01  0.14599845984E+04  0.14600215447E+04  0.10000000000E+02 0.  1.
</event>
<event>
 5    1  0.1640179E-008  0.3821061E+03  0.7957747E-01  0.3442039E+00
         13   -1    0    0    0    0  0.00000000000E+00  0.00000000000E+00  0.14999999963E+04  0.15000000000E+04  0.10566000000E+00 0. -1.
        994   -1    0    0    0    0 -0.00000000000E+00 -0.00000000000E+00  0.11368683772E-12  0.17120000000E+03  0.17120000000E+03 0.  0.
         13    1    1    2    0    0  0.64503169033E+01 -0.27337336683E+02  0.15634211965E+02  0.32146171045E+02  0.10566000000E+00 0. -1.
        994    1    1    2    0    0 -0.14869834465E+02  0.76240232083E+01  0.18509360547E+02  0.17300657252E+03  0.17120000000E+03 0.  0.
        998    1    1    2    0    0  0.84195175619E+01  0.19713313475E+02  0.14658564238E+04  0.14660472564E+04  0.10000000000E+02 0. -1.
</event>
<event>
 5    1  0.1640179E-008  0.3859886E+03  0.7957747E-01  0.3425490E+00
         13   -1    0    0    0    0  0.00000000000E+00  0.00000000000E+00  0.14999999963E+04  0.15000000000E+04  0.10566000000E+00 0. -1.
        994   -1    0    0    0    0 -0.00000000000E+00 -0.00000000000E+00  0.11368683772E-12  0.17120000000E+03  0.17120000000E+03 0.  0.
         13    1    1    2    0    0 -0.11135069703E+02 -0.11454178159E+00  0.51385366879E+02  0.52578227342E+02  0.10566000000E+00 0. -1.
        994    1    1    2    0    0  0.17855693647E+02 -0.34560141587E+01  0.22251474444E+01  0.17217770213E+03  0.17120000000E+03 0.  0.
        998    1    1    2    0    0 -0.67206239442E+01  0.35705559403E+01  0.14463894820E+04  0.14464440705E+04  0.10000000000E+02 0. -1.
</event>
<event>
 5    1  0.1640179E-008  0.3811998E+03  0.7957747E-01  0.3445951E+00
         13   -1    0    0    0    0  0.00000000000E+00  0.00000000000E+00  0.14999999963E+04  0.15000000000E+04  0.10566000000E+00 0.  1.
        994   -1    0    0    0    0 -0.00000000000E+00 -0.00000000000E+00  0.11368683772E-12  0.17120000000E+03  0.17120000000E+03 0.  0.
         13    1    1    2    0    0  0.92005983462E+01  0.10564238119E+02  0.26085185173E+02  0.29609157140E+02  0.10566000000E+00 0.  1.
        994    1    1    2    0    0 -0.94782027564E+01 -0.10136332374E+02  0.41702182908E+01  0.17181214242E+03  0.17120000000E+03 0.  0.
        998    1    1    2    0    0  0.27760441019E+00 -0.42790574490E+00  0.14697445928E+04  0.14697787004E+04  0.10000000000E+02 0.  0.
</event>
<event>
 5    1  0.1640179E-008  0.3685549E+03  0.7957747E-01  0.3502559E+00
         13   -1    0    0    0    0  0.00000000000E+00  0.00000000000E+00  0.14999999963E+04  0.15000000000E+04  0.10566000000E+00 0. -1.
        994   -1    0    0    0    0 -0.00000000000E+00 -0.00000000000E+00  0.11368683772E-12  0.17120000000E+03  0.17120000000E+03 0.  0.
         13    1    1    2    0    0 -0.67829342117E+02 -0.11130780237E+03  0.51085503831E+03  0.52722208589E+03  0.10566000000E+00 0. -1.
        994    1    1    2    0    0  0.63745210718E+02  0.11653115271E+03  0.74322714230E+02  0.22907698988E+03  0.17120000000E+03 0.  0.
        998    1    1    2    0    0  0.40841313984E+01 -0.52233503348E+01  0.91482224374E+03  0.91490092423E+03  0.10000000000E+02 0. -1.
</event>
<event>
 5    1  0.1640179E-008  0.3803159E+03  0.7957747E-01  0.3449784E+00
         13   -1    0    0    0    0  0.00000000000E+00  0.00000000000E+00  0.14999999963E+04  0.15000000000E+04  0.10566000000E+00 0. -1.
        994   -1    0    0    0    0 -0.00000000000E+00 -0.00000000000E+00  0.11368683772E-12  0.17120000000E+03  0.17120000000E+03 0.  0.
         13    1    1    2    0    0  0.60344457251E+01 -0.26324854138E+02  0.78026792938E+02  0.82568783815E+02  0.10566000000E+00 0. -1.
        994    1    1    2    0    0  0.84576265498E+02  0.74739376310E+02  0.47758615672E+02  0.21054558753E+03  0.17120000000E+03 0.  0.
        998    1    1    2    0    0 -0.90610711223E+02 -0.48414522172E+02  0.13742145877E+04  0.13780856287E+04  0.10000000000E+02 0. -1.
</event>
<event>
 5    1  0.1640179E-008  0.3819196E+03  0.7957747E-01  0.3442842E+00
         13   -1    0    0    0    0  0.00000000000E+00  0.00000000000E+00  0.14999999963E+04  0.15000000000E+04  0.10566000000E+00 0. -1.
        994   -1    0    0    0    0 -0.00000000000E+00 -0.00000000000E+00  0.11368683772E-12  0.17120000000E+03  0.17120000000E+03 0.  0.
         13    1    1    2    0    0 -0.86280450749E+01  0.22606186723E+02  0.84915923945E+02  0.88296138893E+02  0.10566000000E+00 0. -1.
        994    1    1    2    0    0  0.15558414113E+02 -0.25079034670E+02  0.60660315839E+01  0.17383112198E+03  0.17120000000E+03 0.  0.
        998    1    1    2    0    0 -0.69303690379E+01  0.24728479470E+01  0.14090180407E+04  0.14090727391E+04  0.10000000000E+02 0. -1.
</event>
<event>
 5    1  0.1640179E-008  0.3816528E+03  0.7957747E-01  0.3443993E+00
         13   -1    0    0    0    0  0.00000000000E+00  0.00000000000E+00  0.14999999963E+04  0.15000000000E+04  0.10566000000E+00 0. -1.
        994   -1    0    0    0    0 -0.00000000000E+00 -0.00000000000E+00  0.11368683772E-12  0.17120000000E+03  0.17120000000E+03 0.  0.
         13    1    1    2    0    0 -0.28251861692E+02 -0.24632947781E+02  0.19448017482E+03  0.19805933295E+03  0.10566000000E+00 0. -1.
        994    1    1    2    0    0  0.26090722759E+02  0.19389694004E+02  0.68223241329E+01  0.17439228812E+03  0.17120000000E+03 0.  0.
        998    1    1    2    0    0  0.21611389327E+01  0.52432537772E+01  0.12986974973E+04  0.12987483789E+04  0.10000000000E+02 0.  0.
</event>
<event>
 5    1  0.1640179E-008  0.3827819E+03  0.7957747E-01  0.3439134E+00
         13   -1    0    0    0    0  0.00000000000E+00  0.00000000000E+00  0.14999999963E+04  0.15000000000E+04  0.10566000000E+00 0.  1.
        994   -1    0    0    0    0 -0.00000000000E+00 -0.00000000000E+00  0.11368683772E-12  0.17120000000E+03  0.17120000000E+03 0.  0.
         13    1    1    2    0    0 -0.87456896862E+01  0.60247684154E+01  0.20228767027E+02  0.22847299666E+02  0.10566000000E+00 0.  1.
        994    1    1    2    0    0 -0.21035422637E+00  0.53427866074E+01  0.28301366649E+01  0.17130685710E+03  0.17120000000E+03 0.  0.
        998    1    1    2    0    0  0.89560439126E+01 -0.11367555023E+02  0.14769410926E+04  0.14770458432E+04  0.10000000000E+02 0.  1.
</event>
<event>
 5    1  0.1640179E-008  0.3811955E+03  0.7957747E-01  0.3445969E+00
         13   -1    0    0    0    0  0.00000000000E+00  0.00000000000E+00  0.14999999963E+04  0.15000000000E+04  0.10566000000E+00 0.  1.
        994   -1    0    0    0    0 -0.00000000000E+00 -0.00000000000E+00  0.11368683772E-12  0.17120000000E+03  0.17120000000E+03 0.  0.
         13    1    1    2    0    0  0.39761710881E+02  0.25539831651E+02  0.26772304345E+03  0.27186194255E+03  0.10566000000E+00 0.  1.
        994    1    1    2    0    0 -0.25568973008E+02 -0.45275436702E+02  0.12586230413E+02  0.17936412893E+03  0.17120000000E+03 0.  0.
        998    1    1    2    0    0 -0.14192737873E+02  0.19735605051E+02  0.12196907224E+04  0.12199739285E+04  0.10000000000E+02 0.  1.
</event>
<event>
 5    1  0.1640179E-008  0.3849512E+03  0.7957747E-01  0.3429879E+00
         13   -1    0    0    0    0  0.00000000000E+00  0.00000000000E+00  0.14999999963E+04  0.15000000000E+04  0.10566000000E+00 0.  1.
        994   -1    0    0    0    0 -0.00000000000E+00 -0.00000000000E+00  0.11368683772E-12  0.17120000000E+03  0.17120000000E+03 0.  0.
         13    1    1    2    0    0  0.32632799981E+01  0.15348548588E+02  0.76364292321E+02  0.77959882285E+02  0.10566000000E+00 0.  1.
        994    1    1    2    0    0 -0.19681298339E+01 -0.62113195321E+01  0.17940373914E+01  0.17133333767E+03  0.17120000000E+03 0.  0.
        998    1    1    2    0    0 -0.12951501642E+01 -0.91372290554E+01  0.14218416666E+04  0.14219067800E+04  0.10000000000E+02 0.  1.
</event>
<event>
 5    1  0.1640179E-008  0.3842227E+03  0.7957747E-01  0.3432976E+00
         13   -1    0    0    0    0  0.00000000000E+00  0.00000000000E+00  0.14999999963E+04  0.15000000000E+04  0.10566000000E+00 0. -1.
        994   -1    0    0    0    0 -0.00000000000E+00 -0.00000000000E+00  0.11368683772E-12  0.17120000000E+03  0.17120000000E+03 0.  0.
         13    1    1    2    0    0 -0.89522163869E+01  0.82155235585E+01  0.35074878636E+02  0.37120011866E+02  0.10566000000E+00 0. -1.
        994    1    1    2    0    0  0.10559443712E+02 -0.10931884074E+02  0.27785381639E+01  0.17189580628E+03  0.17120000000E+03 0.  0.
        998    1    1    2    0    0 -0.16072273248E+01  0.27163605157E+01  0.14621465795E+04  0.14621841819E+04  0.10000000000E+02 0. -1.
</event>
<event>
 5    1  0.1640179E-008  0.3847494E+03  0.7957747E-01  0.3430736E+00
         13   -1    0    0    0    0  0.00000000000E+00  0.00000000000E+00  0.14999999963E+04  0.15000000000E+04  0.10566000000E+00 0.  1.
        994   -1    0    0    0    0 -0.00000000000E+00 -0.00000000000E+00  0.11368683772E-12  0.17120000000E+03  0.17120000000E+03 0.  0.
         13    1    1    2    0    0 -0.16387511361E+02 -0.11470157280E+02  0.11867451065E+03  0.12034851756E+03  0.10566000000E+00 0.  1.
        994    1    1    2    0    0  0.13981752262E+01  0.11604306324E+02  0.22044040541E+01  0.17161268664E+03  0.17120000000E+03 0.  0.
        998    1    1    2    0    0  0.14989336135E+02 -0.13414904384E+00  0.13791210816E+04  0.13792387958E+04  0.10000000000E+02 0.  1.
</event>
<event>
 5    1  0.1640179E-008  0.3837626E+03  0.7957747E-01  0.3434937E+00
         13   -1    0    0    0    0  0.00000000000E+00  0.00000000000E+00  0.14999999963E+04  0.15000000000E+04  0.10566000000E+00 0. -1.
        994   -1    0    0    0    0 -0.00000000000E+00 -0.00000000000E+00  0.11368683772E-12  0.17120000000E+03  0.17120000000E+03 0.  0.
         13    1    1    2    0    0 -0.82806813684E+01  0.10347609825E+02  0.39546562598E+02  0.41708326391E+02  0.10566000000E+00 0. -1.
        994    1    1    2    0    0  0.53959893438E+01  0.73688797635E+00  0.23436685799E+01  0.17130263421E+03  0.17120000000E+03 0.  0.
        998    1    1    2    0    0  0.28846920246E+01 -0.11084497802E+02  0.14581097651E+04  0.14581890394E+04  0.10000000000E+02 0. -1.
</event>
<event>
 5    1  0.1640179E-008  0.3842201E+03  0.7957747E-01  0.3432986E+00
         13   -1    0    0    0    0  0.00000000000E+00  0.00000000000E+00  0.14999999963E+04  0.15000000000E+04  0.10566000000E+00 0.  1.
        994   -1    0    0    0    0 -0.00000000000E+00 -0.00000000000E+00  0.11368683772E-12  0.17120000000E+03  0.17120000000E+03 0.  0.
         13    1    1    2    0    0 -0.87468347053E+00  0.13125904752E+02  0.43742531612E+02  0.45677945253E+02  0.10566000000E+00 0.  1.
        994    1    1    2    0    0  0.26858881494E+01 -0.24181522259E+01  0.20608852682E+01  0.17125054366E+03  0.17120000000E+03 0.  0.
        998    1    1    2    0    0 -0.18112046789E+01 -0.10707752526E+02  0.14541965794E+04  0.14542715111E+04  0.10000000000E+02 0.  1.
</event>
<event>
 5    1  0.1640179E-008  0.3832206E+03  0.7957747E-01  0.3437254E+00
         13   -1    0    0    0    0  0.00000000000E+00  0.00000000000E+00  0.14999999963E+04  0.15000000000E+04  0.10566000000E+00 0.  1.
        994   -1    0    0    0    0 -0.00000000000E+00 -0.00000000000E+00  0.11368683772E-12  0.17120000000E+03  0.17120000000E+03 0.  0.
         13    1    1    2    0    0  0.33933275539E+02 -0.20742252238E+01  0.19009426488E+03  0.19311035783E+03  0.10566000000E+00 0.  1.
        994    1    1    2    0    0 -0.41606552874E+02 -0.43168602561E+01  0.83255022451E+01  0.17643269117E+03  0.17120000000E+03 0.  0.
        998    1    1    2    0    0  0.76732773349E+01  0.63910854799E+01  0.13015802292E+04  0.13016569510E+04  0.10000000000E+02 0.  1.
</event>
<event>
 5    1  0.1640179E-008  0.3714833E+03  0.7957747E-01  0.3489102E+00
         13   -1    0    0    0    0  0.00000000000E+00  0.00000000000E+00  0.14999999963E+04  0.15000000000E+04  0.10566000000E+00 0.  1.
        994   -1    0    0    0    0 -0.00000000000E+00 -0.00000000000E+00  0.11368683772E-12  0.17120000000E+03  0.17120000000E+03 0.  0.
         13    1    1    2    0    0  0.22978630746E+02 -0.27821080762E+02  0.71318425786E+02  0.79927210801E+02  0.10566000000E+00 0.  1.
        994    1    1    2    0    0 -0.24520560873E+02  0.21407051393E+02  0.12149353796E+02  0.17468991543E+03  0.17120000000E+03 0.  0.
        998    1    1    2    0    0  0.15419301266E+01  0.64140293694E+01  0.14165322167E+04  0.14165828738E+04  0.10000000000E+02 0.  1.
</event>
<event>
 5    1  0.1640179E-008  0.3855522E+03  0.7957747E-01  0.3427334E+00
         13   -1    0    0    0    0  0.00000000000E+00  0.00000000000E+00  0.14999999963E+04  0.15000000000E+04  0.10566000000E+00 0.  1.
        994   -1    0    0    0    0 -0.00000000000E+00 -0.00000000000E+00  0.11368683772E-12  0.17120000000E+03  0.17120000000E+03 0.  0.
         13    1    1    2    0    0 -0.15337718217E+02 -0.76717922091E+01  0.10198995044E+03  0.10342177310E+03  0.10566000000E+00 0.  1.
        994    1    1    2    0    0  0.18248231817E+02  0.53594787522E+01  0.25445848858E+01  0.17227198521E+03  0.17120000000E+03 0.  0.
        998    1    1    2    0    0 -0.29105135993E+01  0.23123134569E+01  0.13954654610E+04  0.13955062417E+04  0.10000000000E+02 0.  1.
</event>
<event>
 5    1  0.1640179E-008  0.3741826E+03  0.7957747E-01  0.3476887E+00
         13   -1    0    0    0    0  0.00000000000E+00  0.00000000000E+00  0.14999999963E+04  0.15000000000E+04  0.10566000000E+00 0.  1.
        994   -1    0    0    0    0 -0.00000000000E+00 -0.00000000000E+00  0.11368683772E-12  0.17120000000E+03  0.17120000000E+03 0.  0.
         13    1    1    2    0    0 -0.27888161885E+02  0.28026519867E+01  0.24449604037E+02  0.37194068521E+02  0.10566000000E+00 0.  1.
        994    1    1    2    0    0  0.19732701319E+02 -0.18925632612E+00  0.14550516560E+02  0.17294673415E+03  0.17120000000E+03 0.  0.
        998    1    1    2    0    0  0.81554605663E+01 -0.26133956605E+01  0.14609998757E+04  0.14610591973E+04  0.10000000000E+02 0.  1.
</event>
<event>
 5    1  0.1640179E-008  0.3786607E+03  0.7957747E-01  0.3457011E+00
         13   -1    0    0    0    0  0.00000000000E+00  0.00000000000E+00  0.14999999963E+04  0.15000000000E+04  0.10566000000E+00 0.  1.
        994   -1    0    0    0    0 -0.00000000000E+00 -0.00000000000E+00  0.11368683772E-12  0.17120000000E+03  0.17120000000E+03 0.  0.
         13    1    1    2    0    0  0.21428498221E+02  0.25551179132E+02  0.10226113083E+03  0.10756111441E+03  0.10566000000E+00 0.  1.
        994    1    1    2    0    0 -0.35023378582E+02 -0.26134277075E+02  0.11249798157E+02  0.17704698654E+03  0.17120000000E+03 0.  0.
        998    1    1    2    0    0  0.13594880361E+02  0.58309794370E+00  0.13864890673E+04  0.13865918990E+04  0.10000000000E+02 0.  1.
</event>
<event>
 5    1  0.1640179E-008  0.3794659E+03  0.7957747E-01  0.3453487E+00
         13   -1    0    0    0    0  0.00000000000E+00  0.00000000000E+00  0.14999999963E+04  0.15000000000E+04  0.10566000000E+00 0.  1.
        994   -1    0    0    0    0 -0.00000000000E+00 -0.00000000000E+00  0.11368683772E-12  0.17120000000E+03  0.17120000000E+03 0.  0.
         13    1    1    2    0    0  0.41535188546E+02 -0.19946195174E+02  0.22037132947E+03  0.22513675090E+03  0.10566000000E+00 0.  1.
        994    1    1    2    0    0 -0.40357708214E+02  0.35310328829E+01  0.99188095621E+01  0.17620736531E+03  0.17120000000E+03 0.  0.
        998    1    1    2    0    0 -0.11774803322E+01  0.16415162291E+02  0.12697098572E+04  0.12698558838E+04  0.10000000000E+02 0.  1.
</event>
<event>
 5    1  0.1640179E-008  0.3850640E+03  0.7957747E-01  0.3429401E+00
         13   -1    0    0    0    0  0.00000000000E+00  0.00000000000E+00  0.14999999963E+04  0.15000000000E+04  0.10566000000E+00 0. -1.
        994   -1    0    0    0    0 -0.00000000000E+00 -0.00000000000E+00  0.11368683772E-12  0.17120000000E+03  0.17120000000E+03 0.  0.
         13    1    1    2    0    0  0.90953589065E+01  0.54087325803E+01  0.38872884735E+02  0.40287619356E+02  0.10566000000E+00 0. -1.
        994    1    1    2    0    0  0.23661682230E+02 -0.13045102946E+02  0.40024415325E+01  0.17336524869E+03  0.17120000000E+03 0.  0.
        998    1    1    2    0    0 -0.32757041137E+02  0.76363703652E+01  0.14571246700E+04  0.14575471319E+04  0.10000000000E+02 0. -1.
</event>
<event>
 5    1  0.1640179E-008  0.3702528E+03  0.7957747E-01  0.3494730E+00
         13   -1    0    0    0    0  0.00000000000E+00  0.00000000000E+00  0.14999999963E+04  0.15000000000E+04  0.10566000000E+00 0.  1.
        994   -1    0    0    0    0 -0.00000000000E+00 -0.00000000000E+00  0.11368683772E-12  0.17120000000E+03  0.17120000000E+03 0.  0.
         13    1    1    2    0    0 -0.14871014514E+03 -0.97942711805E+02  0.35640257932E+03  0.39840970341E+03  0.10566000000E+00 0.  1.
        994    1    1    2    0    0  0.22490383161E+03  0.17310469098E+03  0.39110634156E+03  0.51266029486E+03  0.17120000000E+03 0.  0.
        998    1    1    2    0    0 -0.76193686469E+02 -0.75161979179E+02  0.75249107540E+03  0.76013000173E+03  0.10000000000E+02 0. -1.
</event>
<event>
 5    1  0.1640179E-008  0.3848346E+03  0.7957747E-01  0.3430374E+00
         13   -1    0    0    0    0  0.00000000000E+00  0.00000000000E+00  0.14999999963E+04  0.15000000000E+04  0.10566000000E+00 0.  1.
        994   -1    0    0    0    0 -0.00000000000E+00 -0.00000000000E+00  0.11368683772E-12  0.17120000000E+03  0.17120000000E+03 0.  0.
         13    1    1    2    0    0 -0.11898380925E+02  0.96886050206E+01  0.71238388661E+02  0.72872214999E+02  0.10566000000E+00 0.  1.
        994    1    1    2    0    0  0.30050577068E+01 -0.33637290719E+01  0.17792400650E+01  0.17126865078E+03  0.17120000000E+03 0.  0.
        998    1    1    2    0    0  0.88933232180E+01 -0.63248759488E+01  0.14269823676E+04  0.14270591342E+04  0.10000000000E+02 0.  1.
</event>
<event>
 5    1  0.1640179E-008  0.3845025E+03  0.7957747E-01  0.3431785E+00
         13   -1    0    0    0    0  0.00000000000E+00  0.00000000000E+00  0.14999999963E+04  0.15000000000E+04  0.10566000000E+00 0. -1.
        994   -1    0    0    0    0 -0.00000000000E+00 -0.00000000000E+00  0.11368683772E-12  0.17120000000E+03  0.17120000000E+03 0.  0.
         13    1    1    2    0    0  0.68919250564E+01 -0.19593349035E+02  0.11700973131E+03  0.11883890921E+03  0.10566000000E+00 0. -1.
        994    1    1    2    0    0  0.12262299816E+02  0.15906838051E+02  0.32072132322E+01  0.17240393763E+03  0.17120000000E+03 0.  0.
        998    1    1    2    0    0 -0.19154224872E+02  0.36865109843E+01  0.13797830517E+04  0.13799571532E+04  0.10000000000E+02 0. -1.
</event>
<event>
 5    1  0.1640179E-008  0.3842156E+03  0.7957747E-01  0.3433006E+00
         13   -1    0    0    0    0  0.00000000000E+00  0.00000000000E+00  0.14999999963E+04  0.15000000000E+04  0.10566000000E+00 0.  1.
        994   -1    0    0    0    0 -0.00000000000E+00 -0.00000000000E+00  0.11368683772E-12  0.17120000000E+03  0.17120000000E+03 0.  0.
         13    1    1    2    0    0  0.88663471624E+01  0.16289792850E+02  0.80974798919E+02  0.83071647914E+02  0.10566000000E+00 0.  1.
        994    1    1    2    0    0 -0.11281921737E+02 -0.15687258562E+02  0.32520439912E+01  0.17231769390E+03  0.17120000000E+03 0.  0.
        998    1    1    2    0    0  0.24155745746E+01 -0.60253428809E+00  0.14157731534E+04  0.14158106582E+04  0.10000000000E+02 0.  1.
</event>
<event>
 5    1  0.1640179E-008  0.3848152E+03  0.7957747E-01  0.3430457E+00
         13   -1    0    0    0    0  0.00000000000E+00  0.00000000000E+00  0.14999999963E+04  0.15000000000E+04  0.10566000000E+00 0.  1.
        994   -1    0    0    0    0 -0.00000000000E+00 -0.00000000000E+00  0.11368683772E-12  0.17120000000E+03  0.17120000000E+03 0.  0.
         13    1    1    2    0    0  0.91144368261E+01 -0.67819373307E+01  0.37574090200E+02  0.39254185140E+02  0.10566000000E+00 0.  1.
        994    1    1    2    0    0  0.38243216669E+01  0.15157360245E+02  0.25264799591E+01  0.17193078289E+03  0.17120000000E+03 0.  0.
        998    1    1    2    0    0 -0.12938758493E+02 -0.83754229140E+01  0.14598994261E+04  0.14600150320E+04  0.10000000000E+02 0.  1.
</event>
<event>
 5    1  0.1640179E-008  0.3848350E+03  0.7957747E-01  0.3430372E+00
         13   -1    0    0    0    0  0.00000000000E+00  0.00000000000E+00  0.14999999963E+04  0.15000000000E+04  0.10566000000E+00 0. -1.
        994   -1    0    0    0    0 -0.00000000000E+00 -0.00000000000E+00  0.11368683772E-12  0.17120000000E+03  0.17120000000E+03 0.  0.
         13    1    1    2    0    0  0.13541314648E+02  0.28922186505E+01  0.56298478562E+02  0.57976391605E+02  0.10566000000E+00 0. -1.
        994    1    1    2    0    0 -0.86663176913E+01  0.25221568901E+01  0.19801960846E+01  0.17144919806E+03  0.17120000000E+03 0.  0.
        998    1    1    2    0    0 -0.48749969566E+01 -0.54143755406E+01  0.14417213216E+04  0.14417744103E+04  0.10000000000E+02 0. -1.
</event>
<event>
 5    1  0.1640179E-008  0.4069865E+03  0.7957747E-01  0.3341461E+00
         13   -1    0    0    0    0  0.00000000000E+00  0.00000000000E+00  0.14999999963E+04  0.15000000000E+04  0.10566000000E+00 0.  1.
        994   -1    0    0    0    0 -0.00000000000E+00 -0.00000000000E+00  0.11368683772E-12  0.17120000000E+03  0.17120000000E+03 0.  0.
         13    1    1    2    0    0 -0.85624847506E+02  0.15964907941E+02  0.14074409648E+03  0.16551557224E+03  0.10566000000E+00 0.  1.
        994    1    1    2    0    0 -0.16341843021E+02  0.30907364830E+02  0.36963061534E+02  0.17860019303E+03  0.17120000000E+03 0.  0.
        998    1    1    2    0    0  0.10196669053E+03 -0.46872272771E+02  0.13222928383E+04  0.13270842347E+04  0.10000000000E+02 0.  1.
</event>
<event>
 5    1  0.1640179E-008  0.3842420E+03  0.7957747E-01  0.3432893E+00
         13   -1    0    0    0    0  0.00000000000E+00  0.00000000000E+00  0.14999999963E+04  0.15000000000E+04  0.10566000000E+00 0. -1.
        994   -1    0    0    0    0 -0.00000000000E+00 -0.00000000000E+00  0.11368683772E-12  0.17120000000E+03  0.17120000000E+03 0.  0.
         13    1    1    2    0    0 -0.55371813157E+00  0.10637384837E+02  0.27827493899E+02  0.29796663248E+02  0.10566000000E+00 0. -1.
        994    1    1    2    0    0 -0.24556035776E+00 -0.64684511378E+01  0.21450662557E+01  0.17133575946E+03  0.17120000000E+03 0.  0.
        998    1    1    2    0    0  0.79927848934E+00 -0.41689336990E+01  0.14700274361E+04  0.14700675773E+04  0.10000000000E+02 0. -1.
</event>
<event>
 5    1  0.1640179E-008  0.3745209E+03  0.7957747E-01  0.3475368E+00
         13   -1    0    0    0    0  0.00000000000E+00  0.00000000000E+00  0.14999999963E+04  0.15000000000E+04  0.10566000000E+00 0. -1.
        994   -1    0    0    0    0 -0.00000000000E+00 -0.00000000000E+00  0.11368683772E-12  0.17120000000E+03  0.17120000000E+03 0.  0.
         13    1    1    2    0    0  0.41473851519E+02 -0.49945049033E+02  0.24790929701E+03  0.25626864613E+03  0.10566000000E+00 0. -1.
        994    1    1    2    0    0 -0.39171891851E+02  0.55591248498E+02  0.22837977691E+02  0.18562283600E+03  0.17120000000E+03 0.  0.
        998    1    1    2    0    0 -0.23019596686E+01 -0.56461994653E+01  0.12292527216E+04  0.12293085179E+04  0.10000000000E+02 0.  0.
</event>
<event>
 5    1  0.1640179E-008  0.3702085E+03  0.7957747E-01  0.3494933E+00
         13   -1    0    0    0    0  0.00000000000E+00  0.00000000000E+00  0.14999999963E+04  0.15000000000E+04  0.10566000000E+00 0. -1.
        994   -1    0    0    0    0 -0.00000000000E+00 -0.00000000000E+00  0.11368683772E-12  0.17120000000E+03  0.17120000000E+03 0.  0.
         13    1    1    2    0    0 -0.54642895268E+01 -0.34471830907E+02  0.70918694116E+02  0.79042001020E+02  0.10566000000E+00 0. -1.
        994    1    1    2    0    0  0.33585866368E+01 -0.14043402279E+02  0.98808191667E+01  0.17209174251E+03  0.17120000000E+03 0.  0.
        998    1    1    2    0    0  0.21057028901E+01  0.48515233187E+02  0.14192004830E+04  0.14200662565E+04  0.10000000000E+02 0. -1.
</event>
<event>
 5    1  0.1640179E-008  0.3854107E+03  0.7957747E-01  0.3427932E+00
         13   -1    0    0    0    0  0.00000000000E+00  0.00000000000E+00  0.14999999963E+04  0.15000000000E+04  0.10566000000E+00 0. -1.
        994   -1    0    0    0    0 -0.00000000000E+00 -0.00000000000E+00  0.11368683772E-12  0.17120000000E+03  0.17120000000E+03 0.  0.
         13    1    1    2    0    0 -0.33942895573E+02  0.55779145152E+01  0.23329561653E+02  0.41563360080E+02  0.10566000000E+00 0. -1.
        994    1    1    2    0    0  0.22017842883E+02  0.45201882310E+02  0.28737376110E+02  0.18072983250E+03  0.17120000000E+03 0.  0.
        998    1    1    2    0    0  0.11925052690E+02 -0.50779796825E+02  0.14479330585E+04  0.14489068074E+04  0.10000000000E+02 0. -1.
</event>
<event>
 5    1  0.1640179E-008  0.3790418E+03  0.7957747E-01  0.3455341E+00
         13   -1    0    0    0    0  0.00000000000E+00  0.00000000000E+00  0.14999999963E+04  0.15000000000E+04  0.10566000000E+00 0.  1.
        994   -1    0    0    0    0 -0.00000000000E+00 -0.00000000000E+00  0.11368683772E-12  0.17120000000E+03  0.17120000000E+03 0.  0.
         13    1    1    2    0    0  0.37437460324E+02 -0.36202240702E+02  0.28014956262E+03  0.28494903802E+03  0.10566000000E+00 0.  1.
        994    1    1    2    0    0 -0.55336547883E+01  0.46233039388E+02  0.11923061783E+02  0.17781933154E+03  0.17120000000E+03 0.  0.
        998    1    1    2    0    0 -0.31903805535E+02 -0.10030798686E+02  0.12079273719E+04  0.12084316304E+04  0.10000000000E+02 0.  1.
</event>
<event>
 5    1  0.1640179E-008  0.3852071E+03  0.7957747E-01  0.3428795E+00
         13   -1    0    0    0    0  0.00000000000E+00  0.00000000000E+00  0.14999999963E+04  0.15000000000E+04  0.10566000000E+00 0. -1.
        994   -1    0    0    0    0 -0.00000000000E+00 -0.00000000000E+00  0.11368683772E-12  0.17120000000E+03  0.17120000000E+03 0.  0.
         13    1    1    2    0    0 -0.87533789263E+01  0.51493697872E+01  0.32683215867E+02  0.34224865453E+02  0.10566000000E+00 0. -1.
        994    1    1    2    0    0  0.11835465046E+02 -0.58245630504E+01  0.20994379805E+01  0.17172027081E+03  0.17120000000E+03 0.  0.
        998    1    1    2    0    0 -0.30820861199E+01  0.67519326313E+00  0.14652173424E+04  0.14652548637E+04  0.10000000000E+02 0. -1.
</event>
<event>
 5    1  0.1640179E-008  0.3808901E+03  0.7957747E-01  0.3447292E+00
         13   -1    0    0    0    0  0.00000000000E+00  0.00000000000E+00  0.14999999963E+04  0.15000000000E+04  0.10566000000E+00 0.  1.
        994   -1    0    0    0    0 -0.00000000000E+00 -0.00000000000E+00  0.11368683772E-12  0.17120000000E+03  0.17120000000E+03 0.  0.
         13    1    1    2    0    0  0.19878672356E+02 -0.21642867539E+02  0.11772012305E+03  0.12133265787E+03  0.10566000000E+00 0.  1.
        994    1    1    2    0    0 -0.58230753480E+01  0.15214358591E+02  0.45695388180E+01  0.17203402454E+03  0.17120000000E+03 0.  0.
        998    1    1    2    0    0 -0.14055597008E+02  0.64285089473E+01  0.13777103344E+04  0.13778333176E+04  0.10000000000E+02 0.  1.
</event>
<event>
 5    1  0.1640179E-008  0.3803768E+03  0.7957747E-01  0.3449519E+00
         13   -1    0    0    0    0  0.00000000000E+00  0.00000000000E+00  0.14999999963E+04  0.15000000000E+04  0.10566000000E+00 0. -1.
        994   -1    0    0    0    0 -0.00000000000E+00 -0.00000000000E+00  0.11368683772E-12  0.17120000000E+03  0.17120000000E+03 0.  0.
         13    1    1    2    0    0  0.36363003877E+02  0.14038102660E+01  0.19567254057E+03  0.19902761877E+03  0.10566000000E+00 0. -1.
        994    1    1    2    0    0 -0.62459535110E+00  0.85950087468E+01  0.41910311143E+01  0.17146798254E+03  0.17120000000E+03 0.  0.
        998    1    1    2    0    0 -0.35738408526E+02 -0.99988190128E+01  0.13001364246E+04  0.13007043987E+04  0.10000000000E+02 0. -1.
</event>
<event>
 5    1  0.1640179E-008  0.3830578E+03  0.7957747E-01  0.3437951E+00
         13   -1    0    0    0    0  0.00000000000E+00  0.00000000000E+00  0.14999999963E+04  0.15000000000E+04  0.10566000000E+00 0.  1.
        994   -1    0    0    0    0 -0.00000000000E+00 -0.00000000000E+00  0.11368683772E-12  0.17120000000E+03  0.17120000000E+03 0.  0.
         13    1    1    2    0    0  0.12451536991E+02  0.18182398355E+02  0.99396474802E+02  0.10181017017E+03  0.10566000000E+00 0.  1.
        994    1    1    2    0    0 -0.13054959839E+01 -0.26051001903E+01  0.26255938138E+01  0.17124492579E+03  0.17120000000E+03 0.  0.
        998    1    1    2    0    0 -0.11146041007E+02 -0.15577298164E+02  0.13979779277E+04  0.13981449040E+04  0.10000000000E+02 0.  1.
</event>
<event>
 5    1  0.1640179E-008  0.3805076E+03  0.7957747E-01  0.3448951E+00
         13   -1    0    0    0    0  0.00000000000E+00  0.00000000000E+00  0.14999999963E+04  0.15000000000E+04  0.10566000000E+00 0.  1.
        994   -1    0    0    0    0 -0.00000000000E+00 -0.00000000000E+00  0.11368683772E-12  0.17120000000E+03  0.17120000000E+03 0.  0.
         13    1    1    2    0    0 -0.18288560901E+01  0.13036648951E+02  0.20670038283E+02  0.24506337489E+02  0.10566000000E+00 0.  1.
        994    1    1    2    0    0  0.14277417461E+01 -0.10585926077E+02  0.42580365993E+01  0.17158575452E+03  0.17120000000E+03 0.  0.
        998    1    1    2    0    0  0.40111434398E+00 -0.24507228738E+01  0.14750719214E+04  0.14751079080E+04  0.10000000000E+02 0.  1.
</event>
<event>
 5    1  0.1640179E-008  0.3786997E+03  0.7957747E-01  0.3456840E+00
         13   -1    0    0    0    0  0.00000000000E+00  0.00000000000E+00  0.14999999963E+04  0.15000000000E+04  0.10566000000E+00 0. -1.
        994   -1    0    0    0    0 -0.00000000000E+00 -0.00000000000E+00  0.11368683772E-12  0.17120000000E+03  0.17120000000E+03 0.  0.
         13    1    1    2    0    0  0.39620844520E+01 -0.20028333706E+02  0.42835502468E+02  0.47452330817E+02  0.10566000000E+00 0. -1.
        994    1    1    2    0    0 -0.21716950269E+01  0.47063874179E+01  0.48811626365E+01  0.17134798537E+03  0.17120000000E+03 0.  0.
        998    1    1    2    0    0 -0.17903894251E+01  0.15321946288E+02  0.14522833312E+04  0.14523996838E+04  0.10000000000E+02 0. -1.
</event>
<event>
 5    1  0.1640179E-008  0.3837467E+03  0.7957747E-01  0.3435005E+00
         13   -1    0    0    0    0  0.00000000000E+00  0.00000000000E+00  0.14999999963E+04  0.15000000000E+04  0.10566000000E+00 0.  1.
        994   -1    0    0    0    0 -0.00000000000E+00 -0.00000000000E+00  0.11368683772E-12  0.17120000000E+03  0.17120000000E+03 0.  0.
         13    1    1    2    0    0 -0.21494187844E+01 -0.10729688056E+02  0.27928033831E+02  0.29995540412E+02  0.10566000000E+00 0.  1.
        994    1    1    2    0    0 -0.28543066447E+01 -0.12606046381E+02  0.28054861890E+01  0.17171013431E+03  0.17120000000E+03 0.  0.
        998    1    1    2    0    0  0.50037254291E+01  0.23335734437E+02  0.14692664763E+04  0.14694943253E+04  0.10000000000E+02 0.  1.
</event>
<event>
 5    1  0.1640179E-008  0.3789720E+03  0.7957747E-01  0.3455647E+00
         13   -1    0    0    0    0  0.00000000000E+00  0.00000000000E+00  0.14999999963E+04  0.15000000000E+04  0.10566000000E+00 0. -1.
        994   -1    0    0    0    0 -0.00000000000E+00 -0.00000000000E+00  0.11368683772E-12  0.17120000000E+03  0.17120000000E+03 0.  0.
         13    1    1    2    0    0  0.14444146587E+03 -0.18538915953E+03  0.96286407362E+03  0.99113052267E+03  0.10566000000E+00 0. -1.
        994    1    1    2    0    0 -0.14798872243E+03  0.19285235657E+03  0.23852665365E+03  0.38117856433E+03  0.17120000000E+03 0.  0.
        998    1    1    2    0    0  0.35472565567E+01 -0.74631970387E+01  0.29860926901E+03  0.29889091300E+03  0.10000000000E+02 0. -1.
</event>
<event>
 5    1  0.1640179E-008  0.3803070E+03  0.7957747E-01  0.3449823E+00
         13   -1    0    0    0    0  0.00000000000E+00  0.00000000000E+00  0.14999999963E+04  0.15000000000E+04  0.10566000000E+00 0. -1.
        994   -1    0    0    0    0 -0.00000000000E+00 -0.00000000000E+00  0.11368683772E-12  0.17120000000E+03  0.17120000000E+03 0.  0.
         13    1    1    2    0    0 -0.12291678978E+02  0.19691260043E+02  0.64429197264E+02  0.68483309779E+02  0.10566000000E+00 0. -1.
        994    1    1    2    0    0  0.89180123320E+01 -0.19763422803E+02  0.55498365432E+01  0.17265678241E+03  0.17120000000E+03 0.  0.
        998    1    1    2    0    0  0.33736666459E+01  0.72162759202E-01  0.14300209625E+04  0.14300599078E+04  0.10000000000E+02 0. -1.
</event>
<event>
 5    1  0.1640179E-008  0.3799150E+03  0.7957747E-01  0.3451529E+00
         13   -1    0    0    0    0  0.00000000000E+00  0.00000000000E+00  0.14999999963E+04  0.15000000000E+04  0.10566000000E+00 0. -1.
        994   -1    0    0    0    0 -0.00000000000E+00 -0.00000000000E+00  0.11368683772E-12  0.17120000000E+03  0.17120000000E+03 0.  0.
         13    1    1    2    0    0  0.18487440398E+01 -0.53012837847E+02  0.60923290280E+02  0.80780178842E+02  0.10566000000E+00 0. -1.
        994    1    1    2    0    0  0.54981253198E+02  0.12940830884E+03  0.91895365075E+02  0.23984087792E+03  0.17120000000E+03 0.  0.
        998    1    1    2    0    0 -0.56829997238E+02 -0.76395470997E+02  0.13471813409E+04  0.13505789432E+04  0.10000000000E+02 0. -1.
</event>
<event>
 5    1  0.1640179E-008  0.3772207E+03  0.7957747E-01  0.3463350E+00
         13   -1    0    0    0    0  0.00000000000E+00  0.00000000000E+00  0.14999999963E+04  0.15000000000E+04  0.10566000000E+00 0. -1.
        994   -1    0    0    0    0 -0.00000000000E+00 -0.00000000000E+00  0.11368683772E-12  0.17120000000E+03  0.17120000000E+03 0.  0.
         13    1    1    2    0    0  0.11529799485E+02 -0.25665772450E+02  0.64647805994E+02  0.70505447559E+02  0.10566000000E+00 0. -1.
        994    1    1    2    0    0  0.87908848203E+00  0.40598267132E+02  0.11126615194E+02  0.17630154184E+03  0.17120000000E+03 0.  0.
        998    1    1    2    0    0 -0.12408887967E+02 -0.14932494682E+02  0.14242255751E+04  0.14243930106E+04  0.10000000000E+02 0. -1.
</event>
<event>
 5    1  0.1640179E-008  0.3838618E+03  0.7957747E-01  0.3434514E+00
         13   -1    0    0    0    0  0.00000000000E+00  0.00000000000E+00  0.14999999963E+04  0.15000000000E+04  0.10566000000E+00 0. -1.
        994   -1    0    0    0    0 -0.00000000000E+00 -0.00000000000E+00  0.11368683772E-12  0.17120000000E+03  0.17120000000E+03 0.  0.
         13    1    1    2    0    0  0.88266762152E+01  0.10998141172E+02  0.49369666684E+02  0.51344371403E+02  0.10566000000E+00 0. -1.
        994    1    1    2    0    0  0.12478902256E+02  0.35627582657E+01  0.27524098355E+01  0.17171322607E+03  0.17120000000E+03 0.  0.
        998    1    1    2    0    0 -0.21305578471E+02 -0.14560899437E+02  0.14478779198E+04  0.14481424025E+04  0.10000000000E+02 0. -1.
</event>
<event>
 5    1  0.1640179E-008  0.3791558E+03  0.7957747E-01  0.3454843E+00
         13   -1    0    0    0    0  0.00000000000E+00  0.00000000000E+00  0.14999999963E+04  0.15000000000E+04  0.10566000000E+00 0.  1.
        994   -1    0    0    0    0 -0.00000000000E+00 -0.00000000000E+00  0.11368683772E-12  0.17120000000E+03  0.17120000000E+03 0.  0.
         13    1    1    2    0    0  0.67758023613E+01 -0.43185017102E+02  0.18087968770E+03  0.18608688774E+03  0.10566000000E+00 0.  1.
        994    1    1    2    0    0 -0.45325086283E+01  0.46472933348E+02  0.11903735547E+02  0.17785223105E+03  0.17120000000E+03 0.  0.
        998    1    1    2    0    0 -0.22432937330E+01 -0.32879162457E+01  0.13072165730E+04  0.13072608812E+04  0.10000000000E+02 0.  1.
</event>
<event>
 5    1  0.1640179E-008  0.3821853E+03  0.7957747E-01  0.3441698E+00
         13   -1    0    0    0    0  0.00000000000E+00  0.00000000000E+00  0.14999999963E+04  0.15000000000E+04  0.10566000000E+00 0. -1.
        994   -1    0    0    0    0 -0.00000000000E+00 -0.00000000000E+00  0.11368683772E-12  0.17120000000E+03  0.17120000000E+03 0.  0.
         13    1    1    2    0    0  0.20401582604E+02  0.65909969141E+01  0.72132142330E+02  0.75251066001E+02  0.10566000000E+00 0. -1.
        994    1    1    2    0    0 -0.22328582670E+02  0.13471920427E+01  0.46965683373E+01  0.17271907331E+03  0.17120000000E+03 0.  0.
        998    1    1    2    0    0  0.19270000654E+01 -0.79381889568E+01  0.14231712856E+04  0.14232298607E+04  0.10000000000E+02 0. -1.
</event>
<event>
 5    1  0.1640179E-008  0.3823985E+03  0.7957747E-01  0.3440781E+00
         13   -1    0    0    0    0  0.00000000000E+00  0.00000000000E+00  0.14999999963E+04  0.15000000000E+04  0.10566000000E+00 0. -1.
        994   -1    0    0    0    0 -0.00000000000E+00 -0.00000000000E+00  0.11368683772E-12  0.17120000000E+03  0.17120000000E+03 0.  0.
         13    1    1    2    0    0 -0.35008680466E+01 -0.11016110448E+02  0.22450971511E+02  0.25252090058E+02  0.10566000000E+00 0. -1.
        994    1    1    2    0    0 -0.10750950565E+02  0.47155274424E+00  0.33114653503E+01  0.17156984322E+03  0.17120000000E+03 0.  0.
        998    1    1    2    0    0  0.14251818612E+02  0.10544557704E+02  0.14742375594E+04  0.14743780667E+04  0.10000000000E+02 0. -1.
</event>
<event>
 5    1  0.1640179E-008  0.3798182E+03  0.7957747E-01  0.3451951E+00
         13   -1    0    0    0    0  0.00000000000E+00  0.00000000000E+00  0.14999999963E+04  0.15000000000E+04  0.10566000000E+00 0.  1.
        994   -1    0    0    0    0 -0.00000000000E+00 -0.00000000000E+00  0.11368683772E-12  0.17120000000E+03  0.17120000000E+03 0.  0.
         13    1    1    2    0    0 -0.34701148328E+02  0.12870636405E+01  0.12284216955E+03  0.12765592823E+03  0.10566000000E+00 0.  1.
        994    1    1    2    0    0  0.46268492133E+02  0.87973329931E+01  0.11680526636E+02  0.17794392694E+03  0.17120000000E+03 0.  0.
        998    1    1    2    0    0 -0.11567343805E+02 -0.10084396634E+02  0.13654773001E+04  0.13656001448E+04  0.10000000000E+02 0.  1.
</event>
<event>
 5    1  0.1640179E-008  0.3704873E+03  0.7957747E-01  0.3493654E+00
         13   -1    0    0    0    0  0.00000000000E+00  0.00000000000E+00  0.14999999963E+04  0.15000000000E+04  0.10566000000E+00 0. -1.
        994   -1    0    0    0    0 -0.00000000000E+00 -0.00000000000E+00  0.11368683772E-12  0.17120000000E+03  0.17120000000E+03 0.  0.
         13    1    1    2    0    0  0.67863812928E+01  0.44587015289E+02  0.12373456704E+03  0.13169780236E+03  0.10566000000E+00 0. -1.
        994    1    1    2    0    0  0.24906443610E+02 -0.30180255397E+01  0.11190326540E+02  0.17339003091E+03  0.17120000000E+03 0.  0.
        998    1    1    2    0    0 -0.31692824902E+02 -0.41568989749E+02  0.13650751027E+04  0.13661121667E+04  0.10000000000E+02 0. -1.
</event>
<event>
 5    1  0.1640179E-008  0.3880054E+03  0.7957747E-01  0.3417025E+00
         13   -1    0    0    0    0  0.00000000000E+00  0.00000000000E+00  0.14999999963E+04  0.15000000000E+04  0.10566000000E+00 0. -1.
        994   -1    0    0    0    0 -0.00000000000E+00 -0.00000000000E+00  0.11368683772E-12  0.17120000000E+03  0.17120000000E+03 0.  0.
         13    1    1    2    0    0  0.65836223465E+02  0.46436439841E+02  0.15662100098E+03  0.17612751170E+03  0.10566000000E+00 0. -1.
        994    1    1    2    0    0 -0.33635885704E+02 -0.22186422221E+02  0.26881916198E+02  0.17792045289E+03  0.17120000000E+03 0.  0.
        998    1    1    2    0    0 -0.32200337761E+02 -0.24250017621E+02  0.13164970791E+04  0.13171520354E+04  0.10000000000E+02 0. -1.
</event>
<event>
 5    1  0.1640179E-008  0.3689602E+03  0.7957747E-01  0.3500683E+00
         13   -1    0    0    0    0  0.00000000000E+00  0.00000000000E+00  0.14999999963E+04  0.15000000000E+04  0.10566000000E+00 0.  1.
        994   -1    0    0    0    0 -0.00000000000E+00 -0.00000000000E+00  0.11368683772E-12  0.17120000000E+03  0.17120000000E+03 0.  0.
         13    1    1    2    0    0 -0.42807038621E+00  0.22207723884E+02  0.21335682447E+02  0.30799168071E+02  0.10566000000E+00 0.  1.
        994    1    1    2    0    0  0.99449343510E+01 -0.84316408214E+01  0.10403670760E+02  0.17201067017E+03  0.17120000000E+03 0.  0.
        998    1    1    2    0    0 -0.95168639648E+01 -0.13776083062E+02  0.14682606431E+04  0.14683901618E+04  0.10000000000E+02 0.  1.
</event>
<event>
 5    1  0.1640179E-008  0.3767237E+03  0.7957747E-01  0.3465550E+00
         13   -1    0    0    0    0  0.00000000000E+00  0.00000000000E+00  0.14999999963E+04  0.15000000000E+04  0.10566000000E+00 0. -1.
        994   -1    0    0    0    0 -0.00000000000E+00 -0.00000000000E+00  0.11368683772E-12  0.17120000000E+03  0.17120000000E+03 0.  0.
         13    1    1    2    0    0 -0.65162236884E+01  0.14240750890E+03  0.75443173474E+03  0.76778226946E+03  0.10566000000E+00 0. -1.
        994    1    1    2    0    0  0.72363407806E+01 -0.14554571729E+03  0.81307312123E+02  0.23907371134E+03  0.17120000000E+03 0.  0.
        998    1    1    2    0    0 -0.72011709216E+00  0.31382083909E+01  0.66426094942E+03  0.66434401920E+03  0.10000000000E+02 0.  0.
</event>
<event>
 5    1  0.1640179E-008  0.3723747E+03  0.7957747E-01  0.3485048E+00
         13   -1    0    0    0    0  0.00000000000E+00  0.00000000000E+00  0.14999999963E+04  0.15000000000E+04  0.10566000000E+00 0. -1.
        994   -1    0    0    0    0 -0.00000000000E+00 -0.00000000000E+00  0.11368683772E-12  0.17120000000E+03  0.17120000000E+03 0.  0.
         13    1    1    2    0    0  0.13845719738E+02  0.19102054794E+02  0.32019325243E+02  0.39772362332E+02  0.10566000000E+00 0. -1.
        994    1    1    2    0    0 -0.62088608751E+00 -0.96653674990E+01  0.83548632757E+01  0.17167716380E+03  0.17120000000E+03 0.  0.
        998    1    1    2    0    0 -0.13224833651E+02 -0.94366872954E+01  0.14596258078E+04  0.14597504739E+04  0.10000000000E+02 0. -1.
</event>
<event>
 5    1  0.1640179E-008  0.3843398E+03  0.7957747E-01  0.3432477E+00
         13   -1    0    0    0    0  0.00000000000E+00  0.00000000000E+00  0.14999999963E+04  0.15000000000E+04  0.10566000000E+00 0.  1.
        994   -1    0    0    0    0 -0.00000000000E+00 -0.00000000000E+00  0.11368683772E-12  0.17120000000E+03  0.17120000000E+03 0.  0.
         13    1    1    2    0    0 -0.59556876071E+01  0.15759988839E+02  0.70474736978E+02  0.72460659528E+02  0.10566000000E+00 0.  1.
        994    1    1    2    0    0  0.20001473460E+02 -0.86775647683E+01  0.35264956316E+01  0.17261875692E+03  0.17120000000E+03 0.  0.
        998    1    1    2    0    0 -0.14045785853E+02 -0.70824240708E+01  0.14259987637E+04  0.14261205835E+04  0.10000000000E+02 0.  1.
</event>
<event>
 5    1  0.1640179E-008  0.4359108E+03  0.7957747E-01  0.3238826E+00
         13   -1    0    0    0    0  0.00000000000E+00  0.00000000000E+00  0.14999999963E+04  0.15000000000E+04  0.10566000000E+00 0. -1.
        994   -1    0    0    0    0 -0.00000000000E+00 -0.00000000000E+00  0.11368683772E-12  0.17120000000E+03  0.17120000000E+03 0.  0.
         13    1    1    2    0    0  0.84186508229E+02  0.97190251268E+02  0.13014515312E+03  0.18295104579E+03  0.10566000000E+00 0. -1.
        994    1    1    2    0    0 -0.10866287311E+03 -0.81217307964E+02  0.14316347350E+03  0.26116870266E+03  0.17120000000E+03 0.  0.
        998    1    1    2    0    0  0.24476364882E+02 -0.15972943304E+02  0.12266913697E+04  0.12270802516E+04  0.10000000000E+02 0. -1.
</event>
<event>
 5    1  0.1640179E-008  0.3823960E+03  0.7957747E-01  0.3440792E+00
         13   -1    0    0    0    0  0.00000000000E+00  0.00000000000E+00  0.14999999963E+04  0.15000000000E+04  0.10566000000E+00 0. -1.
        994   -1    0    0    0    0 -0.00000000000E+00 -0.00000000000E+00  0.11368683772E-12  0.17120000000E+03  0.17120000000E+03 0.  0.
         13    1    1    2    0    0  0.10603960190E+03 -0.17902024607E+03  0.11693693820E+04  0.11877362537E+04  0.10566000000E+00 0. -1.
        994    1    1    2    0    0 -0.11317683335E+03  0.17215665464E+03  0.15951697499E+03  0.31177237635E+03  0.17120000000E+03 0.  0.
        998    1    1    2    0    0  0.71372314439E+01  0.68635914261E+01  0.17111363927E+03  0.17169136992E+03  0.10000000000E+02 0. -1.
</event>
<event>
 5    1  0.1640179E-008  0.3756257E+03  0.7957747E-01  0.3470429E+00
         13   -1    0    0    0    0  0.00000000000E+00  0.00000000000E+00  0.14999999963E+04  0.15000000000E+04  0.10566000000E+00 0. -1.
        994   -1    0    0    0    0 -0.00000000000E+00 -0.00000000000E+00  0.11368683772E-12  0.17120000000E+03  0.17120000000E+03 0.  0.
         13    1    1    2    0    0  0.72489145765E+01 -0.31691059506E+02  0.86999727735E+02  0.92875367053E+02  0.10566000000E+00 0. -1.
        994    1    1    2    0    0  0.24400645698E+01  0.26516296540E+01  0.64018106628E+01  0.17135754502E+03  0.17120000000E+03 0.  0.
        998    1    1    2    0    0 -0.96889791463E+01  0.29039429852E+02  0.14065984579E+04  0.14069670879E+04  0.10000000000E+02 0. -1.
</event>
<event>
 5    1  0.1640179E-008  0.2871466E+03  0.7957747E-01  0.3992280E+00
         13   -1    0    0    0    0  0.00000000000E+00  0.00000000000E+00  0.14999999963E+04  0.15000000000E+04  0.10566000000E+00 0. -1.
        994   -1    0    0    0    0 -0.00000000000E+00 -0.00000000000E+00  0.11368683772E-12  0.17120000000E+03  0.17120000000E+03 0.  0.
         13    1    1    2    0    0  0.57253781553E+02  0.12069217922E+03  0.78640179700E+03  0.79766684469E+03  0.10566000000E+00 0. -1.
        994    1    1    2    0    0 -0.32594812400E+02  0.60992700670E+01  0.28990807008E+02  0.17677536531E+03  0.17120000000E+03 0.  0.
        998    1    1    2    0    0 -0.24658969153E+02 -0.12679144928E+03  0.68460739227E+03  0.69675779000E+03  0.10000000000E+02 0. -1.
</event>
<event>
 5    1  0.1640179E-008  0.3831112E+03  0.7957747E-01  0.3437722E+00
         13   -1    0    0    0    0  0.00000000000E+00  0.00000000000E+00  0.14999999963E+04  0.15000000000E+04  0.10566000000E+00 0.  1.
        994   -1    0    0    0    0 -0.00000000000E+00 -0.00000000000E+00  0.11368683772E-12  0.17120000000E+03  0.17120000000E+03 0.  0.
         13    1    1    2    0    0  0.16986615916E+02 -0.12845152742E+02  0.92979306615E+02  0.95387135883E+02  0.10566000000E+00 0.  1.
        994    1    1    2    0    0  0.84643575827E+01  0.17767527044E+02  0.38534720722E+01  0.17237058802E+03  0.17120000000E+03 0.  0.
        998    1    1    2    0    0 -0.25450973499E+02 -0.49223743016E+01  0.14031672176E+04  0.14034422761E+04  0.10000000000E+02 0.  1.
</event>
<event>
 5    1  0.1640179E-008  0.3710364E+03  0.7957747E-01  0.3491141E+00
         13   -1    0    0    0    0  0.00000000000E+00  0.00000000000E+00  0.14999999963E+04  0.15000000000E+04  0.10566000000E+00 0. -1.
        994   -1    0    0    0    0 -0.00000000000E+00 -0.00000000000E+00  0.11368683772E-12  0.17120000000E+03  0.17120000000E+03 0.  0.
         13    1    1    2    0    0 -0.84696193400E+02  0.25319612368E+02  0.34341465100E+03  0.35460987244E+03  0.10566000000E+00 0. -1.
        994    1    1    2    0    0  0.81812875481E+02 -0.31059785903E+02  0.35594594200E+02  0.19553637010E+03  0.17120000000E+03 0.  0.
        998    1    1    2    0    0  0.28833179191E+01  0.57401735353E+01  0.11209907511E+04  0.11210537575E+04  0.10000000000E+02 0. -1.
</event>
<event>
 5    1  0.1640179E-008  0.3742844E+03  0.7957747E-01  0.3476429E+00
         13   -1    0    0    0    0  0.00000000000E+00  0.00000000000E+00  0.14999999963E+04  0.15000000000E+04  0.10566000000E+00 0.  1.
        994   -1    0    0    0    0 -0.00000000000E+00 -0.00000000000E+00  0.11368683772E-12  0.17120000000E+03  0.17120000000E+03 0.  0.
         13    1    1    2    0    0 -0.40765397385E+02 -0.20258767331E+02  0.13634901188E+03  0.14374734600E+03  0.10566000000E+00 0.  1.
        994    1    1    2    0    0  0.33410354234E+02  0.21588313333E+02  0.12457407661E+02  0.17620140195E+03  0.17120000000E+03 0.  0.
        998    1    1    2    0    0  0.73550431517E+01 -0.13295460020E+01  0.13511935767E+04  0.13512512521E+04  0.10000000000E+02 0.  1.
</event>
<event>
 5    1  0.1640179E-008  0.3834905E+03  0.7957747E-01  0.3436099E+00
         13   -1    0    0    0    0  0.00000000000E+00  0.00000000000E+00  0.14999999963E+04  0.15000000000E+04  0.10566000000E+00 0. -1.
        994   -1    0    0    0    0 -0.00000000000E+00 -0.00000000000E+00  0.11368683772E-12  0.17120000000E+03  0.17120000000E+03 0.  0.
         13    1    1    2    0    0 -0.19950463115E+02 -0.32330596834E+01  0.92332983198E+02  0.94519122953E+02  0.10566000000E+00 0. -1.
        994    1    1    2    0    0 -0.22759367421E+00  0.23892030552E+01  0.24004738520E+01  0.17123364846E+03  0.17120000000E+03 0.  0.
        998    1    1    2    0    0  0.20178056789E+02  0.84385662826E+00  0.14052665392E+04  0.14054472286E+04  0.10000000000E+02 0. -1.
</event>
<event>
 5    1  0.1640179E-008  0.3852605E+03  0.7957747E-01  0.3428568E+00
         13   -1    0    0    0    0  0.00000000000E+00  0.00000000000E+00  0.14999999963E+04  0.15000000000E+04  0.10566000000E+00 0.  1.
        994   -1    0    0    0    0 -0.00000000000E+00 -0.00000000000E+00  0.11368683772E-12  0.17120000000E+03  0.17120000000E+03 0.  0.
         13    1    1    2    0    0 -0.14723159841E+02  0.67314838692E+01  0.92843140216E+02  0.94244066975E+02  0.10566000000E+00 0.  1.
        994    1    1    2    0    0  0.10619497538E+02  0.14523412800E+02  0.25652310111E+01  0.17216191117E+03  0.17120000000E+03 0.  0.
        998    1    1    2    0    0  0.41036623024E+01 -0.21254896669E+02  0.14045916251E+04  0.14047940219E+04  0.10000000000E+02 0.  1.
</event>
<event>
 5    1  0.1640179E-008  0.3859589E+03  0.7957747E-01  0.3425616E+00
         13   -1    0    0    0    0  0.00000000000E+00  0.00000000000E+00  0.14999999963E+04  0.15000000000E+04  0.10566000000E+00 0.  1.
        994   -1    0    0    0    0 -0.00000000000E+00 -0.00000000000E+00  0.11368683772E-12  0.17120000000E+03  0.17120000000E+03 0.  0.
         13    1    1    2    0    0 -0.93180105370E+01  0.94022394662E+01  0.79165138285E+02  0.80264299106E+02  0.10566000000E+00 0.  1.
        994    1    1    2    0    0  0.44462940772E+01 -0.24762634845E+01  0.12397485093E+01  0.17128011673E+03  0.17120000000E+03 0.  0.
        998    1    1    2    0    0  0.48717164599E+01 -0.69259759818E+01  0.14195951095E+04  0.14196555842E+04  0.10000000000E+02 0.  1.
</event>
<event>
 5    1  0.1640179E-008  0.3830429E+03  0.7957747E-01  0.3438015E+00
         13   -1    0    0    0    0  0.00000000000E+00  0.00000000000E+00  0.14999999963E+04  0.15000000000E+04  0.10566000000E+00 0.  1.
        994   -1    0    0    0    0 -0.00000000000E+00 -0.00000000000E+00  0.11368683772E-12  0.17120000000E+03  0.17120000000E+03 0.  0.
         13    1    1    2    0    0  0.21947480839E+02 -0.14191488265E+02  0.11719969758E+03  0.12007860147E+03  0.10566000000E+00 0.  1.
        994    1    1    2    0    0 -0.76424642349E+01  0.49989085899E+02  0.11115275095E+02  0.17885833866E+03  0.17120000000E+03 0.  0.
        998    1    1    2    0    0 -0.14305016604E+02 -0.35797597634E+02  0.13716850236E+04  0.13722630599E+04  0.10000000000E+02 0.  1.
</event>
<event>
 5    1  0.1640179E-008  0.3848195E+03  0.7957747E-01  0.3430438E+00
         13   -1    0    0    0    0  0.00000000000E+00  0.00000000000E+00  0.14999999963E+04  0.15000000000E+04  0.10566000000E+00 0. -1.
        994   -1    0    0    0    0 -0.00000000000E+00 -0.00000000000E+00  0.11368683772E-12  0.17120000000E+03  0.17120000000E+03 0.  0.
         13    1    1    2    0    0 -0.99645378544E+01 -0.11360932197E+02  0.70876740599E+02  0.72469899386E+02  0.10566000000E+00 0. -1.
        994    1    1    2    0    0  0.17330539068E+01 -0.18806183168E+01  0.17412878256E+01  0.17122795416E+03  0.17120000000E+03 0.  0.
        998    1    1    2    0    0  0.82314839476E+01  0.13241550514E+02  0.14273819679E+04  0.14275021465E+04  0.10000000000E+02 0. -1.
</event>
<event>
 5    1  0.1640179E-008  0.3828615E+03  0.7957747E-01  0.3438793E+00
         13   -1    0    0    0    0  0.00000000000E+00  0.00000000000E+00  0.14999999963E+04  0.15000000000E+04  0.10566000000E+00 0. -1.
        994   -1    0    0    0    0 -0.00000000000E+00 -0.00000000000E+00  0.11368683772E-12  0.17120000000E+03  0.17120000000E+03 0.  0.
         13    1    1    2    0    0  0.23745318778E+01  0.12930987066E+02  0.31484051150E+02  0.34118989859E+02  0.10566000000E+00 0. -1.
        994    1    1    2    0    0 -0.65912121897E+01 -0.48816210002E+01  0.29184306359E+01  0.17142121088E+03  0.17120000000E+03 0.  0.
        998    1    1    2    0    0  0.42166803119E+01 -0.80493660657E+01  0.14655975145E+04  0.14656597993E+04  0.10000000000E+02 0. -1.
</event>
<event>
 5    1  0.1640179E-008  0.3744380E+03  0.7957747E-01  0.3475740E+00
         13   -1    0    0    0    0  0.00000000000E+00  0.00000000000E+00  0.14999999963E+04  0.15000000000E+04  0.10566000000E+00 0. -1.
        994   -1    0    0    0    0 -0.00000000000E+00 -0.00000000000E+00  0.11368683772E-12  0.17120000000E+03  0.17120000000E+03 0.  0.
         13    1    1    2    0    0 -0.17594100213E+02  0.15623278348E+02  0.35885774409E+02  0.42911993167E+02  0.10566000000E+00 0. -1.
        994    1    1    2    0    0  0.16692788411E+02 -0.20404780016E+02  0.93381575557E+01  0.17346943656E+03  0.17120000000E+03 0.  0.
        998    1    1    2    0    0  0.90131180143E+00  0.47815016680E+01  0.14547760643E+04  0.14548185703E+04  0.10000000000E+02 0. -1.
</event>
<event>
 5    1  0.1640179E-008  0.3814010E+03  0.7957747E-01  0.3445081E+00
         13   -1    0    0    0    0  0.00000000000E+00  0.00000000000E+00  0.14999999963E+04  0.15000000000E+04  0.10566000000E+00 0. -1.
        994   -1    0    0    0    0 -0.00000000000E+00 -0.00000000000E+00  0.11368683772E-12  0.17120000000E+03  0.17120000000E+03 0.  0.
         13    1    1    2    0    0  0.13178355014E+02  0.19025381627E+02  0.77264184805E+02  0.80656057457E+02  0.10566000000E+00 0. -1.
        994    1    1    2    0    0 -0.15676056711E+02 -0.59787017329E+01  0.43648132727E+01  0.17207549280E+03  0.17120000000E+03 0.  0.
        998    1    1    2    0    0  0.24977016969E+01 -0.13046679894E+02  0.14183709982E+04  0.14184684497E+04  0.10000000000E+02 0. -1.
</event>
<event>
 5    1  0.1640179E-008  0.3818735E+03  0.7957747E-01  0.3443041E+00
         13   -1    0    0    0    0  0.00000000000E+00  0.00000000000E+00  0.14999999963E+04  0.15000000000E+04  0.10566000000E+00 0. -1.
        994   -1    0    0    0    0 -0.00000000000E+00 -0.00000000000E+00  0.11368683772E-12  0.17120000000E+03  0.17120000000E+03 0.  0.
         13    1    1    2    0    0 -0.23646733000E+02 -0.18878226027E+02  0.14862202021E+03  0.15167093148E+03  0.10566000000E+00 0. -1.
        994    1    1    2    0    0  0.15005110675E+02  0.61769273450E+00  0.39400315582E+01  0.17190258503E+03  0.17120000000E+03 0.  0.
        998    1    1    2    0    0  0.86416223257E+01  0.18260533292E+02  0.13474379445E+04  0.13476264835E+04  0.10000000000E+02 0. -1.
</event>
<event>
 5    1  0.1640179E-008  0.3715023E+03  0.7957747E-01  0.3489015E+00
         13   -1    0    0    0    0  0.00000000000E+00  0.00000000000E+00  0.14999999963E+04  0.15000000000E+04  0.10566000000E+00 0.  1.
        994   -1    0    0    0    0 -0.00000000000E+00 -0.00000000000E+00  0.11368683772E-12  0.17120000000E+03  0.17120000000E+03 0.  0.
         13    1    1    2    0    0  0.34942831521E+02 -0.29348959174E+02  0.15697962198E+03  0.16347775311E+03  0.10566000000E+00 0.  1.
        994    1    1    2    0    0  0.17099100256E+02 -0.22392956885E+02  0.11221422642E+02  0.17386541943E+03  0.17120000000E+03 0.  0.
        998    1    1    2    0    0 -0.52041931777E+02  0.51741916059E+02  0.13317989517E+04  0.13338568275E+04  0.10000000000E+02 0.  1.
</event>
<event>
 5    1  0.1902071E-008  0.3858007E+03  0.7957747E-01  0.3426283E+00
         13   -1    0    0    0    0  0.00000000000E+00  0.00000000000E+00  0.14999999963E+04  0.15000000000E+04  0.10566000000E+00 0. -1.
        994   -1    0    0    0    0 -0.00000000000E+00 -0.00000000000E+00  0.11368683772E-12  0.17120000000E+03  0.17120000000E+03 0.  0.
         13    1    1    2    0    0  0.85329319352E+01 -0.10531790001E+02  0.70719037229E+02  0.72006408872E+02  0.10566000000E+00 0. -1.
        994    1    1    2    0    0 -0.10039876969E+02  0.13848707298E+02  0.21934277542E+01  0.17206637367E+03  0.17120000000E+03 0.  0.
        998    1    1    2    0    0  0.15069450342E+01 -0.33169172966E+01  0.14270875313E+04  0.14271272175E+04  0.10000000000E+02 0. -1.
</event>
<event>
 5    1  0.1640179E-008  0.3843529E+03  0.7957747E-01  0.3432421E+00
         13   -1    0    0    0    0  0.00000000000E+00  0.00000000000E+00  0.14999999963E+04  0.15000000000E+04  0.10566000000E+00 0.  1.
        994   -1    0    0    0    0 -0.00000000000E+00 -0.00000000000E+00  0.11368683772E-12  0.17120000000E+03  0.17120000000E+03 0.  0.
         13    1    1    2    0    0 -0.73016728152E+01  0.10905537743E+02  0.43223893303E+02  0.45172572383E+02  0.10566000000E+00 0.  1.
        994    1    1    2    0    0  0.66687881110E+01 -0.91951169430E+01  0.23770677937E+01  0.17159287095E+03  0.17120000000E+03 0.  0.
        998    1    1    2    0    0  0.63288470420E+00 -0.17104207999E+01  0.14543990352E+04  0.14544345567E+04  0.10000000000E+02 0.  1.
</event>
<event>
 5    1  0.1640179E-008  0.3840331E+03  0.7957747E-01  0.3433783E+00
         13   -1    0    0    0    0  0.00000000000E+00  0.00000000000E+00  0.14999999963E+04  0.15000000000E+04  0.10566000000E+00 0.  1.
        994   -1    0    0    0    0 -0.00000000000E+00 -0.00000000000E+00  0.11368683772E-12  0.17120000000E+03  0.17120000000E+03 0.  0.
         13    1    1    2    0    0 -0.13320170184E+02 -0.12382186299E+02  0.76585830802E+02  0.78715602741E+02  0.10566000000E+00 0.  1.
        994    1    1    2    0    0  0.11582191068E+02  0.89282087285E+01  0.28167688899E+01  0.17184654273E+03  0.17120000000E+03 0.  0.
        998    1    1    2    0    0  0.17379791157E+01  0.34539775706E+01  0.14205973966E+04  0.14206378545E+04  0.10000000000E+02 0.  1.
</event>
<event>
 5    1  0.1640179E-008  0.3857308E+03  0.7957747E-01  0.3426579E+00
         13   -1    0    0    0    0  0.00000000000E+00  0.00000000000E+00  0.14999999963E+04  0.15000000000E+04  0.10566000000E+00 0. -1.
        994   -1    0    0    0    0 -0.00000000000E+00 -0.00000000000E+00  0.11368683772E-12  0.17120000000E+03  0.17120000000E+03 0.  0.
         13    1    1    2    0    0  0.57512454449E+01 -0.10432411730E+02  0.57414429420E+02  0.58637359322E+02  0.10566000000E+00 0. -1.
        994    1    1    2    0    0  0.14175702261E+01  0.69077085922E+01  0.14309005538E+01  0.17135114070E+03  0.17120000000E+03 0.  0.
        998    1    1    2    0    0 -0.71688156710E+01  0.35247031374E+01  0.14411546663E+04  0.14412115000E+04  0.10000000000E+02 0. -1.
</event>
<event>
 5    1  0.1640179E-008  0.3697636E+03  0.7957747E-01  0.3496978E+00
         13   -1    0    0    0    0  0.00000000000E+00  0.00000000000E+00  0.14999999963E+04  0.15000000000E+04  0.10566000000E+00 0.  1.
        994   -1    0    0    0    0 -0.00000000000E+00 -0.00000000000E+00  0.11368683772E-12  0.17120000000E+03  0.17120000000E+03 0.  0.
         13    1    1    2    0    0  0.72884149039E+01  0.66572414669E+02  0.31416685124E+03  0.32122551108E+03  0.10566000000E+00 0.  1.
        994    1    1    2    0    0  0.27046182072E+02  0.21335299000E+02  0.14970427454E+02  0.17527191631E+03  0.17120000000E+03 0.  0.
        998    1    1    2    0    0 -0.34334596976E+02 -0.87907713668E+02  0.11708627176E+04  0.11747025726E+04  0.10000000000E+02 0.  0.
</event>
<event>
 5    1  0.1640179E-008  0.3799907E+03  0.7957747E-01  0.3451199E+00
         13   -1    0    0    0    0  0.00000000000E+00  0.00000000000E+00  0.14999999963E+04  0.15000000000E+04  0.10566000000E+00 0. -1.
        994   -1    0    0    0    0 -0.00000000000E+00 -0.00000000000E+00  0.11368683772E-12  0.17120000000E+03  0.17120000000E+03 0.  0.
         13    1    1    2    0    0  0.22592509603E+01  0.15389304690E+02  0.27655051049E+02  0.31729291298E+02  0.10566000000E+00 0. -1.
        994    1    1    2    0    0 -0.10947165207E+00 -0.97773903485E+01  0.44575317885E+01  0.17153693170E+03  0.17120000000E+03 0.  0.
        998    1    1    2    0    0 -0.21497793083E+01 -0.56119143420E+01  0.14678874134E+04  0.14679337770E+04  0.10000000000E+02 0. -1.
</event>
<event>
 5    1  0.1640179E-008  0.3779361E+03  0.7957747E-01  0.3460195E+00
         13   -1    0    0    0    0  0.00000000000E+00  0.00000000000E+00  0.14999999963E+04  0.15000000000E+04  0.10566000000E+00 0.  1.
        994   -1    0    0    0    0 -0.00000000000E+00 -0.00000000000E+00  0.11368683772E-12  0.17120000000E+03  0.17120000000E+03 0.  0.
         13    1    1    2    0    0  0.12861458883E+01 -0.37321621444E+02  0.13841658782E+03  0.14336568817E+03  0.10566000000E+00 0.  1.
        994    1    1    2    0    0 -0.98435090607E+01  0.14455747472E+02  0.62087959095E+01  0.17220293973E+03  0.17120000000E+03 0.  0.
        998    1    1    2    0    0  0.85573631724E+01  0.22865873972E+02  0.13553746126E+04  0.13556313721E+04  0.10000000000E+02 0.  1.
</event>
<event>
 5    1  0.1640179E-008  0.3790064E+03  0.7957747E-01  0.3455496E+00
         13   -1    0    0    0    0  0.00000000000E+00  0.00000000000E+00  0.14999999963E+04  0.15000000000E+04  0.10566000000E+00 0. -1.
        994   -1    0    0    0    0 -0.00000000000E+00 -0.00000000000E+00  0.11368683772E-12  0.17120000000E+03  0.17120000000E+03 0.  0.
         13    1    1    2    0    0  0.22395691376E+02  0.20622536317E+02  0.92107620578E+02  0.97008664195E+02  0.10566000000E+00 0. -1.
        994    1    1    2    0    0 -0.23534311365E+02 -0.22541238439E+02  0.82055640514E+01  0.17446702417E+03  0.17120000000E+03 0.  0.
        998    1    1    2    0    0  0.11386199894E+01  0.19187021216E+01  0.13996868116E+04  0.13997243116E+04  0.10000000000E+02 0. -1.
</event>
<event>
 5    1  0.1640179E-008  0.3738083E+03  0.7957747E-01  0.3478570E+00
         13   -1    0    0    0    0  0.00000000000E+00  0.00000000000E+00  0.14999999963E+04  0.15000000000E+04  0.10566000000E+00 0.  1.
        994   -1    0    0    0    0 -0.00000000000E+00 -0.00000000000E+00  0.11368683772E-12  0.17120000000E+03  0.17120000000E+03 0.  0.
         13    1    1    2    0    0  0.42947834375E+02 -0.36309139974E+02  0.11151630651E+03  0.12489502754E+03  0.10566000000E+00 0.  1.
        994    1    1    2    0    0 -0.37946012148E+02  0.34065128367E+02  0.22238296532E+02  0.18001198472E+03  0.17120000000E+03 0.  0.
        998    1    1    2    0    0 -0.50018222274E+01  0.22440116064E+01  0.13662453932E+04  0.13662929877E+04  0.10000000000E+02 0.  1.
</event>
<event>
 5    1  0.1640179E-008  0.3761148E+03  0.7957747E-01  0.3468252E+00
         13   -1    0    0    0    0  0.00000000000E+00  0.00000000000E+00  0.14999999963E+04  0.15000000000E+04  0.10566000000E+00 0. -1.
        994   -1    0    0    0    0 -0.00000000000E+00 -0.00000000000E+00  0.11368683772E-12  0.17120000000E+03  0.17120000000E+03 0.  0.
         13    1    1    2    0    0 -0.25448759972E+02 -0.10767858415E+02  0.61065469538E+02  0.67026777432E+02  0.10566000000E+00 0. -1.
        994    1    1    2    0    0  0.98962068525E+01  0.11832807724E+02  0.69135855078E+01  0.17203251993E+03  0.17120000000E+03 0.  0.
        998    1    1    2    0    0  0.15552553119E+02 -0.10649493095E+01  0.14320209412E+04  0.14321407026E+04  0.10000000000E+02 0. -1.
</event>
<event>
 5    1  0.1640179E-008  0.3825616E+03  0.7957747E-01  0.3440080E+00
         13   -1    0    0    0    0  0.00000000000E+00  0.00000000000E+00  0.14999999963E+04  0.15000000000E+04  0.10566000000E+00 0. -1.
        994   -1    0    0    0    0 -0.00000000000E+00 -0.00000000000E+00  0.11368683772E-12  0.17120000000E+03  0.17120000000E+03 0.  0.
         13    1    1    2    0    0  0.11879743344E+02  0.37685720756E+01  0.27896028543E+02  0.30553723339E+02  0.10566000000E+00 0. -1.
        994    1    1    2    0    0  0.59477462620E+01  0.11363937233E+02  0.33911638274E+01  0.17171329228E+03  0.17120000000E+03 0.  0.
        998    1    1    2    0    0 -0.17827489606E+02 -0.15132509309E+02  0.14687128039E+04  0.14689329844E+04  0.10000000000E+02 0. -1.
</event>
<event>
 5    1  0.1640179E-008  0.3821885E+03  0.7957747E-01  0.3441684E+00
         13   -1    0    0    0    0  0.00000000000E+00  0.00000000000E+00  0.14999999963E+04  0.15000000000E+04  0.10566000000E+00 0. -1.
        994   -1    0    0    0    0 -0.00000000000E+00 -0.00000000000E+00  0.11368683772E-12  0.17120000000E+03  0.17120000000E+03 0.  0.
         13    1    1    2    0    0  0.19012803652E+02  0.11541101279E+02  0.81395534226E+02  0.84379665070E+02  0.10566000000E+00 0. -1.
        994    1    1    2    0    0 -0.12672711973E+02 -0.25236242725E+01  0.35868021913E+01  0.17172440554E+03  0.17120000000E+03 0.  0.
        998    1    1    2    0    0 -0.63400916788E+01 -0.90174770066E+01  0.14150176599E+04  0.14150959294E+04  0.10000000000E+02 0. -1.
</event>
<event>
 5    1  0.1640179E-008  0.3741213E+03  0.7957747E-01  0.3477162E+00
         13   -1    0    0    0    0  0.00000000000E+00  0.00000000000E+00  0.14999999963E+04  0.15000000000E+04  0.10566000000E+00 0.  1.
        994   -1    0    0    0    0 -0.00000000000E+00 -0.00000000000E+00  0.11368683772E-12  0.17120000000E+03  0.17120000000E+03 0.  0.
         13    1    1    2    0    0  0.22912290702E+02 -0.20127615726E+02  0.66736850952E+02  0.73375148512E+02  0.10566000000E+00 0.  1.
        994    1    1    2    0    0 -0.61119746162E+01 -0.57305681496E+01  0.73700124015E+01  0.17156326159E+03  0.17120000000E+03 0.  0.
        998    1    1    2    0    0 -0.16800316086E+02  0.25858183875E+02  0.14258931329E+04  0.14262615899E+04  0.10000000000E+02 0.  1.
</event>
<event>
 5    1  0.1640179E-008  0.3815047E+03  0.7957747E-01  0.3444633E+00
         13   -1    0    0    0    0  0.00000000000E+00  0.00000000000E+00  0.14999999963E+04  0.15000000000E+04  0.10566000000E+00 0. -1.
        994   -1    0    0    0    0 -0.00000000000E+00 -0.00000000000E+00  0.11368683772E-12  0.17120000000E+03  0.17120000000E+03 0.  0.
         13    1    1    2    0    0  0.24559557870E+01  0.27276993865E+02  0.14459493264E+02  0.30970215088E+02  0.10566000000E+00 0. -1.
        994    1    1    2    0    0 -0.10170036487E+02 -0.24780562559E+02  0.19774788514E+02  0.17440753477E+03  0.17120000000E+03 0.  0.
        998    1    1    2    0    0  0.77140807005E+01 -0.24964313060E+01  0.14657657145E+04  0.14658222501E+04  0.10000000000E+02 0. -1.
</event>
<event>
 5    1  0.1640179E-008  0.3850611E+03  0.7957747E-01  0.3429413E+00
         13   -1    0    0    0    0  0.00000000000E+00  0.00000000000E+00  0.14999999963E+04  0.15000000000E+04  0.10566000000E+00 0. -1.
        994   -1    0    0    0    0 -0.00000000000E+00 -0.00000000000E+00  0.11368683772E-12  0.17120000000E+03  0.17120000000E+03 0.  0.
         13    1    1    2    0    0 -0.93244334948E+01  0.14564546200E+02  0.10405964663E+03  0.10548692945E+03  0.10566000000E+00 0. -1.
        994    1    1    2    0    0 -0.41023002903E+01 -0.55793552736E+00  0.16561913871E+01  0.17125806004E+03  0.17120000000E+03 0.  0.
        998    1    1    2    0    0  0.13426733785E+02 -0.14006610673E+02  0.13942841583E+04  0.13944550105E+04  0.10000000000E+02 0. -1.
</event>
<event>
 5    1  0.1640179E-008  0.3852525E+03  0.7957747E-01  0.3428602E+00
         13   -1    0    0    0    0  0.00000000000E+00  0.00000000000E+00  0.14999999963E+04  0.15000000000E+04  0.10566000000E+00 0. -1.
        994   -1    0    0    0    0 -0.00000000000E+00 -0.00000000000E+00  0.11368683772E-12  0.17120000000E+03  0.17120000000E+03 0.  0.
         13    1    1    2    0    0 -0.11282212975E+02  0.64476613341E+00  0.43706353766E+02  0.45143776719E+02  0.10566000000E+00 0. -1.
        994    1    1    2    0    0  0.26496744856E+01  0.62361463370E+01  0.16557106516E+01  0.17134203125E+03  0.17120000000E+03 0.  0.
        998    1    1    2    0    0  0.86325384893E+01 -0.68809124704E+01  0.14546379319E+04  0.14547141920E+04  0.10000000000E+02 0. -1.
</event>
<event>
 5    1  0.1640179E-008  0.3854866E+03  0.7957747E-01  0.3427611E+00
         13   -1    0    0    0    0  0.00000000000E+00  0.00000000000E+00  0.14999999963E+04  0.15000000000E+04  0.10566000000E+00 0. -1.
        994   -1    0    0    0    0 -0.00000000000E+00 -0.00000000000E+00  0.11368683772E-12  0.17120000000E+03  0.17120000000E+03 0.  0.
         13    1    1    2    0    0 -0.13556129916E+02  0.59507787594E+01  0.83093244335E+02  0.84401888867E+02  0.10566000000E+00 0. -1.
        994    1    1    2    0    0  0.94285533026E+00 -0.71657192382E+01  0.15602853412E+01  0.17135959558E+03  0.17120000000E+03 0.  0.
        998    1    1    2    0    0  0.12613274585E+02  0.12149404788E+01  0.14153464666E+04  0.14154385155E+04  0.10000000000E+02 0. -1.
</event>
<event>
 5    1  0.1640179E-008  0.3837019E+03  0.7957747E-01  0.3435196E+00
         13   -1    0    0    0    0  0.00000000000E+00  0.00000000000E+00  0.14999999963E+04  0.15000000000E+04  0.10566000000E+00 0. -1.
        994   -1    0    0    0    0 -0.00000000000E+00 -0.00000000000E+00  0.11368683772E-12  0.17120000000E+03  0.17120000000E+03 0.  0.
         13    1    1    2    0    0  0.16453758039E+02  0.12804604534E+02  0.78313795015E+02  0.81041629454E+02  0.10566000000E+00 0. -1.
        994    1    1    2    0    0 -0.25015831250E+02 -0.44219234299E+02  0.10847404982E+02  0.17890846456E+03  0.17120000000E+03 0.  0.
        998    1    1    2    0    0  0.85620732118E+01  0.31414629765E+02  0.14108387963E+04  0.14112499060E+04  0.10000000000E+02 0. -1.
</event>
<event>
 5    1  0.1640179E-008  0.3754320E+03  0.7957747E-01  0.3471293E+00
         13   -1    0    0    0    0  0.00000000000E+00  0.00000000000E+00  0.14999999963E+04  0.15000000000E+04  0.10566000000E+00 0. -1.
        994   -1    0    0    0    0 -0.00000000000E+00 -0.00000000000E+00  0.11368683772E-12  0.17120000000E+03  0.17120000000E+03 0.  0.
         13    1    1    2    0    0 -0.27275220789E+02  0.26826599332E+02  0.10735653923E+03  0.11396947741E+03  0.10566000000E+00 0. -1.
        994    1    1    2    0    0  0.20491319367E+02 -0.23268073264E+02  0.97268682777E+01  0.17425656191E+03  0.17120000000E+03 0.  0.
        998    1    1    2    0    0  0.67839014221E+01 -0.35585260690E+01  0.13829165888E+04  0.13829739607E+04  0.10000000000E+02 0. -1.
</event>
<event>
 5    1  0.1640179E-008  0.3834361E+03  0.7957747E-01  0.3436332E+00
         13   -1    0    0    0    0  0.00000000000E+00  0.00000000000E+00  0.14999999963E+04  0.15000000000E+04  0.10566000000E+00 0. -1.
        994   -1    0    0    0    0 -0.00000000000E+00 -0.00000000000E+00  0.11368683772E-12  0.17120000000E+03  0.17120000000E+03 0.  0.
         13    1    1    2    0    0 -0.17217804273E+03  0.92803606847E+02  0.11565476403E+04  0.11729706915E+04  0.10566000000E+00 0. -1.
        994    1    1    2    0    0  0.16959735914E+03 -0.99888591794E+02  0.14319816060E+03  0.29758385070E+03  0.17120000000E+03 0.  0.
        998    1    1    2    0    0  0.25806835859E+01  0.70849849470E+01  0.20025419541E+03  0.20064545776E+03  0.10000000000E+02 0.  1.
</event>
<event>
 5    1  0.1640179E-008  0.3859448E+03  0.7957747E-01  0.3425675E+00
         13   -1    0    0    0    0  0.00000000000E+00  0.00000000000E+00  0.14999999963E+04  0.15000000000E+04  0.10566000000E+00 0.  1.
        994   -1    0    0    0    0 -0.00000000000E+00 -0.00000000000E+00  0.11368683772E-12  0.17120000000E+03  0.17120000000E+03 0.  0.
         13    1    1    2    0    0 -0.29675213010E+00 -0.11983888998E+02  0.67138306513E+02  0.68200183451E+02  0.10566000000E+00 0.  1.
        994    1    1    2    0    0  0.44425898839E+00 -0.13078824850E+01  0.11680579275E+01  0.17120955663E+03  0.17120000000E+03 0.  0.
        998    1    1    2    0    0 -0.14750685829E+00  0.13291771483E+02  0.14316936318E+04  0.14317902599E+04  0.10000000000E+02 0.  1.
</event>
<event>
 5    1  0.1640179E-008  0.3814575E+03  0.7957747E-01  0.3444837E+00
         13   -1    0    0    0    0  0.00000000000E+00  0.00000000000E+00  0.14999999963E+04  0.15000000000E+04  0.10566000000E+00 0.  1.
        994   -1    0    0    0    0 -0.00000000000E+00 -0.00000000000E+00  0.11368683772E-12  0.17120000000E+03  0.17120000000E+03 0.  0.
         13    1    1    2    0    0  0.28819604729E+02  0.18720382632E+02  0.18069553084E+03  0.18393452197E+03  0.10566000000E+00 0.  1.
        994    1    1    2    0    0 -0.26222093318E+02  0.12689305942E+02  0.62276192188E+01  0.17377237958E+03  0.17120000000E+03 0.  0.
        998    1    1    2    0    0 -0.25975114110E+01 -0.31409688573E+02  0.13130768462E+04  0.13134930985E+04  0.10000000000E+02 0.  1.
</event>
<event>
 5    1  0.1640179E-008  0.3686930E+03  0.7957747E-01  0.3501919E+00
         13   -1    0    0    0    0  0.00000000000E+00  0.00000000000E+00  0.14999999963E+04  0.15000000000E+04  0.10566000000E+00 0.  1.
        994   -1    0    0    0    0 -0.00000000000E+00 -0.00000000000E+00  0.11368683772E-12  0.17120000000E+03  0.17120000000E+03 0.  0.
         13    1    1    2    0    0 -0.58756498783E+02 -0.36955787908E+02  0.24587572190E+03  0.25548569078E+03  0.10566000000E+00 0.  1.
        994    1    1    2    0    0  0.22723351676E+02  0.30860640333E+02  0.15072478287E+02  0.17608335934E+03  0.17120000000E+03 0.  0.
        998    1    1    2    0    0  0.36033147107E+02  0.60951475750E+01  0.12390517961E+04  0.12396309499E+04  0.10000000000E+02 0. -1.
</event>
<event>
 5    1  0.1640179E-008  0.3861895E+03  0.7957747E-01  0.3424643E+00
         13   -1    0    0    0    0  0.00000000000E+00  0.00000000000E+00  0.14999999963E+04  0.15000000000E+04  0.10566000000E+00 0.  1.
        994   -1    0    0    0    0 -0.00000000000E+00 -0.00000000000E+00  0.11368683772E-12  0.17120000000E+03  0.17120000000E+03 0.  0.
         13    1    1    2    0    0 -0.65480537071E+01 -0.75821459962E+01  0.51138832896E+02  0.52111009770E+02  0.10566000000E+00 0.  1.
        994    1    1    2    0    0  0.15886081204E+02 -0.12233665813E+02  0.23588907378E+01  0.17238629447E+03  0.17120000000E+03 0.  0.
        998    1    1    2    0    0 -0.93380274969E+01  0.19815811809E+02  0.14465022726E+04  0.14467026958E+04  0.10000000000E+02 0.  1.
</event>
<event>
 5    1  0.1640179E-008  0.3852177E+03  0.7957747E-01  0.3428749E+00
         13   -1    0    0    0    0  0.00000000000E+00  0.00000000000E+00  0.14999999963E+04  0.15000000000E+04  0.10566000000E+00 0. -1.
        994   -1    0    0    0    0 -0.00000000000E+00 -0.00000000000E+00  0.11368683772E-12  0.17120000000E+03  0.17120000000E+03 0.  0.
         13    1    1    2    0    0  0.46471653272E+01  0.14757090948E+02  0.84213694573E+02  0.85623159230E+02  0.10566000000E+00 0. -1.
        994    1    1    2    0    0 -0.31333197297E+01 -0.38166335229E+00  0.15548390687E+01  0.17123615531E+03  0.17120000000E+03 0.  0.
        998    1    1    2    0    0 -0.15138455975E+01 -0.14375427596E+02  0.14142314626E+04  0.14143406855E+04  0.10000000000E+02 0. -1.
</event>
<event>
 5    1  0.1640179E-008  0.3767167E+03  0.7957747E-01  0.3465581E+00
         13   -1    0    0    0    0  0.00000000000E+00  0.00000000000E+00  0.14999999963E+04  0.15000000000E+04  0.10566000000E+00 0.  1.
        994   -1    0    0    0    0 -0.00000000000E+00 -0.00000000000E+00  0.11368683772E-12  0.17120000000E+03  0.17120000000E+03 0.  0.
         13    1    1    2    0    0  0.13802385700E+02  0.25650830165E+01  0.14281966020E+02  0.20026762577E+02  0.10566000000E+00 0.  1.
        994    1    1    2    0    0 -0.14537638623E+02 -0.35106087403E+01  0.65560832384E+01  0.17197700293E+03  0.17120000000E+03 0.  0.
        998    1    1    2    0    0  0.73525292279E+00  0.94552572386E+00  0.14791619470E+04  0.14791962345E+04  0.10000000000E+02 0.  1.
</event>
<event>
 5    1  0.1640179E-008  0.3848311E+03  0.7957747E-01  0.3430389E+00
         13   -1    0    0    0    0  0.00000000000E+00  0.00000000000E+00  0.14999999963E+04  0.15000000000E+04  0.10566000000E+00 0.  1.
        994   -1    0    0    0    0 -0.00000000000E+00 -0.00000000000E+00  0.11368683772E-12  0.17120000000E+03  0.17120000000E+03 0.  0.
         13    1    1    2    0    0  0.12038125200E+02  0.67930131205E+01  0.52988383886E+02  0.54761678905E+02  0.10566000000E+00 0.  1.
        994    1    1    2    0    0 -0.17977098002E+02 -0.46387562150E+01  0.28490553706E+01  0.17222732428E+03  0.17120000000E+03 0.  0.
        998    1    1    2    0    0  0.59389728018E+01 -0.21542569055E+01  0.14441625570E+04  0.14442109968E+04  0.10000000000E+02 0.  1.
</event>
<event>
 5    1  0.1640179E-008  0.2796283E+03  0.7957747E-01  0.4053122E+00
         13   -1    0    0    0    0  0.00000000000E+00  0.00000000000E+00  0.14999999963E+04  0.15000000000E+04  0.10566000000E+00 0. -1.
        994   -1    0    0    0    0 -0.00000000000E+00 -0.00000000000E+00  0.11368683772E-12  0.17120000000E+03  0.17120000000E+03 0.  0.
         13    1    1    2    0    0 -0.69987470393E+02  0.11814262354E+03  0.66389021912E+03  0.67794259323E+03  0.10566000000E+00 0. -1.
        994    1    1    2    0    0 -0.57383755719E+01 -0.65327029693E+02  0.34824147732E+02  0.18660844308E+03  0.17120000000E+03 0.  0.
        998    1    1    2    0    0  0.75725845965E+02 -0.52815593842E+02  0.80128562942E+03  0.80664896369E+03  0.10000000000E+02 0. -1.
</event>
<event>
 5    1  0.1640179E-008  0.3837555E+03  0.7957747E-01  0.3434967E+00
         13   -1    0    0    0    0  0.00000000000E+00  0.00000000000E+00  0.14999999963E+04  0.15000000000E+04  0.10566000000E+00 0. -1.
        994   -1    0    0    0    0 -0.00000000000E+00 -0.00000000000E+00  0.11368683772E-12  0.17120000000E+03  0.17120000000E+03 0.  0.
         13    1    1    2    0    0 -0.39019582744E+01  0.16083103725E+02  0.62850858539E+02  0.64993331096E+02  0.10566000000E+00 0. -1.
        994    1    1    2    0    0  0.93219836697E+01 -0.12340636968E+01  0.25412832442E+01  0.17147688011E+03  0.17120000000E+03 0.  0.
        998    1    1    2    0    0 -0.54200253953E+01 -0.14849040028E+02  0.14346078545E+04  0.14347297888E+04  0.10000000000E+02 0. -1.
</event>
<event>
 5    1  0.1640179E-008  0.3812668E+03  0.7957747E-01  0.3445661E+00
         13   -1    0    0    0    0  0.00000000000E+00  0.00000000000E+00  0.14999999963E+04  0.15000000000E+04  0.10566000000E+00 0. -1.
        994   -1    0    0    0    0 -0.00000000000E+00 -0.00000000000E+00  0.11368683772E-12  0.17120000000E+03  0.17120000000E+03 0.  0.
         13    1    1    2    0    0  0.32299363411E+02 -0.30910494486E+01  0.17727237436E+03  0.18021739467E+03  0.10566000000E+00 0. -1.
        994    1    1    2    0    0 -0.14140011342E+01 -0.31363557531E+02  0.67832707543E+01  0.17418704000E+03  0.17120000000E+03 0.  0.
        998    1    1    2    0    0 -0.30885362277E+02  0.34454606980E+02  0.13159443512E+04  0.13167955653E+04  0.10000000000E+02 0. -1.
</event>
<event>
 5    1  0.1640179E-008  0.3737043E+03  0.7957747E-01  0.3479038E+00
         13   -1    0    0    0    0  0.00000000000E+00  0.00000000000E+00  0.14999999963E+04  0.15000000000E+04  0.10566000000E+00 0. -1.
        994   -1    0    0    0    0 -0.00000000000E+00 -0.00000000000E+00  0.11368683772E-12  0.17120000000E+03  0.17120000000E+03 0.  0.
         13    1    1    2    0    0  0.13397850007E+02  0.47668915585E+00  0.88770292745E+01  0.16079254651E+02  0.10566000000E+00 0. -1.
        994    1    1    2    0    0 -0.11825296972E+02  0.62989488616E+00  0.78245384828E+01  0.17178736222E+03  0.17120000000E+03 0.  0.
        998    1    1    2    0    0 -0.15725530349E+01 -0.11065840420E+01  0.14832984285E+04  0.14833333831E+04  0.10000000000E+02 0. -1.
</event>
<event>
 5    1  0.1640179E-008  0.3780956E+03  0.7957747E-01  0.3459493E+00
         13   -1    0    0    0    0  0.00000000000E+00  0.00000000000E+00  0.14999999963E+04  0.15000000000E+04  0.10566000000E+00 0. -1.
        994   -1    0    0    0    0 -0.00000000000E+00 -0.00000000000E+00  0.11368683772E-12  0.17120000000E+03  0.17120000000E+03 0.  0.
         13    1    1    2    0    0 -0.16957926409E+02 -0.81557285039E+01  0.47645188757E+01  0.19411310612E+02  0.10566000000E+00 0. -1.
        994    1    1    2    0    0  0.27585361676E+02 -0.31721906408E+02  0.21671332307E+02  0.17761283222E+03  0.17120000000E+03 0.  0.
        998    1    1    2    0    0 -0.10627435267E+02  0.39877634912E+02  0.14735641451E+04  0.14741758572E+04  0.10000000000E+02 0. -1.
</event>
<event>
 5    1  0.1640179E-008  0.3755727E+03  0.7957747E-01  0.3470666E+00
         13   -1    0    0    0    0  0.00000000000E+00  0.00000000000E+00  0.14999999963E+04  0.15000000000E+04  0.10566000000E+00 0. -1.
        994   -1    0    0    0    0 -0.00000000000E+00 -0.00000000000E+00  0.11368683772E-12  0.17120000000E+03  0.17120000000E+03 0.  0.
         13    1    1    2    0    0 -0.72121068285E+01 -0.84154427914E+02  0.45796754587E+03  0.46569117069E+03  0.10566000000E+00 0. -1.
        994    1    1    2    0    0 -0.18868137681E+00  0.68586766893E+02  0.22515475196E+02  0.18579711197E+03  0.17120000000E+03 0.  0.
        998    1    1    2    0    0  0.74007882053E+01  0.15567661021E+02  0.10195169752E+04  0.10197117173E+04  0.10000000000E+02 0.  1.
</event>
<event>
 5    1  0.1640179E-008  0.3827892E+03  0.7957747E-01  0.3439103E+00
         13   -1    0    0    0    0  0.00000000000E+00  0.00000000000E+00  0.14999999963E+04  0.15000000000E+04  0.10566000000E+00 0.  1.
        994   -1    0    0    0    0 -0.00000000000E+00 -0.00000000000E+00  0.11368683772E-12  0.17120000000E+03  0.17120000000E+03 0.  0.
         13    1    1    2    0    0  0.16760625904E+02  0.37720515360E+01  0.51954057884E+02  0.54720948896E+02  0.10566000000E+00 0.  1.
        994    1    1    2    0    0 -0.14886210993E+02 -0.87876931401E+01  0.37222013133E+01  0.17211077134E+03  0.17120000000E+03 0.  0.
        998    1    1    2    0    0 -0.18744149110E+01  0.50156416041E+01  0.14443237371E+04  0.14443682798E+04  0.10000000000E+02 0.  1.
</event>
<event>
 5    1  0.1640179E-008  0.3787875E+03  0.7957747E-01  0.3456455E+00
         13   -1    0    0    0    0  0.00000000000E+00  0.00000000000E+00  0.14999999963E+04  0.15000000000E+04  0.10566000000E+00 0.  1.
        994   -1    0    0    0    0 -0.00000000000E+00 -0.00000000000E+00  0.11368683772E-12  0.17120000000E+03  0.17120000000E+03 0.  0.
         13    1    1    2    0    0  0.14330631609E+02  0.10059344236E+02  0.30359147797E+02  0.35046346853E+02  0.10566000000E+00 0.  1.
        994    1    1    2    0    0 -0.58330967179E+01 -0.12772144643E+02  0.54084672133E+01  0.17185995524E+03  0.17120000000E+03 0.  0.
        998    1    1    2    0    0 -0.84975348914E+01  0.27128004061E+01  0.14642323813E+04  0.14642936979E+04  0.10000000000E+02 0.  1.
</event>
<event>
 5    1  0.1640179E-008  0.3712620E+03  0.7957747E-01  0.3490111E+00
         13   -1    0    0    0    0  0.00000000000E+00  0.00000000000E+00  0.14999999963E+04  0.15000000000E+04  0.10566000000E+00 0.  1.
        994   -1    0    0    0    0 -0.00000000000E+00 -0.00000000000E+00  0.11368683772E-12  0.17120000000E+03  0.17120000000E+03 0.  0.
         13    1    1    2    0    0  0.19978314714E+02 -0.22250329252E+02  0.47381342748E+02  0.56028680293E+02  0.10566000000E+00 0.  1.
        994    1    1    2    0    0 -0.12281275699E+02  0.27314519391E+02  0.11704940657E+02  0.17419345090E+03  0.17120000000E+03 0.  0.
        998    1    1    2    0    0 -0.76970390152E+01 -0.50641901395E+01  0.14409137129E+04  0.14409778688E+04  0.10000000000E+02 0.  1.
</event>
<event>
 5    1  0.1640179E-008  0.3693315E+03  0.7957747E-01  0.3498969E+00
         13   -1    0    0    0    0  0.00000000000E+00  0.00000000000E+00  0.14999999963E+04  0.15000000000E+04  0.10566000000E+00 0. -1.
        994   -1    0    0    0    0 -0.00000000000E+00 -0.00000000000E+00  0.11368683772E-12  0.17120000000E+03  0.17120000000E+03 0.  0.
         13    1    1    2    0    0 -0.30890940778E+02 -0.21701942664E+02  0.71752324017E+02  0.81077935984E+02  0.10566000000E+00 0. -1.
        994    1    1    2    0    0  0.22091214649E+02  0.20898039053E+01  0.11327216882E+02  0.17300327999E+03  0.17120000000E+03 0.  0.
        998    1    1    2    0    0  0.87997261288E+01  0.19612138758E+02  0.14169204554E+04  0.14171187840E+04  0.10000000000E+02 0. -1.
</event>
<event>
 5    1  0.1640179E-008  0.3708356E+03  0.7957747E-01  0.3492059E+00
         13   -1    0    0    0    0  0.00000000000E+00  0.00000000000E+00  0.14999999963E+04  0.15000000000E+04  0.10566000000E+00 0. -1.
        994   -1    0    0    0    0 -0.00000000000E+00 -0.00000000000E+00  0.11368683772E-12  0.17120000000E+03  0.17120000000E+03 0.  0.
         13    1    1    2    0    0 -0.22093684829E+01  0.77126478577E+02  0.27307202708E+03  0.28376348980E+03  0.10566000000E+00 0. -1.
        994    1    1    2    0    0  0.22359643397E+00 -0.77110712422E+02  0.29621676354E+02  0.19008681089E+03  0.17120000000E+03 0.  0.
        998    1    1    2    0    0  0.19857720489E+01 -0.15766155070E-01  0.11973062928E+04  0.11973496993E+04  0.10000000000E+02 0.  0.
</event>
<event>
 5    1  0.1640179E-008  0.3733993E+03  0.7957747E-01  0.3480413E+00
         13   -1    0    0    0    0  0.00000000000E+00  0.00000000000E+00  0.14999999963E+04  0.15000000000E+04  0.10566000000E+00 0.  1.
        994   -1    0    0    0    0 -0.00000000000E+00 -0.00000000000E+00  0.11368683772E-12  0.17120000000E+03  0.17120000000E+03 0.  0.
         13    1    1    2    0    0 -0.23124450139E+02 -0.46562928126E+02  0.89622842787E+02  0.10361038357E+03  0.10566000000E+00 0.  1.
        994    1    1    2    0    0  0.30114173886E+02  0.65211264662E+02  0.31234403981E+02  0.18826683324E+03  0.17120000000E+03 0.  0.
        998    1    1    2    0    0 -0.69897237471E+01 -0.18648336537E+02  0.13791427495E+04  0.13793227832E+04  0.10000000000E+02 0.  1.
</event>
<event>
 5    1  0.1640179E-008  0.3763540E+03  0.7957747E-01  0.3467189E+00
         13   -1    0    0    0    0  0.00000000000E+00  0.00000000000E+00  0.14999999963E+04  0.15000000000E+04  0.10566000000E+00 0. -1.
        994   -1    0    0    0    0 -0.00000000000E+00 -0.00000000000E+00  0.11368683772E-12  0.17120000000E+03  0.17120000000E+03 0.  0.
         13    1    1    2    0    0 -0.19575303058E+02  0.61150429362E+01  0.31926877863E+02  0.37946316476E+02  0.10566000000E+00 0. -1.
        994    1    1    2    0    0  0.25147755873E+02  0.54943743236E+01  0.82303470629E+01  0.17331986726E+03  0.17120000000E+03 0.  0.
        998    1    1    2    0    0 -0.55724528146E+01 -0.11609417260E+02  0.14598427714E+04  0.14599338163E+04  0.10000000000E+02 0. -1.
</event>
<event>
 5    1  0.1640179E-008  0.3830164E+03  0.7957747E-01  0.3438128E+00
         13   -1    0    0    0    0  0.00000000000E+00  0.00000000000E+00  0.14999999963E+04  0.15000000000E+04  0.10566000000E+00 0. -1.
        994   -1    0    0    0    0 -0.00000000000E+00 -0.00000000000E+00  0.11368683772E-12  0.17120000000E+03  0.17120000000E+03 0.  0.
         13    1    1    2    0    0 -0.67740298917E+01  0.27010025837E+02  0.13572783923E+03  0.13855499443E+03  0.10566000000E+00 0. -1.
        994    1    1    2    0    0 -0.14969399165E+02 -0.33373435445E+02  0.70590536246E+01  0.17520599117E+03  0.17120000000E+03 0.  0.
        998    1    1    2    0    0  0.21743429057E+02  0.63634096081E+01  0.13572131034E+04  0.13574390144E+04  0.10000000000E+02 0. -1.
</event>
<event>
 5    1  0.1640179E-008  0.3811237E+03  0.7957747E-01  0.3446280E+00
         13   -1    0    0    0    0  0.00000000000E+00  0.00000000000E+00  0.14999999963E+04  0.15000000000E+04  0.10566000000E+00 0.  1.
        994   -1    0    0    0    0 -0.00000000000E+00 -0.00000000000E+00  0.11368683772E-12  0.17120000000E+03  0.17120000000E+03 0.  0.
         13    1    1    2    0    0 -0.19717164886E+02 -0.30080166396E+02  0.20683792130E+03  0.20994170584E+03  0.10566000000E+00 0.  1.
        994    1    1    2    0    0  0.11770318051E+02 -0.25244499522E+01  0.40497775781E+01  0.17167048067E+03  0.17120000000E+03 0.  0.
        998    1    1    2    0    0  0.79468468355E+01  0.32604616348E+02  0.12891122974E+04  0.12895878135E+04  0.10000000000E+02 0.  1.
</event>
<event>
 5    1  0.1640179E-008  0.3752299E+03  0.7957747E-01  0.3472195E+00
         13   -1    0    0    0    0  0.00000000000E+00  0.00000000000E+00  0.14999999963E+04  0.15000000000E+04  0.10566000000E+00 0. -1.
        994   -1    0    0    0    0 -0.00000000000E+00 -0.00000000000E+00  0.11368683772E-12  0.17120000000E+03  0.17120000000E+03 0.  0.
         13    1    1    2    0    0 -0.75943537943E+02  0.23590078257E+02  0.20499954597E+03  0.21988346405E+03  0.10566000000E+00 0. -1.
        994    1    1    2    0    0  0.66318540923E+02 -0.20686928584E+02  0.31124857558E+02  0.18736140115E+03  0.17120000000E+03 0.  0.
        998    1    1    2    0    0  0.96249970195E+01 -0.29031496727E+01  0.12638755927E+04  0.12639551348E+04  0.10000000000E+02 0. -1.
</event>
<event>
 5    1  0.1640179E-008  0.4031408E+03  0.7957747E-01  0.3356199E+00
         13   -1    0    0    0    0  0.00000000000E+00  0.00000000000E+00  0.14999999963E+04  0.15000000000E+04  0.10566000000E+00 0.  1.
        994   -1    0    0    0    0 -0.00000000000E+00 -0.00000000000E+00  0.11368683772E-12  0.17120000000E+03  0.17120000000E+03 0.  0.
         13    1    1    2    0    0 -0.37869310312E+02  0.16682190226E+02  0.15051753860E+02  0.44033471275E+02  0.10566000000E+00 0.  1.
        994    1    1    2    0    0  0.55545643232E+02 -0.54586399607E+02  0.54148114016E+02  0.19572034068E+03  0.17120000000E+03 0.  0.
        998    1    1    2    0    0 -0.17676332920E+02  0.37904209381E+02  0.14308001284E+04  0.14314461880E+04  0.10000000000E+02 0.  1.
</event>
<event>
 5    1  0.1640179E-008  0.3825316E+03  0.7957747E-01  0.3440209E+00
         13   -1    0    0    0    0  0.00000000000E+00  0.00000000000E+00  0.14999999963E+04  0.15000000000E+04  0.10566000000E+00 0. -1.
        994   -1    0    0    0    0 -0.00000000000E+00 -0.00000000000E+00  0.11368683772E-12  0.17120000000E+03  0.17120000000E+03 0.  0.
         13    1    1    2    0    0 -0.66764237226E+01 -0.12159836603E+02  0.32404802794E+02  0.35249378266E+02  0.10566000000E+00 0. -1.
        994    1    1    2    0    0  0.10860229736E+02  0.70418758978E+01  0.34162181604E+01  0.17172257613E+03  0.17120000000E+03 0.  0.
        998    1    1    2    0    0 -0.41838060137E+01  0.51179607056E+01  0.14641789753E+04  0.14642280456E+04  0.10000000000E+02 0. -1.
</event>
<event>
 5    1  0.1640179E-008  0.3786999E+03  0.7957747E-01  0.3456839E+00
         13   -1    0    0    0    0  0.00000000000E+00  0.00000000000E+00  0.14999999963E+04  0.15000000000E+04  0.10566000000E+00 0.  1.
        994   -1    0    0    0    0 -0.00000000000E+00 -0.00000000000E+00  0.11368683772E-12  0.17120000000E+03  0.17120000000E+03 0.  0.
         13    1    1    2    0    0 -0.50652669152E+02  0.71387776760E+00  0.27463698937E+03  0.27926992249E+03  0.10566000000E+00 0.  1.
        994    1    1    2    0    0  0.25621511196E+02  0.12932787109E+02  0.75612946207E+01  0.17375365318E+03  0.17120000000E+03 0.  0.
        998    1    1    2    0    0  0.25031157957E+02 -0.13646664877E+02  0.12178017123E+04  0.12181764243E+04  0.10000000000E+02 0.  1.
</event>
<event>
 5    1  0.1640179E-008  0.3828416E+03  0.7957747E-01  0.3438878E+00
         13   -1    0    0    0    0  0.00000000000E+00  0.00000000000E+00  0.14999999963E+04  0.15000000000E+04  0.10566000000E+00 0.  1.
        994   -1    0    0    0    0 -0.00000000000E+00 -0.00000000000E+00  0.11368683772E-12  0.17120000000E+03  0.17120000000E+03 0.  0.
         13    1    1    2    0    0  0.16239536358E+02  0.23469553000E+02  0.14103535365E+03  0.14389414374E+03  0.10566000000E+00 0.  1.
        994    1    1    2    0    0  0.60810807635E+01 -0.36026723775E+02  0.71391138820E+01  0.17520077430E+03  0.17120000000E+03 0.  0.
        998    1    1    2    0    0 -0.22320617121E+02  0.12557170776E+02  0.13518255287E+04  0.13521050820E+04  0.10000000000E+02 0.  1.
</event>
<event>
 5    1  0.1640179E-008  0.3817270E+03  0.7957747E-01  0.3443673E+00
         13   -1    0    0    0    0  0.00000000000E+00  0.00000000000E+00  0.14999999963E+04  0.15000000000E+04  0.10566000000E+00 0.  1.
        994   -1    0    0    0    0 -0.00000000000E+00 -0.00000000000E+00  0.11368683772E-12  0.17120000000E+03  0.17120000000E+03 0.  0.
         13    1    1    2    0    0  0.71777814860E+01  0.34689168664E+02  0.16289092433E+03  0.16669830042E+03  0.10566000000E+00 0.  1.
        994    1    1    2    0    0 -0.75022732623E+01 -0.42434916536E+02  0.94612209157E+01  0.17679355460E+03  0.17120000000E+03 0.  0.
        998    1    1    2    0    0  0.32449177628E+00  0.77457478719E+01  0.13276478510E+04  0.13277081450E+04  0.10000000000E+02 0.  1.
</event>
<event>
 5    1  0.1640179E-008  0.3851291E+03  0.7957747E-01  0.3429125E+00
         13   -1    0    0    0    0  0.00000000000E+00  0.00000000000E+00  0.14999999963E+04  0.15000000000E+04  0.10566000000E+00 0.  1.
        994   -1    0    0    0    0 -0.00000000000E+00 -0.00000000000E+00  0.11368683772E-12  0.17120000000E+03  0.17120000000E+03 0.  0.
         13    1    1    2    0    0  0.24416002371E+01  0.12076250343E+02  0.49558326033E+02  0.51066976387E+02  0.10566000000E+00 0.  1.
        994    1    1    2    0    0  0.11486149562E+02 -0.68988112559E+01  0.21564432511E+01  0.17173705330E+03  0.17120000000E+03 0.  0.
        998    1    1    2    0    0 -0.13927749799E+02 -0.51774390876E+01  0.14482852270E+04  0.14483959703E+04  0.10000000000E+02 0.  1.
</event>
<event>
 5    1  0.1640179E-008  0.3832502E+03  0.7957747E-01  0.3437127E+00
         13   -1    0    0    0    0  0.00000000000E+00  0.00000000000E+00  0.14999999963E+04  0.15000000000E+04  0.10566000000E+00 0. -1.
        994   -1    0    0    0    0 -0.00000000000E+00 -0.00000000000E+00  0.11368683772E-12  0.17120000000E+03  0.17120000000E+03 0.  0.
         13    1    1    2    0    0 -0.47041955470E+02  0.51686413921E+01  0.24872089026E+03  0.25318323966E+03  0.10566000000E+00 0. -1.
        994    1    1    2    0    0  0.10232018302E+03  0.47390808550E+02  0.45758783990E+02  0.21004431652E+03  0.17120000000E+03 0.  0.
        998    1    1    2    0    0 -0.55278227550E+02 -0.52559449942E+02  0.12055203220E+04  0.12079724438E+04  0.10000000000E+02 0. -1.
</event>
<event>
 5    1  0.1640179E-008  0.3832235E+03  0.7957747E-01  0.3437242E+00
         13   -1    0    0    0    0  0.00000000000E+00  0.00000000000E+00  0.14999999963E+04  0.15000000000E+04  0.10566000000E+00 0. -1.
        994   -1    0    0    0    0 -0.00000000000E+00 -0.00000000000E+00  0.11368683772E-12  0.17120000000E+03  0.17120000000E+03 0.  0.
         13    1    1    2    0    0  0.22153776929E+02  0.81617212212E+01  0.11168891679E+03  0.11415703580E+03  0.10566000000E+00 0. -1.
        994    1    1    2    0    0 -0.11557044725E+02 -0.47117576963E+01  0.30300956946E+01  0.17168106309E+03  0.17120000000E+03 0.  0.
        998    1    1    2    0    0 -0.10596732204E+02 -0.34499635249E+01  0.13852809838E+04  0.13853619011E+04  0.10000000000E+02 0. -1.
</event>
<event>
 5    1  0.1640179E-008  0.3784939E+03  0.7957747E-01  0.3457743E+00
         13   -1    0    0    0    0  0.00000000000E+00  0.00000000000E+00  0.14999999963E+04  0.15000000000E+04  0.10566000000E+00 0. -1.
        994   -1    0    0    0    0 -0.00000000000E+00 -0.00000000000E+00  0.11368683772E-12  0.17120000000E+03  0.17120000000E+03 0.  0.
         13    1    1    2    0    0  0.19252136120E+01 -0.49908765304E+02  0.20707072222E+03  0.21300912297E+03  0.10566000000E+00 0. -1.
        994    1    1    2    0    0 -0.22255170116E+02  0.58008996493E+02  0.17976114746E+02  0.18301070180E+03  0.17120000000E+03 0.  0.
        998    1    1    2    0    0  0.20329956504E+02 -0.81002311894E+01  0.12749531593E+04  0.12751801752E+04  0.10000000000E+02 0. -1.
</event>
<event>
 5    1  0.1640179E-008  0.3851624E+03  0.7957747E-01  0.3428984E+00
         13   -1    0    0    0    0  0.00000000000E+00  0.00000000000E+00  0.14999999963E+04  0.15000000000E+04  0.10566000000E+00 0. -1.
        994   -1    0    0    0    0 -0.00000000000E+00 -0.00000000000E+00  0.11368683772E-12  0.17120000000E+03  0.17120000000E+03 0.  0.
         13    1    1    2    0    0 -0.12332070893E+02  0.29874829714E+01  0.55057095858E+02  0.56500442435E+02  0.10566000000E+00 0. -1.
        994    1    1    2    0    0 -0.11734572774E+01 -0.61307201624E+00  0.15553011909E+01  0.17121218362E+03  0.17120000000E+03 0.  0.
        998    1    1    2    0    0  0.13505528170E+02 -0.23744109551E+01  0.14433875992E+04  0.14434873739E+04  0.10000000000E+02 0. -1.
</event>
<event>
 5    1  0.1640179E-008  0.3841864E+03  0.7957747E-01  0.3433130E+00
         13   -1    0    0    0    0  0.00000000000E+00  0.00000000000E+00  0.14999999963E+04  0.15000000000E+04  0.10566000000E+00 0. -1.
        994   -1    0    0    0    0 -0.00000000000E+00 -0.00000000000E+00  0.11368683772E-12  0.17120000000E+03  0.17120000000E+03 0.  0.
         13    1    1    2    0    0  0.16813814756E+02 -0.43240750434E+00  0.71316356446E+02  0.73272950013E+02  0.10566000000E+00 0. -1.
        994    1    1    2    0    0 -0.57410725032E+01  0.39626342428E+01  0.21951043755E+01  0.17135612293E+03  0.17120000000E+03 0.  0.
        998    1    1    2    0    0 -0.11072742253E+02 -0.35302267384E+01  0.14264885355E+04  0.14265709271E+04  0.10000000000E+02 0. -1.
</event>
<event>
 5    1  0.1640179E-008  0.3815388E+03  0.7957747E-01  0.3444486E+00
         13   -1    0    0    0    0  0.00000000000E+00  0.00000000000E+00  0.14999999963E+04  0.15000000000E+04  0.10566000000E+00 0.  1.
        994   -1    0    0    0    0 -0.00000000000E+00 -0.00000000000E+00  0.11368683772E-12  0.17120000000E+03  0.17120000000E+03 0.  0.
         13    1    1    2    0    0  0.97192800534E+01  0.30047977060E+02  0.16286412187E+03  0.16589779590E+03  0.10566000000E+00 0.  1.
        994    1    1    2    0    0  0.32270550594E+01 -0.64303077084E+01  0.35305752647E+01  0.17138747826E+03  0.17120000000E+03 0.  0.
        998    1    1    2    0    0 -0.12946335113E+02 -0.23617669351E+02  0.13336052991E+04  0.13339147258E+04  0.10000000000E+02 0.  1.
</event>
<event>
 5    1  0.1640179E-008  0.3708221E+03  0.7957747E-01  0.3492121E+00
         13   -1    0    0    0    0  0.00000000000E+00  0.00000000000E+00  0.14999999963E+04  0.15000000000E+04  0.10566000000E+00 0. -1.
        994   -1    0    0    0    0 -0.00000000000E+00 -0.00000000000E+00  0.11368683772E-12  0.17120000000E+03  0.17120000000E+03 0.  0.
         13    1    1    2    0    0 -0.89413507328E+01  0.29782148909E+02  0.56255317788E+02  0.64277492873E+02  0.10566000000E+00 0. -1.
        994    1    1    2    0    0  0.86881059192E+01  0.13158534713E+02  0.96976981563E+01  0.17219789653E+03  0.17120000000E+03 0.  0.
        998    1    1    2    0    0  0.25324481359E+00 -0.42940683622E+02  0.14340469803E+04  0.14347246106E+04  0.10000000000E+02 0. -1.
</event>
<event>
 5    1  0.1640179E-008  0.3859563E+03  0.7957747E-01  0.3425626E+00
         13   -1    0    0    0    0  0.00000000000E+00  0.00000000000E+00  0.14999999963E+04  0.15000000000E+04  0.10566000000E+00 0.  1.
        994   -1    0    0    0    0 -0.00000000000E+00 -0.00000000000E+00  0.11368683772E-12  0.17120000000E+03  0.17120000000E+03 0.  0.
         13    1    1    2    0    0 -0.87910197373E+01  0.73443706469E+01  0.60216072497E+02  0.61296071320E+02  0.10566000000E+00 0.  1.
        994    1    1    2    0    0  0.74620281010E+01  0.70855128209E+01  0.15033113950E+01  0.17151555702E+03  0.17120000000E+03 0.  0.
        998    1    1    2    0    0  0.13289916363E+01 -0.14429883468E+02  0.14382806124E+04  0.14383883717E+04  0.10000000000E+02 0.  1.
</event>
<event>
 5    1  0.1640179E-008  0.3715953E+03  0.7957747E-01  0.3488591E+00
         13   -1    0    0    0    0  0.00000000000E+00  0.00000000000E+00  0.14999999963E+04  0.15000000000E+04  0.10566000000E+00 0. -1.
        994   -1    0    0    0    0 -0.00000000000E+00 -0.00000000000E+00  0.11368683772E-12  0.17120000000E+03  0.17120000000E+03 0.  0.
         13    1    1    2    0    0  0.31907455782E+02  0.49730104214E+02  0.24001869408E+03  0.24718445273E+03  0.10566000000E+00 0. -1.
        994    1    1    2    0    0  0.26079171350E+02 -0.27885877170E+02  0.13466995174E+02  0.17592198635E+03  0.17120000000E+03 0.  0.
        998    1    1    2    0    0 -0.57986627132E+02 -0.21844227044E+02  0.12465143070E+04  0.12480935609E+04  0.10000000000E+02 0. -1.
</event>
<event>
 5    1  0.1640179E-008  0.3801890E+03  0.7957747E-01  0.3450336E+00
         13   -1    0    0    0    0  0.00000000000E+00  0.00000000000E+00  0.14999999963E+04  0.15000000000E+04  0.10566000000E+00 0.  1.
        994   -1    0    0    0    0 -0.00000000000E+00 -0.00000000000E+00  0.11368683772E-12  0.17120000000E+03  0.17120000000E+03 0.  0.
         13    1    1    2    0    0  0.18876458652E+02  0.41748743187E+02  0.21056151555E+03  0.21548884250E+03  0.10566000000E+00 0.  1.
        994    1    1    2    0    0 -0.20390846639E+02 -0.49989028782E+02  0.13837368176E+02  0.18004333474E+03  0.17120000000E+03 0.  0.
        998    1    1    2    0    0  0.15143879864E+01  0.82402855952E+01  0.12756011126E+04  0.12756678228E+04  0.10000000000E+02 0.  1.
</event>
<event>
 5    1  0.1640179E-008  0.2851602E+03  0.7957747E-01  0.4008010E+00
         13   -1    0    0    0    0  0.00000000000E+00  0.00000000000E+00  0.14999999963E+04  0.15000000000E+04  0.10566000000E+00 0. -1.
        994   -1    0    0    0    0 -0.00000000000E+00 -0.00000000000E+00  0.11368683772E-12  0.17120000000E+03  0.17120000000E+03 0.  0.
         13    1    1    2    0    0 -0.92011529637E+02  0.15365278315E+03  0.54928191627E+03  0.57774209996E+03  0.10566000000E+00 0. -1.
        994    1    1    2    0    0  0.85009623851E+02 -0.14945647442E+03  0.13505479986E+03  0.27769247893E+03  0.17120000000E+03 0.  0.
        998    1    1    2    0    0  0.70019057868E+01 -0.41963087396E+01  0.81566328015E+03  0.81576542110E+03  0.10000000000E+02 0.  0.
</event>
<event>
 5    1  0.1640179E-008  0.3797026E+03  0.7957747E-01  0.3452455E+00
         13   -1    0    0    0    0  0.00000000000E+00  0.00000000000E+00  0.14999999963E+04  0.15000000000E+04  0.10566000000E+00 0.  1.
        994   -1    0    0    0    0 -0.00000000000E+00 -0.00000000000E+00  0.11368683772E-12  0.17120000000E+03  0.17120000000E+03 0.  0.
         13    1    1    2    0    0  0.92972317953E+01 -0.46319708104E+01  0.10880649189E+02  0.15043050338E+02  0.10566000000E+00 0.  1.
        994    1    1    2    0    0 -0.27094725842E+01 -0.46562784741E+01  0.43804837718E+01  0.17134074474E+03  0.17120000000E+03 0.  0.
        998    1    1    2    0    0 -0.65877592111E+01  0.92882492845E+01  0.14847388633E+04  0.14848162049E+04  0.10000000000E+02 0.  1.
</event>
<event>
 5    1  0.1833903E-008  0.3857120E+03  0.7957747E-01  0.3426658E+00
         13   -1    0    0    0    0  0.00000000000E+00  0.00000000000E+00  0.14999999963E+04  0.15000000000E+04  0.10566000000E+00 0. -1.
        994   -1    0    0    0    0 -0.00000000000E+00 -0.00000000000E+00  0.11368683772E-12  0.17120000000E+03  0.17120000000E+03 0.  0.
         13    1    1    2    0    0  0.92681429572E+01  0.91073829498E+01  0.69124338679E+02  0.70335113989E+02  0.10566000000E+00 0. -1.
        994    1    1    2    0    0 -0.10697838415E+01 -0.40526544918E+01  0.13346945262E+01  0.17125650310E+03  0.17120000000E+03 0.  0.
        998    1    1    2    0    0 -0.81983591156E+01 -0.50547284579E+01  0.14295409631E+04  0.14296083829E+04  0.10000000000E+02 0. -1.
</event>
<event>
 5    1  0.1640179E-008  0.3806383E+03  0.7957747E-01  0.3448384E+00
         13   -1    0    0    0    0  0.00000000000E+00  0.00000000000E+00  0.14999999963E+04  0.15000000000E+04  0.10566000000E+00 0.  1.
        994   -1    0    0    0    0 -0.00000000000E+00 -0.00000000000E+00  0.11368683772E-12  0.17120000000E+03  0.17120000000E+03 0.  0.
         13    1    1    2    0    0  0.15757617916E+02 -0.26056412568E+02  0.11921703930E+03  0.12304451545E+03  0.10566000000E+00 0.  1.
        994    1    1    2    0    0 -0.16878557222E+02  0.13116128712E+02  0.53369731455E+01  0.17261182407E+03  0.17120000000E+03 0.  0.
        998    1    1    2    0    0  0.11209393059E+01  0.12940283856E+02  0.13754459838E+04  0.13755436605E+04  0.10000000000E+02 0.  1.
</event>
<event>
 5    1  0.1640179E-008  0.2607814E+03  0.7957747E-01  0.4223055E+00
         13   -1    0    0    0    0  0.00000000000E+00  0.00000000000E+00  0.14999999963E+04  0.15000000000E+04  0.10566000000E+00 0.  1.
        994   -1    0    0    0    0 -0.00000000000E+00 -0.00000000000E+00  0.11368683772E-12  0.17120000000E+03  0.17120000000E+03 0.  0.
         13    1    1    2    0    0 -0.13192365661E+03  0.13344869335E+03  0.34813201283E+03  0.39548491053E+03  0.10566000000E+00 0.  1.
        994    1    1    2    0    0  0.11996533712E+03 -0.12579667866E+03  0.17877514983E+03  0.30246732165E+03  0.17120000000E+03 0.  0.
        998    1    1    2    0    0  0.11958319484E+02 -0.76520146927E+01  0.97309283362E+03  0.97324776782E+03  0.10000000000E+02 0.  1.
</event>
<event>
 5    1  0.1640179E-008  0.3728549E+03  0.7957747E-01  0.3482872E+00
         13   -1    0    0    0    0  0.00000000000E+00  0.00000000000E+00  0.14999999963E+04  0.15000000000E+04  0.10566000000E+00 0. -1.
        994   -1    0    0    0    0 -0.00000000000E+00 -0.00000000000E+00  0.11368683772E-12  0.17120000000E+03  0.17120000000E+03 0.  0.
         13    1    1    2    0    0  0.13555293400E+02 -0.28481519013E+02  0.34814732691E+02  0.46978928051E+02  0.10566000000E+00 0. -1.
        994    1    1    2    0    0 -0.11253437505E+02  0.21502802568E+02  0.14539133335E+02  0.17352186252E+03  0.17120000000E+03 0.  0.
        998    1    1    2    0    0 -0.23018558954E+01  0.69787164451E+01  0.14506461303E+04  0.14506992094E+04  0.10000000000E+02 0. -1.
</event>
<event>
 5    1  0.1640179E-008  0.3748961E+03  0.7957747E-01  0.3473688E+00
         13   -1    0    0    0    0  0.00000000000E+00  0.00000000000E+00  0.14999999963E+04  0.15000000000E+04  0.10566000000E+00 0. -1.
        994   -1    0    0    0    0 -0.00000000000E+00 -0.00000000000E+00  0.11368683772E-12  0.17120000000E+03  0.17120000000E+03 0.  0.
         13    1    1    2    0    0  0.58146201127E+01  0.15727198439E+02  0.17515558371E+02  0.24247897370E+02  0.10566000000E+00 0. -1.
        994    1    1    2    0    0 -0.14869475512E+01 -0.23494267390E+02  0.86188448870E+01  0.17302576716E+03  0.17120000000E+03 0.  0.
        998    1    1    2    0    0 -0.43276725615E+01  0.77670689508E+01  0.14738655930E+04  0.14739263355E+04  0.10000000000E+02 0. -1.
</event>
<event>
 5    1  0.1640179E-008  0.3857463E+03  0.7957747E-01  0.3426513E+00
         13   -1    0    0    0    0  0.00000000000E+00  0.00000000000E+00  0.14999999963E+04  0.15000000000E+04  0.10566000000E+00 0.  1.
        994   -1    0    0    0    0 -0.00000000000E+00 -0.00000000000E+00  0.11368683772E-12  0.17120000000E+03  0.17120000000E+03 0.  0.
         13    1    1    2    0    0 -0.10086139146E+02  0.16720832674E+01  0.40977270862E+02  0.42233564338E+02  0.10566000000E+00 0.  1.
        994    1    1    2    0    0  0.10105447231E+02 -0.15669017638E+01  0.16032403248E+01  0.17151263984E+03  0.17120000000E+03 0.  0.
        998    1    1    2    0    0 -0.19308084899E-01 -0.10518150355E+00  0.14574194851E+04  0.14574537958E+04  0.10000000000E+02 0.  0.
</event>
<event>
 5    1  0.1640179E-008  0.3706277E+03  0.7957747E-01  0.3493011E+00
         13   -1    0    0    0    0  0.00000000000E+00  0.00000000000E+00  0.14999999963E+04  0.15000000000E+04  0.10566000000E+00 0. -1.
        994   -1    0    0    0    0 -0.00000000000E+00 -0.00000000000E+00  0.11368683772E-12  0.17120000000E+03  0.17120000000E+03 0.  0.
         13    1    1    2    0    0 -0.32192919870E+02 -0.34418589660E+01  0.53726319738E+02  0.62727658011E+02  0.10566000000E+00 0. -1.
        994    1    1    2    0    0  0.29859589564E+02  0.75422011983E+01  0.12220755748E+02  0.17437679536E+03  0.17120000000E+03 0.  0.
        998    1    1    2    0    0  0.23333303056E+01 -0.41003422323E+01  0.14340529208E+04  0.14340955466E+04  0.10000000000E+02 0. -1.
</event>
<event>
 5    1  0.1640179E-008  0.3848469E+03  0.7957747E-01  0.3430322E+00
         13   -1    0    0    0    0  0.00000000000E+00  0.00000000000E+00  0.14999999963E+04  0.15000000000E+04  0.10566000000E+00 0.  1.
        994   -1    0    0    0    0 -0.00000000000E+00 -0.00000000000E+00  0.11368683772E-12  0.17120000000E+03  0.17120000000E+03 0.  0.
         13    1    1    2    0    0 -0.11998035960E+02 -0.10566370238E+02  0.81639704860E+02  0.83190465924E+02  0.10566000000E+00 0.  1.
        994    1    1    2    0    0 -0.44416420820E+01  0.22235814650E+01  0.17873741582E+01  0.17128136853E+03  0.17120000000E+03 0.  0.
        998    1    1    2    0    0  0.16439678042E+02  0.83427887733E+01  0.14165729173E+04  0.14167281655E+04  0.10000000000E+02 0.  1.
</event>
<event>
 5    1  0.1640179E-008  0.3818694E+03  0.7957747E-01  0.3443059E+00
         13   -1    0    0    0    0  0.00000000000E+00  0.00000000000E+00  0.14999999963E+04  0.15000000000E+04  0.10566000000E+00 0.  1.
        994   -1    0    0    0    0 -0.00000000000E+00 -0.00000000000E+00  0.11368683772E-12  0.17120000000E+03  0.17120000000E+03 0.  0.
         13    1    1    2    0    0  0.21166738230E+02 -0.23868384927E+01  0.69251235844E+02  0.72453244477E+02  0.10566000000E+00 0.  1.
        994    1    1    2    0    0 -0.15157993218E+02  0.66938919529E+01  0.41052281712E+01  0.17204902164E+03  0.17120000000E+03 0.  0.
        998    1    1    2    0    0 -0.60087450126E+01 -0.43070534602E+01  0.14266435323E+04  0.14266977339E+04  0.10000000000E+02 0.  1.
</event>
<event>
 5    1  0.1640179E-008  0.3847742E+03  0.7957747E-01  0.3430631E+00
         13   -1    0    0    0    0  0.00000000000E+00  0.00000000000E+00  0.14999999963E+04  0.15000000000E+04  0.10566000000E+00 0.  1.
        994   -1    0    0    0    0 -0.00000000000E+00 -0.00000000000E+00  0.11368683772E-12  0.17120000000E+03  0.17120000000E+03 0.  0.
         13    1    1    2    0    0  0.19164615233E+02 -0.16029356252E+01  0.10956736080E+03  0.11124239118E+03  0.10566000000E+00 0.  1.
        994    1    1    2    0    0 -0.85260261260E+01 -0.41828654720E+01  0.20391782258E+01  0.17147532689E+03  0.17120000000E+03 0.  0.
        998    1    1    2    0    0 -0.10638589107E+02  0.57858010972E+01  0.13883934573E+04  0.13884822819E+04  0.10000000000E+02 0.  1.
</event>
<event>
 5    1  0.1640179E-008  0.3850084E+03  0.7957747E-01  0.3429636E+00
         13   -1    0    0    0    0  0.00000000000E+00  0.00000000000E+00  0.14999999963E+04  0.15000000000E+04  0.10566000000E+00 0.  1.
        994   -1    0    0    0    0 -0.00000000000E+00 -0.00000000000E+00  0.11368683772E-12  0.17120000000E+03  0.17120000000E+03 0.  0.
         13    1    1    2    0    0  0.53816869492E+01 -0.17979258261E+02  0.85131396112E+02  0.87175581730E+02  0.10566000000E+00 0.  1.
        994    1    1    2    0    0 -0.61405695533E+01  0.47065951969E+02  0.90701656842E+01  0.17788934295E+03  0.17120000000E+03 0.  0.
        998    1    1    2    0    0  0.75888260414E+00 -0.29086693708E+02  0.14057984345E+04  0.14061350753E+04  0.10000000000E+02 0.  1.
</event>
<event>
 5    1  0.1640179E-008  0.3788608E+03  0.7957747E-01  0.3456134E+00
         13   -1    0    0    0    0  0.00000000000E+00  0.00000000000E+00  0.14999999963E+04  0.15000000000E+04  0.10566000000E+00 0. -1.
        994   -1    0    0    0    0 -0.00000000000E+00 -0.00000000000E+00  0.11368683772E-12  0.17120000000E+03  0.17120000000E+03 0.  0.
         13    1    1    2    0    0  0.87985186672E+01  0.24424945321E+02  0.67728446953E+02  0.72533754731E+02  0.10566000000E+00 0. -1.
        994    1    1    2    0    0 -0.21396574861E+02 -0.17809971397E+02  0.73142758115E+01  0.17360284309E+03  0.17120000000E+03 0.  0.
        998    1    1    2    0    0  0.12598056193E+02 -0.66149739244E+01  0.14249572735E+04  0.14250634022E+04  0.10000000000E+02 0. -1.
</event>
<event>
 5    1  0.1640179E-008  0.3814582E+03  0.7957747E-01  0.3444833E+00
         13   -1    0    0    0    0  0.00000000000E+00  0.00000000000E+00  0.14999999963E+04  0.15000000000E+04  0.10566000000E+00 0.  1.
        994   -1    0    0    0    0 -0.00000000000E+00 -0.00000000000E+00  0.11368683772E-12  0.17120000000E+03  0.17120000000E+03 0.  0.
         13    1    1    2    0    0 -0.19376215738E+02  0.16407714659E+02  0.88039528867E+02  0.91627619437E+02  0.10566000000E+00 0.  1.
        994    1    1    2    0    0  0.21823626890E+02 -0.16960193838E+02  0.59444602863E+01  0.17351857386E+03  0.17120000000E+03 0.  0.
        998    1    1    2    0    0 -0.24474111520E+01  0.55247917911E+00  0.14060160071E+04  0.14060538067E+04  0.10000000000E+02 0.  1.
</event>
<event>
 5    1  0.1640179E-008  0.3785129E+03  0.7957747E-01  0.3457659E+00
         13   -1    0    0    0    0  0.00000000000E+00  0.00000000000E+00  0.14999999963E+04  0.15000000000E+04  0.10566000000E+00 0. -1.
        994   -1    0    0    0    0 -0.00000000000E+00 -0.00000000000E+00  0.11368683772E-12  0.17120000000E+03  0.17120000000E+03 0.  0.
         13    1    1    2    0    0  0.16808651852E+02 -0.79264972986E+02  0.45280788590E+03  0.46000049937E+03  0.10566000000E+00 0. -1.
        994    1    1    2    0    0 -0.12092636744E+02  0.82707531474E+02  0.28727833875E+02  0.19266939577E+03  0.17120000000E+03 0.  0.
        998    1    1    2    0    0 -0.47160151073E+01 -0.34425584886E+01  0.10184642765E+04  0.10185301049E+04  0.10000000000E+02 0. -1.
</event>
<event>
 5    1  0.1640179E-008  0.3846109E+03  0.7957747E-01  0.3431324E+00
         13   -1    0    0    0    0  0.00000000000E+00  0.00000000000E+00  0.14999999963E+04  0.15000000000E+04  0.10566000000E+00 0. -1.
        994   -1    0    0    0    0 -0.00000000000E+00 -0.00000000000E+00  0.11368683772E-12  0.17120000000E+03  0.17120000000E+03 0.  0.
         13    1    1    2    0    0  0.90250272011E+01  0.15571515164E+02  0.99364821881E+02  0.10098169236E+03  0.10566000000E+00 0. -1.
        994    1    1    2    0    0  0.18440870879E+01  0.29819610480E+01  0.18639169647E+01  0.17124604210E+03  0.17120000000E+03 0.  0.
        998    1    1    2    0    0 -0.10869114289E+02 -0.18553476212E+02  0.13987712574E+04  0.13989722655E+04  0.10000000000E+02 0. -1.
</event>
<event>
 5    1  0.1640179E-008  0.3757741E+03  0.7957747E-01  0.3469768E+00
         13   -1    0    0    0    0  0.00000000000E+00  0.00000000000E+00  0.14999999963E+04  0.15000000000E+04  0.10566000000E+00 0.  1.
        994   -1    0    0    0    0 -0.00000000000E+00 -0.00000000000E+00  0.11368683772E-12  0.17120000000E+03  0.17120000000E+03 0.  0.
         13    1    1    2    0    0  0.42044777362E+02  0.18937952770E+02  0.68109227976E+02  0.82251367515E+02  0.10566000000E+00 0.  1.
        994    1    1    2    0    0 -0.37708711093E+02 -0.24554603935E+02  0.21285620434E+02  0.17829019352E+03  0.17120000000E+03 0.  0.
        998    1    1    2    0    0 -0.43360662684E+01  0.56166511648E+01  0.14106051479E+04  0.14106584390E+04  0.10000000000E+02 0.  1.
</event>
<event>
 5    1  0.1640179E-008  0.3817182E+03  0.7957747E-01  0.3443711E+00
         13   -1    0    0    0    0  0.00000000000E+00  0.00000000000E+00  0.14999999963E+04  0.15000000000E+04  0.10566000000E+00 0.  1.
        994   -1    0    0    0    0 -0.00000000000E+00 -0.00000000000E+00  0.11368683772E-12  0.17120000000E+03  0.17120000000E+03 0.  0.
         13    1    1    2    0    0  0.16949019998E+02  0.16726205255E+02  0.89487104631E+02  0.92601232608E+02  0.10566000000E+00 0.  1.
        994    1    1    2    0    0 -0.93375235432E+01 -0.23926953519E+00  0.35583819774E+01  0.17149154113E+03  0.17120000000E+03 0.  0.
        998    1    1    2    0    0 -0.76114964543E+01 -0.16486935720E+02  0.14069545097E+04  0.14071072263E+04  0.10000000000E+02 0.  1.
</event>
<event>
 5    1  0.1640179E-008  0.3787150E+03  0.7957747E-01  0.3456773E+00
         13   -1    0    0    0    0  0.00000000000E+00  0.00000000000E+00  0.14999999963E+04  0.15000000000E+04  0.10566000000E+00 0. -1.
        994   -1    0    0    0    0 -0.00000000000E+00 -0.00000000000E+00  0.11368683772E-12  0.17120000000E+03  0.17120000000E+03 0.  0.
         13    1    1    2    0    0  0.23181411245E+02  0.38612405171E+02  0.21563537795E+03  0.22028827260E+03  0.10566000000E+00 0. -1.
        994    1    1    2    0    0 -0.10425617659E+02 -0.19987505192E+02  0.64911843965E+01  0.17279979555E+03  0.17120000000E+03 0.  0.
        998    1    1    2    0    0 -0.12755793585E+02 -0.18624899980E+02  0.12778734339E+04  0.12781119318E+04  0.10000000000E+02 0. -1.
</event>
<event>
 5    1  0.1640179E-008  0.3758719E+03  0.7957747E-01  0.3469333E+00
         13   -1    0    0    0    0  0.00000000000E+00  0.00000000000E+00  0.14999999963E+04  0.15000000000E+04  0.10566000000E+00 0. -1.
        994   -1    0    0    0    0 -0.00000000000E+00 -0.00000000000E+00  0.11368683772E-12  0.17120000000E+03  0.17120000000E+03 0.  0.
         13    1    1    2    0    0 -0.15629072644E+02  0.69506941250E+01  0.20664307540E+02  0.26825451174E+02  0.10566000000E+00 0. -1.
        994    1    1    2    0    0  0.13550237983E+02 -0.64726283908E+01  0.69963318178E+01  0.17199968758E+03  0.17120000000E+03 0.  0.
        998    1    1    2    0    0  0.20788346616E+01 -0.47806573416E+00  0.14723393569E+04  0.14723748612E+04  0.10000000000E+02 0. -1.
</event>
<event>
 5    1  0.1640179E-008  0.3725427E+03  0.7957747E-01  0.3484286E+00
         13   -1    0    0    0    0  0.00000000000E+00  0.00000000000E+00  0.14999999963E+04  0.15000000000E+04  0.10566000000E+00 0. -1.
        994   -1    0    0    0    0 -0.00000000000E+00 -0.00000000000E+00  0.11368683772E-12  0.17120000000E+03  0.17120000000E+03 0.  0.
         13    1    1    2    0    0 -0.70914623244E+01  0.70886056735E+01  0.25919081667E+01  0.10356945509E+02  0.10566000000E+00 0. -1.
        994    1    1    2    0    0  0.90801122647E+01 -0.53912695919E+01  0.83283521456E+01  0.17172744590E+03  0.17120000000E+03 0.  0.
        998    1    1    2    0    0 -0.19886499403E+01 -0.16973360815E+01  0.14890797360E+04  0.14891156086E+04  0.10000000000E+02 0. -1.
</event>
<event>
 5    1  0.1640179E-008  0.3855462E+03  0.7957747E-01  0.3427359E+00
         13   -1    0    0    0    0  0.00000000000E+00  0.00000000000E+00  0.14999999963E+04  0.15000000000E+04  0.10566000000E+00 0. -1.
        994   -1    0    0    0    0 -0.00000000000E+00 -0.00000000000E+00  0.11368683772E-12  0.17120000000E+03  0.17120000000E+03 0.  0.
         13    1    1    2    0    0 -0.15671389793E+02 -0.48372246252E+01  0.97509599572E+02  0.98879342498E+02  0.10566000000E+00 0. -1.
        994    1    1    2    0    0  0.11988443391E+02  0.49140473071E+01  0.19104881298E+01  0.17170020559E+03  0.17120000000E+03 0.  0.
        998    1    1    2    0    0  0.36829464020E+01 -0.76822681863E-01  0.14005799086E+04  0.14006204519E+04  0.10000000000E+02 0. -1.
</event>
<event>
 5    1  0.1640179E-008  0.4027819E+03  0.7957747E-01  0.3357589E+00
         13   -1    0    0    0    0  0.00000000000E+00  0.00000000000E+00  0.14999999963E+04  0.15000000000E+04  0.10566000000E+00 0. -1.
        994   -1    0    0    0    0 -0.00000000000E+00 -0.00000000000E+00  0.11368683772E-12  0.17120000000E+03  0.17120000000E+03 0.  0.
         13    1    1    2    0    0 -0.18984409017E+02  0.15318702083E+02 -0.25946039308E+01  0.24531888489E+02  0.10566000000E+00 0. -1.
        994    1    1    2    0    0  0.16499165743E+02 -0.16671642868E+02  0.31634300560E+02  0.17567109927E+03  0.17120000000E+03 0.  0.
        998    1    1    2    0    0  0.24852432742E+01  0.13529407847E+01  0.14709602996E+04  0.14709970122E+04  0.10000000000E+02 0. -1.
</event>
<event>
 5    1  0.1640179E-008  0.3794028E+03  0.7957747E-01  0.3453763E+00
         13   -1    0    0    0    0  0.00000000000E+00  0.00000000000E+00  0.14999999963E+04  0.15000000000E+04  0.10566000000E+00 0.  1.
        994   -1    0    0    0    0 -0.00000000000E+00 -0.00000000000E+00  0.11368683772E-12  0.17120000000E+03  0.17120000000E+03 0.  0.
         13    1    1    2    0    0  0.28302068330E+02 -0.29524539394E+01  0.92675578499E+02  0.96945851227E+02  0.10566000000E+00 0.  1.
        994    1    1    2    0    0 -0.11440152340E+02 -0.55075616205E+01  0.49750600677E+01  0.17174225323E+03  0.17120000000E+03 0.  0.
        998    1    1    2    0    0 -0.16861915990E+02  0.84600155599E+01  0.14023493577E+04  0.14025118955E+04  0.10000000000E+02 0.  1.
</event>
<event>
 5    1  0.1640179E-008  0.3858639E+03  0.7957747E-01  0.3426017E+00
         13   -1    0    0    0    0  0.00000000000E+00  0.00000000000E+00  0.14999999963E+04  0.15000000000E+04  0.10566000000E+00 0.  1.
        994   -1    0    0    0    0 -0.00000000000E+00 -0.00000000000E+00  0.11368683772E-12  0.17120000000E+03  0.17120000000E+03 0.  0.
         13    1    1    2    0    0  0.27491835099E+01  0.10228959036E+02  0.54669560964E+02  0.55686279036E+02  0.10566000000E+00 0.  1.
        994    1    1    2    0    0  0.17412782975E+02  0.98856961075E+01  0.25177754010E+01  0.17238535666E+03  0.17120000000E+03 0.  0.
        998    1    1    2    0    0 -0.20161966485E+02 -0.20114655143E+02  0.14428126599E+04  0.14431283643E+04  0.10000000000E+02 0.  1.
</event>
<event>
 5    1  0.1640179E-008  0.3754528E+03  0.7957747E-01  0.3471200E+00
         13   -1    0    0    0    0  0.00000000000E+00  0.00000000000E+00  0.14999999963E+04  0.15000000000E+04  0.10566000000E+00 0.  1.
        994   -1    0    0    0    0 -0.00000000000E+00 -0.00000000000E+00  0.11368683772E-12  0.17120000000E+03  0.17120000000E+03 0.  0.
         13    1    1    2    0    0  0.37536186298E+02  0.33822148953E+02  0.20070921910E+03  0.20697126573E+03  0.10566000000E+00 0.  1.
        994    1    1    2    0    0 -0.13885559554E+02 -0.22444986425E+02  0.88142080952E+01  0.17344658095E+03  0.17120000000E+03 0.  0.
        998    1    1    2    0    0 -0.23650626744E+02 -0.11377162528E+02  0.12904765691E+04  0.12907821533E+04  0.10000000000E+02 0.  1.
</event>
<event>
 5    1  0.1640179E-008  0.3858639E+03  0.7957747E-01  0.3426017E+00
         13   -1    0    0    0    0  0.00000000000E+00  0.00000000000E+00  0.14999999963E+04  0.15000000000E+04  0.10566000000E+00 0.  1.
        994   -1    0    0    0    0 -0.00000000000E+00 -0.00000000000E+00  0.11368683772E-12  0.17120000000E+03  0.17120000000E+03 0.  0.
         13    1    1    2    0    0  0.10496002325E+02 -0.45266296128E+01  0.52055896338E+02  0.53296190746E+02  0.10566000000E+00 0.  1.
        994    1    1    2    0    0 -0.14635623099E+02  0.59405935049E+01  0.20204717991E+01  0.17193898459E+03  0.17120000000E+03 0.  0.
        998    1    1    2    0    0  0.41396207739E+01 -0.14139638921E+01  0.14459236281E+04  0.14459648247E+04  0.10000000000E+02 0.  1.
</event>
<event>
 5    1  0.1640179E-008  0.3828976E+03  0.7957747E-01  0.3438638E+00
         13   -1    0    0    0    0  0.00000000000E+00  0.00000000000E+00  0.14999999963E+04  0.15000000000E+04  0.10566000000E+00 0. -1.
        994   -1    0    0    0    0 -0.00000000000E+00 -0.00000000000E+00  0.11368683772E-12  0.17120000000E+03  0.17120000000E+03 0.  0.
         13    1    1    2    0    0  0.13448740136E+02  0.47903492188E+01  0.38112700055E+02  0.40698957313E+02  0.10566000000E+00 0. -1.
        994    1    1    2    0    0 -0.47530610722E+01  0.30307279072E+01  0.27827753254E+01  0.17131538384E+03  0.17120000000E+03 0.  0.
        998    1    1    2    0    0 -0.86956790642E+01 -0.78210771260E+01  0.14591045209E+04  0.14591856588E+04  0.10000000000E+02 0. -1.
</event>
<event>
 5    1  0.1640179E-008  0.3788263E+03  0.7957747E-01  0.3456285E+00
         13   -1    0    0    0    0  0.00000000000E+00  0.00000000000E+00  0.14999999963E+04  0.15000000000E+04  0.10566000000E+00 0. -1.
        994   -1    0    0    0    0 -0.00000000000E+00 -0.00000000000E+00  0.11368683772E-12  0.17120000000E+03  0.17120000000E+03 0.  0.
         13    1    1    2    0    0  0.58307122843E+02 -0.31994298364E+00  0.10354652379E+03  0.11883482945E+03  0.10566000000E+00 0. -1.
        994    1    1    2    0    0 -0.37367283290E+02 -0.57394028689E+01  0.20858288792E+02  0.17656093231E+03  0.17120000000E+03 0.  0.
        998    1    1    2    0    0 -0.20939839553E+02  0.60593458525E+01  0.13755951837E+04  0.13758042382E+04  0.10000000000E+02 0. -1.
</event>
<event>
 5    1  0.1640179E-008  0.3851927E+03  0.7957747E-01  0.3428855E+00
         13   -1    0    0    0    0  0.00000000000E+00  0.00000000000E+00  0.14999999963E+04  0.15000000000E+04  0.10566000000E+00 0.  1.
        994   -1    0    0    0    0 -0.00000000000E+00 -0.00000000000E+00  0.11368683772E-12  0.17120000000E+03  0.17120000000E+03 0.  0.
         13    1    1    2    0    0 -0.17240429947E+02  0.84224119112E+01  0.11248944186E+03  0.11411421972E+03  0.10566000000E+00 0.  1.
        994    1    1    2    0    0  0.18434450924E+02 -0.76125529862E+01  0.28429044644E+01  0.17238126943E+03  0.17120000000E+03 0.  0.
        998    1    1    2    0    0 -0.11940209773E+01 -0.80985892509E+00  0.13846676500E+04  0.13847045109E+04  0.10000000000E+02 0.  0.
</event>
<event>
 5    1  0.1640179E-008  0.3695960E+03  0.7957747E-01  0.3497750E+00
         13   -1    0    0    0    0  0.00000000000E+00  0.00000000000E+00  0.14999999963E+04  0.15000000000E+04  0.10566000000E+00 0.  1.
        994   -1    0    0    0    0 -0.00000000000E+00 -0.00000000000E+00  0.11368683772E-12  0.17120000000E+03  0.17120000000E+03 0.  0.
         13    1    1    2    0    0 -0.84731470235E+02 -0.43020096534E+02  0.33605401328E+03  0.34923124396E+03  0.10566000000E+00 0.  1.
        994    1    1    2    0    0  0.67651271783E+02  0.63665501335E+02  0.41492343076E+02  0.19915081011E+03  0.17120000000E+03 0.  0.
        998    1    1    2    0    0  0.17080198453E+02 -0.20645404802E+02  0.11224536399E+04  0.11228179459E+04  0.10000000000E+02 0.  1.
</event>
<event>
 5    1  0.1640179E-008  0.3809476E+03  0.7957747E-01  0.3447043E+00
         13   -1    0    0    0    0  0.00000000000E+00  0.00000000000E+00  0.14999999963E+04  0.15000000000E+04  0.10566000000E+00 0. -1.
        994   -1    0    0    0    0 -0.00000000000E+00 -0.00000000000E+00  0.11368683772E-12  0.17120000000E+03  0.17120000000E+03 0.  0.
         13    1    1    2    0    0  0.14524845628E+02  0.12144493928E+02  0.45992982843E+02  0.49737566367E+02  0.10566000000E+00 0. -1.
        994    1    1    2    0    0 -0.26727156797E+02 -0.24672582644E+01  0.60600724294E+01  0.17339721091E+03  0.17120000000E+03 0.  0.
        998    1    1    2    0    0  0.12202311169E+02 -0.96772356637E+01  0.14479469410E+04  0.14480652227E+04  0.10000000000E+02 0. -1.
</event>
<event>
 5    1  0.1640179E-008  0.3831904E+03  0.7957747E-01  0.3437383E+00
         13   -1    0    0    0    0  0.00000000000E+00  0.00000000000E+00  0.14999999963E+04  0.15000000000E+04  0.10566000000E+00 0.  1.
        994   -1    0    0    0    0 -0.00000000000E+00 -0.00000000000E+00  0.11368683772E-12  0.17120000000E+03  0.17120000000E+03 0.  0.
         13    1    1    2    0    0  0.23772498131E+01  0.20333778238E+02  0.93665925621E+02  0.95877164334E+02  0.10566000000E+00 0.  1.
        994    1    1    2    0    0  0.94472639378E+01  0.67678826531E+01  0.29781564029E+01  0.17161982533E+03  0.17120000000E+03 0.  0.
        998    1    1    2    0    0 -0.11824513751E+02 -0.27101660891E+02  0.14033559143E+04  0.14037030103E+04  0.10000000000E+02 0.  1.
</event>
<event>
 5    1  0.1640179E-008  0.3858812E+03  0.7957747E-01  0.3425944E+00
         13   -1    0    0    0    0  0.00000000000E+00  0.00000000000E+00  0.14999999963E+04  0.15000000000E+04  0.10566000000E+00 0.  1.
        994   -1    0    0    0    0 -0.00000000000E+00 -0.00000000000E+00  0.11368683772E-12  0.17120000000E+03  0.17120000000E+03 0.  0.
         13    1    1    2    0    0  0.11387143682E+02  0.14149206619E+01  0.54601971250E+02  0.55794762031E+02  0.10566000000E+00 0.  1.
        994    1    1    2    0    0 -0.97019205672E+01 -0.94561265027E+01  0.17954050055E+01  0.17174460420E+03  0.17120000000E+03 0.  0.
        998    1    1    2    0    0 -0.16852231151E+01  0.80412058408E+01  0.14436026200E+04  0.14436606338E+04  0.10000000000E+02 0.  1.
</event>
<event>
 5    1  0.1640179E-008  0.3836594E+03  0.7957747E-01  0.3435378E+00
         13   -1    0    0    0    0  0.00000000000E+00  0.00000000000E+00  0.14999999963E+04  0.15000000000E+04  0.10566000000E+00 0.  1.
        994   -1    0    0    0    0 -0.00000000000E+00 -0.00000000000E+00  0.11368683772E-12  0.17120000000E+03  0.17120000000E+03 0.  0.
         13    1    1    2    0    0  0.14604044460E+02  0.40362423665E+01  0.48701345616E+02  0.51003937062E+02  0.10566000000E+00 0.  1.
        994    1    1    2    0    0 -0.10890817698E+02 -0.93849685782E+01  0.29801752211E+01  0.17182842893E+03  0.17120000000E+03 0.  0.
        998    1    1    2    0    0 -0.37132267621E+01  0.53487262116E+01  0.14483184754E+04  0.14483676340E+04  0.10000000000E+02 0.  1.
</event>
<event>
 5    1  0.1640179E-008  0.3803832E+03  0.7957747E-01  0.3449492E+00
         13   -1    0    0    0    0  0.00000000000E+00  0.00000000000E+00  0.14999999963E+04  0.15000000000E+04  0.10566000000E+00 0. -1.
        994   -1    0    0    0    0 -0.00000000000E+00 -0.00000000000E+00  0.11368683772E-12  0.17120000000E+03  0.17120000000E+03 0.  0.
         13    1    1    2    0    0 -0.28908091544E+02  0.31909827141E+02  0.22042814896E+03  0.22459406681E+03  0.10566000000E+00 0. -1.
        994    1    1    2    0    0  0.20998384921E+02 -0.24498366640E+02  0.74235572103E+01  0.17437216331E+03  0.17120000000E+03 0.  0.
        998    1    1    2    0    0  0.79097066227E+01 -0.74114605011E+01  0.12721482901E+04  0.12722337699E+04  0.10000000000E+02 0. -1.
</event>
<event>
 5    1  0.1640179E-008  0.3736475E+03  0.7957747E-01  0.3479294E+00
         13   -1    0    0    0    0  0.00000000000E+00  0.00000000000E+00  0.14999999963E+04  0.15000000000E+04  0.10566000000E+00 0.  1.
        994   -1    0    0    0    0 -0.00000000000E+00 -0.00000000000E+00  0.11368683772E-12  0.17120000000E+03  0.17120000000E+03 0.  0.
         13    1    1    2    0    0 -0.73076664959E+02 -0.37225085170E+02  0.31441301255E+03  0.32493300779E+03  0.10566000000E+00 0.  1.
        994    1    1    2    0    0  0.16501064117E+02  0.70809018391E+00  0.13847210404E+02  0.17255135973E+03  0.17120000000E+03 0.  0.
        998    1    1    2    0    0  0.56575600842E+02  0.36516994986E+02  0.11717397733E+04  0.11737156325E+04  0.10000000000E+02 0.  1.
</event>
<event>
 5    1  0.1640179E-008  0.3805842E+03  0.7957747E-01  0.3448619E+00
         13   -1    0    0    0    0  0.00000000000E+00  0.00000000000E+00  0.14999999963E+04  0.15000000000E+04  0.10566000000E+00 0. -1.
        994   -1    0    0    0    0 -0.00000000000E+00 -0.00000000000E+00  0.11368683772E-12  0.17120000000E+03  0.17120000000E+03 0.  0.
         13    1    1    2    0    0  0.17042755438E+01 -0.12749372153E+02  0.19701011053E+02  0.23528536843E+02  0.10566000000E+00 0. -1.
        994    1    1    2    0    0 -0.46815525762E+01  0.13414419663E+02  0.45123506244E+01  0.17184779573E+03  0.17120000000E+03 0.  0.
        998    1    1    2    0    0  0.29772770324E+01 -0.66504750970E+00  0.14757866346E+04  0.14758236674E+04  0.10000000000E+02 0. -1.
</event>
<event>
 5    1  0.1640179E-008  0.3728027E+03  0.7957747E-01  0.3483108E+00
         13   -1    0    0    0    0  0.00000000000E+00  0.00000000000E+00  0.14999999963E+04  0.15000000000E+04  0.10566000000E+00 0. -1.
        994   -1    0    0    0    0 -0.00000000000E+00 -0.00000000000E+00  0.11368683772E-12  0.17120000000E+03  0.17120000000E+03 0.  0.
         13    1    1    2    0    0  0.74977741959E+02  0.51868710087E+02  0.28758515524E+03  0.30169066534E+03  0.10566000000E+00 0. -1.
        994    1    1    2    0    0 -0.68817124479E+02 -0.37958641569E+02  0.34569403788E+02  0.19152320687E+03  0.17120000000E+03 0.  0.
        998    1    1    2    0    0 -0.61606174802E+01 -0.13910068518E+02  0.11778454372E+04  0.11779861278E+04  0.10000000000E+02 0. -1.
</event>
<event>
 5    1  0.1640179E-008  0.3798700E+03  0.7957747E-01  0.3451725E+00
         13   -1    0    0    0    0  0.00000000000E+00  0.00000000000E+00  0.14999999963E+04  0.15000000000E+04  0.10566000000E+00 0. -1.
        994   -1    0    0    0    0 -0.00000000000E+00 -0.00000000000E+00  0.11368683772E-12  0.17120000000E+03  0.17120000000E+03 0.  0.
         13    1    1    2    0    0 -0.53367417084E+01  0.18102610016E+02  0.41197762023E+02  0.45315031295E+02  0.10566000000E+00 0. -1.
        994    1    1    2    0    0  0.12482336230E+02 -0.65246938704E+01  0.48625213875E+01  0.17184721255E+03  0.17120000000E+03 0.  0.
        998    1    1    2    0    0 -0.71455945218E+01 -0.11577916146E+02  0.14539397129E+04  0.14540377562E+04  0.10000000000E+02 0. -1.
</event>
<event>
 5    1  0.1640179E-008  0.3770519E+03  0.7957747E-01  0.3464096E+00
         13   -1    0    0    0    0  0.00000000000E+00  0.00000000000E+00  0.14999999963E+04  0.15000000000E+04  0.10566000000E+00 0.  1.
        994   -1    0    0    0    0 -0.00000000000E+00 -0.00000000000E+00  0.11368683772E-12  0.17120000000E+03  0.17120000000E+03 0.  0.
         13    1    1    2    0    0  0.22587878377E+02  0.29470188693E+02  0.11590573466E+03  0.12170807188E+03  0.10566000000E+00 0.  1.
        994    1    1    2    0    0 -0.80677636155E+01 -0.32191105560E+02  0.93557741997E+01  0.17463770096E+03  0.17120000000E+03 0.  0.
        998    1    1    2    0    0 -0.14520114761E+02  0.27209168674E+01  0.13747384874E+04  0.13748542272E+04  0.10000000000E+02 0.  1.
</event>
<event>
 5    1  0.1640179E-008  0.3726767E+03  0.7957747E-01  0.3483679E+00
         13   -1    0    0    0    0  0.00000000000E+00  0.00000000000E+00  0.14999999963E+04  0.15000000000E+04  0.10566000000E+00 0. -1.
        994   -1    0    0    0    0 -0.00000000000E+00 -0.00000000000E+00  0.11368683772E-12  0.17120000000E+03  0.17120000000E+03 0.  0.
         13    1    1    2    0    0 -0.17794803007E+02  0.42152631707E+02  0.73009684971E+02  0.86162199586E+02  0.10566000000E+00 0. -1.
        994    1    1    2    0    0  0.17806600875E+02 -0.58621437921E+02  0.25728485989E+02  0.18364352156E+03  0.17120000000E+03 0.  0.
        998    1    1    2    0    0 -0.11797868415E-01  0.16468806214E+02  0.14012618253E+04  0.14013942789E+04  0.10000000000E+02 0. -1.
</event>
<event>
 5    1  0.1640179E-008  0.3844522E+03  0.7957747E-01  0.3431999E+00
         13   -1    0    0    0    0  0.00000000000E+00  0.00000000000E+00  0.14999999963E+04  0.15000000000E+04  0.10566000000E+00 0. -1.
        994   -1    0    0    0    0 -0.00000000000E+00 -0.00000000000E+00  0.11368683772E-12  0.17120000000E+03  0.17120000000E+03 0.  0.
         13    1    1    2    0    0  0.11227702433E+02  0.17661147833E+01  0.32613274096E+02  0.34537186837E+02  0.10566000000E+00 0. -1.
        994    1    1    2    0    0 -0.13318658862E+02 -0.75877166605E+01  0.26767937408E+01  0.17190568735E+03  0.17120000000E+03 0.  0.
        998    1    1    2    0    0  0.20909564292E+01  0.58216018772E+01  0.14647099284E+04  0.14647571258E+04  0.10000000000E+02 0. -1.
</event>
<event>
 5    1  0.1640179E-008  0.3834140E+03  0.7957747E-01  0.3436427E+00
         13   -1    0    0    0    0  0.00000000000E+00  0.00000000000E+00  0.14999999963E+04  0.15000000000E+04  0.10566000000E+00 0.  1.
        994   -1    0    0    0    0 -0.00000000000E+00 -0.00000000000E+00  0.11368683772E-12  0.17120000000E+03  0.17120000000E+03 0.  0.
         13    1    1    2    0    0 -0.26126808671E+02 -0.80567976536E+01  0.14273917557E+03  0.14533411687E+03  0.10566000000E+00 0.  1.
        994    1    1    2    0    0  0.22798203294E+02  0.14744561603E+02  0.48602150948E+01  0.17340767532E+03  0.17120000000E+03 0.  0.
        998    1    1    2    0    0  0.33286053772E+01 -0.66877639494E+01  0.13524006056E+04  0.13524582078E+04  0.10000000000E+02 0.  1.
</event>
<event>
 5    1  0.1640179E-008  0.3780931E+03  0.7957747E-01  0.3459504E+00
         13   -1    0    0    0    0  0.00000000000E+00  0.00000000000E+00  0.14999999963E+04  0.15000000000E+04  0.10566000000E+00 0.  1.
        994   -1    0    0    0    0 -0.00000000000E+00 -0.00000000000E+00  0.11368683772E-12  0.17120000000E+03  0.17120000000E+03 0.  0.
         13    1    1    2    0    0  0.24431710112E+02  0.17295163977E+02  0.87325827803E+02  0.92313826275E+02  0.10566000000E+00 0.  1.
        994    1    1    2    0    0 -0.22454193160E+02  0.53040857589E+01  0.68916929646E+01  0.17288510505E+03  0.17120000000E+03 0.  0.
        998    1    1    2    0    0 -0.19775169524E+01 -0.22599249736E+02  0.14057824755E+04  0.14060010687E+04  0.10000000000E+02 0.  1.
</event>
<event>
 5    1  0.1640179E-008  0.3784191E+03  0.7957747E-01  0.3458071E+00
         13   -1    0    0    0    0  0.00000000000E+00  0.00000000000E+00  0.14999999963E+04  0.15000000000E+04  0.10566000000E+00 0.  1.
        994   -1    0    0    0    0 -0.00000000000E+00 -0.00000000000E+00  0.11368683772E-12  0.17120000000E+03  0.17120000000E+03 0.  0.
         13    1    1    2    0    0 -0.47249962283E+02 -0.10528374251E+01  0.20868892118E+03  0.21397370023E+03  0.10566000000E+00 0.  1.
        994    1    1    2    0    0  0.37846138659E+02  0.16067986941E+02  0.10635299549E+02  0.17638894527E+03  0.17120000000E+03 0.  0.
        998    1    1    2    0    0  0.94038236237E+01 -0.15015149516E+02  0.12806757755E+04  0.12808373545E+04  0.10000000000E+02 0.  1.
</event>
<event>
 5    1  0.1640179E-008  0.3853202E+03  0.7957747E-01  0.3428315E+00
         13   -1    0    0    0    0  0.00000000000E+00  0.00000000000E+00  0.14999999963E+04  0.15000000000E+04  0.10566000000E+00 0. -1.
        994   -1    0    0    0    0 -0.00000000000E+00 -0.00000000000E+00  0.11368683772E-12  0.17120000000E+03  0.17120000000E+03 0.  0.
         13    1    1    2    0    0 -0.13849861699E+02  0.99292915791E+01  0.94741652223E+02  0.96262149001E+02  0.10566000000E+00 0. -1.
        994    1    1    2    0    0  0.21501108196E+02  0.11918237285E+01  0.29961323815E+01  0.17257501241E+03  0.17120000000E+03 0.  0.
        998    1    1    2    0    0 -0.76512464965E+01 -0.11121115308E+02  0.14022622117E+04  0.14023628386E+04  0.10000000000E+02 0. -1.
</event>
<event>
 5    1  0.1640179E-008  0.2817256E+03  0.7957747E-01  0.4035787E+00
         13   -1    0    0    0    0  0.00000000000E+00  0.00000000000E+00  0.14999999963E+04  0.15000000000E+04  0.10566000000E+00 0. -1.
        994   -1    0    0    0    0 -0.00000000000E+00 -0.00000000000E+00  0.11368683772E-12  0.17120000000E+03  0.17120000000E+03 0.  0.
         13    1    1    2    0    0  0.15831892766E+03 -0.84075158701E+02  0.49576560815E+03  0.52717839917E+03  0.10566000000E+00 0. -1.
        994    1    1    2    0    0 -0.17640971668E+03  0.75747521970E+02  0.16743039853E+03  0.30692092398E+03  0.17120000000E+03 0.  0.
        998    1    1    2    0    0  0.18090789017E+02  0.83276367305E+01  0.83680398960E+03  0.83710067685E+03  0.10000000000E+02 0.  1.
</event>
<event>
 5    1  0.1640179E-008  0.3755141E+03  0.7957747E-01  0.3470927E+00
         13   -1    0    0    0    0  0.00000000000E+00  0.00000000000E+00  0.14999999963E+04  0.15000000000E+04  0.10566000000E+00 0.  1.
        994   -1    0    0    0    0 -0.00000000000E+00 -0.00000000000E+00  0.11368683772E-12  0.17120000000E+03  0.17120000000E+03 0.  0.
         13    1    1    2    0    0  0.56460203138E+02 -0.55528585375E+01  0.25215064489E+03  0.25845415001E+03  0.10566000000E+00 0.  1.
        994    1    1    2    0    0 -0.33812282402E+02 -0.22580476144E+02  0.12045274711E+02  0.17637368564E+03  0.17120000000E+03 0.  0.
        998    1    1    2    0    0 -0.22647920736E+02  0.28133334682E+02  0.12358040767E+04  0.12363721643E+04  0.10000000000E+02 0.  1.
</event>
<event>
 5    1  0.1640179E-008  0.3843753E+03  0.7957747E-01  0.3432326E+00
         13   -1    0    0    0    0  0.00000000000E+00  0.00000000000E+00  0.14999999963E+04  0.15000000000E+04  0.10566000000E+00 0. -1.
        994   -1    0    0    0    0 -0.00000000000E+00 -0.00000000000E+00  0.11368683772E-12  0.17120000000E+03  0.17120000000E+03 0.  0.
         13    1    1    2    0    0 -0.19143175470E+02 -0.89119136431E+01  0.11623872491E+03  0.11814116854E+03  0.10566000000E+00 0. -1.
        994    1    1    2    0    0  0.11304680904E+02  0.26381440619E+01  0.23848017351E+01  0.17160968182E+03  0.17120000000E+03 0.  0.
        998    1    1    2    0    0  0.78384945659E+01  0.62737695812E+01  0.13813764696E+04  0.13814491496E+04  0.10000000000E+02 0. -1.
</event>
<event>
 5    1  0.1640179E-008  0.3854778E+03  0.7957747E-01  0.3427649E+00
         13   -1    0    0    0    0  0.00000000000E+00  0.00000000000E+00  0.14999999963E+04  0.15000000000E+04  0.10566000000E+00 0.  1.
        994   -1    0    0    0    0 -0.00000000000E+00 -0.00000000000E+00  0.11368683772E-12  0.17120000000E+03  0.17120000000E+03 0.  0.
         13    1    1    2    0    0  0.94748896711E+01  0.80496208567E+01  0.61320584041E+02  0.62568323626E+02  0.10566000000E+00 0.  1.
        994    1    1    2    0    0 -0.36781277030E+01  0.13077727088E+02  0.19993622935E+01  0.17174979773E+03  0.17120000000E+03 0.  0.
        998    1    1    2    0    0 -0.57967619682E+01 -0.21127347945E+02  0.14366800499E+04  0.14368818786E+04  0.10000000000E+02 0.  1.
</event>
<event>
 5    1  0.1640179E-008  0.3828615E+03  0.7957747E-01  0.3438793E+00
         13   -1    0    0    0    0  0.00000000000E+00  0.00000000000E+00  0.14999999963E+04  0.15000000000E+04  0.10566000000E+00 0. -1.
        994   -1    0    0    0    0 -0.00000000000E+00 -0.00000000000E+00  0.11368683772E-12  0.17120000000E+03  0.17120000000E+03 0.  0.
         13    1    1    2    0    0  0.75262732494E+02 -0.11496876377E+03  0.54623529766E+03  0.56325421181E+03  0.10566000000E+00 0. -1.
        994    1    1    2    0    0 -0.29936780822E+02  0.71164166513E+02  0.40076854933E+02  0.19203162173E+03  0.17120000000E+03 0.  0.
        998    1    1    2    0    0 -0.45325951672E+02  0.43804597256E+02  0.91368784369E+03  0.91591416647E+03  0.10000000000E+02 0. -1.
</event>
<event>
 5    1  0.1640179E-008  0.3855389E+03  0.7957747E-01  0.3427390E+00
         13   -1    0    0    0    0  0.00000000000E+00  0.00000000000E+00  0.14999999963E+04  0.15000000000E+04  0.10566000000E+00 0. -1.
        994   -1    0    0    0    0 -0.00000000000E+00 -0.00000000000E+00  0.11368683772E-12  0.17120000000E+03  0.17120000000E+03 0.  0.
         13    1    1    2    0    0 -0.52196861913E+01  0.95509137285E+01  0.45469373547E+02  0.46754039096E+02  0.10566000000E+00 0. -1.
        994    1    1    2    0    0  0.70921609263E+00  0.20664119995E-01  0.13644979881E+01  0.17120690777E+03  0.17120000000E+03 0.  0.
        998    1    1    2    0    0  0.45104700986E+01 -0.95715778485E+01  0.14531661247E+04  0.14532390531E+04  0.10000000000E+02 0. -1.
</event>
<event>
 5    1  0.1640179E-008  0.3749360E+03  0.7957747E-01  0.3473509E+00
         13   -1    0    0    0    0  0.00000000000E+00  0.00000000000E+00  0.14999999963E+04  0.15000000000E+04  0.10566000000E+00 0. -1.
        994   -1    0    0    0    0 -0.00000000000E+00 -0.00000000000E+00  0.11368683772E-12  0.17120000000E+03  0.17120000000E+03 0.  0.
         13    1    1    2    0    0 -0.13492604694E+02  0.68680184691E+02  0.15074993485E+03  0.16620641436E+03  0.10566000000E+00 0. -1.
        994    1    1    2    0    0  0.29079972413E+02 -0.78290877650E+02  0.38823783475E+02  0.19440121523E+03  0.17120000000E+03 0.  0.
        998    1    1    2    0    0 -0.15587367719E+02  0.96106929594E+01  0.13104262779E+04  0.13105923704E+04  0.10000000000E+02 0. -1.
</event>
<event>
 5    1  0.1640179E-008  0.3803779E+03  0.7957747E-01  0.3449515E+00
         13   -1    0    0    0    0  0.00000000000E+00  0.00000000000E+00  0.14999999963E+04  0.15000000000E+04  0.10566000000E+00 0. -1.
        994   -1    0    0    0    0 -0.00000000000E+00 -0.00000000000E+00  0.11368683772E-12  0.17120000000E+03  0.17120000000E+03 0.  0.
         13    1    1    2    0    0  0.11043831615E+02 -0.24365951235E+01  0.14366047269E+02  0.18283809524E+02  0.10566000000E+00 0. -1.
        994    1    1    2    0    0 -0.12250929543E+02  0.33234627037E+01  0.44806841896E+01  0.17172841119E+03  0.17120000000E+03 0.  0.
        998    1    1    2    0    0  0.12070979275E+01 -0.88686758021E+00  0.14811532648E+04  0.14811877793E+04  0.10000000000E+02 0. -1.
</event>
<event>
 5    1  0.1640179E-008  0.2729279E+03  0.7957747E-01  0.4110504E+00
         13   -1    0    0    0    0  0.00000000000E+00  0.00000000000E+00  0.14999999963E+04  0.15000000000E+04  0.10566000000E+00 0. -1.
        994   -1    0    0    0    0 -0.00000000000E+00 -0.00000000000E+00  0.11368683772E-12  0.17120000000E+03  0.17120000000E+03 0.  0.
         13    1    1    2    0    0  0.83226217032E+01  0.12612222077E+03  0.69434753867E+03  0.70575817121E+03  0.10566000000E+00 0. -1.
        994    1    1    2    0    0 -0.10209383196E+03 -0.21422053890E+01  0.66631815714E+02  0.21018320207E+03  0.17120000000E+03 0.  0.
        998    1    1    2    0    0  0.93771210259E+02 -0.12398001538E+03  0.73902064189E+03  0.75525862672E+03  0.10000000000E+02 0. -1.
</event>
<event>
 5    1  0.1640179E-008  0.3813523E+03  0.7957747E-01  0.3445292E+00
         13   -1    0    0    0    0  0.00000000000E+00  0.00000000000E+00  0.14999999963E+04  0.15000000000E+04  0.10566000000E+00 0. -1.
        994   -1    0    0    0    0 -0.00000000000E+00 -0.00000000000E+00  0.11368683772E-12  0.17120000000E+03  0.17120000000E+03 0.  0.
         13    1    1    2    0    0  0.65219155735E+01  0.96490391433E+01  0.17997057946E+02  0.21436991344E+02  0.10566000000E+00 0. -1.
        994    1    1    2    0    0 -0.22034607847E+01 -0.14102238571E+02  0.41303966260E+01  0.17184361655E+03  0.17120000000E+03 0.  0.
        998    1    1    2    0    0 -0.43184547888E+01  0.44531994281E+01  0.14778725417E+04  0.14779193921E+04  0.10000000000E+02 0. -1.
</event>
<event>
 5    1  0.1640179E-008  0.3796170E+03  0.7957747E-01  0.3452828E+00
         13   -1    0    0    0    0  0.00000000000E+00  0.00000000000E+00  0.14999999963E+04  0.15000000000E+04  0.10566000000E+00 0.  1.
        994   -1    0    0    0    0 -0.00000000000E+00 -0.00000000000E+00  0.11368683772E-12  0.17120000000E+03  0.17120000000E+03 0.  0.
         13    1    1    2    0    0 -0.11116769715E+02 -0.95836309488E+01  0.22934183708E+02  0.27228964311E+02  0.10566000000E+00 0.  1.
        994    1    1    2    0    0 -0.11936638184E+01  0.21113529274E+02  0.58249034872E+01  0.17259946539E+03  0.17120000000E+03 0.  0.
        998    1    1    2    0    0  0.12310433533E+02 -0.11529898325E+02  0.14712409091E+04  0.14713715703E+04  0.10000000000E+02 0.  1.
</event>
<event>
 5    1  0.1640179E-008  0.3848393E+03  0.7957747E-01  0.3430354E+00
         13   -1    0    0    0    0  0.00000000000E+00  0.00000000000E+00  0.14999999963E+04  0.15000000000E+04  0.10566000000E+00 0. -1.
        994   -1    0    0    0    0 -0.00000000000E+00 -0.00000000000E+00  0.11368683772E-12  0.17120000000E+03  0.17120000000E+03 0.  0.
         13    1    1    2    0    0  0.87558662423E+01 -0.14026517086E+02  0.89783463360E+02  0.91293427103E+02  0.10566000000E+00 0. -1.
        994    1    1    2    0    0  0.44933765672E+01 -0.30568186260E+01  0.18071409947E+01  0.17129576857E+03  0.17120000000E+03 0.  0.
        998    1    1    2    0    0 -0.13249242809E+02  0.17083335712E+02  0.14084093919E+04  0.14086108043E+04  0.10000000000E+02 0. -1.
</event>
<event>
 5    1  0.1640179E-008  0.3827090E+03  0.7957747E-01  0.3439447E+00
         13   -1    0    0    0    0  0.00000000000E+00  0.00000000000E+00  0.14999999963E+04  0.15000000000E+04  0.10566000000E+00 0. -1.
        994   -1    0    0    0    0 -0.00000000000E+00 -0.00000000000E+00  0.11368683772E-12  0.17120000000E+03  0.17120000000E+03 0.  0.
         13    1    1    2    0    0 -0.69452609696E+00 -0.20381021332E+02  0.72518804614E+02  0.75331643973E+02  0.10566000000E+00 0. -1.
        994    1    1    2    0    0 -0.16444882891E+02  0.18126005250E+02  0.47589930569E+01  0.17300599485E+03  0.17120000000E+03 0.  0.
        998    1    1    2    0    0  0.17139408988E+02  0.22550160818E+01  0.14227221986E+04  0.14228623612E+04  0.10000000000E+02 0. -1.
</event>
<event>
 5    1  0.1640179E-008  0.3877424E+03  0.7957747E-01  0.3418124E+00
         13   -1    0    0    0    0  0.00000000000E+00  0.00000000000E+00  0.14999999963E+04  0.15000000000E+04  0.10566000000E+00 0.  1.
        994   -1    0    0    0    0 -0.00000000000E+00 -0.00000000000E+00  0.11368683772E-12  0.17120000000E+03  0.17120000000E+03 0.  0.
         13    1    1    2    0    0  0.39195720662E+02  0.76048089614E+02  0.14370708685E+03  0.16724638838E+03  0.10566000000E+00 0.  1.
        994    1    1    2    0    0 -0.15704672017E+02 -0.10919806448E+03  0.67616299380E+02  0.21459789829E+03  0.17120000000E+03 0.  0.
        998    1    1    2    0    0 -0.23491048644E+02  0.33149974865E+02  0.12886766101E+04  0.12893557133E+04  0.10000000000E+02 0.  1.
</event>
<event>
 5    1  0.1640179E-008  0.3878775E+03  0.7957747E-01  0.3417559E+00
         13   -1    0    0    0    0  0.00000000000E+00  0.00000000000E+00  0.14999999963E+04  0.15000000000E+04  0.10566000000E+00 0.  1.
        994   -1    0    0    0    0 -0.00000000000E+00 -0.00000000000E+00  0.11368683772E-12  0.17120000000E+03  0.17120000000E+03 0.  0.
         13    1    1    2    0    0 -0.53650906380E+02 -0.60246268322E+02  0.14463888893E+03  0.16561537355E+03  0.10566000000E+00 0.  1.
        994    1    1    2    0    0  0.46209147375E+02  0.45886062164E+02  0.36726586757E+02  0.18681300323E+03  0.17120000000E+03 0.  0.
        998    1    1    2    0    0  0.74417590048E+01  0.14360206158E+02  0.13186345206E+04  0.13187716232E+04  0.10000000000E+02 0.  1.
</event>
<event>
 5    1  0.1640179E-008  0.3832781E+03  0.7957747E-01  0.3437008E+00
         13   -1    0    0    0    0  0.00000000000E+00  0.00000000000E+00  0.14999999963E+04  0.15000000000E+04  0.10566000000E+00 0.  1.
        994   -1    0    0    0    0 -0.00000000000E+00 -0.00000000000E+00  0.11368683772E-12  0.17120000000E+03  0.17120000000E+03 0.  0.
         13    1    1    2    0    0  0.36445825750E+02 -0.34765190699E+02  0.74622086632E+02  0.90029904345E+02  0.10566000000E+00 0.  1.
        994    1    1    2    0    0  0.14198954243E+02 -0.19417416383E+02  0.20264700822E+02  0.17406534537E+03  0.17120000000E+03 0.  0.
        998    1    1    2    0    0 -0.50644779993E+02  0.54182607083E+02  0.14051132088E+04  0.14071047503E+04  0.10000000000E+02 0.  1.
</event>
<event>
 5    1  0.1640179E-008  0.3708195E+03  0.7957747E-01  0.3492133E+00
         13   -1    0    0    0    0  0.00000000000E+00  0.00000000000E+00  0.14999999963E+04  0.15000000000E+04  0.10566000000E+00 0.  1.
        994   -1    0    0    0    0 -0.00000000000E+00 -0.00000000000E+00  0.11368683772E-12  0.17120000000E+03  0.17120000000E+03 0.  0.
         13    1    1    2    0    0  0.44296355807E+02 -0.27736386581E+01  0.10918809990E+03  0.11786395774E+03  0.10566000000E+00 0.  1.
        994    1    1    2    0    0 -0.25109667347E+02  0.61583752778E+01  0.11149419520E+02  0.17349977100E+03  0.17120000000E+03 0.  0.
        998    1    1    2    0    0 -0.19186688460E+02 -0.33847366197E+01  0.13796624769E+04  0.13798362713E+04  0.10000000000E+02 0.  1.
</event>
<event>
 5    1  0.1640179E-008  0.3825320E+03  0.7957747E-01  0.3440207E+00
         13   -1    0    0    0    0  0.00000000000E+00  0.00000000000E+00  0.14999999963E+04  0.15000000000E+04  0.10566000000E+00 0.  1.
        994   -1    0    0    0    0 -0.00000000000E+00 -0.00000000000E+00  0.11368683772E-12  0.17120000000E+03  0.17120000000E+03 0.  0.
         13    1    1    2    0    0  0.10512513046E+02  0.29174985289E+01  0.20015027915E+02  0.22795552959E+02  0.10566000000E+00 0.  1.
        994    1    1    2    0    0 -0.14983446409E+01 -0.37550493106E+01  0.29146469423E+01  0.17127253311E+03  0.17120000000E+03 0.  0.
        998    1    1    2    0    0 -0.90141684055E+01  0.83755078173E+00  0.14770703214E+04  0.14771319139E+04  0.10000000000E+02 0.  1.
</event>
<event>
 5    1  0.1640179E-008  0.3840077E+03  0.7957747E-01  0.3433892E+00
         13   -1    0    0    0    0  0.00000000000E+00  0.00000000000E+00  0.14999999963E+04  0.15000000000E+04  0.10566000000E+00 0.  1.
        994   -1    0    0    0    0 -0.00000000000E+00 -0.00000000000E+00  0.11368683772E-12  0.17120000000E+03  0.17120000000E+03 0.  0.
         13    1    1    2    0    0  0.96170079295E+01 -0.12438932610E+02  0.58003805995E+02  0.60097142694E+02  0.10566000000E+00 0.  1.
        994    1    1    2    0    0 -0.15003071425E+02  0.62231761526E+00  0.28678565651E+01  0.17188119162E+03  0.17120000000E+03 0.  0.
        998    1    1    2    0    0  0.53860634957E+01  0.11816614995E+02  0.14391283337E+04  0.14392216657E+04  0.10000000000E+02 0.  1.
</event>
<event>
 5    1  0.1640179E-008  0.4494031E+03  0.7957747E-01  0.3195363E+00
         13   -1    0    0    0    0  0.00000000000E+00  0.00000000000E+00  0.14999999963E+04  0.15000000000E+04  0.10566000000E+00 0.  1.
        994   -1    0    0    0    0 -0.00000000000E+00 -0.00000000000E+00  0.11368683772E-12  0.17120000000E+03  0.17120000000E+03 0.  0.
         13    1    1    2    0    0 -0.23068772576E+02  0.36535510547E+02 -0.78331634682E+01  0.43913339808E+02  0.10566000000E+00 0.  1.
        994    1    1    2    0    0  0.27627793556E+02 -0.35098660682E+02  0.71374342669E+02  0.19078508262E+03  0.17120000000E+03 0.  0.
        998    1    1    2    0    0 -0.45590209801E+01 -0.14368498656E+01  0.14364588171E+04  0.14365015776E+04  0.10000000000E+02 0.  1.
</event>
<event>
 5    1  0.1640179E-008  0.3851320E+03  0.7957747E-01  0.3429113E+00
         13   -1    0    0    0    0  0.00000000000E+00  0.00000000000E+00  0.14999999963E+04  0.15000000000E+04  0.10566000000E+00 0. -1.
        994   -1    0    0    0    0 -0.00000000000E+00 -0.00000000000E+00  0.11368683772E-12  0.17120000000E+03  0.17120000000E+03 0.  0.
         13    1    1    2    0    0 -0.11897467618E+02 -0.44783197128E+01  0.54135209855E+02  0.55607887869E+02  0.10566000000E+00 0. -1.
        994    1    1    2    0    0  0.19005541448E+01 -0.31520331370E+01  0.16091686273E+01  0.17124712214E+03  0.17120000000E+03 0.  0.
        998    1    1    2    0    0  0.99969134736E+01  0.76303528498E+01  0.14442556178E+04  0.14443449900E+04  0.10000000000E+02 0. -1.
</event>
<event>
 5    1  0.1933018E-008  0.3855124E+03  0.7957747E-01  0.3427502E+00
         13   -1    0    0    0    0  0.00000000000E+00  0.00000000000E+00  0.14999999963E+04  0.15000000000E+04  0.10566000000E+00 0. -1.
        994   -1    0    0    0    0 -0.00000000000E+00 -0.00000000000E+00  0.11368683772E-12  0.17120000000E+03  0.17120000000E+03 0.  0.
         13    1    1    2    0    0 -0.10944174230E+02 -0.62867759626E+01  0.56000176445E+02  0.57404959955E+02  0.10566000000E+00 0. -1.
        994    1    1    2    0    0  0.13390230589E+02  0.56953049613E+01  0.20714084688E+01  0.17182975734E+03  0.17120000000E+03 0.  0.
        998    1    1    2    0    0 -0.24460563592E+01  0.59147100139E+00  0.14419284114E+04  0.14419652827E+04  0.10000000000E+02 0. -1.
</event>
<event>
 5    1  0.1640179E-008  0.3816479E+03  0.7957747E-01  0.3444014E+00
         13   -1    0    0    0    0  0.00000000000E+00  0.00000000000E+00  0.14999999963E+04  0.15000000000E+04  0.10566000000E+00 0.  1.
        994   -1    0    0    0    0 -0.00000000000E+00 -0.00000000000E+00  0.11368683772E-12  0.17120000000E+03  0.17120000000E+03 0.  0.
         13    1    1    2    0    0 -0.36741494893E+02 -0.11236260221E+02  0.20117838613E+03  0.20481441648E+03  0.10566000000E+00 0.  1.
        994    1    1    2    0    0  0.34099439525E+02  0.68584887191E+01  0.73364400768E+01  0.17485157705E+03  0.17120000000E+03 0.  0.
        998    1    1    2    0    0  0.26420553676E+01  0.43777715023E+01  0.12914851701E+04  0.12915340065E+04  0.10000000000E+02 0.  1.
</event>
<event>
 5    1  0.1640179E-008  0.3835649E+03  0.7957747E-01  0.3435781E+00
         13   -1    0    0    0    0  0.00000000000E+00  0.00000000000E+00  0.14999999963E+04  0.15000000000E+04  0.10566000000E+00 0.  1.
        994   -1    0    0    0    0 -0.00000000000E+00 -0.00000000000E+00  0.11368683772E-12  0.17120000000E+03  0.17120000000E+03 0.  0.
         13    1    1    2    0    0 -0.73234352546E+01  0.22565896864E+02  0.12932751706E+03  0.13148562749E+03  0.10566000000E+00 0.  1.
        994    1    1    2    0    0  0.47990768514E+01 -0.28625917405E+01  0.24474937201E+01  0.17130865651E+03  0.17120000000E+03 0.  0.
        998    1    1    2    0    0  0.25243584032E+01 -0.19703305123E+02  0.13682249855E+04  0.13684057160E+04  0.10000000000E+02 0.  1.
</event>
<event>
 5    1  0.1640179E-008  0.3835110E+03  0.7957747E-01  0.3436012E+00
         13   -1    0    0    0    0  0.00000000000E+00  0.00000000000E+00  0.14999999963E+04  0.15000000000E+04  0.10566000000E+00 0.  1.
        994   -1    0    0    0    0 -0.00000000000E+00 -0.00000000000E+00  0.11368683772E-12  0.17120000000E+03  0.17120000000E+03 0.  0.
         13    1    1    2    0    0  0.26026232859E+02  0.64344714769E+01  0.14385074502E+03  0.14632776642E+03  0.10566000000E+00 0.  1.
        994    1    1    2    0    0 -0.22235337518E+02 -0.26271715152E+01  0.40295917213E+01  0.17270492140E+03  0.17120000000E+03 0.  0.
        998    1    1    2    0    0 -0.37908953409E+01 -0.38072999617E+01  0.13521196595E+04  0.13521673122E+04  0.10000000000E+02 0.  0.
</event>
<event>
 5    1  0.1640179E-008  0.3831081E+03  0.7957747E-01  0.3437736E+00
         13   -1    0    0    0    0  0.00000000000E+00  0.00000000000E+00  0.14999999963E+04  0.15000000000E+04  0.10566000000E+00 0. -1.
        994   -1    0    0    0    0 -0.00000000000E+00 -0.00000000000E+00  0.11368683772E-12  0.17120000000E+03  0.17120000000E+03 0.  0.
         13    1    1    2    0    0  0.68172358411E+00  0.18507324513E+02  0.70091985251E+02  0.72497471460E+02  0.10566000000E+00 0. -1.
        994    1    1    2    0    0 -0.30008557858E+01 -0.48602335891E+00  0.26029301554E+01  0.17124677106E+03  0.17120000000E+03 0.  0.
        998    1    1    2    0    0  0.23191322017E+01 -0.18021301154E+02  0.14273050809E+04  0.14274557575E+04  0.10000000000E+02 0. -1.
</event>
<event>
 5    1  0.1640179E-008  0.3785777E+03  0.7957747E-01  0.3457375E+00
         13   -1    0    0    0    0  0.00000000000E+00  0.00000000000E+00  0.14999999963E+04  0.15000000000E+04  0.10566000000E+00 0.  1.
        994   -1    0    0    0    0 -0.00000000000E+00 -0.00000000000E+00  0.11368683772E-12  0.17120000000E+03  0.17120000000E+03 0.  0.
         13    1    1    2    0    0 -0.40534258860E+02 -0.53778464701E+02  0.37522820008E+03  0.38122350755E+03  0.10566000000E+00 0.  1.
        994    1    1    2    0    0  0.36619795749E+02  0.48362886622E+02  0.17313858347E+02  0.18245324863E+03  0.17120000000E+03 0.  0.
        998    1    1    2    0    0  0.39144631105E+01  0.54155780791E+01  0.11074579378E+04  0.11075232438E+04  0.10000000000E+02 0.  1.
</event>
<event>
 5    1  0.1640179E-008  0.3796044E+03  0.7957747E-01  0.3452883E+00
         13   -1    0    0    0    0  0.00000000000E+00  0.00000000000E+00  0.14999999963E+04  0.15000000000E+04  0.10566000000E+00 0. -1.
        994   -1    0    0    0    0 -0.00000000000E+00 -0.00000000000E+00  0.11368683772E-12  0.17120000000E+03  0.17120000000E+03 0.  0.
         13    1    1    2    0    0 -0.14316621605E+00  0.21246964686E+02  0.65376778878E+01  0.22230753499E+02  0.10566000000E+00 0. -1.
        994    1    1    2    0    0 -0.25132144313E+02 -0.32799845593E+02  0.22313569007E+02  0.17752405446E+03  0.17120000000E+03 0.  0.
        998    1    1    2    0    0  0.25275310529E+02  0.11552880907E+02  0.14711487494E+04  0.14714451920E+04  0.10000000000E+02 0. -1.
</event>
<event>
 5    1  0.1640179E-008  0.3844605E+03  0.7957747E-01  0.3431964E+00
         13   -1    0    0    0    0  0.00000000000E+00  0.00000000000E+00  0.14999999963E+04  0.15000000000E+04  0.10566000000E+00 0. -1.
        994   -1    0    0    0    0 -0.00000000000E+00 -0.00000000000E+00  0.11368683772E-12  0.17120000000E+03  0.17120000000E+03 0.  0.
         13    1    1    2    0    0 -0.24117225166E+02 -0.82514888133E+01  0.15065293666E+03  0.15279412981E+03  0.10566000000E+00 0. -1.
        994    1    1    2    0    0  0.25508316194E+02  0.17418016110E+02  0.50476494845E+01  0.17403729556E+03  0.17120000000E+03 0.  0.
        998    1    1    2    0    0 -0.13910910284E+01 -0.91665272965E+01  0.13442994101E+04  0.13443685746E+04  0.10000000000E+02 0. -1.
</event>
<event>
 5    1  0.1640179E-008  0.3849823E+03  0.7957747E-01  0.3429747E+00
         13   -1    0    0    0    0  0.00000000000E+00  0.00000000000E+00  0.14999999963E+04  0.15000000000E+04  0.10566000000E+00 0.  1.
        994   -1    0    0    0    0 -0.00000000000E+00 -0.00000000000E+00  0.11368683772E-12  0.17120000000E+03  0.17120000000E+03 0.  0.
         13    1    1    2    0    0  0.13791480816E+02  0.18403406443E+01  0.58624749335E+02  0.60253333479E+02  0.10566000000E+00 0.  1.
        994    1    1    2    0    0 -0.11047209060E+02  0.38639350091E+01  0.20895257609E+01  0.17161228668E+03  0.17120000000E+03 0.  0.
        998    1    1    2    0    0 -0.27442717562E+01 -0.57042756534E+01  0.14392857212E+04  0.14393343798E+04  0.10000000000E+02 0.  1.
</event>
<event>
 5    1  0.1640179E-008  0.3851183E+03  0.7957747E-01  0.3429171E+00
         13   -1    0    0    0    0  0.00000000000E+00  0.00000000000E+00  0.14999999963E+04  0.15000000000E+04  0.10566000000E+00 0. -1.
        994   -1    0    0    0    0 -0.00000000000E+00 -0.00000000000E+00  0.11368683772E-12  0.17120000000E+03  0.17120000000E+03 0.  0.
         13    1    1    2    0    0 -0.10771801669E+02  0.91349708586E+01  0.66993104663E+02  0.68465806358E+02  0.10566000000E+00 0. -1.
        994    1    1    2    0    0  0.10792215788E+01 -0.78361198469E+00  0.15772628754E+01  0.17121246019E+03  0.17120000000E+03 0.  0.
        998    1    1    2    0    0  0.96925800906E+01 -0.83513588739E+01  0.14314296287E+04  0.14315217334E+04  0.10000000000E+02 0. -1.
</event>
<event>
 5    1  0.1640179E-008  0.3856226E+03  0.7957747E-01  0.3427036E+00
         13   -1    0    0    0    0  0.00000000000E+00  0.00000000000E+00  0.14999999963E+04  0.15000000000E+04  0.10566000000E+00 0.  1.
        994   -1    0    0    0    0 -0.00000000000E+00 -0.00000000000E+00  0.11368683772E-12  0.17120000000E+03  0.17120000000E+03 0.  0.
         13    1    1    2    0    0 -0.25237598357E+03  0.22239224864E+02  0.11024091011E+04  0.11311472307E+04  0.10566000000E+00 0.  1.
        994    1    1    2    0    0  0.26304550389E+03 -0.17956341477E+02  0.27848044265E+03  0.41997162315E+03  0.17120000000E+03 0.  0.
        998    1    1    2    0    0 -0.10669520320E+02 -0.42828833873E+01  0.11911045251E+03  0.12008114611E+03  0.10000000000E+02 0.  1.
</event>
<event>
 5    1  0.1640179E-008  0.3797711E+03  0.7957747E-01  0.3452156E+00
         13   -1    0    0    0    0  0.00000000000E+00  0.00000000000E+00  0.14999999963E+04  0.15000000000E+04  0.10566000000E+00 0.  1.
        994   -1    0    0    0    0 -0.00000000000E+00 -0.00000000000E+00  0.11368683772E-12  0.17120000000E+03  0.17120000000E+03 0.  0.
         13    1    1    2    0    0 -0.66176641586E+01  0.23461506231E+02  0.65096281953E+02  0.69510954832E+02  0.10566000000E+00 0.  1.
        994    1    1    2    0    0  0.18759430590E+02 -0.23179307887E+02  0.72291991801E+01  0.17392785249E+03  0.17120000000E+03 0.  0.
        998    1    1    2    0    0 -0.12141766431E+02 -0.28219834389E+00  0.14276745151E+04  0.14277611927E+04  0.10000000000E+02 0.  1.
</event>
<event>
 5    1  0.1640179E-008  0.3699923E+03  0.7957747E-01  0.3495926E+00
         13   -1    0    0    0    0  0.00000000000E+00  0.00000000000E+00  0.14999999963E+04  0.15000000000E+04  0.10566000000E+00 0.  1.
        994   -1    0    0    0    0 -0.00000000000E+00 -0.00000000000E+00  0.11368683772E-12  0.17120000000E+03  0.17120000000E+03 0.  0.
         13    1    1    2    0    0  0.75900320014E+02  0.31614449435E+02  0.32682373186E+03  0.33700755906E+03  0.10566000000E+00 0.  1.
        994    1    1    2    0    0 -0.48168026659E+02 -0.48063962088E+02  0.25458355436E+02  0.18597814685E+03  0.17120000000E+03 0.  0.
        998    1    1    2    0    0 -0.27732293355E+02  0.16449512652E+02  0.11477179090E+04  0.11482142941E+04  0.10000000000E+02 0.  1.
</event>
<event>
 5    1  0.1640179E-008  0.3720546E+03  0.7957747E-01  0.3486501E+00
         13   -1    0    0    0    0  0.00000000000E+00  0.00000000000E+00  0.14999999963E+04  0.15000000000E+04  0.10566000000E+00 0.  1.
        994   -1    0    0    0    0 -0.00000000000E+00 -0.00000000000E+00  0.11368683772E-12  0.17120000000E+03  0.17120000000E+03 0.  0.
         13    1    1    2    0    0  0.73899281723E+02  0.81374130413E+02  0.36882924381E+03  0.38486085173E+03  0.10566000000E+00 0.  1.
        994    1    1    2    0    0 -0.69521421454E+02 -0.85037895045E+02  0.55819648016E+02  0.21092639650E+03  0.17120000000E+03 0.  0.
        998    1    1    2    0    0 -0.43778602688E+01  0.36637646318E+01  0.10753511045E+04  0.10754127518E+04  0.10000000000E+02 0.  1.
</event>
<event>
 5    1  0.1640179E-008  0.3828966E+03  0.7957747E-01  0.3438642E+00
         13   -1    0    0    0    0  0.00000000000E+00  0.00000000000E+00  0.14999999963E+04  0.15000000000E+04  0.10566000000E+00 0. -1.
        994   -1    0    0    0    0 -0.00000000000E+00 -0.00000000000E+00  0.11368683772E-12  0.17120000000E+03  0.17120000000E+03 0.  0.
         13    1    1    2    0    0 -0.10870602720E+02 -0.13578259629E+02  0.55137095414E+02  0.57815651798E+02  0.10566000000E+00 0. -1.
        994    1    1    2    0    0  0.95171858560E+01  0.96287014889E+01  0.32851723429E+01  0.17176589032E+03  0.17120000000E+03 0.  0.
        998    1    1    2    0    0  0.13534168640E+01  0.39495581406E+01  0.14415777285E+04  0.14416184579E+04  0.10000000000E+02 0. -1.
</event>
<event>
 5    1  0.1640179E-008  0.3801472E+03  0.7957747E-01  0.3450518E+00
         13   -1    0    0    0    0  0.00000000000E+00  0.00000000000E+00  0.14999999963E+04  0.15000000000E+04  0.10566000000E+00 0.  1.
        994   -1    0    0    0    0 -0.00000000000E+00 -0.00000000000E+00  0.11368683772E-12  0.17120000000E+03  0.17120000000E+03 0.  0.
         13    1    1    2    0    0  0.20936028792E+02  0.45638628412E+01  0.56877493093E+02  0.60779984618E+02  0.10566000000E+00 0.  1.
        994    1    1    2    0    0 -0.55553252399E+01 -0.16916569848E+01  0.41715467768E+01  0.17134924903E+03  0.17120000000E+03 0.  0.
        998    1    1    2    0    0 -0.15380703552E+02 -0.28722058564E+01  0.14389509564E+04  0.14390707663E+04  0.10000000000E+02 0.  1.
</event>
<event>
 5    1  0.1640179E-008  0.3836433E+03  0.7957747E-01  0.3435447E+00
         13   -1    0    0    0    0  0.00000000000E+00  0.00000000000E+00  0.14999999963E+04  0.15000000000E+04  0.10566000000E+00 0.  1.
        994   -1    0    0    0    0 -0.00000000000E+00 -0.00000000000E+00  0.11368683772E-12  0.17120000000E+03  0.17120000000E+03 0.  0.
         13    1    1    2    0    0  0.20057502455E+02  0.72095674241E+01  0.11081420368E+03  0.11284538169E+03  0.10566000000E+00 0.  1.
        994    1    1    2    0    0  0.24107715321E+01  0.44781492625E+01  0.23906741818E+01  0.17129220929E+03  0.17120000000E+03 0.  0.
        998    1    1    2    0    0 -0.22468273987E+02 -0.11687716687E+02  0.13867951184E+04  0.13870624090E+04  0.10000000000E+02 0.  1.
</event>
<event>
 5    1  0.1640179E-008  0.3743567E+03  0.7957747E-01  0.3476105E+00
         13   -1    0    0    0    0  0.00000000000E+00  0.00000000000E+00  0.14999999963E+04  0.15000000000E+04  0.10566000000E+00 0.  1.
        994   -1    0    0    0    0 -0.00000000000E+00 -0.00000000000E+00  0.11368683772E-12  0.17120000000E+03  0.17120000000E+03 0.  0.
         13    1    1    2    0    0  0.11538279411E+03 -0.34554269794E+02  0.37499960929E+03  0.39386787743E+03  0.10566000000E+00 0.  1.
        994    1    1    2    0    0 -0.11104056585E+03  0.80588549170E+02  0.83483288526E+02  0.23474117871E+03  0.17120000000E+03 0.  0.
        998    1    1    2    0    0 -0.43422282693E+01 -0.46034279376E+02  0.10415170985E+04  0.10425909439E+04  0.10000000000E+02 0.  1.
</event>
<event>
 5    1  0.1640179E-008  0.3798122E+03  0.7957747E-01  0.3451976E+00
         13   -1    0    0    0    0  0.00000000000E+00  0.00000000000E+00  0.14999999963E+04  0.15000000000E+04  0.10566000000E+00 0.  1.
        994   -1    0    0    0    0 -0.00000000000E+00 -0.00000000000E+00  0.11368683772E-12  0.17120000000E+03  0.17120000000E+03 0.  0.
         13    1    1    2    0    0 -0.25272982163E+02  0.20513612986E+01  0.83055233611E+02  0.86839591804E+02  0.10566000000E+00 0.  1.
        994    1    1    2    0    0 -0.75085880029E+01 -0.46518545900E+01  0.44889684621E+01  0.17148647026E+03  0.17120000000E+03 0.  0.
        998    1    1    2    0    0  0.32781570166E+02  0.26004932914E+01  0.14124557942E+04  0.14128739379E+04  0.10000000000E+02 0.  1.
</event>
<event>
 5    1  0.2514976E-008  0.3848524E+03  0.7957747E-01  0.3430298E+00
         13   -1    0    0    0    0  0.00000000000E+00  0.00000000000E+00  0.14999999963E+04  0.15000000000E+04  0.10566000000E+00 0. -1.
        994   -1    0    0    0    0 -0.00000000000E+00 -0.00000000000E+00  0.11368683772E-12  0.17120000000E+03  0.17120000000E+03 0.  0.
         13    1    1    2    0    0  0.76307811917E+01 -0.79035333986E+01  0.34310509267E+02  0.36026613385E+02  0.10566000000E+00 0. -1.
        994    1    1    2    0    0 -0.93507118449E+01  0.89889165410E+01  0.22571574582E+01  0.17170547805E+03  0.17120000000E+03 0.  0.
        998    1    1    2    0    0  0.17199306532E+01 -0.10853831423E+01  0.14634323296E+04  0.14634679086E+04  0.10000000000E+02 0. -1.
</event>
<event>
 5    1  0.1640179E-008  0.3782890E+03  0.7957747E-01  0.3458643E+00
         13   -1    0    0    0    0  0.00000000000E+00  0.00000000000E+00  0.14999999963E+04  0.15000000000E+04  0.10566000000E+00 0. -1.
        994   -1    0    0    0    0 -0.00000000000E+00 -0.00000000000E+00  0.11368683772E-12  0.17120000000E+03  0.17120000000E+03 0.  0.
         13    1    1    2    0    0 -0.31928626678E+02  0.27057557676E+01  0.96788706024E+02  0.10195500524E+03  0.10566000000E+00 0. -1.
        994    1    1    2    0    0  0.28111683363E+02 -0.58689492582E+01  0.77769591176E+01  0.17376602775E+03  0.17120000000E+03 0.  0.
        998    1    1    2    0    0  0.38169433153E+01  0.31631934906E+01  0.13954343311E+04  0.13954789670E+04  0.10000000000E+02 0. -1.
</event>
<event>
 5    1  0.1640179E-008  0.3809296E+03  0.7957747E-01  0.3447121E+00
         13   -1    0    0    0    0  0.00000000000E+00  0.00000000000E+00  0.14999999963E+04  0.15000000000E+04  0.10566000000E+00 0. -1.
        994   -1    0    0    0    0 -0.00000000000E+00 -0.00000000000E+00  0.11368683772E-12  0.17120000000E+03  0.17120000000E+03 0.  0.
         13    1    1    2    0    0  0.23177472660E+02 -0.17349894687E+02  0.11228194440E+03  0.11595456130E+03  0.10566000000E+00 0. -1.
        994    1    1    2    0    0 -0.27326990054E+02 -0.44900546637E+01  0.62247168037E+01  0.17353706254E+03  0.17120000000E+03 0.  0.
        998    1    1    2    0    0  0.41495173940E+01  0.21839949351E+02  0.13814933351E+04  0.13817083762E+04  0.10000000000E+02 0. -1.
</event>
<event>
 5    1  0.1640179E-008  0.3806204E+03  0.7957747E-01  0.3448461E+00
         13   -1    0    0    0    0  0.00000000000E+00  0.00000000000E+00  0.14999999963E+04  0.15000000000E+04  0.10566000000E+00 0.  1.
        994   -1    0    0    0    0 -0.00000000000E+00 -0.00000000000E+00  0.11368683772E-12  0.17120000000E+03  0.17120000000E+03 0.  0.
         13    1    1    2    0    0  0.14690307930E+02 -0.67977305796E+01  0.34103742571E+02  0.37750373634E+02  0.10566000000E+00 0.  1.
        994    1    1    2    0    0  0.76840380517E+01  0.15078568157E+02  0.47763355605E+01  0.17210072934E+03  0.17120000000E+03 0.  0.
        998    1    1    2    0    0 -0.22374345982E+02 -0.82808375777E+01  0.14611199181E+04  0.14613488970E+04  0.10000000000E+02 0.  1.
</event>
<event>
 5    1  0.1640179E-008  0.3810845E+03  0.7957747E-01  0.3446450E+00
         13   -1    0    0    0    0  0.00000000000E+00  0.00000000000E+00  0.14999999963E+04  0.15000000000E+04  0.10566000000E+00 0. -1.
        994   -1    0    0    0    0 -0.00000000000E+00 -0.00000000000E+00  0.11368683772E-12  0.17120000000E+03  0.17120000000E+03 0.  0.
         13    1    1    2    0    0  0.49551719882E+01  0.99665854193E+01  0.15711767864E+02  0.19255060836E+02  0.10566000000E+00 0. -1.
        994    1    1    2    0    0 -0.36431877983E+01 -0.85032704530E+01  0.38718355921E+01  0.17149346791E+03  0.17120000000E+03 0.  0.
        998    1    1    2    0    0 -0.13119841899E+01 -0.14633149663E+01  0.14804163928E+04  0.14804514713E+04  0.10000000000E+02 0. -1.
</event>
<event>
 5    1  0.1640179E-008  0.3839487E+03  0.7957747E-01  0.3434143E+00
         13   -1    0    0    0    0  0.00000000000E+00  0.00000000000E+00  0.14999999963E+04  0.15000000000E+04  0.10566000000E+00 0.  1.
        994   -1    0    0    0    0 -0.00000000000E+00 -0.00000000000E+00  0.11368683772E-12  0.17120000000E+03  0.17120000000E+03 0.  0.
         13    1    1    2    0    0  0.12110906841E+02 -0.12456950930E+02  0.72764014164E+02  0.74809508836E+02  0.10566000000E+00 0.  1.
        994    1    1    2    0    0 -0.17288807610E+01  0.37227941860E+01  0.22086006853E+01  0.17126344076E+03  0.17120000000E+03 0.  0.
        998    1    1    2    0    0 -0.10382026080E+02  0.87341567440E+01  0.14250273814E+04  0.14251270504E+04  0.10000000000E+02 0.  1.
</event>
<event>
 5    1  0.1640179E-008  0.3847678E+03  0.7957747E-01  0.3430658E+00
         13   -1    0    0    0    0  0.00000000000E+00  0.00000000000E+00  0.14999999963E+04  0.15000000000E+04  0.10566000000E+00 0.  1.
        994   -1    0    0    0    0 -0.00000000000E+00 -0.00000000000E+00  0.11368683772E-12  0.17120000000E+03  0.17120000000E+03 0.  0.
         13    1    1    2    0    0  0.13277345767E+02  0.90844741201E+01  0.73789692245E+02  0.75523144971E+02  0.10566000000E+00 0.  1.
        994    1    1    2    0    0 -0.94435710182E+01 -0.57201430601E+01  0.21467751909E+01  0.17156908146E+03  0.17120000000E+03 0.  0.
        998    1    1    2    0    0 -0.38337747489E+01 -0.33643310601E+01  0.14240635288E+04  0.14241077736E+04  0.10000000000E+02 0.  1.
</event>
<event>
 5    1  0.1640179E-008  0.3825644E+03  0.7957747E-01  0.3440068E+00
         13   -1    0    0    0    0  0.00000000000E+00  0.00000000000E+00  0.14999999963E+04  0.15000000000E+04  0.10566000000E+00 0. -1.
        994   -1    0    0    0    0 -0.00000000000E+00 -0.00000000000E+00  0.11368683772E-12  0.17120000000E+03  0.17120000000E+03 0.  0.
         13    1    1    2    0    0  0.37827446932E+02 -0.11874049787E+02  0.23980883063E+03  0.24306417920E+03  0.10566000000E+00 0. -1.
        994    1    1    2    0    0 -0.39325875507E+02  0.52782441807E+00  0.79885809655E+01  0.17584100918E+03  0.17120000000E+03 0.  0.
        998    1    1    2    0    0  0.14984285750E+01  0.11346225369E+02  0.12522025847E+04  0.12522948116E+04  0.10000000000E+02 0. -1.
</event>
<event>
 5    1  0.1640179E-008  0.3845674E+03  0.7957747E-01  0.3431509E+00
         13   -1    0    0    0    0  0.00000000000E+00  0.00000000000E+00  0.14999999963E+04  0.15000000000E+04  0.10566000000E+00 0.  1.
        994   -1    0    0    0    0 -0.00000000000E+00 -0.00000000000E+00  0.11368683772E-12  0.17120000000E+03  0.17120000000E+03 0.  0.
         13    1    1    2    0    0 -0.11528303756E+02 -0.17197409893E+02  0.11351127368E+03  0.11538402450E+03  0.10566000000E+00 0.  1.
        994    1    1    2    0    0  0.37324955392E+01  0.16438614962E+02  0.27814374419E+01  0.17205038791E+03  0.17120000000E+03 0.  0.
        998    1    1    2    0    0  0.77958082164E+01  0.75879493106E+00  0.13837072852E+04  0.13837655876E+04  0.10000000000E+02 0.  1.
</event>
<event>
 5    1  0.1640179E-008  0.3851351E+03  0.7957747E-01  0.3429099E+00
         13   -1    0    0    0    0  0.00000000000E+00  0.00000000000E+00  0.14999999963E+04  0.15000000000E+04  0.10566000000E+00 0. -1.
        994   -1    0    0    0    0 -0.00000000000E+00 -0.00000000000E+00  0.11368683772E-12  0.17120000000E+03  0.17120000000E+03 0.  0.
         13    1    1    2    0    0 -0.90891590530E+00 -0.10940985029E+02  0.37137224098E+02  0.38726165048E+02  0.10566000000E+00 0. -1.
        994    1    1    2    0    0  0.54683567034E+01  0.14197245319E+02  0.23243098533E+01  0.17189039274E+03  0.17120000000E+03 0.  0.
        998    1    1    2    0    0 -0.45594407981E+01 -0.32562602902E+01  0.14605384623E+04  0.14605834422E+04  0.10000000000E+02 0. -1.
</event>
<event>
 5    1  0.1786135E-008  0.3854382E+03  0.7957747E-01  0.3427816E+00
         13   -1    0    0    0    0  0.00000000000E+00  0.00000000000E+00  0.14999999963E+04  0.15000000000E+04  0.10566000000E+00 0. -1.
        994   -1    0    0    0    0 -0.00000000000E+00 -0.00000000000E+00  0.11368683772E-12  0.17120000000E+03  0.17120000000E+03 0.  0.
         13    1    1    2    0    0 -0.94731959811E+01 -0.68625849483E+01  0.46959292251E+02  0.48394450168E+02  0.10566000000E+00 0. -1.
        994    1    1    2    0    0  0.10540680510E+02  0.90011852012E+01  0.20439453830E+01  0.17177236388E+03  0.17120000000E+03 0.  0.
        998    1    1    2    0    0 -0.10674845292E+01 -0.21386002528E+01  0.14509967586E+04  0.14510331860E+04  0.10000000000E+02 0. -1.
</event>
<event>
 5    1  0.1640179E-008  0.3823035E+03  0.7957747E-01  0.3441189E+00
         13   -1    0    0    0    0  0.00000000000E+00  0.00000000000E+00  0.14999999963E+04  0.15000000000E+04  0.10566000000E+00 0. -1.
        994   -1    0    0    0    0 -0.00000000000E+00 -0.00000000000E+00  0.11368683772E-12  0.17120000000E+03  0.17120000000E+03 0.  0.
         13    1    1    2    0    0  0.75051067883E+01 -0.16319635041E+02  0.56137381404E+02  0.58941274763E+02  0.10566000000E+00 0. -1.
        994    1    1    2    0    0 -0.29161792228E+01 -0.11966157674E+01  0.30077938415E+01  0.17125543149E+03  0.17120000000E+03 0.  0.
        998    1    1    2    0    0 -0.45889275655E+01  0.17516250809E+02  0.14408548210E+04  0.14410032937E+04  0.10000000000E+02 0. -1.
</event>
<event>
 5    1  0.1640179E-008  0.3795665E+03  0.7957747E-01  0.3453048E+00
         13   -1    0    0    0    0  0.00000000000E+00  0.00000000000E+00  0.14999999963E+04  0.15000000000E+04  0.10566000000E+00 0.  1.
        994   -1    0    0    0    0 -0.00000000000E+00 -0.00000000000E+00  0.11368683772E-12  0.17120000000E+03  0.17120000000E+03 0.  0.
         13    1    1    2    0    0 -0.10036150024E+02  0.66025950966E+02  0.37723180825E+03  0.38309789719E+03  0.10566000000E+00 0.  1.
        994    1    1    2    0    0  0.11766261108E+02 -0.67285412622E+02  0.20133486630E+02  0.18541997987E+03  0.17120000000E+03 0.  0.
        998    1    1    2    0    0 -0.17301110843E+01  0.12594616558E+01  0.11026347014E+04  0.11026821229E+04  0.10000000000E+02 0.  1.
</event>
<event>
 5    1  0.1640179E-008  0.3822809E+03  0.7957747E-01  0.3441287E+00
         13   -1    0    0    0    0  0.00000000000E+00  0.00000000000E+00  0.14999999963E+04  0.15000000000E+04  0.10566000000E+00 0.  1.
        994   -1    0    0    0    0 -0.00000000000E+00 -0.00000000000E+00  0.11368683772E-12  0.17120000000E+03  0.17120000000E+03 0.  0.
         13    1    1    2    0    0 -0.13274326259E+02  0.47521062063E+01  0.33243265679E+02  0.36109778842E+02  0.10566000000E+00 0.  1.
        994    1    1    2    0    0  0.46714433350E+00 -0.12928617456E+01  0.29924495650E+01  0.17123166900E+03  0.17120000000E+03 0.  0.
        998    1    1    2    0    0  0.12807181925E+02 -0.34592444607E+01  0.14637642810E+04  0.14638585522E+04  0.10000000000E+02 0.  1.
</event>
<event>
 5    1  0.1640179E-008  0.3717337E+03  0.7957747E-01  0.3487961E+00
         13   -1    0    0    0    0  0.00000000000E+00  0.00000000000E+00  0.14999999963E+04  0.15000000000E+04  0.10566000000E+00 0. -1.
        994   -1    0    0    0    0 -0.00000000000E+00 -0.00000000000E+00  0.11368683772E-12  0.17120000000E+03  0.17120000000E+03 0.  0.
         13    1    1    2    0    0 -0.68596860677E+02 -0.13088067227E+02  0.19485479625E+03  0.20699089251E+03  0.10566000000E+00 0. -1.
        994    1    1    2    0    0  0.52333385407E+02 -0.92844542836E+01  0.21862049163E+02  0.18058896288E+03  0.17120000000E+03 0.  0.
        998    1    1    2    0    0  0.16263475270E+02  0.22372521511E+02  0.12832831509E+04  0.12836201446E+04  0.10000000000E+02 0. -1.
</event>
<event>
 5    1  0.1640179E-008  0.3802208E+03  0.7957747E-01  0.3450198E+00
         13   -1    0    0    0    0  0.00000000000E+00  0.00000000000E+00  0.14999999963E+04  0.15000000000E+04  0.10566000000E+00 0. -1.
        994   -1    0    0    0    0 -0.00000000000E+00 -0.00000000000E+00  0.11368683772E-12  0.17120000000E+03  0.17120000000E+03 0.  0.
         13    1    1    2    0    0 -0.49986381388E+02  0.68418919480E+02  0.26215134204E+03  0.27550521622E+03  0.10566000000E+00 0. -1.
        994    1    1    2    0    0  0.30941879767E+02  0.97900469314E+01  0.20277513088E+02  0.17542480577E+03  0.17120000000E+03 0.  0.
        998    1    1    2    0    0  0.19044501621E+02 -0.78208966411E+02  0.12175711411E+04  0.12202699780E+04  0.10000000000E+02 0. -1.
</event>
<event>
 5    1  0.1640179E-008  0.3722626E+03  0.7957747E-01  0.3485556E+00
         13   -1    0    0    0    0  0.00000000000E+00  0.00000000000E+00  0.14999999963E+04  0.15000000000E+04  0.10566000000E+00 0.  1.
        994   -1    0    0    0    0 -0.00000000000E+00 -0.00000000000E+00  0.11368683772E-12  0.17120000000E+03  0.17120000000E+03 0.  0.
         13    1    1    2    0    0  0.23350016674E+02 -0.57063782513E+02  0.20590176165E+03  0.21493497893E+03  0.10566000000E+00 0.  1.
        994    1    1    2    0    0 -0.23478399010E+02  0.52723833974E+02  0.19607467520E+02  0.18172762771E+03  0.17120000000E+03 0.  0.
        998    1    1    2    0    0  0.12838233562E+00  0.43399485397E+01  0.12744907671E+04  0.12745373934E+04  0.10000000000E+02 0.  1.
</event>
<event>
 5    1  0.1640179E-008  0.3841687E+03  0.7957747E-01  0.3433206E+00
         13   -1    0    0    0    0  0.00000000000E+00  0.00000000000E+00  0.14999999963E+04  0.15000000000E+04  0.10566000000E+00 0. -1.
        994   -1    0    0    0    0 -0.00000000000E+00 -0.00000000000E+00  0.11368683772E-12  0.17120000000E+03  0.17120000000E+03 0.  0.
         13    1    1    2    0    0 -0.19928371567E+02 -0.10203085424E+02  0.12622764302E+03  0.12819778458E+03  0.10566000000E+00 0. -1.
        994    1    1    2    0    0  0.79740056763E+01  0.60329025579E+01  0.23732078679E+01  0.17150817122E+03  0.17120000000E+03 0.  0.
        998    1    1    2    0    0  0.11954365891E+02  0.41701828660E+01  0.13713991454E+04  0.13714940442E+04  0.10000000000E+02 0. -1.
</event>
<event>
 5    1  0.1640179E-008  0.3840934E+03  0.7957747E-01  0.3433526E+00
         13   -1    0    0    0    0  0.00000000000E+00  0.00000000000E+00  0.14999999963E+04  0.15000000000E+04  0.10566000000E+00 0. -1.
        994   -1    0    0    0    0 -0.00000000000E+00 -0.00000000000E+00  0.11368683772E-12  0.17120000000E+03  0.17120000000E+03 0.  0.
         13    1    1    2    0    0  0.15503372746E+02  0.12691402451E+02  0.10855805197E+03  0.11039152175E+03  0.10566000000E+00 0. -1.
        994    1    1    2    0    0  0.69294434128E+01 -0.26490110901E+01  0.22624498447E+01  0.17137559081E+03  0.17120000000E+03 0.  0.
        998    1    1    2    0    0 -0.22432816158E+02 -0.10042391360E+02  0.13891794945E+04  0.13894328874E+04  0.10000000000E+02 0. -1.
</event>
<event>
 5    1  0.1640179E-008  0.3824451E+03  0.7957747E-01  0.3440581E+00
         13   -1    0    0    0    0  0.00000000000E+00  0.00000000000E+00  0.14999999963E+04  0.15000000000E+04  0.10566000000E+00 0. -1.
        994   -1    0    0    0    0 -0.00000000000E+00 -0.00000000000E+00  0.11368683772E-12  0.17120000000E+03  0.17120000000E+03 0.  0.
         13    1    1    2    0    0  0.38084133529E+02 -0.85048718488E+01  0.21202271388E+03  0.21558380375E+03  0.10566000000E+00 0. -1.
        994    1    1    2    0    0 -0.45657748655E+02  0.97552824387E+01  0.10166313760E+02  0.17774304342E+03  0.17120000000E+03 0.  0.
        998    1    1    2    0    0  0.75736151253E+01 -0.12504105899E+01  0.12778109686E+04  0.12778731528E+04  0.10000000000E+02 0. -1.
</event>
<event>
 5    1  0.1640179E-008  0.3751276E+03  0.7957747E-01  0.3472652E+00
         13   -1    0    0    0    0  0.00000000000E+00  0.00000000000E+00  0.14999999963E+04  0.15000000000E+04  0.10566000000E+00 0. -1.
        994   -1    0    0    0    0 -0.00000000000E+00 -0.00000000000E+00  0.11368683772E-12  0.17120000000E+03  0.17120000000E+03 0.  0.
         13    1    1    2    0    0  0.80694939916E+01  0.11867951806E+02  0.12455711155E+02  0.19003181780E+02  0.10566000000E+00 0. -1.
        994    1    1    2    0    0 -0.11567191917E+02 -0.12373993569E+02  0.75886754243E+01  0.17220320450E+03  0.17120000000E+03 0.  0.
        998    1    1    2    0    0  0.34976979254E+01  0.50604176341E+00  0.14799556097E+04  0.14799936137E+04  0.10000000000E+02 0. -1.
</event>
<event>
 5    1  0.1640179E-008  0.3811810E+03  0.7957747E-01  0.3446032E+00
         13   -1    0    0    0    0  0.00000000000E+00  0.00000000000E+00  0.14999999963E+04  0.15000000000E+04  0.10566000000E+00 0.  1.
        994   -1    0    0    0    0 -0.00000000000E+00 -0.00000000000E+00  0.11368683772E-12  0.17120000000E+03  0.17120000000E+03 0.  0.
         13    1    1    2    0    0 -0.42965657885E+02  0.30525019692E+02  0.26936664471E+03  0.27447445242E+03  0.10566000000E+00 0.  1.
        994    1    1    2    0    0  0.71000925592E+02 -0.26299012770E+02  0.22869347361E+02  0.18858742417E+03  0.17120000000E+03 0.  0.
        998    1    1    2    0    0 -0.28035267707E+02 -0.42260069216E+01  0.12077640042E+04  0.12081381234E+04  0.10000000000E+02 0.  1.
</event>
<event>
 5    1  0.2663198E-008  0.3849472E+03  0.7957747E-01  0.3429896E+00
         13   -1    0    0    0    0  0.00000000000E+00  0.00000000000E+00  0.14999999963E+04  0.15000000000E+04  0.10566000000E+00 0.  1.
        994   -1    0    0    0    0 -0.00000000000E+00 -0.00000000000E+00  0.11368683772E-12  0.17120000000E+03  0.17120000000E+03 0.  0.
         13    1    1    2    0    0 -0.41755099017E+01 -0.10386162635E+02  0.36766538462E+02  0.38433016688E+02  0.10566000000E+00 0.  1.
        994    1    1    2    0    0  0.49531197453E+01  0.11518902533E+02  0.21736555471E+01  0.17167231369E+03  0.17120000000E+03 0.  0.
        998    1    1    2    0    0 -0.77760984359E+00 -0.11327398983E+01  0.14610598023E+04  0.14610946696E+04  0.10000000000E+02 0.  1.
</event>
<event>
 5    1  0.1640179E-008  0.3845474E+03  0.7957747E-01  0.3431594E+00
         13   -1    0    0    0    0  0.00000000000E+00  0.00000000000E+00  0.14999999963E+04  0.15000000000E+04  0.10566000000E+00 0. -1.
        994   -1    0    0    0    0 -0.00000000000E+00 -0.00000000000E+00  0.11368683772E-12  0.17120000000E+03  0.17120000000E+03 0.  0.
         13    1    1    2    0    0  0.14084310150E+01  0.12032042787E+02  0.38694036161E+02  0.40546187613E+02  0.10566000000E+00 0. -1.
        994    1    1    2    0    0 -0.28970831180E+01 -0.10866964891E+02  0.22716863756E+01  0.17158404522E+03  0.17120000000E+03 0.  0.
        998    1    1    2    0    0  0.14886521030E+01 -0.11650778959E+01  0.14590342737E+04  0.14590697672E+04  0.10000000000E+02 0. -1.
</event>
<event>
 5    1  0.1640179E-008  0.3841670E+03  0.7957747E-01  0.3433213E+00
         13   -1    0    0    0    0  0.00000000000E+00  0.00000000000E+00  0.14999999963E+04  0.15000000000E+04  0.10566000000E+00 0. -1.
        994   -1    0    0    0    0 -0.00000000000E+00 -0.00000000000E+00  0.11368683772E-12  0.17120000000E+03  0.17120000000E+03 0.  0.
         13    1    1    2    0    0  0.84236874934E+01 -0.89165776391E+01  0.36171039639E+02  0.38194490969E+02  0.10566000000E+00 0. -1.
        994    1    1    2    0    0 -0.17661403497E+01  0.11047519761E+02  0.24571424449E+01  0.17158276281E+03  0.17120000000E+03 0.  0.
        998    1    1    2    0    0 -0.66575471438E+01 -0.21309421222E+01  0.14613718142E+04  0.14614227462E+04  0.10000000000E+02 0. -1.
</event>
<event>
 5    1  0.1640179E-008  0.3796499E+03  0.7957747E-01  0.3452684E+00
         13   -1    0    0    0    0  0.00000000000E+00  0.00000000000E+00  0.14999999963E+04  0.15000000000E+04  0.10566000000E+00 0. -1.
        994   -1    0    0    0    0 -0.00000000000E+00 -0.00000000000E+00  0.11368683772E-12  0.17120000000E+03  0.17120000000E+03 0.  0.
         13    1    1    2    0    0 -0.17523351933E+02 -0.13391868069E+02  0.54425336160E+02  0.58724257113E+02  0.10566000000E+00 0. -1.
        994    1    1    2    0    0  0.15695784479E+02  0.61242023891E+01  0.52605847093E+01  0.17210745846E+03  0.17120000000E+03 0.  0.
        998    1    1    2    0    0  0.18275674539E+01  0.72676656795E+01  0.14403140754E+04  0.14403682844E+04  0.10000000000E+02 0. -1.
</event>
<event>
 5    1  0.1640179E-008  0.3800029E+03  0.7957747E-01  0.3451146E+00
         13   -1    0    0    0    0  0.00000000000E+00  0.00000000000E+00  0.14999999963E+04  0.15000000000E+04  0.10566000000E+00 0. -1.
        994   -1    0    0    0    0 -0.00000000000E+00 -0.00000000000E+00  0.11368683772E-12  0.17120000000E+03  0.17120000000E+03 0.  0.
         13    1    1    2    0    0  0.92183962604E+01 -0.11301597546E+02  0.23713558425E+02  0.27839701038E+02  0.10566000000E+00 0. -1.
        994    1    1    2    0    0 -0.86643225484E+01  0.12453537037E+02  0.49014358869E+01  0.17194076057E+03  0.17120000000E+03 0.  0.
        998    1    1    2    0    0 -0.55407371200E+00 -0.11519394910E+01  0.14713850020E+04  0.14714195384E+04  0.10000000000E+02 0. -1.
</event>
<event>
 5    1  0.1640179E-008  0.3842316E+03  0.7957747E-01  0.3432938E+00
         13   -1    0    0    0    0  0.00000000000E+00  0.00000000000E+00  0.14999999963E+04  0.15000000000E+04  0.10566000000E+00 0. -1.
        994   -1    0    0    0    0 -0.00000000000E+00 -0.00000000000E+00  0.11368683772E-12  0.17120000000E+03  0.17120000000E+03 0.  0.
         13    1    1    2    0    0 -0.91141298036E+01  0.12612693496E+02  0.67064981522E+02  0.68846716043E+02  0.10566000000E+00 0. -1.
        994    1    1    2    0    0 -0.10518006067E+02  0.34660675265E+01  0.24165630632E+01  0.17157482873E+03  0.17120000000E+03 0.  0.
        998    1    1    2    0    0  0.19632135870E+02 -0.16078761023E+02  0.14305184517E+04  0.14307784552E+04  0.10000000000E+02 0. -1.
</event>
<event>
 5    1  0.1640179E-008  0.3843331E+03  0.7957747E-01  0.3432506E+00
         13   -1    0    0    0    0  0.00000000000E+00  0.00000000000E+00  0.14999999963E+04  0.15000000000E+04  0.10566000000E+00 0. -1.
        994   -1    0    0    0    0 -0.00000000000E+00 -0.00000000000E+00  0.11368683772E-12  0.17120000000E+03  0.17120000000E+03 0.  0.
         13    1    1    2    0    0 -0.95365194306E+01 -0.77775620065E+01  0.39583202677E+02  0.41452102140E+02  0.10566000000E+00 0. -1.
        994    1    1    2    0    0  0.94595620120E+01 -0.10510919527E+02  0.26209089165E+01  0.17180300319E+03  0.17120000000E+03 0.  0.
        998    1    1    2    0    0  0.76957418620E-01  0.18288481534E+02  0.14577958847E+04  0.14579448947E+04  0.10000000000E+02 0. -1.
</event>
<event>
 5    1  0.1640179E-008  0.3858452E+03  0.7957747E-01  0.3426095E+00
         13   -1    0    0    0    0  0.00000000000E+00  0.00000000000E+00  0.14999999963E+04  0.15000000000E+04  0.10566000000E+00 0.  1.
        994   -1    0    0    0    0 -0.00000000000E+00 -0.00000000000E+00  0.11368683772E-12  0.17120000000E+03  0.17120000000E+03 0.  0.
         13    1    1    2    0    0 -0.55895411203E+02 -0.20643967498E+03  0.12004106314E+04  0.12193142874E+04  0.10566000000E+00 0.  1.
        994    1    1    2    0    0  0.64977107097E+02  0.21137401826E+03  0.18255535397E+03  0.33397140193E+03  0.17120000000E+03 0.  0.
        998    1    1    2    0    0 -0.90816958936E+01 -0.49343432861E+01  0.11703401093E+03  0.11791431066E+03  0.10000000000E+02 0. -1.
</event>
<event>
 5    1  0.1640179E-008  0.3840392E+03  0.7957747E-01  0.3433757E+00
         13   -1    0    0    0    0  0.00000000000E+00  0.00000000000E+00  0.14999999963E+04  0.15000000000E+04  0.10566000000E+00 0. -1.
        994   -1    0    0    0    0 -0.00000000000E+00 -0.00000000000E+00  0.11368683772E-12  0.17120000000E+03  0.17120000000E+03 0.  0.
         13    1    1    2    0    0 -0.77059604890E+01  0.20793159156E+02  0.10760132117E+03  0.10986260864E+03  0.10566000000E+00 0. -1.
        994    1    1    2    0    0  0.17323666465E+02 -0.19925523675E+02  0.44111160125E+01  0.17328021773E+03  0.17120000000E+03 0.  0.
        998    1    1    2    0    0 -0.96177059760E+01 -0.86763548103E+00  0.13879875591E+04  0.13880571736E+04  0.10000000000E+02 0. -1.
</event>
<event>
 5    1  0.1640179E-008  0.3743554E+03  0.7957747E-01  0.3476111E+00
         13   -1    0    0    0    0  0.00000000000E+00  0.00000000000E+00  0.14999999963E+04  0.15000000000E+04  0.10566000000E+00 0. -1.
        994   -1    0    0    0    0 -0.00000000000E+00 -0.00000000000E+00  0.11368683772E-12  0.17120000000E+03  0.17120000000E+03 0.  0.
         13    1    1    2    0    0 -0.11788265482E+02  0.17424292333E+02  0.10845053082E+02  0.23668449606E+02  0.10566000000E+00 0. -1.
        994    1    1    2    0    0  0.11614638407E+02 -0.13439844615E+02  0.14381528219E+02  0.17271883974E+03  0.17120000000E+03 0.  0.
        998    1    1    2    0    0  0.17362707544E+00 -0.39844477180E+01  0.14747734150E+04  0.14748127106E+04  0.10000000000E+02 0. -1.
</event>
<event>
 5    1  0.1640179E-008  0.3856063E+03  0.7957747E-01  0.3427105E+00
         13   -1    0    0    0    0  0.00000000000E+00  0.00000000000E+00  0.14999999963E+04  0.15000000000E+04  0.10566000000E+00 0. -1.
        994   -1    0    0    0    0 -0.00000000000E+00 -0.00000000000E+00  0.11368683772E-12  0.17120000000E+03  0.17120000000E+03 0.  0.
         13    1    1    2    0    0 -0.11663089526E+02  0.81450344220E+01  0.72826395317E+02  0.74202858853E+02  0.10566000000E+00 0. -1.
        994    1    1    2    0    0  0.16610432435E+02 -0.46636462274E+01  0.23069833246E+01  0.17208259132E+03  0.17120000000E+03 0.  0.
        998    1    1    2    0    0 -0.49473429098E+01 -0.34813881946E+01  0.14248666176E+04  0.14249145498E+04  0.10000000000E+02 0. -1.
</event>
<event>
 5    1  0.1640179E-008  0.3759249E+03  0.7957747E-01  0.3469096E+00
         13   -1    0    0    0    0  0.00000000000E+00  0.00000000000E+00  0.14999999963E+04  0.15000000000E+04  0.10566000000E+00 0.  1.
        994   -1    0    0    0    0 -0.00000000000E+00 -0.00000000000E+00  0.11368683772E-12  0.17120000000E+03  0.17120000000E+03 0.  0.
         13    1    1    2    0    0 -0.37302749253E+01  0.13775970217E+02  0.13583295273E+02  0.19703029740E+02  0.10566000000E+00 0.  1.
        994    1    1    2    0    0  0.56915050074E+01 -0.12261960901E+02  0.68240249247E+01  0.17186842709E+03  0.17120000000E+03 0.  0.
        998    1    1    2    0    0 -0.19612300821E+01 -0.15140093159E+01  0.14795926761E+04  0.14796285432E+04  0.10000000000E+02 0.  1.
</event>
<event>
 5    1  0.1640179E-008  0.3845318E+03  0.7957747E-01  0.3431661E+00
         13   -1    0    0    0    0  0.00000000000E+00  0.00000000000E+00  0.14999999963E+04  0.15000000000E+04  0.10566000000E+00 0. -1.
        994   -1    0    0    0    0 -0.00000000000E+00 -0.00000000000E+00  0.11368683772E-12  0.17120000000E+03  0.17120000000E+03 0.  0.
         13    1    1    2    0    0 -0.12074252873E+01  0.15636284482E+02  0.70183185668E+02  0.71914129229E+02  0.10566000000E+00 0. -1.
        994    1    1    2    0    0  0.21787357739E+01  0.21658394800E+00  0.18785848418E+01  0.17122430575E+03  0.17120000000E+03 0.  0.
        998    1    1    2    0    0 -0.97131048666E+00 -0.15852868430E+02  0.14279382258E+04  0.14280615650E+04  0.10000000000E+02 0. -1.
</event>
<event>
 5    1  0.1640179E-008  0.3846142E+03  0.7957747E-01  0.3431310E+00
         13   -1    0    0    0    0  0.00000000000E+00  0.00000000000E+00  0.14999999963E+04  0.15000000000E+04  0.10566000000E+00 0. -1.
        994   -1    0    0    0    0 -0.00000000000E+00 -0.00000000000E+00  0.11368683772E-12  0.17120000000E+03  0.17120000000E+03 0.  0.
         13    1    1    2    0    0  0.18596331920E+02  0.58037528710E+01  0.11534877963E+03  0.11698230308E+03  0.10566000000E+00 0. -1.
        994    1    1    2    0    0  0.43719465575E+01 -0.14030702663E+02  0.25332859287E+01  0.17184828213E+03  0.17120000000E+03 0.  0.
        998    1    1    2    0    0 -0.22968278477E+02  0.82269497921E+01  0.13821179307E+04  0.13823694148E+04  0.10000000000E+02 0. -1.
</event>
<event>
 5    1  0.1640179E-008  0.3725681E+03  0.7957747E-01  0.3484171E+00
         13   -1    0    0    0    0  0.00000000000E+00  0.00000000000E+00  0.14999999963E+04  0.15000000000E+04  0.10566000000E+00 0. -1.
        994   -1    0    0    0    0 -0.00000000000E+00 -0.00000000000E+00  0.11368683772E-12  0.17120000000E+03  0.17120000000E+03 0.  0.
         13    1    1    2    0    0 -0.11115669898E+03 -0.16787198454E+02  0.64395649904E+03  0.65369534615E+03  0.10566000000E+00 0. -1.
        994    1    1    2    0    0  0.86764594962E+02 -0.49183661563E+01  0.34278078501E+02  0.19503002828E+03  0.17120000000E+03 0.  0.
        998    1    1    2    0    0  0.24392104020E+02  0.21705564610E+02  0.82176541874E+03  0.82247462557E+03  0.10000000000E+02 0.  0.
</event>
<event>
 5    1  0.1640179E-008  0.3703806E+03  0.7957747E-01  0.3494144E+00
         13   -1    0    0    0    0  0.00000000000E+00  0.00000000000E+00  0.14999999963E+04  0.15000000000E+04  0.10566000000E+00 0. -1.
        994   -1    0    0    0    0 -0.00000000000E+00 -0.00000000000E+00  0.11368683772E-12  0.17120000000E+03  0.17120000000E+03 0.  0.
         13    1    1    2    0    0  0.90160978905E+02  0.10663092290E+03  0.45928560220E+03  0.48004419732E+03  0.10566000000E+00 0. -1.
        994    1    1    2    0    0 -0.10100225941E+03 -0.15611898965E+03  0.13994879835E+03  0.28891123463E+03  0.17120000000E+03 0.  0.
        998    1    1    2    0    0  0.10841280501E+02  0.49488066748E+02  0.90076559573E+03  0.90224456805E+03  0.10000000000E+02 0. -1.
</event>
<event>
 5    1  0.1640179E-008  0.3834935E+03  0.7957747E-01  0.3436087E+00
         13   -1    0    0    0    0  0.00000000000E+00  0.00000000000E+00  0.14999999963E+04  0.15000000000E+04  0.10566000000E+00 0. -1.
        994   -1    0    0    0    0 -0.00000000000E+00 -0.00000000000E+00  0.11368683772E-12  0.17120000000E+03  0.17120000000E+03 0.  0.
         13    1    1    2    0    0 -0.76875489644E+01 -0.14968315418E+02  0.62928385653E+02  0.65139402518E+02  0.10566000000E+00 0. -1.
        994    1    1    2    0    0 -0.49710250763E+01  0.77121173114E+00  0.24635611009E+01  0.17129160806E+03  0.17120000000E+03 0.  0.
        998    1    1    2    0    0  0.12658574041E+02  0.14197103687E+02  0.14346080495E+04  0.14347689894E+04  0.10000000000E+02 0. -1.
</event>
<event>
 5    1  0.1640179E-008  0.3939252E+03  0.7957747E-01  0.3392680E+00
         13   -1    0    0    0    0  0.00000000000E+00  0.00000000000E+00  0.14999999963E+04  0.15000000000E+04  0.10566000000E+00 0.  1.
        994   -1    0    0    0    0 -0.00000000000E+00 -0.00000000000E+00  0.11368683772E-12  0.17120000000E+03  0.17120000000E+03 0.  0.
         13    1    1    2    0    0 -0.82954611525E+02 -0.32910153250E+02  0.15535427430E+03  0.17916335414E+03  0.10566000000E+00 0.  1.
        994    1    1    2    0    0  0.17075350340E+02  0.12205563429E+03  0.84910965192E+02  0.22739493719E+03  0.17120000000E+03 0.  0.
        998    1    1    2    0    0  0.65879261184E+02 -0.89145481036E+02  0.12597347568E+04  0.12646417087E+04  0.10000000000E+02 0.  1.
</event>
<event>
 5    1  0.1640179E-008  0.3966424E+03  0.7957747E-01  0.3381748E+00
         13   -1    0    0    0    0  0.00000000000E+00  0.00000000000E+00  0.14999999963E+04  0.15000000000E+04  0.10566000000E+00 0.  1.
        994   -1    0    0    0    0 -0.00000000000E+00 -0.00000000000E+00  0.11368683772E-12  0.17120000000E+03  0.17120000000E+03 0.  0.
         13    1    1    2    0    0 -0.44440840759E+02  0.20932079024E+02  0.37770870008E+02  0.61966039447E+02  0.10566000000E+00 0.  1.
        994    1    1    2    0    0  0.56444478415E+02  0.59012913261E+02  0.52031367898E+02  0.19668555189E+03  0.17120000000E+03 0.  0.
        998    1    1    2    0    0 -0.12003637657E+02 -0.79944992284E+02  0.14101977584E+04  0.14125484087E+04  0.10000000000E+02 0.  1.
</event>
<event>
 5    1  0.1640179E-008  0.3734370E+03  0.7957747E-01  0.3480243E+00
         13   -1    0    0    0    0  0.00000000000E+00  0.00000000000E+00  0.14999999963E+04  0.15000000000E+04  0.10566000000E+00 0.  1.
        994   -1    0    0    0    0 -0.00000000000E+00 -0.00000000000E+00  0.11368683772E-12  0.17120000000E+03  0.17120000000E+03 0.  0.
         13    1    1    2    0    0  0.13967181339E+02  0.73815814665E+01  0.13280183857E+02  0.20638419194E+02  0.10566000000E+00 0.  1.
        994    1    1    2    0    0 -0.12713861136E+02 -0.67594272385E+01  0.81923830223E+01  0.17199967227E+03  0.17120000000E+03 0.  0.
        998    1    1    2    0    0 -0.12533202027E+01 -0.62215422808E+00  0.14785274294E+04  0.14785619085E+04  0.10000000000E+02 0.  1.
</event>
<event>
 5    1  0.1640179E-008  0.3780819E+03  0.7957747E-01  0.3459553E+00
         13   -1    0    0    0    0  0.00000000000E+00  0.00000000000E+00  0.14999999963E+04  0.15000000000E+04  0.10566000000E+00 0. -1.
        994   -1    0    0    0    0 -0.00000000000E+00 -0.00000000000E+00  0.11368683772E-12  0.17120000000E+03  0.17120000000E+03 0.  0.
         13    1    1    2    0    0  0.19384550011E+02  0.30070765959E+02  0.12821102952E+03  0.13310931973E+03  0.10566000000E+00 0. -1.
        994    1    1    2    0    0  0.13681241816E+02 -0.26731552261E+02  0.81442311173E+01  0.17400436996E+03  0.17120000000E+03 0.  0.
        998    1    1    2    0    0 -0.33065791827E+02 -0.33392136981E+01  0.13636447356E+04  0.13640863103E+04  0.10000000000E+02 0. -1.
</event>
<event>
 5    1  0.1640179E-008  0.3851286E+03  0.7957747E-01  0.3429127E+00
         13   -1    0    0    0    0  0.00000000000E+00  0.00000000000E+00  0.14999999963E+04  0.15000000000E+04  0.10566000000E+00 0. -1.
        994   -1    0    0    0    0 -0.00000000000E+00 -0.00000000000E+00  0.11368683772E-12  0.17120000000E+03  0.17120000000E+03 0.  0.
         13    1    1    2    0    0  0.37753144856E+01  0.10434722800E+02  0.40386178273E+02  0.41883063390E+02  0.10566000000E+00 0. -1.
        994    1    1    2    0    0  0.50904325556E+01 -0.38683774640E+01  0.17007020696E+01  0.17132778302E+03  0.17120000000E+03 0.  0.
        998    1    1    2    0    0 -0.88657470412E+01 -0.65663453360E+01  0.14579131159E+04  0.14579891536E+04  0.10000000000E+02 0. -1.
</event>
<event>
 5    1  0.1640179E-008  0.3843587E+03  0.7957747E-01  0.3432397E+00
         13   -1    0    0    0    0  0.00000000000E+00  0.00000000000E+00  0.14999999963E+04  0.15000000000E+04  0.10566000000E+00 0. -1.
        994   -1    0    0    0    0 -0.00000000000E+00 -0.00000000000E+00  0.11368683772E-12  0.17120000000E+03  0.17120000000E+03 0.  0.
         13    1    1    2    0    0 -0.48669365854E+01  0.12747720891E+02  0.49359592945E+02  0.51211053879E+02  0.10566000000E+00 0. -1.
        994    1    1    2    0    0  0.29193468731E+00 -0.13042632502E+01  0.19547658195E+01  0.17121637608E+03  0.17120000000E+03 0.  0.
        998    1    1    2    0    0  0.45750018981E+01 -0.11443457640E+02  0.14486856375E+04  0.14487725700E+04  0.10000000000E+02 0. -1.
</event>
<event>
 5    1  0.1640179E-008  0.4086501E+03  0.7957747E-01  0.3335171E+00
         13   -1    0    0    0    0  0.00000000000E+00  0.00000000000E+00  0.14999999963E+04  0.15000000000E+04  0.10566000000E+00 0.  1.
        994   -1    0    0    0    0 -0.00000000000E+00 -0.00000000000E+00  0.11368683772E-12  0.17120000000E+03  0.17120000000E+03 0.  0.
         13    1    1    2    0    0  0.83630972010E+02 -0.20608297042E+02  0.82662850281E+02  0.11938173800E+03  0.10566000000E+00 0.  1.
        994    1    1    2    0    0 -0.13714013418E+03 -0.14921465366E+02  0.11549045138E+03  0.24834965450E+03  0.17120000000E+03 0.  0.
        998    1    1    2    0    0  0.53509162169E+02  0.35529762408E+02  0.13018466946E+04  0.13034686075E+04  0.10000000000E+02 0.  1.
</event>
<event>
 5    1  0.1640179E-008  0.3854874E+03  0.7957747E-01  0.3427608E+00
         13   -1    0    0    0    0  0.00000000000E+00  0.00000000000E+00  0.14999999963E+04  0.15000000000E+04  0.10566000000E+00 0.  1.
        994   -1    0    0    0    0 -0.00000000000E+00 -0.00000000000E+00  0.11368683772E-12  0.17120000000E+03  0.17120000000E+03 0.  0.
         13    1    1    2    0    0 -0.54286322465E+01  0.10568429578E+02  0.53458280894E+02  0.54762767571E+02  0.10566000000E+00 0.  1.
        994    1    1    2    0    0  0.17083570240E+01  0.16140549382E+00  0.13980083333E+01  0.17121430712E+03  0.17120000000E+03 0.  0.
        998    1    1    2    0    0  0.37202752225E+01 -0.10729835072E+02  0.14451437071E+04  0.14452229253E+04  0.10000000000E+02 0.  1.
</event>
<event>
 5    1  0.1640179E-008  0.3726530E+03  0.7957747E-01  0.3483786E+00
         13   -1    0    0    0    0  0.00000000000E+00  0.00000000000E+00  0.14999999963E+04  0.15000000000E+04  0.10566000000E+00 0.  1.
        994   -1    0    0    0    0 -0.00000000000E+00 -0.00000000000E+00  0.11368683772E-12  0.17120000000E+03  0.17120000000E+03 0.  0.
         13    1    1    2    0    0  0.13059289074E+02 -0.54162359349E+02  0.25441077080E+03  0.26043993101E+03  0.10566000000E+00 0.  1.
        994    1    1    2    0    0  0.29661818422E+02 -0.49129968283E+00  0.10910261174E+02  0.17409347675E+03  0.17120000000E+03 0.  0.
        998    1    1    2    0    0 -0.42721107495E+02  0.54653659032E+02  0.12346789643E+04  0.12366665922E+04  0.10000000000E+02 0.  1.
</event>
<event>
 5    1  0.1640179E-008  0.3740584E+03  0.7957747E-01  0.3477445E+00
         13   -1    0    0    0    0  0.00000000000E+00  0.00000000000E+00  0.14999999963E+04  0.15000000000E+04  0.10566000000E+00 0. -1.
        994   -1    0    0    0    0 -0.00000000000E+00 -0.00000000000E+00  0.11368683772E-12  0.17120000000E+03  0.17120000000E+03 0.  0.
         13    1    1    2    0    0  0.81146730200E+02  0.31708856468E+02  0.43866526360E+03  0.44723312495E+03  0.10566000000E+00 0. -1.
        994    1    1    2    0    0 -0.62217284709E+02 -0.34077619926E+02  0.24522171153E+02  0.18693060631E+03  0.17120000000E+03 0.  0.
        998    1    1    2    0    0 -0.18929445491E+02  0.23687634576E+01  0.10368125615E+04  0.10370362687E+04  0.10000000000E+02 0. -1.
</event>
<event>
 5    1  0.1640179E-008  0.3798368E+03  0.7957747E-01  0.3451869E+00
         13   -1    0    0    0    0  0.00000000000E+00  0.00000000000E+00  0.14999999963E+04  0.15000000000E+04  0.10566000000E+00 0. -1.
        994   -1    0    0    0    0 -0.00000000000E+00 -0.00000000000E+00  0.11368683772E-12  0.17120000000E+03  0.17120000000E+03 0.  0.
         13    1    1    2    0    0  0.38030180792E+01  0.31899766547E+02  0.13528540133E+03  0.13904750638E+03  0.10566000000E+00 0. -1.
        994    1    1    2    0    0  0.77885050746E+01 -0.16140193823E+01  0.44271681183E+01  0.17144184346E+03  0.17120000000E+03 0.  0.
        998    1    1    2    0    0 -0.11591523154E+02 -0.30285747164E+02  0.13602874268E+04  0.13607106502E+04  0.10000000000E+02 0. -1.
</event>
<event>
 5    1  0.1640179E-008  0.3842391E+03  0.7957747E-01  0.3432906E+00
         13   -1    0    0    0    0  0.00000000000E+00  0.00000000000E+00  0.14999999963E+04  0.15000000000E+04  0.10566000000E+00 0.  1.
        994   -1    0    0    0    0 -0.00000000000E+00 -0.00000000000E+00  0.11368683772E-12  0.17120000000E+03  0.17120000000E+03 0.  0.
         13    1    1    2    0    0 -0.98851722598E+01  0.48294825263E+01  0.30798457993E+02  0.32704689432E+02  0.10566000000E+00 0.  1.
        994    1    1    2    0    0 -0.25233656249E+01 -0.60022287120E+00  0.20305594803E+01  0.17123168753E+03  0.17120000000E+03 0.  0.
        998    1    1    2    0    0  0.12408537885E+02 -0.42292596551E+01  0.14671709788E+04  0.14672636230E+04  0.10000000000E+02 0.  1.
</event>
<event>
 5    1  0.1640179E-008  0.3757033E+03  0.7957747E-01  0.3470083E+00
         13   -1    0    0    0    0  0.00000000000E+00  0.00000000000E+00  0.14999999963E+04  0.15000000000E+04  0.10566000000E+00 0. -1.
        994   -1    0    0    0    0 -0.00000000000E+00 -0.00000000000E+00  0.11368683772E-12  0.17120000000E+03  0.17120000000E+03 0.  0.
         13    1    1    2    0    0 -0.47629092336E+02  0.62446061896E+02  0.47235090169E+03  0.47883549009E+03  0.10566000000E+00 0. -1.
        994    1    1    2    0    0  0.46110155834E+02 -0.26189737003E+02  0.15914407423E+02  0.17992986733E+03  0.17120000000E+03 0.  0.
        998    1    1    2    0    0  0.15189365025E+01 -0.36256324892E+02  0.10117346872E+04  0.10124346426E+04  0.10000000000E+02 0. -1.
</event>
<event>
 5    1  0.1640179E-008  0.3226551E+03  0.7957747E-01  0.3746477E+00
         13   -1    0    0    0    0  0.00000000000E+00  0.00000000000E+00  0.14999999963E+04  0.15000000000E+04  0.10566000000E+00 0. -1.
        994   -1    0    0    0    0 -0.00000000000E+00 -0.00000000000E+00  0.11368683772E-12  0.17120000000E+03  0.17120000000E+03 0.  0.
         13    1    1    2    0    0 -0.18778677076E+02 -0.27248439571E+03  0.46594577755E+03  0.54009801277E+03  0.10566000000E+00 0. -1.
        994    1    1    2    0    0  0.14906512037E+02  0.27260316491E+03  0.48712442290E+03  0.58406706208E+03  0.17120000000E+03 0.  0.
        998    1    1    2    0    0  0.38721650395E+01 -0.11876919389E+00  0.54692979582E+03  0.54703492514E+03  0.10000000000E+02 0.  0.
</event>
<event>
 5    1  0.1640179E-008  0.3748455E+03  0.7957747E-01  0.3473914E+00
         13   -1    0    0    0    0  0.00000000000E+00  0.00000000000E+00  0.14999999963E+04  0.15000000000E+04  0.10566000000E+00 0. -1.
        994   -1    0    0    0    0 -0.00000000000E+00 -0.00000000000E+00  0.11368683772E-12  0.17120000000E+03  0.17120000000E+03 0.  0.
         13    1    1    2    0    0  0.36358768879E+02 -0.25012175659E+02  0.12430267518E+03  0.13190426538E+03  0.10566000000E+00 0. -1.
        994    1    1    2    0    0 -0.39407473599E+02  0.39617445811E+02  0.17452727728E+02  0.18093238708E+03  0.17120000000E+03 0.  0.
        998    1    1    2    0    0  0.30487047203E+01 -0.14605270152E+02  0.13582445934E+04  0.13583633475E+04  0.10000000000E+02 0. -1.
</event>
<event>
 5    1  0.1640179E-008  0.3822071E+03  0.7957747E-01  0.3441604E+00
         13   -1    0    0    0    0  0.00000000000E+00  0.00000000000E+00  0.14999999963E+04  0.15000000000E+04  0.10566000000E+00 0.  1.
        994   -1    0    0    0    0 -0.00000000000E+00 -0.00000000000E+00  0.11368683772E-12  0.17120000000E+03  0.17120000000E+03 0.  0.
         13    1    1    2    0    0  0.15452845121E+01  0.21416795967E+02  0.71378585370E+02  0.74538450931E+02  0.10566000000E+00 0.  1.
        994    1    1    2    0    0 -0.21433099840E+01 -0.24232078346E+02  0.49895776292E+01  0.17299168559E+03  0.17120000000E+03 0.  0.
        998    1    1    2    0    0  0.59802547187E+00  0.28152823795E+01  0.14236318333E+04  0.14236698635E+04  0.10000000000E+02 0.  1.
</event>
<event>
 5    1  0.1640179E-008  0.3693114E+03  0.7957747E-01  0.3499061E+00
         13   -1    0    0    0    0  0.00000000000E+00  0.00000000000E+00  0.14999999963E+04  0.15000000000E+04  0.10566000000E+00 0.  1.
        994   -1    0    0    0    0 -0.00000000000E+00 -0.00000000000E+00  0.11368683772E-12  0.17120000000E+03  0.17120000000E+03 0.  0.
         13    1    1    2    0    0  0.67150200684E+02  0.35339508845E+01  0.20361458002E+03  0.21443075018E+03  0.10566000000E+00 0.  1.
        994    1    1    2    0    0 -0.46429776741E+02 -0.18899812522E+01  0.18144038498E+02  0.17831977549E+03  0.17120000000E+03 0.  0.
        998    1    1    2    0    0 -0.20720423943E+02 -0.16439696324E+01  0.12782413778E+04  0.12784494743E+04  0.10000000000E+02 0.  1.
</event>
<event>
 5    1  0.1640179E-008  0.3777283E+03  0.7957747E-01  0.3461110E+00
         13   -1    0    0    0    0  0.00000000000E+00  0.00000000000E+00  0.14999999963E+04  0.15000000000E+04  0.10566000000E+00 0. -1.
        994   -1    0    0    0    0 -0.00000000000E+00 -0.00000000000E+00  0.11368683772E-12  0.17120000000E+03  0.17120000000E+03 0.  0.
         13    1    1    2    0    0 -0.32624872376E+02 -0.22012603522E+02  0.15543747318E+03  0.16034262143E+03  0.10566000000E+00 0. -1.
        994    1    1    2    0    0  0.15315976596E+02 -0.29256223639E+01  0.61036458354E+01  0.17201695526E+03  0.17120000000E+03 0.  0.
        998    1    1    2    0    0  0.17308895780E+02  0.24938225886E+02  0.13384588773E+04  0.13388404233E+04  0.10000000000E+02 0. -1.
</event>
<event>
 5    1  0.1640179E-008  0.3875223E+03  0.7957747E-01  0.3419045E+00
         13   -1    0    0    0    0  0.00000000000E+00  0.00000000000E+00  0.14999999963E+04  0.15000000000E+04  0.10566000000E+00 0.  1.
        994   -1    0    0    0    0 -0.00000000000E+00 -0.00000000000E+00  0.11368683772E-12  0.17120000000E+03  0.17120000000E+03 0.  0.
         13    1    1    2    0    0  0.63656012751E+02 -0.52569909338E+02  0.13907548951E+03  0.16173338021E+03  0.10566000000E+00 0.  1.
        994    1    1    2    0    0 -0.78288876160E+02  0.52627604865E+02  0.54504067119E+02  0.20292596250E+03  0.17120000000E+03 0.  0.
        998    1    1    2    0    0  0.14632863408E+02 -0.57695526388E-01  0.13064204397E+04  0.13065406573E+04  0.10000000000E+02 0.  1.
</event>
<event>
 5    1  0.1640179E-008  0.3856349E+03  0.7957747E-01  0.3426984E+00
         13   -1    0    0    0    0  0.00000000000E+00  0.00000000000E+00  0.14999999963E+04  0.15000000000E+04  0.10566000000E+00 0. -1.
        994   -1    0    0    0    0 -0.00000000000E+00 -0.00000000000E+00  0.11368683772E-12  0.17120000000E+03  0.17120000000E+03 0.  0.
         13    1    1    2    0    0  0.84424705318E+01  0.88861587369E+01  0.57895171968E+02  0.59178553776E+02  0.10566000000E+00 0. -1.
        994    1    1    2    0    0 -0.68150321128E+01 -0.33565233645E+01  0.15046880108E+01  0.17137507111E+03  0.17120000000E+03 0.  0.
        998    1    1    2    0    0 -0.16274384189E+01 -0.55296353724E+01  0.14406001363E+04  0.14406463751E+04  0.10000000000E+02 0. -1.
</event>
<event>
 5    1  0.1640179E-008  0.3830809E+03  0.7957747E-01  0.3437852E+00
         13   -1    0    0    0    0  0.00000000000E+00  0.00000000000E+00  0.14999999963E+04  0.15000000000E+04  0.10566000000E+00 0.  1.
        994   -1    0    0    0    0 -0.00000000000E+00 -0.00000000000E+00  0.11368683772E-12  0.17120000000E+03  0.17120000000E+03 0.  0.
         13    1    1    2    0    0 -0.16242794769E+02 -0.15870686682E+00  0.52169100725E+02  0.54639544327E+02  0.10566000000E+00 0.  1.
        994    1    1    2    0    0  0.26348965194E+01  0.42863813043E+01  0.26697222842E+01  0.17129472602E+03  0.17120000000E+03 0.  0.
        998    1    1    2    0    0  0.13607898249E+02 -0.41276744375E+01  0.14451611733E+04  0.14452657297E+04  0.10000000000E+02 0.  1.
</event>
